Written by MDAnalysis
 9600
    1DPPC   NC3    1  19.509   3.171  15.069
    1DPPC   PO4    2  19.199   2.961  15.149
    1DPPC   GL1    3  18.889   2.971  14.949
    1DPPC   GL2    4  18.709   3.051  15.279
    1DPPC   C1A    5  18.509   2.981  14.839
    1DPPC   C2A    6  18.189   3.091  14.569
    1DPPC   C3A    7  17.789   3.071  14.229
    1DPPC   C4A    8  17.489   3.091  13.809
    1DPPC   C1B    9  18.309   3.111  15.239
    1DPPC   C2B   10  18.009   3.191  15.019
    1DPPC   C3B   11  17.689   3.291  14.639
    1DPPC   C4B   12  17.319   3.251  14.339
    2DPPC   NC3   13  20.409   1.231  12.359
    2DPPC   PO4   14  20.239   1.471  12.609
    2DPPC   GL1   15  19.819   1.511  12.549
    2DPPC   GL2   16  19.929   1.831  12.499
    2DPPC   C1A   17  19.459   1.601  12.449
    2DPPC   C2A   18  19.199   1.621  12.129
    2DPPC   C3A   19  18.799   1.701  11.889
    2DPPC   C4A   20  18.559   1.721  11.459
    2DPPC   C1B   21  19.759   1.921  12.159
    2DPPC   C2B   22  19.479   1.951  11.809
    2DPPC   C3B   23  19.109   1.971  11.509
    2DPPC   C4B   24  18.759   2.051  11.139
    3DPPC   NC3   25  20.149   1.471  13.459
    3DPPC   PO4   26  20.289   1.121  13.259
    3DPPC   GL1   27  19.949   0.891  13.099
    3DPPC   GL2   28  19.979   0.991  12.849
    3DPPC   C1A   29  19.609   0.791  13.039
    3DPPC   C2A   30  19.299   0.781  12.769
    3DPPC   C3A   31  18.969   0.861  12.479
    3DPPC   C4A   32  18.699   0.901  12.099
    3DPPC   C1B   33  19.739   1.041  12.549
    3DPPC   C2B   34  19.469   1.141  12.249
    3DPPC   C3B   35  19.099   1.181  11.949
    3DPPC   C4B   36  18.749   1.231  11.609
    4DPPC   NC3   37  18.709   4.903  16.329
    4DPPC   PO4   38  18.449   5.193  16.289
    4DPPC   GL1   39  18.329   5.493  16.009
    4DPPC   GL2   40  18.319   5.773  16.099
    4DPPC   C1A   41  18.019   5.443  15.779
    4DPPC   C2A   42  17.679   5.393  15.579
    4DPPC   C3A   43  17.349   5.453  15.259
    4DPPC   C4A   44  16.929   5.443  15.009
    4DPPC   C1B   45  17.989   5.873  15.919
    4DPPC   C2B   46  17.659   5.883  15.679
    4DPPC   C3B   47  17.329   6.043  15.409
    4DPPC   C4B   48  17.009   5.933  15.069
    5DPPC   NC3   49  19.299   0.661  14.989
    5DPPC   PO4   50  19.309   0.291  15.189
    5DPPC   GL1   51  18.939   0.281  15.119
    5DPPC   GL2   52  18.789   0.071  15.119
    5DPPC   C1A   53  18.859   0.411  14.809
    5DPPC   C2A   54  18.669   0.541  14.459
    5DPPC   C3A   55  18.359   0.621  14.119
    5DPPC   C4A   56  17.979   0.651  13.719
    5DPPC   C1B   57  18.489   0.211  14.909
    5DPPC   C2B   58  18.239   0.231  14.589
    5DPPC   C3B   59  17.979   0.331  14.189
    5DPPC   C4B   60  17.599   0.231  13.889
    6DPPC   NC3   61  19.899   0.921  14.439
    6DPPC   PO4   62  19.669   0.901  14.779
    6DPPC   GL1   63  19.329   0.961  14.459
    6DPPC   GL2   64  19.189   1.011  14.719
    6DPPC   C1A   65  19.099   1.231  14.299
    6DPPC   C2A   66  18.829   1.371  14.109
    6DPPC   C3A   67  18.459   1.371  13.839
    6DPPC   C4A   68  18.099   1.431  13.489
    6DPPC   C1B   69  18.829   1.031  14.679
    6DPPC   C2B   70  18.509   1.041  14.409
    6DPPC   C3B   71  18.179   1.061  14.049
    6DPPC   C4B   72  17.829   1.111  13.779
    7DPPC   NC3   73  19.699   6.193  15.269
    7DPPC   PO4   74  19.459   6.093  15.569
    7DPPC   GL1   75  19.059   6.113  15.389
    7DPPC   GL2   76  18.979   5.883  15.519
    7DPPC   C1A   77  18.859   6.193  15.109
    7DPPC   C2A   78  18.629   6.393  14.809
    7DPPC   C3A   79  18.359   6.393  14.409
    7DPPC   C4A   80  17.919   6.363  14.129
    7DPPC   C1B   81  18.599   5.783  15.469
    7DPPC   C2B   82  18.199   5.793  15.489
    7DPPC   C3B   83  17.829   5.793  15.229
    7DPPC   C4B   84  17.499   5.763  14.909
    8DPPC   NC3   85  21.099   4.303  11.229
    8DPPC   PO4   86  20.959   3.931  11.349
    8DPPC   GL1   87  20.809   3.751  10.949
    8DPPC   GL2   88  20.739   3.631  11.189
    8DPPC   C1A   89  20.549   3.721  10.719
    8DPPC   C2A   90  20.239   3.681  10.419
    8DPPC   C3A   91  19.929   3.711  10.129
    8DPPC   C4A   92  19.629   3.641   9.769
    8DPPC   C1B   93  20.389   3.591  11.099
    8DPPC   C2B   94  20.109   3.431  10.869
    8DPPC   C3B   95  19.779   3.351  10.459
    8DPPC   C4B   96  19.509   3.201  10.089
    9DPPC   NC3   97  19.569   1.421  14.739
    9DPPC   PO4   98  19.839   1.451  14.429
    9DPPC   GL1   99  19.639   1.331  14.079
    9DPPC   GL2  100  19.569   1.091  14.159
    9DPPC   C1A  101  19.259   1.441  13.949
    9DPPC   C2A  102  18.939   1.641  13.729
    9DPPC   C3A  103  18.589   1.691  13.409
    9DPPC   C4A  104  18.229   1.681  13.069
    9DPPC   C1B  105  19.289   0.951  13.949
    9DPPC   C2B  106  19.119   0.671  13.679
    9DPPC   C3B  107  18.749   0.771  13.359
    9DPPC   C4B  108  18.399   0.761  12.929
   10DPPC   NC3  109  20.499   5.523  12.379
   10DPPC   PO4  110  20.419   5.853  12.169
   10DPPC   GL1  111  20.049   5.993  12.279
   10DPPC   GL2  112  20.219   6.233  12.459
   10DPPC   C1A  113  19.879   5.993  11.949
   10DPPC   C2A  114  19.619   5.973  11.629
   10DPPC   C3A  115  19.299   6.053  11.219
   10DPPC   C4A  116  19.089   6.143  10.829
   10DPPC   C1B  117  20.079   6.523  12.219
   10DPPC   C2B  118  19.809   6.433  11.859
   10DPPC   C3B  119  19.449   6.453  11.549
   10DPPC   C4B  120  19.199   6.543  11.169
   11DPPC   NC3  121  20.339   5.193  13.929
   11DPPC   PO4  122  20.539   5.343  13.619
   11DPPC   GL1  123  20.189   5.203  13.349
   11DPPC   GL2  124  19.969   5.273  13.619
   11DPPC   C1A  125  19.939   5.273  13.059
   11DPPC   C2A  126  19.649   5.303  12.739
   11DPPC   C3A  127  19.269   5.383  12.439
   11DPPC   C4A  128  18.979   5.423  12.039
   11DPPC   C1B  129  19.789   5.473  13.369
   11DPPC   C2B  130  19.489   5.613  13.179
   11DPPC   C3B  131  19.099   5.653  12.869
   11DPPC   C4B  132  18.769   5.663  12.449
   12DPPC   NC3  133  20.719   2.651  12.189
   12DPPC   PO4  134  20.509   3.011  12.259
   12DPPC   GL1  135  20.119   3.051  12.179
   12DPPC   GL2  136  20.039   3.211  12.389
   12DPPC   C1A  137  19.889   3.171  11.929
   12DPPC   C2A  138  19.529   3.261  11.739
   12DPPC   C3A  139  19.319   3.271  11.339
   12DPPC   C4A  140  18.969   3.241  11.019
   12DPPC   C1B  141  19.699   3.321  12.279
   12DPPC   C2B  142  19.349   3.501  12.109
   12DPPC   C3B  143  19.069   3.481  11.749
   12DPPC   C4B  144  18.729   3.521  11.419
   13DPPC   NC3  145   0.461   0.341  11.729
   13DPPC   PO4  146   0.131   0.511  11.579
   13DPPC   GL1  147  20.929   0.581  11.379
   13DPPC   GL2  148  20.739   0.691  11.599
   13DPPC   C1A  149  20.899   0.571  10.979
   13DPPC   C2A  150  20.779   0.621  10.579
   13DPPC   C3A  151  20.559   0.621  10.159
   13DPPC   C4A  152  20.339   0.741   9.739
   13DPPC   C1B  153  20.619   0.821  11.269
   13DPPC   C2B  154  20.449   0.821  10.879
   13DPPC   C3B  155  20.159   0.861  10.529
   13DPPC   C4B  156  19.849   0.971  10.169
   14DPPC   NC3  157  20.469   4.863  12.759
   14DPPC   PO4  158  20.449   4.973  12.379
   14DPPC   GL1  159  20.069   5.073  12.079
   14DPPC   GL2  160  20.219   5.343  12.049
   14DPPC   C1A  161  19.849   4.963  11.759
   14DPPC   C2A  162  19.619   5.033  11.399
   14DPPC   C3A  163  19.329   5.103  10.999
   14DPPC   C4A  164  18.939   5.153  10.679
   14DPPC   C1B  165  19.919   5.483  11.919
   14DPPC   C2B  166  19.679   5.483  11.599
   14DPPC   C3B  167  19.379   5.553  11.229
   14DPPC   C4B  168  19.069   5.583  10.869
   15DPPC   NC3  169  19.239   6.423  15.119
   15DPPC   PO4  170  19.449   6.333  14.819
   15DPPC   GL1  171  19.379   6.253  14.319
   15DPPC   GL2  172  19.369   6.033  14.439
   15DPPC   C1A  173  19.069   6.443  14.379
   15DPPC   C2A  174  18.729   0.071  14.429
   15DPPC   C3A  175  18.449   0.101  14.049
   15DPPC   C4A  176  18.119   0.161  13.699
   15DPPC   C1B  177  19.129   5.953  14.199
   15DPPC   C2B  178  18.889   5.923  13.869
   15DPPC   C3B  179  18.569   5.943  13.549
   15DPPC   C4B  180  18.159   5.973  13.219
   16DPPC   NC3  181  18.639   6.123  16.269
   16DPPC   PO4  182  18.289   6.133  16.409
   16DPPC   GL1  183  17.919   6.363  16.269
   16DPPC   GL2  184  17.809   6.183  16.459
   16DPPC   C1A  185  17.739   6.383  15.919
   16DPPC   C2A  186  17.469   6.463  15.639
   16DPPC   C3A  187  17.139   6.473  15.239
   16DPPC   C4A  188  16.879   6.483  14.859
   16DPPC   C1B  189  17.639   6.023  16.219
   16DPPC   C2B  190  17.339   6.093  15.969
   16DPPC   C3B  191  16.999   6.183  15.729
   16DPPC   C4B  192  16.719   6.223  15.359
   17DPPC   NC3  193  20.019   3.481  12.799
   17DPPC   PO4  194  20.339   3.221  12.779
   17DPPC   GL1  195  20.069   2.891  12.709
   17DPPC   GL2  196  19.919   3.041  12.939
   17DPPC   C1A  197  19.779   2.911  12.469
   17DPPC   C2A  198  19.579   2.871  12.129
   17DPPC   C3A  199  19.169   2.891  11.809
   17DPPC   C4A  200  18.919   2.971  11.509
   17DPPC   C1B  201  19.549   3.131  12.789
   17DPPC   C2B  202  19.249   3.161  12.489
   17DPPC   C3B  203  18.909   3.161  12.169
   17DPPC   C4B  204  18.529   3.201  11.819
   18DPPC   NC3  205  20.589   1.831  13.399
   18DPPC   PO4  206  20.259   1.941  13.619
   18DPPC   GL1  207  19.809   1.791  13.629
   18DPPC   GL2  208  19.779   1.991  13.419
   18DPPC   C1A  209  19.609   1.501  13.669
   18DPPC   C2A  210  19.339   1.251  13.539
   18DPPC   C3A  211  18.849   1.241  13.449
   18DPPC   C4A  212  18.469   1.161  13.169
   18DPPC   C1B  213  19.659   2.101  13.069
   18DPPC   C2B  214  19.599   2.171  12.689
   18DPPC   C3B  215  19.339   2.151  12.329
   18DPPC   C4B  216  19.029   2.171  11.979
   19DPPC   NC3  217  20.239   6.533  12.789
   19DPPC   PO4  218  20.569   6.593  12.549
   19DPPC   GL1  219  20.479   6.573  12.089
   19DPPC   GL2  220  20.469   6.283  12.099
   19DPPC   C1A  221  20.229   0.151  11.879
   19DPPC   C2A  222  19.979   0.151  11.529
   19DPPC   C3A  223  19.679   0.281  11.189
   19DPPC   C4A  224  19.369   0.291  10.779
   19DPPC   C1B  225  20.229   6.253  11.819
   19DPPC   C2B  226  20.049   6.193  11.529
   19DPPC   C3B  227  19.749   6.333  11.169
   19DPPC   C4B  228  19.549   6.393  10.709
   20DPPC   NC3  229  20.129   4.111  14.289
   20DPPC   PO4  230  19.779   4.061  14.459
   20DPPC   GL1  231  19.329   3.911  14.289
   20DPPC   GL2  232  19.309   4.051  14.059
   20DPPC   C1A  233  18.979   3.921  14.399
   20DPPC   C2A  234  18.569   3.871  14.299
   20DPPC   C3A  235  18.109   3.871  14.059
   20DPPC   C4A  236  17.839   3.991  13.689
   20DPPC   C1B  237  19.069   3.891  13.779
   20DPPC   C2B  238  18.779   3.991  13.499
   20DPPC   C3B  239  18.459   3.961  13.109
   20DPPC   C4B  240  18.089   4.031  12.769
   21DPPC   NC3  241  18.909   1.751  16.019
   21DPPC   PO4  242  18.909   1.841  15.619
   21DPPC   GL1  243  18.499   1.811  15.449
   21DPPC   GL2  244  18.469   1.611  15.709
   21DPPC   C1A  245  18.329   1.791  15.159
   21DPPC   C2A  246  18.079   1.701  14.819
   21DPPC   C3A  247  17.729   1.681  14.479
   21DPPC   C4A  248  17.419   1.691  14.119
   21DPPC   C1B  249  18.209   1.401  15.569
   21DPPC   C2B  250  18.009   1.391  15.229
   21DPPC   C3B  251  17.679   1.371  14.909
   21DPPC   C4B  252  17.299   1.421  14.539
   22DPPC   NC3  253  20.889   5.673  12.059
   22DPPC   PO4  254  20.639   5.413  11.919
   22DPPC   GL1  255  20.299   5.663  11.749
   22DPPC   GL2  256  20.489   5.503  11.509
   22DPPC   C1A  257  20.089   5.743  11.489
   22DPPC   C2A  258  19.799   5.853  11.179
   22DPPC   C3A  259  19.569   5.913  10.709
   22DPPC   C4A  260  19.119   5.923  10.389
   22DPPC   C1B  261  20.389   5.493  11.159
   22DPPC   C2B  262  20.229   5.553  10.809
   22DPPC   C3B  263  19.919   5.683  10.419
   22DPPC   C4B  264  19.529   5.793  10.069
   23DPPC   NC3  265  18.949   0.351  15.599
   23DPPC   PO4  266  19.009   6.563  15.589
   23DPPC   GL1  267  18.699   6.253  15.609
   23DPPC   GL2  268  18.579   6.253  15.849
   23DPPC   C1A  269  18.449   6.153  15.349
   23DPPC   C2A  270  18.219   6.033  15.019
   23DPPC   C3A  271  17.939   6.053  14.659
   23DPPC   C4A  272  17.539   6.043  14.349
   23DPPC   C1B  273  18.239   6.213  15.759
   23DPPC   C2B  274  17.929   6.273  15.439
   23DPPC   C3B  275  17.669   6.243  15.079
   23DPPC   C4B  276  17.309   6.243  14.749
   24DPPC   NC3  277  17.979   3.811  17.829
   24DPPC   PO4  278  17.799   3.741  17.489
   24DPPC   GL1  279  17.349   3.641  17.499
   24DPPC   GL2  280  17.379   3.861  17.339
   24DPPC   C1A  281  17.129   3.401  17.279
   24DPPC   C2A  282  16.909   3.241  16.929
   24DPPC   C3A  283  16.559   3.301  16.619
   24DPPC   C4A  284  16.219   3.261  16.329
   24DPPC   C1B  285  17.009   3.841  17.169
   24DPPC   C2B  286  16.689   3.771  16.929
   24DPPC   C3B  287  16.399   3.761  16.519
   24DPPC   C4B  288  16.179   3.731  16.109
   25DPPC   NC3  289  18.899   1.001  16.799
   25DPPC   PO4  290  18.879   0.891  16.369
   25DPPC   GL1  291  18.479   0.891  16.119
   25DPPC   GL2  292  18.459   1.121  16.389
   25DPPC   C1A  293  18.219   0.941  15.899
   25DPPC   C2A  294  17.879   1.091  15.709
   25DPPC   C3A  295  17.559   1.101  15.399
   25DPPC   C4A  296  17.209   1.051  15.049
   25DPPC   C1B  297  18.199   1.261  16.189
   25DPPC   C2B  298  18.049   1.611  16.049
   25DPPC   C3B  299  17.789   1.571  15.669
   25DPPC   C4B  300  17.429   1.591  15.279
   26DPPC   NC3  301   0.271   5.033  11.639
   26DPPC   PO4  302   0.071   4.733  11.429
   26DPPC   GL1  303   0.241   4.783  11.099
   26DPPC   GL2  304   0.331   5.093  11.129
   26DPPC   C1A  305   0.171   4.803  10.759
   26DPPC   C2A  306  21.119   4.723  10.349
   26DPPC   C3A  307  20.809   4.703   9.959
   26DPPC   C4A  308  20.609   4.783   9.499
   26DPPC   C1B  309   0.541   5.103  10.839
   26DPPC   C2B  310   0.711   5.303  10.519
   26DPPC   C3B  311   0.851   5.493  10.139
   26DPPC   C4B  312   0.901   5.423   9.709
   27DPPC   NC3  313  20.199   2.131  12.249
   27DPPC   PO4  314  20.429   2.291  11.969
   27DPPC   GL1  315  20.139   2.431  11.659
   27DPPC   GL2  316  19.899   2.241  11.869
   27DPPC   C1A  317  19.959   2.631  11.379
   27DPPC   C2A  318  19.749   2.651  11.039
   27DPPC   C3A  319  19.499   2.691  10.589
   27DPPC   C4A  320  19.209   2.831  10.189
   27DPPC   C1B  321  19.699   2.221  11.569
   27DPPC   C2B  322  19.439   2.311  11.259
   27DPPC   C3B  323  19.179   2.341  10.869
   27DPPC   C4B  324  19.059   2.381  10.399
   28DPPC   NC3  325   0.191   6.333  11.009
   28DPPC   PO4  326   0.311   6.093  11.299
   28DPPC   GL1  327   0.661   6.083  11.179
   28DPPC   GL2  328   0.651   6.393  11.099
   28DPPC   C1A  329   0.771   5.853  10.899
   28DPPC   C2A  330   1.021   5.903  10.549
   28DPPC   C3A  331   1.261   5.773  10.129
   28DPPC   C4A  332   1.441   5.513   9.739
   28DPPC   C1B  333   0.751   6.433  10.759
   28DPPC   C2B  334   0.941   6.403  10.409
   28DPPC   C3B  335   1.091   6.323  10.019
   28DPPC   C4B  336   1.271   6.323   9.529
   29DPPC   NC3  337  20.209   0.321  13.849
   29DPPC   PO4  338  20.129   6.563  13.789
   29DPPC   GL1  339  19.799   6.273  13.759
   29DPPC   GL2  340  19.599   6.413  13.949
   29DPPC   C1A  341  19.459   6.193  13.589
   29DPPC   C2A  342  19.029   6.253  13.499
   29DPPC   C3A  343  18.699   6.313  13.149
   29DPPC   C4A  344  18.329   6.273  12.839
   29DPPC   C1B  345  19.369   6.593  13.719
   29DPPC   C2B  346  19.049   0.211  13.539
   29DPPC   C3B  347  18.669   0.281  13.169
   29DPPC   C4B  348  18.379   0.191  12.799
   30DPPC   NC3  349  18.039   5.483  17.289
   30DPPC   PO4  350  17.879   5.463  16.949
   30DPPC   GL1  351  17.709   5.383  16.639
   30DPPC   GL2  352  17.869   5.143  16.629
   30DPPC   C1A  353  17.379   5.273  16.489
   30DPPC   C2A  354  17.099   5.373  16.229
   30DPPC   C3A  355  16.729   5.413  15.899
   30DPPC   C4A  356  16.339   5.503  15.559
   30DPPC   C1B  357  17.599   4.893  16.479
   30DPPC   C2B  358  17.309   4.813  16.279
   30DPPC   C3B  359  16.889   4.953  16.039
   30DPPC   C4B  360  16.529   4.943  15.729
   31DPPC   NC3  361  19.509   2.531  15.049
   31DPPC   PO4  362  19.549   2.401  14.649
   31DPPC   GL1  363  19.249   2.281  14.429
   31DPPC   GL2  364  19.309   2.201  14.169
   31DPPC   C1A  365  19.069   2.531  14.229
   31DPPC   C2A  366  18.839   2.671  13.869
   31DPPC   C3A  367  18.499   2.701  13.569
   31DPPC   C4A  368  18.159   2.731  13.249
   31DPPC   C1B  369  19.079   2.151  13.919
   31DPPC   C2B  370  18.789   2.151  13.619
   31DPPC   C3B  371  18.379   2.221  13.339
   31DPPC   C4B  372  18.059   2.251  12.949
   32DPPC   NC3  373  20.139   3.421  13.559
   32DPPC   PO4  374  19.839   3.411  13.839
   32DPPC   GL1  375  19.459   3.211  13.929
   32DPPC   GL2  376  19.609   2.971  13.909
   32DPPC   C1A  377  19.219   3.341  13.719
   32DPPC   C2A  378  18.839   3.421  13.499
   32DPPC   C3A  379  18.519   3.471  13.129
   32DPPC   C4A  380  18.159   3.581  12.839
   32DPPC   C1B  381  19.309   2.901  13.719
   32DPPC   C2B  382  18.959   2.931  13.489
   32DPPC   C3B  383  18.579   2.991  13.169
   32DPPC   C4B  384  18.239   3.071  12.849
   33DPPC   NC3  385  18.319   1.141  16.849
   33DPPC   PO4  386  18.299   0.751  16.739
   33DPPC   GL1  387  18.159   0.601  16.339
   33DPPC   GL2  388  17.919   0.841  16.399
   33DPPC   C1A  389  17.889   0.451  16.229
   33DPPC   C2A  390  17.679   0.371  15.899
   33DPPC   C3A  391  17.339   0.331  15.539
   33DPPC   C4A  392  17.069   0.381  15.129
   33DPPC   C1B  393  17.719   0.831  16.069
   33DPPC   C2B  394  17.419   0.861  15.769
   33DPPC   C3B  395  17.089   0.771  15.459
   33DPPC   C4B  396  16.779   0.921  15.199
   34DPPC   NC3  397  20.629   1.891  11.839
   34DPPC   PO4  398  20.479   1.751  12.189
   34DPPC   GL1  399  20.109   1.631  12.129
   34DPPC   GL2  400  20.149   1.891  11.899
   34DPPC   C1A  401  19.829   1.441  12.089
   34DPPC   C2A  402  19.499   1.471  11.769
   34DPPC   C3A  403  19.149   1.451  11.469
   34DPPC   C4A  404  18.819   1.571  11.049
   34DPPC   C1B  405  19.919   1.721  11.659
   34DPPC   C2B  406  19.669   1.761  11.299
   34DPPC   C3B  407  19.309   1.871  11.029
   34DPPC   C4B  408  18.969   1.921  10.709
   35DPPC   NC3  409  19.809   3.881  14.889
   35DPPC   PO4  410  19.529   3.661  15.069
   35DPPC   GL1  411  19.159   3.611  14.879
   35DPPC   GL2  412  19.089   3.341  14.879
   35DPPC   C1A  413  18.819   3.761  14.809
   35DPPC   C2A  414  18.449   3.931  14.799
   35DPPC   C3A  415  18.039   4.071  14.539
   35DPPC   C4A  416  17.639   4.151  14.219
   35DPPC   C1B  417  18.849   3.241  14.649
   35DPPC   C2B  418  18.629   3.351  14.359
   35DPPC   C3B  419  18.289   3.351  14.069
   35DPPC   C4B  420  17.899   3.471  13.809
   36DPPC   NC3  421   0.281   1.361  11.699
   36DPPC   PO4  422   0.471   1.581  11.529
   36DPPC   GL1  423   0.681   1.511  11.189
   36DPPC   GL2  424   0.461   1.621  11.099
   36DPPC   C1A  425   0.931   1.441  10.919
   36DPPC   C2A  426   1.131   1.541  10.569
   36DPPC   C3A  427   1.431   1.501  10.189
   36DPPC   C4A  428   1.691   1.461   9.769
   36DPPC   C1B  429   0.271   1.791  10.789
   36DPPC   C2B  430   0.471   1.701  10.459
   36DPPC   C3B  431   0.431   1.851   9.989
   36DPPC   C4B  432   0.651   1.781   9.509
   37DPPC   NC3  433  19.229   5.503  15.309
   37DPPC   PO4  434  19.349   5.853  15.149
   37DPPC   GL1  435  19.139   5.913  14.849
   37DPPC   GL2  436  18.879   5.783  15.059
   37DPPC   C1A  437  18.919   6.083  14.659
   37DPPC   C2A  438  18.729   6.143  14.289
   37DPPC   C3A  439  18.409   6.153  13.989
   37DPPC   C4A  440  18.059   6.183  13.669
   37DPPC   C1B  441  18.629   5.803  14.789
   37DPPC   C2B  442  18.359   5.853  14.509
   37DPPC   C3B  443  18.049   5.873  14.159
   37DPPC   C4B  444  17.629   5.903  13.899
   38DPPC   NC3  445  17.919   3.751  16.989
   38DPPC   PO4  446  17.769   4.111  17.099
   38DPPC   GL1  447  17.559   4.191  16.729
   38DPPC   GL2  448  17.549   3.951  16.729
   38DPPC   C1A  449  17.359   4.373  16.429
   38DPPC   C2A  450  17.109   4.403  16.109
   38DPPC   C3A  451  16.769   4.463  15.769
   38DPPC   C4A  452  16.419   4.503  15.479
   38DPPC   C1B  453  17.389   3.961  16.399
   38DPPC   C2B  454  17.199   3.811  16.099
   38DPPC   C3B  455  16.849   3.841  15.729
   38DPPC   C4B  456  16.489   3.871  15.379
   39DPPC   NC3  457  19.519   3.521  14.569
   39DPPC   PO4  458  19.629   3.191  14.369
   39DPPC   GL1  459  19.499   3.651  14.009
   39DPPC   GL2  460  19.269   3.501  14.219
   39DPPC   C1A  461  19.409   3.681  13.619
   39DPPC   C2A  462  19.159   3.741  13.289
   39DPPC   C3A  463  18.859   3.741  12.879
   39DPPC   C4A  464  18.519   3.761  12.599
   39DPPC   C1B  465  18.989   3.531  14.059
   39DPPC   C2B  466  18.649   3.651  13.869
   39DPPC   C3B  467  18.309   3.651  13.549
   39DPPC   C4B  468  17.869   3.661  13.289
   40DPPC   NC3  469  20.909   5.553  11.539
   40DPPC   PO4  470   0.101   5.563  11.319
   40DPPC   GL1  471   0.291   5.743  10.919
   40DPPC   GL2  472   0.101   5.893  10.899
   40DPPC   C1A  473   0.391   5.603  10.599
   40DPPC   C2A  474   0.371   5.553  10.219
   40DPPC   C3A  475   0.001   5.633   9.869
   40DPPC   C4A  476  20.919   5.703   9.439
   40DPPC   C1B  477  21.069   5.733  10.649
   40DPPC   C2B  478  20.899   5.713  10.289
   40DPPC   C3B  479  20.679   5.743   9.859
   40DPPC   C4B  480  20.379   5.783   9.539
   41DPPC   NC3  481  19.729   4.061  13.939
   41DPPC   PO4  482  20.009   4.283  13.749
   41DPPC   GL1  483  19.819   4.513  13.489
   41DPPC   GL2  484  19.899   4.323  13.259
   41DPPC   C1A  485  19.509   4.523  13.309
   41DPPC   C2A  486  19.279   4.573  12.949
   41DPPC   C3A  487  18.939   4.613  12.619
   41DPPC   C4A  488  18.609   4.653  12.229
   41DPPC   C1B  489  19.619   4.141  13.119
   41DPPC   C2B  490  19.329   4.021  12.899
   41DPPC   C3B  491  19.059   4.111  12.499
   41DPPC   C4B  492  18.699   4.121  12.149
   42DPPC   NC3  493  18.239   3.051  17.309
   42DPPC   PO4  494  17.979   3.311  17.189
   42DPPC   GL1  495  17.559   3.341  17.199
   42DPPC   GL2  496  17.499   3.571  17.029
   42DPPC   C1A  497  17.319   3.011  17.169
   42DPPC   C2A  498  17.039   2.771  16.939
   42DPPC   C3A  499  16.679   2.801  16.599
   42DPPC   C4A  500  16.259   2.781  16.279
   42DPPC   C1B  501  17.329   3.531  16.739
   42DPPC   C2B  502  17.039   3.551  16.449
   42DPPC   C3B  503  16.679   3.571  16.159
   42DPPC   C4B  504  16.379   3.501  15.739
   43DPPC   NC3  505  20.929   4.253  12.709
   43DPPC   PO4  506  20.539   4.283  12.599
   43DPPC   GL1  507  20.159   4.523  12.379
   43DPPC   GL2  508  20.349   4.553  12.069
   43DPPC   C1A  509  19.909   4.383  12.199
   43DPPC   C2A  510  19.589   4.211  11.989
   43DPPC   C3A  511  19.349   4.253  11.629
   43DPPC   C4A  512  18.979   4.323  11.269
   43DPPC   C1B  513  20.199   4.703  11.789
   43DPPC   C2B  514  19.869   4.493  11.609
   43DPPC   C3B  515  19.539   4.503  11.259
   43DPPC   C4B  516  19.259   4.643  10.879
   44DPPC   NC3  517  18.549   0.401  16.429
   44DPPC   PO4  518  18.649   0.461  16.069
   44DPPC   GL1  519  18.339   0.521  15.889
   44DPPC   GL2  520  18.479   0.571  15.619
   44DPPC   C1A  521  18.049   0.611  15.679
   44DPPC   C2A  522  17.799   0.641  15.379
   44DPPC   C3A  523  17.489   0.591  15.049
   44DPPC   C4A  524  17.129   0.621  14.689
   44DPPC   C1B  525  18.379   0.541  15.259
   44DPPC   C2B  526  18.059   0.421  15.009
   44DPPC   C3B  527  17.749   0.381  14.639
   44DPPC   C4B  528  17.439   0.421  14.329
   45DPPC   NC3  529  19.879   1.971  14.379
   45DPPC   PO4  530  19.629   1.911  14.669
   45DPPC   GL1  531  19.329   1.751  14.399
   45DPPC   GL2  532  19.559   1.741  14.169
   45DPPC   C1A  533  19.019   1.831  14.229
   45DPPC   C2A  534  18.629   1.871  14.119
   45DPPC   C3A  535  18.329   1.841  13.829
   45DPPC   C4A  536  17.949   1.911  13.469
   45DPPC   C1B  537  19.359   1.821  13.879
   45DPPC   C2B  538  19.289   1.941  13.499
   45DPPC   C3B  539  18.919   2.051  13.139
   45DPPC   C4B  540  18.589   2.121  12.799
   46DPPC   NC3  541  20.389   2.741  13.079
   46DPPC   PO4  542  20.199   3.011  13.319
   46DPPC   GL1  543  19.809   3.071  13.449
   46DPPC   GL2  544  19.769   3.331  13.329
   46DPPC   C1A  545  19.529   2.921  13.319
   46DPPC   C2A  546  19.309   2.821  13.009
   46DPPC   C3A  547  18.939   2.841  12.709
   46DPPC   C4A  548  18.579   2.891  12.459
   46DPPC   C1B  549  19.419   3.341  13.289
   46DPPC   C2B  550  19.069   3.251  13.079
   46DPPC   C3B  551  18.739   3.291  12.659
   46DPPC   C4B  552  18.269   3.241  12.379
   47DPPC   NC3  553  20.559   4.021  13.089
   47DPPC   PO4  554  20.239   4.011  13.339
   47DPPC   GL1  555  19.909   3.771  13.319
   47DPPC   GL2  556  19.789   3.851  13.489
   47DPPC   C1A  557  19.659   3.671  13.079
   47DPPC   C2A  558  19.359   3.561  12.789
   47DPPC   C3A  559  18.999   3.661  12.419
   47DPPC   C4A  560  18.629   3.621  12.109
   47DPPC   C1B  561  19.469   4.101  13.509
   47DPPC   C2B  562  19.189   4.253  13.339
   47DPPC   C3B  563  18.879   4.263  12.979
   47DPPC   C4B  564  18.539   4.283  12.599
   48DPPC   NC3  565  18.629   3.101  16.499
   48DPPC   PO4  566  18.839   3.191  16.129
   48DPPC   GL1  567  18.649   3.041  15.709
   48DPPC   GL2  568  18.809   3.281  15.569
   48DPPC   C1A  569  18.249   2.961  15.689
   48DPPC   C2A  570  17.949   2.901  15.449
   48DPPC   C3A  571  17.619   2.891  15.119
   48DPPC   C4A  572  17.319   2.991  14.769
   48DPPC   C1B  573  18.639   3.431  15.229
   48DPPC   C2B  574  18.439   3.441  14.859
   48DPPC   C3B  575  18.169   3.621  14.489
   48DPPC   C4B  576  17.749   3.611  14.229
   49DPPC   NC3  577  20.399   1.891  12.719
   49DPPC   PO4  578  20.239   1.971  13.109
   49DPPC   GL1  579  19.929   1.741  13.159
   49DPPC   GL2  580  19.899   1.751  12.889
   49DPPC   C1A  581  19.559   1.601  13.239
   49DPPC   C2A  582  19.159   1.561  13.149
   49DPPC   C3A  583  18.739   1.581  12.949
   49DPPC   C4A  584  18.379   1.671  12.539
   49DPPC   C1B  585  19.539   1.721  12.859
   49DPPC   C2B  586  19.189   1.871  12.739
   49DPPC   C3B  587  18.849   1.831  12.479
   49DPPC   C4B  588  18.519   1.951  12.189
   50DPPC   NC3  589  20.349   2.561  14.419
   50DPPC   PO4  590  19.999   2.581  14.179
   50DPPC   GL1  591  19.559   2.551  14.189
   50DPPC   GL2  592  19.449   2.781  14.279
   50DPPC   C1A  593  19.399   2.501  13.859
   50DPPC   C2A  594  19.149   2.451  13.519
   50DPPC   C3A  595  18.809   2.581  13.149
   50DPPC   C4A  596  18.439   2.601  12.829
   50DPPC   C1B  597  19.159   2.931  14.119
   50DPPC   C2B  598  18.839   3.141  13.919
   50DPPC   C3B  599  18.409   3.171  13.609
   50DPPC   C4B  600  17.979   3.161  13.289
   51DPPC   NC3  601  19.289   1.931  15.329
   51DPPC   PO4  602  19.439   1.631  15.219
   51DPPC   GL1  603  19.269   1.761  14.889
   51DPPC   GL2  604  19.239   2.061  14.889
   51DPPC   C1A  605  19.019   1.561  14.699
   51DPPC   C2A  606  18.619   1.481  14.599
   51DPPC   C3A  607  18.279   1.591  14.289
   51DPPC   C4A  608  17.899   1.611  14.019
   51DPPC   C1B  609  18.889   2.151  14.679
   51DPPC   C2B  610  18.699   2.321  14.419
   51DPPC   C3B  611  18.509   2.341  13.989
   51DPPC   C4B  612  18.149   2.411  13.749
   52DPPC   NC3  613  18.679   4.001  16.089
   52DPPC   PO4  614  18.519   3.711  16.259
   52DPPC   GL1  615  18.629   3.551  15.919
   52DPPC   GL2  616  18.439   3.331  15.919
   52DPPC   C1A  617  18.549   3.661  15.549
   52DPPC   C2A  618  18.249   3.711  15.269
   52DPPC   C3A  619  17.919   3.761  14.909
   52DPPC   C4A  620  17.529   3.781  14.669
   52DPPC   C1B  621  18.149   3.411  15.699
   52DPPC   C2B  622  17.809   3.421  15.419
   52DPPC   C3B  623  17.459   3.451  15.099
   52DPPC   C4B  624  17.119   3.531  14.719
   53DPPC   NC3  625  20.389   4.453  13.449
   53DPPC   PO4  626  20.249   4.703  13.179
   53DPPC   GL1  627  19.829   4.733  13.119
   53DPPC   GL2  628  19.819   4.933  13.319
   53DPPC   C1A  629  19.659   4.753  12.769
   53DPPC   C2A  630  19.409   4.893  12.489
   53DPPC   C3A  631  19.059   4.913  12.079
   53DPPC   C4A  632  18.779   4.993  11.779
   53DPPC   C1B  633  19.569   5.153  13.159
   53DPPC   C2B  634  19.229   5.083  12.949
   53DPPC   C3B  635  18.889   5.143  12.639
   53DPPC   C4B  636  18.569   5.173  12.279
   54DPPC   NC3  637  20.379   3.531  12.349
   54DPPC   PO4  638  20.419   3.731  12.659
   54DPPC   GL1  639  20.219   4.111  12.799
   54DPPC   GL2  640  20.019   3.931  12.919
   54DPPC   C1A  641  19.919   4.253  12.709
   54DPPC   C2A  642  19.549   4.313  12.529
   54DPPC   C3A  643  19.189   4.443  12.199
   54DPPC   C4A  644  18.829   4.503  11.849
   54DPPC   C1B  645  19.809   3.831  12.609
   54DPPC   C2B  646  19.499   3.871  12.409
   54DPPC   C3B  647  19.149   3.941  12.039
   54DPPC   C4B  648  18.739   3.971  11.649
   55DPPC   NC3  649  19.039   2.771  16.419
   55DPPC   PO4  650  19.049   2.391  16.309
   55DPPC   GL1  651  18.639   2.391  16.109
   55DPPC   GL2  652  18.729   2.161  16.009
   55DPPC   C1A  653  18.359   2.471  15.889
   55DPPC   C2A  654  18.079   2.431  15.569
   55DPPC   C3A  655  17.829   2.421  15.179
   55DPPC   C4A  656  17.429   2.401  14.849
   55DPPC   C1B  657  18.389   1.981  15.909
   55DPPC   C2B  658  18.119   1.921  15.609
   55DPPC   C3B  659  17.869   1.911  15.219
   55DPPC   C4B  660  17.519   1.911  14.869
   56DPPC   NC3  661  20.479   6.273  13.419
   56DPPC   PO4  662  20.449   6.103  13.089
   56DPPC   GL1  663  20.289   5.833  12.889
   56DPPC   GL2  664  20.309   5.843  12.649
   56DPPC   C1A  665  19.899   5.753  12.919
   56DPPC   C2A  666  19.559   5.833  12.739
   56DPPC   C3A  667  19.199   5.913  12.389
   56DPPC   C4A  668  18.849   6.003  12.059
   56DPPC   C1B  669  20.009   5.683  12.509
   56DPPC   C2B  670  19.709   5.713  12.269
   56DPPC   C3B  671  19.369   5.703  11.989
   56DPPC   C4B  672  19.049   5.683  11.629
   57DPPC   NC3  673  19.639   5.613  14.459
   57DPPC   PO4  674  19.779   5.923  14.219
   57DPPC   GL1  675  19.469   5.993  13.959
   57DPPC   GL2  676  19.359   5.673  13.959
   57DPPC   C1A  677  19.199   6.273  13.949
   57DPPC   C2A  678  18.889   6.473  13.939
   57DPPC   C3A  679  18.519   6.493  13.609
   57DPPC   C4A  680  18.169   6.533  13.259
   57DPPC   C1B  681  19.079   5.533  13.779
   57DPPC   C2B  682  18.669   5.503  13.679
   57DPPC   C3B  683  18.359   5.533  13.239
   57DPPC   C4B  684  17.969   5.573  12.989
   58DPPC   NC3  685  20.199   2.401  13.789
   58DPPC   PO4  686  20.109   2.421  13.399
   58DPPC   GL1  687  19.799   2.661  13.149
   58DPPC   GL2  688  19.539   2.481  13.339
   58DPPC   C1A  689  19.679   2.611  12.809
   58DPPC   C2A  690  19.379   2.681  12.549
   58DPPC   C3A  691  19.109   2.641  12.239
   58DPPC   C4A  692  18.769   2.621  11.889
   58DPPC   C1B  693  19.299   2.361  13.079
   58DPPC   C2B  694  19.059   2.331  12.699
   58DPPC   C3B  695  18.679   2.381  12.369
   58DPPC   C4B  696  18.319   2.341  12.009
   59DPPC   NC3  697  18.269   4.843  16.929
   59DPPC   PO4  698  17.929   4.973  17.129
   59DPPC   GL1  699  17.549   5.103  16.919
   59DPPC   GL2  700  17.469   4.783  16.999
   59DPPC   C1A  701  17.179   5.093  16.819
   59DPPC   C2A  702  16.889   5.073  16.569
   59DPPC   C3A  703  16.489   5.003  16.299
   59DPPC   C4A  704  16.149   5.163  15.979
   59DPPC   C1B  705  17.249   4.663  16.769
   59DPPC   C2B  706  16.929   4.573  16.539
   59DPPC   C3B  707  16.569   4.533  16.249
   59DPPC   C4B  708  16.229   4.563  15.959
   60DPPC   NC3  709  18.339   2.301  16.559
   60DPPC   PO4  710  18.549   2.631  16.509
   60DPPC   GL1  711  18.159   2.811  16.389
   60DPPC   GL2  712  18.109   2.551  16.219
   60DPPC   C1A  713  17.919   2.991  16.149
   60DPPC   C2A  714  17.759   3.081  15.819
   60DPPC   C3A  715  17.419   3.181  15.499
   60DPPC   C4A  716  17.049   3.171  15.219
   60DPPC   C1B  717  17.929   2.601  15.919
   60DPPC   C2B  718  17.579   2.611  15.609
   60DPPC   C3B  719  17.209   2.591  15.269
   60DPPC   C4B  720  17.009   2.211  14.959
   61DPPC   NC3  721  19.359   4.693  14.689
   61DPPC   PO4  722  19.409   4.403  14.429
   61DPPC   GL1  723  19.079   4.453  14.249
   61DPPC   GL2  724  18.999   4.753  14.359
   61DPPC   C1A  725  18.729   4.313  14.179
   61DPPC   C2A  726  18.479   4.161  13.859
   61DPPC   C3A  727  18.259   4.221  13.459
   61DPPC   C4A  728  17.889   4.181  13.179
   61DPPC   C1B  729  18.739   4.763  14.189
   61DPPC   C2B  730  18.539   4.743  13.859
   61DPPC   C3B  731  18.179   4.713  13.529
   61DPPC   C4B  732  17.869   4.743  13.179
   62DPPC   NC3  733  19.079   2.861  15.619
   62DPPC   PO4  734  18.959   2.701  15.949
   62DPPC   GL1  735  18.699   2.411  15.639
   62DPPC   GL2  736  18.659   2.641  15.599
   62DPPC   C1A  737  18.479   2.191  15.499
   62DPPC   C2A  738  18.299   2.231  15.139
   62DPPC   C3A  739  17.969   2.221  14.749
   62DPPC   C4A  740  17.609   2.241  14.409
   62DPPC   C1B  741  18.419   2.681  15.359
   62DPPC   C2B  742  18.209   2.681  15.029
   62DPPC   C3B  743  17.859   2.751  14.679
   62DPPC   C4B  744  17.499   2.711  14.389
   63DPPC   NC3  745  19.249   4.071  15.469
   63DPPC   PO4  746  19.069   4.221  15.129
   63DPPC   GL1  747  18.709   4.493  15.179
   63DPPC   GL2  748  18.589   4.201  15.219
   63DPPC   C1A  749  18.479   4.653  14.959
   63DPPC   C2A  750  18.139   4.573  14.769
   63DPPC   C3A  751  17.829   4.603  14.379
   63DPPC   C4A  752  17.459   4.573  14.069
   63DPPC   C1B  753  18.229   4.221  15.139
   63DPPC   C2B  754  17.849   4.273  15.049
   63DPPC   C3B  755  17.499   4.243  14.719
   63DPPC   C4B  756  17.129   4.373  14.419
   64DPPC   NC3  757  19.699   4.983  14.959
   64DPPC   PO4  758  19.639   5.113  14.559
   64DPPC   GL1  759  19.359   5.233  14.429
   64DPPC   GL2  760  19.209   5.163  14.479
   64DPPC   C1A  761  19.279   5.193  14.069
   64DPPC   C2A  762  19.049   4.983  13.839
   64DPPC   C3A  763  18.689   5.043  13.519
   64DPPC   C4A  764  18.339   5.023  13.129
   64DPPC   C1B  765  18.909   5.233  14.329
   64DPPC   C2B  766  18.639   5.203  14.069
   64DPPC   C3B  767  18.299   5.173  13.789
   64DPPC   C4B  768  17.959   5.243  13.419
   65DPPC   NC3  769   0.471   5.863  11.779
   65DPPC   PO4  770   0.071   6.013  11.759
   65DPPC   GL1  771  20.999   6.033  11.329
   65DPPC   GL2  772  21.009   6.313  11.349
   65DPPC   C1A  773  20.789   5.893  11.049
   65DPPC   C2A  774  20.569   5.913  10.689
   65DPPC   C3A  775  20.369   5.903  10.229
   65DPPC   C4A  776  20.109   6.083   9.869
   65DPPC   C1B  777  20.709   6.403  11.139
   65DPPC   C2B  778  20.499   6.453  10.779
   65DPPC   C3B  779  20.239   6.463  10.389
   65DPPC   C4B  780  19.919   6.513   9.989
   66DPPC   NC3  781  19.459   0.071  14.289
   66DPPC   PO4  782  19.789   0.161  14.089
   66DPPC   GL1  783  19.759   0.431  13.659
   66DPPC   GL2  784  19.769   0.091  13.599
   66DPPC   C1A  785  19.449   0.451  13.409
   66DPPC   C2A  786  19.129   0.501  13.139
   66DPPC   C3A  787  18.789   0.521  12.779
   66DPPC   C4A  788  18.439   0.661  12.469
   66DPPC   C1B  789  19.529   6.563  13.319
   66DPPC   C2B  790  19.189   6.573  13.119
   66DPPC   C3B  791  18.869   0.031  12.749
   66DPPC   C4B  792  18.569   0.071  12.319
   67DPPC   NC3  793   0.071   6.563  11.739
   67DPPC   PO4  794   0.251   0.031  11.389
   67DPPC   GL1  795  21.009   0.161  11.119
   67DPPC   GL2  796   0.171   0.341  11.029
   67DPPC   C1A  797  20.869   0.141  10.769
   67DPPC   C2A  798  20.779   0.121  10.379
   67DPPC   C3A  799  20.599   0.131   9.959
   67DPPC   C4A  800  20.179   0.071   9.599
   67DPPC   C1B  801   0.231   0.451  10.629
   67DPPC   C2B  802   0.011   0.391  10.279
   67DPPC   C3B  803  20.959   0.451   9.799
   67DPPC   C4B  804  20.639   0.401   9.439
   68DPPC   NC3  805  20.949   0.261  12.689
   68DPPC   PO4  806  20.829   0.501  12.429
   68DPPC   GL1  807  20.509   0.711  12.509
   68DPPC   GL2  808  20.339   0.441  12.489
   68DPPC   C1A  809  20.169   0.821  12.479
   68DPPC   C2A  810  19.909   0.811  12.089
   68DPPC   C3A  811  19.569   0.961  11.819
   68DPPC   C4A  812  19.259   0.901  11.459
   68DPPC   C1B  813  20.039   0.401  12.299
   68DPPC   C2B  814  19.789   0.371  11.989
   68DPPC   C3B  815  19.479   0.451  11.679
   68DPPC   C4B  816  19.199   0.471  11.269
   69DPPC   NC3  817  18.859   5.443  16.709
   69DPPC   PO4  818  18.549   5.663  16.499
   69DPPC   GL1  819  18.159   5.653  16.499
   69DPPC   GL2  820  17.979   5.853  16.689
   69DPPC   C1A  821  17.849   5.593  16.289
   69DPPC   C2A  822  17.509   5.593  16.059
   69DPPC   C3A  823  17.179   5.693  15.669
   69DPPC   C4A  824  16.769   5.783  15.459
   69DPPC   C1B  825  17.619   5.843  16.659
   69DPPC   C2B  826  17.219   5.833  16.469
   69DPPC   C3B  827  16.889   5.843  16.119
   69DPPC   C4B  828  16.509   5.923  15.819
   70DPPC   NC3  829  20.239   5.683  13.309
   70DPPC   PO4  830  20.069   6.033  13.439
   70DPPC   GL1  831  19.829   6.083  13.159
   70DPPC   GL2  832  19.989   6.203  12.959
   70DPPC   C1A  833  19.449   6.123  13.099
   70DPPC   C2A  834  19.149   6.123  12.859
   70DPPC   C3A  835  18.749   6.143  12.589
   70DPPC   C4A  836  18.439   6.233  12.259
   70DPPC   C1B  837  19.879   6.123  12.619
   70DPPC   C2B  838  19.659   6.253  12.289
   70DPPC   C3B  839  19.309   6.193  11.919
   70DPPC   C4B  840  18.999   6.233  11.539
   71DPPC   NC3  841  18.449   4.181  16.499
   71DPPC   PO4  842  18.519   4.553  16.659
   71DPPC   GL1  843  18.219   4.693  16.489
   71DPPC   GL2  844  18.119   4.463  16.399
   71DPPC   C1A  845  17.979   4.903  16.269
   71DPPC   C2A  846  17.719   5.143  16.079
   71DPPC   C3A  847  17.269   5.143  15.859
   71DPPC   C4A  848  16.939   5.163  15.459
   71DPPC   C1B  849  17.859   4.543  16.109
   71DPPC   C2B  850  17.529   4.653  15.889
   71DPPC   C3B  851  17.199   4.703  15.639
   71DPPC   C4B  852  16.879   4.703  15.289
   72DPPC   NC3  853  20.879   2.311  11.809
   72DPPC   PO4  854  20.659   2.541  11.549
   72DPPC   GL1  855  20.379   2.561  11.339
   72DPPC   GL2  856  20.319   2.921  11.329
   72DPPC   C1A  857  20.249   2.501  11.009
   72DPPC   C2A  858  20.049   2.421  10.679
   72DPPC   C3A  859  19.779   2.321  10.289
   72DPPC   C4A  860  19.439   2.461   9.959
   72DPPC   C1B  861  20.209   2.911  10.989
   72DPPC   C2B  862  20.009   2.891  10.609
   72DPPC   C3B  863  19.849   2.811  10.219
   72DPPC   C4B  864  19.829   2.721   9.729
   73DPPC   NC3  865  19.179   4.973  16.079
   73DPPC   PO4  866  19.159   5.173  15.719
   73DPPC   GL1  867  18.959   5.123  15.379
   73DPPC   GL2  868  18.729   4.933  15.459
   73DPPC   C1A  869  18.689   5.373  15.289
   73DPPC   C2A  870  18.399   5.513  15.049
   73DPPC   C3A  871  18.069   5.553  14.749
   73DPPC   C4A  872  17.689   5.593  14.439
   73DPPC   C1B  873  18.489   5.033  15.149
   73DPPC   C2B  874  18.189   5.093  14.849
   73DPPC   C3B  875  17.849   5.113  14.549
   73DPPC   C4B  876  17.459   5.133  14.199
   74DPPC   NC3  877  19.099   4.643  15.479
   74DPPC   PO4  878  19.289   4.773  15.139
   74DPPC   GL1  879  18.969   4.873  14.839
   74DPPC   GL2  880  18.959   4.533  14.799
   74DPPC   C1A  881  18.649   4.913  14.669
   74DPPC   C2A  882  18.309   4.893  14.439
   74DPPC   C3A  883  18.059   4.903  14.079
   74DPPC   C4A  884  17.689   4.973  13.739
   74DPPC   C1B  885  18.619   4.373  14.609
   74DPPC   C2B  886  18.319   4.413  14.299
   74DPPC   C3B  887  18.039   4.443  13.889
   74DPPC   C4B  888  17.639   4.493  13.589
   75DPPC   NC3  889  19.119   2.261  15.789
   75DPPC   PO4  890  19.159   2.421  15.429
   75DPPC   GL1  891  18.829   2.611  15.159
   75DPPC   GL2  892  19.049   2.451  14.959
   75DPPC   C1A  893  18.579   2.461  14.889
   75DPPC   C2A  894  18.279   2.541  14.569
   75DPPC   C3A  895  17.929   2.571  14.209
   75DPPC   C4A  896  17.599   2.581  13.879
   75DPPC   C1B  897  18.979   2.631  14.619
   75DPPC   C2B  898  18.729   2.831  14.359
   75DPPC   C3B  899  18.349   2.861  14.079
   75DPPC   C4B  900  17.979   2.881  13.749
   76DPPS   CNO  901  18.329   0.401  17.129
   76DPPS   PO4  902  18.189   0.201  16.799
   76DPPS   GL1  903  17.859   0.171  16.689
   76DPPS   GL2  904  17.929   0.481  16.729
   76DPPS   C1A  905  17.579   0.141  16.369
   76DPPS   C2A  906  17.269   0.091  16.079
   76DPPS   C3A  907  16.899   0.071  15.739
   76DPPS   C4A  908  16.649   0.101  15.329
   76DPPS   C1B  909  17.649   0.601  16.579
   76DPPS   C2B  910  17.379   0.561  16.279
   76DPPS   C3B  911  17.079   0.511  15.969
   76DPPS   C4B  912  16.689   0.521  15.559
   77DPPS   CNO  913  18.309   4.273  17.079
   77DPPS   PO4  914  18.379   3.931  16.939
   77DPPS   GL1  915  18.139   3.831  16.549
   77DPPS   GL2  916  17.989   4.061  16.659
   77DPPS   C1A  917  17.809   3.681  16.479
   77DPPS   C2A  918  17.559   3.401  16.359
   77DPPS   C3A  919  17.249   3.311  16.009
   77DPPS   C4A  920  16.889   3.371  15.639
   77DPPS   C1B  921  17.759   4.151  16.369
   77DPPS   C2B  922  17.689   4.101  15.959
   77DPPS   C3B  923  17.349   4.141  15.649
   77DPPS   C4B  924  16.939   4.181  15.379
   78DPPS   CNO  925  18.239   3.451  16.779
   78DPPS   PO4  926  18.209   3.081  16.759
   78DPPS   GL1  927  17.909   3.101  16.579
   78DPPS   GL2  928  17.759   3.281  16.779
   78DPPS   C1A  929  17.669   2.861  16.429
   78DPPS   C2A  930  17.399   2.821  16.059
   78DPPS   C3A  931  17.089   2.811  15.719
   78DPPS   C4A  932  16.719   2.841  15.379
   78DPPS   C1B  933  17.449   3.101  16.759
   78DPPS   C2B  934  17.119   3.061  16.499
   78DPPS   C3B  935  16.859   3.041  16.119
   78DPPS   C4B  936  16.509   3.011  15.819
   79DPPS   CNO  937  18.349   1.721  17.369
   79DPPS   PO4  938  18.169   1.561  17.059
   79DPPS   GL1  939  17.909   1.721  16.909
   79DPPS   GL2  940  18.039   1.941  16.689
   79DPPS   C1A  941  17.559   1.591  16.749
   79DPPS   C2A  942  17.279   1.571  16.479
   79DPPS   C3A  943  16.969   1.541  16.099
   79DPPS   C4A  944  16.639   1.491  15.739
   79DPPS   C1B  945  17.829   1.811  16.389
   79DPPS   C2B  946  17.549   1.791  16.109
   79DPPS   C3B  947  17.229   1.801  15.729
   79DPPS   C4B  948  16.899   1.881  15.409
   80DPPS   CNO  949  20.359   1.191  13.809
   80DPPS   PO4  950  19.989   1.131  13.899
   80DPPS   GL1  951  19.779   1.151  13.499
   80DPPS   GL2  952  19.649   0.821  13.599
   80DPPS   C1A  953  19.619   1.181  13.169
   80DPPS   C2A  954  19.469   1.281  12.819
   80DPPS   C3A  955  19.079   1.401  12.609
   80DPPS   C4A  956  18.729   1.381  12.329
   80DPPS   C1B  957  19.299   0.861  13.369
   80DPPS   C2B  958  19.049   1.021  13.079
   80DPPS   C3B  959  18.639   1.071  12.719
   80DPPS   C4B  960  18.169   1.311  12.759
   81DPPS   CNO  961  19.229   4.453  16.019
   81DPPS   PO4  962  18.979   4.263  15.829
   81DPPS   GL1  963  18.579   4.383  15.679
   81DPPS   GL2  964  18.539   4.091  15.689
   81DPPS   C1A  965  18.369   4.583  15.499
   81DPPS   C2A  966  18.119   4.753  15.209
   81DPPS   C3A  967  17.739   4.803  14.949
   81DPPS   C4A  968  17.439   4.773  14.619
   81DPPS   C1B  969  18.249   4.061  15.619
   81DPPS   C2B  970  17.869   3.971  15.429
   81DPPS   C3B  971  17.439   3.991  15.169
   81DPPS   C4B  972  17.069   4.051  14.829
   82DPPS   CNO  973  19.629   0.301  14.719
   82DPPS   PO4  974  19.549   0.551  14.429
   82DPPS   GL1  975  19.129   0.551  14.439
   82DPPS   GL2  976  19.089   0.331  14.269
   82DPPS   C1A  977  18.969   0.761  14.149
   82DPPS   C2A  978  18.699   0.941  13.899
   82DPPS   C3A  979  18.329   0.971  13.599
   82DPPS   C4A  980  18.029   0.891  13.209
   82DPPS   C1B  981  18.779   0.351  14.059
   82DPPS   C2B  982  18.579   0.451  13.709
   82DPPS   C3B  983  18.279   0.471  13.349
   82DPPS   C4B  984  17.969   0.411  13.019
   83DPPS   CNO  985  20.899   5.043  12.099
   83DPPS   PO4  986  20.959   5.103  11.719
   83DPPS   GL1  987  20.619   5.013  11.499
   83DPPS   GL2  988  20.439   5.063  11.639
   83DPPS   C1A  989  20.519   5.043  11.199
   83DPPS   C2A  990  20.249   5.093  10.889
   83DPPS   C3A  991  20.029   5.163  10.479
   83DPPS   C4A  992  19.769   5.223  10.089
   83DPPS   C1B  993  20.159   5.253  11.499
   83DPPS   C2B  994  19.899   5.353  11.179
   83DPPS   C3B  995  19.649   5.403  10.729
   83DPPS   C4B  996  19.309   5.463  10.429
   84DPPS   CNO  997   0.051   1.931  11.799
   84DPPS   PO4  998  21.019   1.611  11.709
   84DPPS   GL1  999  20.889   1.491  11.289
   84DPPS   GL2 1000   0.061   1.421  11.269
   84DPPS   C1A 1001  20.579   1.261  11.159
   84DPPS   C2A 1002  20.379   1.361  10.859
   84DPPS   C3A 1003  20.139   1.401  10.469
   84DPPS   C4A 1004  19.789   1.451  10.149
   84DPPS   C1B 1005   0.261   1.301  10.949
   84DPPS   C2B 1006   0.541   1.171  10.739
   84DPPS   C3B 1007   0.811   1.211  10.319
   84DPPS   C4B 1008   1.081   1.211   9.919
   85DPPS   CNO 1009  20.199   4.603  14.089
   85DPPS   PO4 1010  20.019   4.883  14.149
   85DPPS   GL1 1011  19.709   4.933  13.809
   85DPPS   GL2 1012  19.699   4.613  13.869
   85DPPS   C1A 1013  19.479   4.893  13.539
   85DPPS   C2A 1014  19.109   4.783  13.359
   85DPPS   C3A 1015  18.779   4.843  12.999
   85DPPS   C4A 1016  18.389   4.773  12.679
   85DPPS   C1B 1017  19.329   4.563  13.839
   85DPPS   C2B 1018  18.979   4.353  13.779
   85DPPS   C3B 1019  18.689   4.483  13.399
   85DPPS   C4B 1020  18.349   4.493  13.069
   86DPPS   CNO 1021  20.309   6.003  13.959
   86DPPS   PO4 1022  20.159   5.683  13.829
   86DPPS   GL1 1023  19.729   5.633  13.749
   86DPPS   GL2 1024  19.669   5.803  13.619
   86DPPS   C1A 1025  19.519   5.303  13.699
   86DPPS   C2A 1026  19.209   5.253  13.409
   86DPPS   C3A 1027  18.799   5.353  13.089
   86DPPS   C4A 1028  18.389   5.343  12.749
   86DPPS   C1B 1029  19.309   5.793  13.559
   86DPPS   C2B 1030  18.999   5.783  13.339
   86DPPS   C3B 1031  18.619   5.833  12.989
   86DPPS   C4B 1032  18.249   5.823  12.629
   87DPPS   CNO 1033  19.009   0.221  16.369
   87DPPS   PO4 1034  18.819   0.021  16.089
   87DPPS   GL1 1035  18.439   0.071  15.899
   87DPPS   GL2 1036  18.519   0.141  15.639
   87DPPS   C1A 1037  18.089   0.171  15.859
   87DPPS   C2A 1038  17.879   0.161  15.529
   87DPPS   C3A 1039  17.619   0.121  15.159
   87DPPS   C4A 1040  17.319   0.131  14.749
   87DPPS   C1B 1041  18.329   0.121  15.319
   87DPPS   C2B 1042  18.129   6.523  15.069
   87DPPS   C3B 1043  17.819   6.503  14.709
   87DPPS   C4B 1044  17.499   6.543  14.319
   88DPPS   CNO 1045  18.819   1.401  16.369
   88DPPS   PO4 1046  18.639   1.461  16.689
   88DPPS   GL1 1047  18.229   1.541  16.599
   88DPPS   GL2 1048  18.409   1.751  16.399
   88DPPS   C1A 1049  17.919   1.401  16.469
   88DPPS   C2A 1050  17.719   1.251  16.219
   88DPPS   C3A 1051  17.379   1.371  15.879
   88DPPS   C4A 1052  17.069   1.271  15.489
   88DPPS   C1B 1053  18.209   2.031  16.269
   88DPPS   C2B 1054  17.919   2.121  16.029
   88DPPS   C3B 1055  17.639   2.091  15.639
   88DPPS   C4B 1056  17.309   2.121  15.339
   89DPPS   CNO 1057  20.009   5.463  14.809
   89DPPS   PO4 1058  19.669   5.463  15.009
   89DPPS   GL1 1059  19.389   5.433  14.829
   89DPPS   GL2 1060  19.179   5.223  14.959
   89DPPS   C1A 1061  19.209   5.593  14.569
   89DPPS   C2A 1062  18.869   5.663  14.409
   89DPPS   C3A 1063  18.489   5.673  14.079
   89DPPS   C4A 1064  18.189   5.653  13.729
   89DPPS   C1B 1065  18.869   5.363  14.779
   89DPPS   C2B 1066  18.509   5.353  14.599
   89DPPS   C3B 1067  18.179   5.333  14.239
   89DPPS   C4B 1068  17.769   5.453  13.979
   90DPPS   CNO 1069  17.579   1.161  17.859
   90DPPS   PO4 1070  17.829   1.001  17.569
   90DPPS   GL1 1071  17.569   0.881  17.279
   90DPPS   GL2 1072  17.319   0.941  17.459
   90DPPS   C1A 1073  17.469   0.761  16.949
   90DPPS   C2A 1074  17.169   0.711  16.679
   90DPPS   C3A 1075  16.789   0.721  16.379
   90DPPS   C4A 1076  16.439   0.731  16.029
   90DPPS   C1B 1077  16.989   0.901  17.219
   90DPPS   C2B 1078  16.709   0.971  16.949
   90DPPS   C3B 1079  16.389   0.901  16.629
   90DPPS   C4B 1080  16.089   0.961  16.219
   91DPPS   CNO 1081  19.449   0.521  15.659
   91DPPS   PO4 1082  19.349   0.851  15.589
   91DPPS   GL1 1083  18.999   0.831  15.349
   91DPPS   GL2 1084  18.869   0.971  15.629
   91DPPS   C1A 1085  18.769   0.741  15.089
   91DPPS   C2A 1086  18.449   0.721  14.859
   91DPPS   C3A 1087  18.129   0.771  14.519
   91DPPS   C4A 1088  17.749   0.791  14.159
   91DPPS   C1B 1089  18.529   1.031  15.519
   91DPPS   C2B 1090  18.189   0.961  15.289
   91DPPS   C3B 1091  17.869   0.901  14.949
   91DPPS   C4B 1092  17.489   0.961  14.639
   92DPPS   CNO 1093  20.349   0.651  13.159
   92DPPS   PO4 1094  20.519   0.451  12.889
   92DPPS   GL1 1095  20.079   0.331  12.909
   92DPPS   GL2 1096  20.019   0.531  12.809
   92DPPS   C1A 1097  19.909   0.171  12.679
   92DPPS   C2A 1098  19.659   0.121  12.389
   92DPPS   C3A 1099  19.369   0.161  12.119
   92DPPS   C4A 1100  19.059   0.171  11.659
   92DPPS   C1B 1101  19.799   0.601  12.599
   92DPPS   C2B 1102  19.489   0.621  12.289
   92DPPS   C3B 1103  19.079   0.641  11.919
   92DPPS   C4B 1104  18.799   0.661  11.509
   93DPPS   CNO 1105  20.839   0.401  13.309
   93DPPS   PO4 1106  20.579   0.231  13.529
   93DPPS   GL1 1107  20.159   0.281  13.379
   93DPPS   GL2 1108  20.219   0.021  13.229
   93DPPS   C1A 1109  19.879   0.471  13.259
   93DPPS   C2A 1110  19.619   0.321  12.999
   93DPPS   C3A 1111  19.269   0.281  12.649
   93DPPS   C4A 1112  18.919   0.401  12.319
   93DPPS   C1B 1113  19.909   6.583  13.079
   93DPPS   C2B 1114  19.599   6.463  12.839
   93DPPS   C3B 1115  19.229   6.403  12.469
   93DPPS   C4B 1116  18.949   6.493  12.089
   94DPPS   CNO 1117  18.629   2.701  17.289
   94DPPS   PO4 1118  18.419   2.671  16.989
   94DPPS   GL1 1119  17.899   2.751  16.879
   94DPPS   GL2 1120  17.949   2.541  16.709
   94DPPS   C1A 1121  17.509   2.691  16.839
   94DPPS   C2A 1122  17.309   2.591  16.539
   94DPPS   C3A 1123  16.959   2.551  16.199
   94DPPS   C4A 1124  16.669   2.581  15.799
   94DPPS   C1B 1125  17.779   2.371  16.419
   94DPPS   C2B 1126  17.519   2.361  16.059
   94DPPS   C3B 1127  17.129   2.311  15.749
   94DPPS   C4B 1128  16.809   2.371  15.369
   95DPPS   CNO 1129  20.719   5.583  12.939
   95DPPS   PO4 1130  20.409   5.313  12.929
   95DPPS   GL1 1131  20.159   5.263  12.599
   95DPPS   GL2 1132  20.059   4.993  12.669
   95DPPS   C1A 1133  19.879   5.293  12.389
   95DPPS   C2A 1134  19.559   5.203  12.109
   95DPPS   C3A 1135  19.279   5.213  11.689
   95DPPS   C4A 1136  18.979   5.323  11.289
   95DPPS   C1B 1137  19.889   4.843  12.359
   95DPPS   C2B 1138  19.609   4.683  12.129
   95DPPS   C3B 1139  19.369   4.703  11.739
   95DPPS   C4B 1140  19.089   4.813  11.379
   96DPPS   CNO 1141  19.369   1.121  15.169
   96DPPS   PO4 1142  19.049   1.261  15.119
   96DPPS   GL1 1143  18.849   1.621  15.239
   96DPPS   GL2 1144  18.729   1.401  15.409
   96DPPS   C1A 1145  18.729   1.801  14.929
   96DPPS   C2A 1146  18.459   1.961  14.659
   96DPPS   C3A 1147  18.109   2.061  14.309
   96DPPS   C4A 1148  17.739   2.081  13.929
   96DPPS   C1B 1149  18.439   1.301  15.219
   96DPPS   C2B 1150  18.279   1.191  14.829
   96DPPS   C3B 1151  17.979   1.201  14.539
   96DPPS   C4B 1152  17.609   1.241  14.219
   97DPPS   CNO 1153  19.299   5.443  16.259
   97DPPS   PO4 1154  18.899   5.403  16.189
   97DPPS   GL1 1155  18.729   5.173  15.909
   97DPPS   GL2 1156  18.709   5.323  15.709
   97DPPS   C1A 1157  18.389   4.963  15.769
   97DPPS   C2A 1158  17.979   4.943  15.679
   97DPPS   C3A 1159  17.599   4.963  15.379
   97DPPS   C4A 1160  17.249   5.003  15.059
   97DPPS   C1B 1161  18.379   5.383  15.529
   97DPPS   C2B 1162  18.049   5.233  15.289
   97DPPS   C3B 1163  17.719   5.283  14.999
   97DPPS   C4B 1164  17.339   5.343  14.679
   98DPPS   CNO 1165  20.909   3.071  11.919
   98DPPS   PO4 1166   0.151   3.151  11.919
   98DPPS   GL1 1167   0.371   3.031  11.579
   98DPPS   GL2 1168   0.651   2.931  11.759
   98DPPS   C1A 1169   0.361   3.311  11.319
   98DPPS   C2A 1170   0.531   3.491  11.029
   98DPPS   C3A 1171   0.651   3.531  10.619
   98DPPS   C4A 1172   1.011   3.551  10.289
   98DPPS   C1B 1173   0.891   3.161  11.499
   98DPPS   C2B 1174   0.991   3.291  11.099
   98DPPS   C3B 1175   1.251   3.271  10.639
   98DPPS   C4B 1176   1.471   3.281  10.189
   99DPPS   CNO 1177  20.499   2.411  12.719
   99DPPS   PO4 1178  20.309   2.561  12.449
   99DPPS   GL1 1179  19.939   2.471  12.299
   99DPPS   GL2 1180  20.019   2.661  12.109
   99DPPS   C1A 1181  19.609   2.381  12.119
   99DPPS   C2A 1182  19.379   2.441  11.799
   99DPPS   C3A 1183  18.979   2.491  11.459
   99DPPS   C4A 1184  18.669   2.731  11.099
   99DPPS   C1B 1185  19.809   2.681  11.819
   99DPPS   C2B 1186  19.569   2.811  11.479
   99DPPS   C3B 1187  19.239   2.771  11.139
   99DPPS   C4B 1188  18.919   2.761  10.699
  100DPPS   CNO 1189  18.779   4.703  15.889
  100DPPS   PO4 1190  18.569   4.453  16.109
  100DPPS   GL1 1191  18.219   4.273  15.969
  100DPPS   GL2 1192  18.219   4.061  16.109
  100DPPS   C1A 1193  17.989   4.353  15.709
  100DPPS   C2A 1194  17.709   4.443  15.469
  100DPPS   C3A 1195  17.329   4.493  15.169
  100DPPS   C4A 1196  17.009   4.553  14.849
  100DPPS   C1B 1197  18.039   3.721  16.079
  100DPPS   C2B 1198  17.689   3.621  15.869
  100DPPS   C3B 1199  17.299   3.661  15.529
  100DPPS   C4B 1200  16.999   3.721  15.199
  101DPPC   NC3 1201  15.399   3.301  12.639
  101DPPC   PO4 1202  15.609   3.021  12.679
  101DPPC   GL1 1203  15.999   2.931  12.759
  101DPPC   GL2 1204  16.089   2.881  12.489
  101DPPC   C1A 1205  16.139   2.741  13.089
  101DPPC   C2A 1206  16.469   2.831  13.369
  101DPPC   C3A 1207  16.789   2.761  13.699
  101DPPC   C4A 1208  17.139   2.731  13.999
  101DPPC   C1B 1209  16.319   2.681  12.649
  101DPPC   C2B 1210  16.599   2.641  12.839
  101DPPC   C3B 1211  16.929   2.591  13.149
  101DPPC   C4B 1212  17.269   2.541  13.499
  102DPPC   NC3 1213  15.639   1.871  11.749
  102DPPC   PO4 1214  15.979   2.111  11.819
  102DPPC   GL1 1215  16.269   2.071  12.139
  102DPPC   GL2 1216  16.089   1.971  12.319
  102DPPC   C1A 1217  16.609   2.061  12.159
  102DPPC   C2A 1218  16.929   1.971  12.419
  102DPPC   C3A 1219  17.299   1.891  12.719
  102DPPC   C4A 1220  17.609   1.911  13.099
  102DPPC   C1B 1221  16.269   1.881  12.629
  102DPPC   C2B 1222  16.459   1.791  12.989
  102DPPC   C3B 1223  16.759   1.741  13.359
  102DPPC   C4B 1224  17.079   1.691  13.729
  103DPPC   NC3 1225  16.529   4.653  11.019
  103DPPC   PO4 1226  16.589   5.013  11.129
  103DPPC   GL1 1227  16.739   4.993  11.449
  103DPPC   GL2 1228  16.849   4.703  11.419
  103DPPC   C1A 1229  16.989   5.033  11.719
  103DPPC   C2A 1230  17.269   5.103  12.019
  103DPPC   C3A 1231  17.599   5.143  12.409
  103DPPC   C4A 1232  17.959   5.073  12.719
  103DPPC   C1B 1233  17.089   4.543  11.659
  103DPPC   C2B 1234  17.329   4.503  11.969
  103DPPC   C3B 1235  17.659   4.563  12.339
  103DPPC   C4B 1236  17.929   4.533  12.709
  104DPPC   NC3 1237   0.811   4.513   7.699
  104DPPC   PO4 1238   1.001   4.803   7.919
  104DPPC   GL1 1239   1.361   4.583   8.169
  104DPPC   GL2 1240   1.421   4.863   8.199
  104DPPC   C1A 1241   1.301   4.403   8.509
  104DPPC   C2A 1242   1.421   4.141   8.799
  104DPPC   C3A 1243   1.801   3.871   9.019
  104DPPC   C4A 1244   2.249   3.901   9.199
  104DPPC   C1B 1245   1.331   5.103   8.489
  104DPPC   C2B 1246   1.071   5.373   8.659
  104DPPC   C3B 1247   0.761   5.483   8.949
  104DPPC   C4B 1248   0.751   5.703   9.319
  105DPPC   NC3 1249   3.379   0.521   8.139
  105DPPC   PO4 1250   3.149   0.251   8.269
  105DPPC   GL1 1251   3.049   0.301   8.719
  105DPPC   GL2 1252   2.909   0.511   8.699
  105DPPC   C1A 1253   2.839   0.121   9.009
  105DPPC   C2A 1254   2.839   0.361   9.399
  105DPPC   C3A 1255   2.539   0.541   9.699
  105DPPC   C4A 1256   2.139   0.351   9.749
  105DPPC   C1B 1257   2.659   0.551   8.989
  105DPPC   C2B 1258   2.339   0.671   9.199
  105DPPC   C3B 1259   1.919   0.841   9.419
  105DPPC   C4B 1260   1.501   1.051   9.549
  106DPPC   NC3 1261   2.439   3.781   8.309
  106DPPC   PO4 1262   2.119   3.911   8.129
  106DPPC   GL1 1263   1.869   4.081   8.419
  106DPPC   GL2 1264   1.899   3.891   8.579
  106DPPC   C1A 1265   1.811   4.413   8.609
  106DPPC   C2A 1266   1.701   4.493   9.009
  106DPPC   C3A 1267   1.461   4.513   9.439
  106DPPC   C4A 1268   1.181   4.653   9.819
  106DPPC   C1B 1269   1.681   3.641   8.669
  106DPPC   C2B 1270   1.531   3.261   8.839
  106DPPC   C3B 1271   1.331   3.001   9.129
  106DPPC   C4B 1272   1.181   2.551   9.139
  107DPPC   NC3 1273  19.409   5.823   9.479
  107DPPC   PO4 1274  19.169   5.933   9.189
  107DPPC   GL1 1275  18.859   6.193   9.529
  107DPPC   GL2 1276  19.109   6.123   9.659
  107DPPC   C1A 1277  18.629   6.173   9.819
  107DPPC   C2A 1278  18.599   5.863  10.149
  107DPPC   C3A 1279  18.609   5.483  10.469
  107DPPC   C4A 1280  18.589   5.313  10.919
  107DPPC   C1B 1281  19.019   5.933   9.929
  107DPPC   C2B 1282  18.949   5.543  10.049
  107DPPC   C3B 1283  18.879   5.033  10.169
  107DPPC   C4B 1284  18.899   4.683  10.569
  108DPPC   NC3 1285  14.139   5.083  14.419
  108DPPC   PO4 1286  14.369   4.853  14.219
  108DPPC   GL1 1287  14.589   4.703  14.549
  108DPPC   GL2 1288  14.579   5.023  14.699
  108DPPC   C1A 1289  14.949   4.833  14.579
  108DPPC   C2A 1290  15.249   5.043  14.819
  108DPPC   C3A 1291  15.509   5.103  15.139
  108DPPC   C4A 1292  15.879   5.163  15.529
  108DPPC   C1B 1293  14.829   5.123  14.909
  108DPPC   C2B 1294  14.999   5.313  15.239
  108DPPC   C3B 1295  15.279   5.273  15.589
  108DPPC   C4B 1296  15.599   5.333  16.019
  109DPPC   NC3 1297  15.339   6.293  12.769
  109DPPC   PO4 1298  15.539   0.001  12.909
  109DPPC   GL1 1299  15.699   0.001  13.319
  109DPPC   GL2 1300  15.809   6.403  13.209
  109DPPC   C1A 1301  15.969   0.101  13.579
  109DPPC   C2A 1302  16.239   0.201  13.879
  109DPPC   C3A 1303  16.639   0.191  14.149
  109DPPC   C4A 1304  17.009   0.161  14.379
  109DPPC   C1B 1305  15.969   6.233  13.489
  109DPPC   C2B 1306  16.309   6.263  13.679
  109DPPC   C3B 1307  16.619   6.333  14.059
  109DPPC   C4B 1308  16.939   6.273  14.379
  110DPPC   NC3 1309  16.119   4.433  11.889
  110DPPC   PO4 1310  15.849   4.233  12.099
  110DPPC   GL1 1311  16.039   4.051  12.399
  110DPPC   GL2 1312  16.069   4.343  12.549
  110DPPC   C1A 1313  16.389   3.971  12.459
  110DPPC   C2A 1314  16.749   3.921  12.569
  110DPPC   C3A 1315  17.129   3.941  12.909
  110DPPC   C4A 1316  17.419   3.871  13.349
  110DPPC   C1B 1317  16.289   4.201  12.809
  110DPPC   C2B 1318  16.639   4.091  13.049
  110DPPC   C3B 1319  16.949   4.091  13.419
  110DPPC   C4B 1320  17.319   4.121  13.769
  111DPPC   NC3 1321  14.809   5.413  13.869
  111DPPC   PO4 1322  14.719   5.803  13.759
  111DPPC   GL1 1323  15.179   5.853  13.889
  111DPPC   GL2 1324  15.159   6.043  13.619
  111DPPC   C1A 1325  15.549   5.873  14.059
  111DPPC   C2A 1326  15.839   5.743  14.349
  111DPPC   C3A 1327  16.139   5.683  14.709
  111DPPC   C4A 1328  16.499   5.643  15.099
  111DPPC   C1B 1329  15.509   6.253  13.699
  111DPPC   C2B 1330  15.809   6.463  13.889
  111DPPC   C3B 1331  16.149   6.563  14.249
  111DPPC   C4B 1332  16.499   6.493  14.529
  112DPPC   NC3 1333  15.949   6.373  12.099
  112DPPC   PO4 1334  16.009   0.151  12.169
  112DPPC   GL1 1335  16.419   0.101  12.269
  112DPPC   GL2 1336  16.339   6.403  12.419
  112DPPC   C1A 1337  16.779   0.171  12.419
  112DPPC   C2A 1338  17.079   0.151  12.689
  112DPPC   C3A 1339  17.399   0.181  13.039
  112DPPC   C4A 1340  17.749   0.151  13.389
  112DPPC   C1B 1341  16.599   6.393  12.719
  112DPPC   C2B 1342  16.809   6.383  13.069
  112DPPC   C3B 1343  17.159   6.353  13.409
  112DPPC   C4B 1344  17.499   6.363  13.749
  113DPPC   NC3 1345  15.909   1.121  12.559
  113DPPC   PO4 1346  15.989   1.471  12.339
  113DPPC   GL1 1347  16.399   1.631  12.269
  113DPPC   GL2 1348  16.469   1.631  12.009
  113DPPC   C1A 1349  16.629   1.621  12.559
  113DPPC   C2A 1350  16.929   1.651  12.909
  113DPPC   C3A 1351  17.229   1.621  13.279
  113DPPC   C4A 1352  17.569   1.531  13.629
  113DPPC   C1B 1353  16.819   1.711  11.919
  113DPPC   C2B 1354  17.229   1.761  11.969
  113DPPC   C3B 1355  17.579   1.781  12.299
  113DPPC   C4B 1356  17.849   1.721  12.699
  114DPPC   NC3 1357  14.589   1.601  14.259
  114DPPC   PO4 1358  14.649   1.921  14.509
  114DPPC   GL1 1359  14.899   2.111  14.829
  114DPPC   GL2 1360  14.739   1.941  15.049
  114DPPC   C1A 1361  15.209   2.231  14.979
  114DPPC   C2A 1362  15.529   2.231  15.319
  114DPPC   C3A 1363  15.909   2.301  15.689
  114DPPC   C4A 1364  16.289   2.351  15.989
  114DPPC   C1B 1365  14.979   1.881  15.319
  114DPPC   C2B 1366  15.259   1.981  15.669
  114DPPC   C3B 1367  15.639   1.961  15.959
  114DPPC   C4B 1368  15.999   2.031  16.299
  115DPPC   NC3 1369  15.189   0.171  13.249
  115DPPC   PO4 1370  14.999   0.431  13.489
  115DPPC   GL1 1371  15.329   0.741  13.389
  115DPPC   GL2 1372  15.309   0.671  13.719
  115DPPC   C1A 1373  15.649   0.801  13.429
  115DPPC   C2A 1374  15.949   0.641  13.659
  115DPPC   C3A 1375  16.319   0.681  14.029
  115DPPC   C4A 1376  16.719   0.651  14.329
  115DPPC   C1B 1377  15.549   0.531  13.909
  115DPPC   C2B 1378  15.909   0.441  14.149
  115DPPC   C3B 1379  16.279   0.381  14.439
  115DPPC   C4B 1380  16.649   0.371  14.799
  116DPPC   NC3 1381  14.979   2.741  14.279
  116DPPC   PO4 1382  14.969   2.831  13.909
  116DPPC   GL1 1383  15.249   3.141  13.979
  116DPPC   GL2 1384  15.449   3.061  13.689
  116DPPC   C1A 1385  15.499   3.311  14.239
  116DPPC   C2A 1386  15.769   3.381  14.569
  116DPPC   C3A 1387  16.149   3.371  14.859
  116DPPC   C4A 1388  16.519   3.361  15.239
  116DPPC   C1B 1389  15.769   3.111  13.869
  116DPPC   C2B 1390  16.009   3.161  14.179
  116DPPC   C3B 1391  16.409   3.171  14.429
  116DPPC   C4B 1392  16.799   3.121  14.689
  117DPPC   NC3 1393  19.329   2.471   8.839
  117DPPC   PO4 1394  19.019   2.331   9.099
  117DPPC   GL1 1395  19.369   2.041   9.339
  117DPPC   GL2 1396  19.519   2.251   9.329
  117DPPC   C1A 1397  19.659   1.791   9.449
  117DPPC   C2A 1398  20.009   1.671   9.669
  117DPPC   C3A 1399  20.289   1.731  10.049
  117DPPC   C4A 1400  20.579   1.671  10.479
  117DPPC   C1B 1401  19.749   2.221   9.669
  117DPPC   C2B 1402  20.089   2.181   9.929
  117DPPC   C3B 1403  20.319   2.121  10.369
  117DPPC   C4B 1404  20.589   2.201  10.779
  118DPPC   NC3 1405  15.569   3.381  11.729
  118DPPC   PO4 1406  15.979   3.391  11.739
  118DPPC   GL1 1407  16.099   3.121  12.039
  118DPPC   GL2 1408  16.389   3.101  11.829
  118DPPC   C1A 1409  16.289   3.191  12.359
  118DPPC   C2A 1410  16.529   3.131  12.699
  118DPPC   C3A 1411  16.839   3.141  13.089
  118DPPC   C4A 1412  17.119   3.031  13.429
  118DPPC   C1B 1413  16.729   3.171  12.009
  118DPPC   C2B 1414  17.139   3.141  12.089
  118DPPC   C3B 1415  17.439   3.211  12.439
  118DPPC   C4B 1416  17.749   3.171  12.829
  119DPPC   NC3 1417  15.509   1.961  13.459
  119DPPC   PO4 1418  15.449   1.601  13.469
  119DPPC   GL1 1419  15.669   1.501  13.739
  119DPPC   GL2 1420  15.859   1.761  13.649
  119DPPC   C1A 1421  15.729   1.421  14.119
  119DPPC   C2A 1422  15.989   1.311  14.419
  119DPPC   C3A 1423  16.329   1.341  14.789
  119DPPC   C4A 1424  16.629   1.411  15.139
  119DPPC   C1B 1425  16.079   1.731  13.919
  119DPPC   C2B 1426  16.359   1.601  14.219
  119DPPC   C3B 1427  16.769   1.571  14.569
  119DPPC   C4B 1428  17.039   1.561  14.969
  120DPPC   NC3 1429  16.779   6.523  10.509
  120DPPC   PO4 1430  16.829   0.261  10.719
  120DPPC   GL1 1431  17.039   0.431  11.089
  120DPPC   GL2 1432  17.199   0.201  10.959
  120DPPC   C1A 1433  17.049   0.391  11.469
  120DPPC   C2A 1434  17.309   0.281  11.799
  120DPPC   C3A 1435  17.689   0.321  12.109
  120DPPC   C4A 1436  18.059   0.321  12.449
  120DPPC   C1B 1437  17.589   0.251  10.939
  120DPPC   C2B 1438  17.929   0.311  11.189
  120DPPC   C3B 1439  18.249   0.421  11.489
  120DPPC   C4B 1440  18.609   0.401  11.899
  121DPPC   NC3 1441  16.149   6.083  11.459
  121DPPC   PO4 1442  16.129   6.413  11.659
  121DPPC   GL1 1443  16.439   6.413  11.889
  121DPPC   GL2 1444  16.439   6.203  11.979
  121DPPC   C1A 1445  16.769   6.553  12.029
  121DPPC   C2A 1446  17.129   6.513  12.169
  121DPPC   C3A 1447  17.479   6.563  12.519
  121DPPC   C4A 1448  17.869   6.503  12.849
  121DPPC   C1B 1449  16.679   6.213  12.269
  121DPPC   C2B 1450  16.999   6.233  12.549
  121DPPC   C3B 1451  17.419   6.223  12.879
  121DPPC   C4B 1452  17.699   6.273  13.269
  122DPPC   NC3 1453  15.569   2.701  13.089
  122DPPC   PO4 1454  15.349   2.451  13.289
  122DPPC   GL1 1455  15.399   2.651  13.599
  122DPPC   GL2 1456  15.709   2.671  13.559
  122DPPC   C1A 1457  15.499   2.691  13.909
  122DPPC   C2A 1458  15.609   2.821  14.249
  122DPPC   C3A 1459  15.969   2.821  14.619
  122DPPC   C4A 1460  16.339   2.871  14.949
  122DPPC   C1B 1461  15.929   2.701  13.829
  122DPPC   C2B 1462  16.149   2.681  14.199
  122DPPC   C3B 1463  16.499   2.671  14.529
  122DPPC   C4B 1464  16.869   2.731  14.929
  123DPPC   NC3 1465  17.679   4.503   9.129
  123DPPC   PO4 1466  17.829   4.403   9.489
  123DPPC   GL1 1467  18.079   4.633   9.749
  123DPPC   GL2 1468  17.879   4.833   9.819
  123DPPC   C1A 1469  18.249   4.543  10.029
  123DPPC   C2A 1470  18.469   4.493  10.389
  123DPPC   C3A 1471  18.659   4.283  10.769
  123DPPC   C4A 1472  18.499   4.071  11.239
  123DPPC   C1B 1473  17.859   4.853  10.219
  123DPPC   C2B 1474  17.859   4.903  10.599
  123DPPC   C3B 1475  18.149   4.953  11.009
  123DPPC   C4B 1476  18.449   5.043  11.439
  124DPPC   NC3 1477  15.879   5.633  12.089
  124DPPC   PO4 1478  16.209   5.813  11.919
  124DPPC   GL1 1479  16.529   5.713  12.139
  124DPPC   GL2 1480  16.309   5.503  12.279
  124DPPC   C1A 1481  16.879   5.753  12.329
  124DPPC   C2A 1482  17.129   5.773  12.629
  124DPPC   C3A 1483  17.489   5.753  12.979
  124DPPC   C4A 1484  17.759   5.803  13.409
  124DPPC   C1B 1485  16.539   5.463  12.559
  124DPPC   C2B 1486  16.799   5.433  12.889
  124DPPC   C3B 1487  17.169   5.403  13.209
  124DPPC   C4B 1488  17.499   5.413  13.559
  125DPPC   NC3 1489  16.739   6.123  10.099
  125DPPC   PO4 1490  16.689   5.993  10.479
  125DPPC   GL1 1491  16.929   6.093  10.879
  125DPPC   GL2 1492  17.069   6.243  10.709
  125DPPC   C1A 1493  17.059   5.883  11.129
  125DPPC   C2A 1494  17.199   5.863  11.549
  125DPPC   C3A 1495  17.559   5.883  11.889
  125DPPC   C4A 1496  17.949   5.943  12.229
  125DPPC   C1B 1497  17.289   6.373  10.929
  125DPPC   C2B 1498  17.419   6.593  11.319
  125DPPC   C3B 1499  17.839   0.051  11.599
  125DPPC   C4B 1500  18.159   0.091  11.949
  126DPPC   NC3 1501  18.369   5.003   9.729
  126DPPC   PO4 1502  18.319   5.333   9.489
  126DPPC   GL1 1503  18.389   5.583   9.769
  126DPPC   GL2 1504  18.259   5.893   9.779
  126DPPC   C1A 1505  18.529   5.363  10.029
  126DPPC   C2A 1506  18.319   5.123  10.279
  126DPPC   C3A 1507  18.479   4.933  10.579
  126DPPC   C4A 1508  18.709   4.783  11.029
  126DPPC   C1B 1509  18.189   6.093  10.099
  126DPPC   C2B 1510  18.329   6.463  10.079
  126DPPC   C3B 1511  18.429   0.181  10.479
  126DPPC   C4B 1512  18.669   0.451  10.729
  127DPPC   NC3 1513  15.779   0.651  12.379
  127DPPC   PO4 1514  15.669   0.361  12.639
  127DPPC   GL1 1515  15.999   0.381  12.769
  127DPPC   GL2 1516  16.159   0.601  12.689
  127DPPC   C1A 1517  16.019   0.151  13.069
  127DPPC   C2A 1518  16.299   6.583  13.279
  127DPPC   C3A 1519  16.719   0.001  13.639
  127DPPC   C4A 1520  17.059   6.553  13.909
  127DPPC   C1B 1521  16.329   0.831  12.909
  127DPPC   C2B 1522  16.679   0.831  13.139
  127DPPC   C3B 1523  17.059   0.751  13.449
  127DPPC   C4B 1524  17.469   0.761  13.769
  128DPPC   NC3 1525   3.619   5.213   8.769
  128DPPC   PO4 1526   3.339   5.033   8.649
  128DPPC   GL1 1527   3.039   4.843   8.809
  128DPPC   GL2 1528   3.149   4.673   8.969
  128DPPC   C1A 1529   2.679   4.863   8.959
  128DPPC   C2A 1530   2.549   4.713   9.329
  128DPPC   C3A 1531   2.309   4.623   9.699
  128DPPC   C4A 1532   2.069   4.723  10.099
  128DPPC   C1B 1533   2.989   4.803   9.319
  128DPPC   C2B 1534   2.749   4.953   9.689
  128DPPC   C3B 1535   2.489   4.983  10.089
  128DPPC   C4B 1536   2.229   5.053  10.519
  129DPPC   NC3 1537  17.299   2.731   9.469
  129DPPC   PO4 1538  17.329   2.891   9.799
  129DPPC   GL1 1539  17.379   2.971  10.189
  129DPPC   GL2 1540  17.259   2.811  10.369
  129DPPC   C1A 1541  17.759   3.091  10.199
  129DPPC   C2A 1542  18.019   3.331  10.379
  129DPPC   C3A 1543  17.959   3.781  10.449
  129DPPC   C4A 1544  18.189   4.111  10.159
  129DPPC   C1B 1545  17.569   2.731  10.589
  129DPPC   C2B 1546  17.899   2.631  10.749
  129DPPC   C3B 1547  18.159   2.601  11.129
  129DPPC   C4B 1548  18.419   2.691  11.509
  130DPPC   NC3 1549  16.089   3.831  11.349
  130DPPC   PO4 1550  16.009   3.981  11.689
  130DPPC   GL1 1551  16.229   3.991  11.989
  130DPPC   GL2 1552  16.309   3.691  11.979
  130DPPC   C1A 1553  16.569   4.101  12.039
  130DPPC   C2A 1554  16.949   4.181  12.039
  130DPPC   C3A 1555  17.189   4.181  12.419
  130DPPC   C4A 1556  17.529   4.243  12.659
  130DPPC   C1B 1557  16.559   3.551  12.229
  130DPPC   C2B 1558  16.859   3.401  12.459
  130DPPC   C3B 1559  17.179   3.381  12.839
  130DPPC   C4B 1560  17.479   3.331  13.259
  131DPPC   NC3 1561  17.989   6.263   9.069
  131DPPC   PO4 1562  17.939   6.183   9.479
  131DPPC   GL1 1563  17.779   6.403   9.779
  131DPPC   GL2 1564  17.719   6.143   9.979
  131DPPC   C1A 1565  17.829   0.041  10.059
  131DPPC   C2A 1566  17.859   0.151  10.499
  131DPPC   C3A 1567  18.079   0.471  10.739
  131DPPC   C4A 1568  18.399   0.641  11.099
  131DPPC   C1B 1569  17.859   6.223  10.329
  131DPPC   C2B 1570  18.119   6.343  10.629
  131DPPC   C3B 1571  18.319   0.021  10.969
  131DPPC   C4B 1572  18.669   0.191  11.299
  132DPPC   NC3 1573  15.289   4.783  13.289
  132DPPC   PO4 1574  15.349   4.533  12.969
  132DPPC   GL1 1575  15.669   4.493  13.129
  132DPPC   GL2 1576  15.839   4.603  12.889
  132DPPC   C1A 1577  15.879   4.523  13.469
  132DPPC   C2A 1578  16.079   4.473  13.779
  132DPPC   C3A 1579  16.379   4.443  14.159
  132DPPC   C4A 1580  16.669   4.473  14.539
  132DPPC   C1B 1581  16.139   4.773  13.119
  132DPPC   C2B 1582  16.319   4.743  13.509
  132DPPC   C3B 1583  16.669   4.743  13.849
  132DPPC   C4B 1584  17.029   4.813  14.199
  133DPPC   NC3 1585  16.049   1.071  11.659
  133DPPC   PO4 1586  15.939   1.041  12.059
  133DPPC   GL1 1587  16.259   1.071  12.259
  133DPPC   GL2 1588  16.399   1.251  12.099
  133DPPC   C1A 1589  16.449   1.161  12.589
  133DPPC   C2A 1590  16.829   1.131  12.669
  133DPPC   C3A 1591  17.079   1.141  13.059
  133DPPC   C4A 1592  17.479   1.091  13.399
  133DPPC   C1B 1593  16.769   1.321  12.139
  133DPPC   C2B 1594  17.059   1.431  12.419
  133DPPC   C3B 1595  17.389   1.451  12.779
  133DPPC   C4B 1596  17.719   1.441  13.169
  134DPPC   NC3 1597  16.239   2.951  11.269
  134DPPC   PO4 1598  16.469   2.631  11.329
  134DPPC   GL1 1599  16.689   2.771  11.699
  134DPPC   GL2 1600  16.769   3.041  11.529
  134DPPC   C1A 1601  16.989   2.771  11.869
  134DPPC   C2A 1602  17.189   2.681  12.199
  134DPPC   C3A 1603  17.509   2.701  12.539
  134DPPC   C4A 1604  17.819   2.711  12.869
  134DPPC   C1B 1605  16.929   3.361  11.649
  134DPPC   C2B 1606  17.309   3.551  11.649
  134DPPC   C3B 1607  17.529   3.481  12.049
  134DPPC   C4B 1608  17.879   3.541  12.439
  135DPPC   NC3 1609   1.301   2.141   8.469
  135DPPC   PO4 1610   1.391   1.751   8.329
  135DPPC   GL1 1611   1.571   1.671   8.659
  135DPPC   GL2 1612   1.721   1.841   8.819
  135DPPC   C1A 1613   1.341   1.531   8.839
  135DPPC   C2A 1614   1.321   1.171   9.089
  135DPPC   C3A 1615   1.441   0.671   9.049
  135DPPC   C4A 1616   1.701   0.391   8.779
  135DPPC   C1B 1617   1.501   1.991   9.119
  135DPPC   C2B 1618   1.201   2.111   9.449
  135DPPC   C3B 1619   0.951   2.151   9.869
  135DPPC   C4B 1620   0.611   2.281  10.229
  136DPPC   NC3 1621  14.669   1.261  13.599
  136DPPC   PO4 1622  14.619   1.211  14.019
  136DPPC   GL1 1623  14.989   1.271  14.189
  136DPPC   GL2 1624  14.949   1.341  14.499
  136DPPC   C1A 1625  15.319   1.201  14.349
  136DPPC   C2A 1626  15.589   1.051  14.619
  136DPPC   C3A 1627  15.849   1.071  14.949
  136DPPC   C4A 1628  16.269   1.061  15.289
  136DPPC   C1B 1629  15.169   1.301  14.809
  136DPPC   C2B 1630  15.439   1.271  15.079
  136DPPC   C3B 1631  15.779   1.281  15.439
  136DPPC   C4B 1632  16.149   1.331  15.859
  137DPPC   NC3 1633  16.779   2.181  10.109
  137DPPC   PO4 1634  16.739   2.021  10.469
  137DPPC   GL1 1635  16.789   1.881  10.869
  137DPPC   GL2 1636  16.929   2.091  10.939
  137DPPC   C1A 1637  17.039   1.641  11.019
  137DPPC   C2A 1638  17.329   1.641  11.369
  137DPPC   C3A 1639  17.659   1.581  11.719
  137DPPC   C4A 1640  17.989   1.591  12.059
  137DPPC   C1B 1641  17.209   2.081  11.219
  137DPPC   C2B 1642  17.399   2.071  11.559
  137DPPC   C3B 1643  17.709   2.051  11.909
  137DPPC   C4B 1644  18.019   2.051  12.289
  138DPPC   NC3 1645   1.919   1.761   8.249
  138DPPC   PO4 1646   2.189   1.751   8.559
  138DPPC   GL1 1647   2.069   1.541   8.899
  138DPPC   GL2 1648   1.859   1.431   8.829
  138DPPC   C1A 1649   2.179   1.711   9.199
  138DPPC   C2A 1650   2.319   1.951   9.489
  138DPPC   C3A 1651   2.399   2.121   9.829
  138DPPC   C4A 1652   2.319   2.201  10.319
  138DPPC   C1B 1653   1.691   1.541   9.119
  138DPPC   C2B 1654   1.421   1.641   9.399
  138DPPC   C3B 1655   1.151   1.701   9.769
  138DPPC   C4B 1656   0.871   1.761  10.189
  139DPPC   NC3 1657  14.649   6.303  13.879
  139DPPC   PO4 1658  14.549   0.061  13.969
  139DPPC   GL1 1659  14.759   0.221  14.279
  139DPPC   GL2 1660  14.899   6.513  14.299
  139DPPC   C1A 1661  14.969   0.421  14.519
  139DPPC   C2A 1662  15.269   0.361  14.749
  139DPPC   C3A 1663  15.619   0.291  15.079
  139DPPC   C4A 1664  15.929   0.301  15.389
  139DPPC   C1B 1665  15.199   6.513  14.509
  139DPPC   C2B 1666  15.509   6.403  14.729
  139DPPC   C3B 1667  15.809   6.473  15.179
  139DPPC   C4B 1668  16.219   6.453  15.489
  140DPPC   NC3 1669   4.569   1.271   9.689
  140DPPC   PO4 1670   4.249   1.491   9.579
  140DPPC   GL1 1671   3.859   1.261   9.569
  140DPPC   GL2 1672   3.869   1.481   9.839
  140DPPC   C1A 1673   3.559   1.161   9.719
  140DPPC   C2A 1674   3.329   1.051  10.049
  140DPPC   C3A 1675   2.969   1.001  10.339
  140DPPC   C4A 1676   2.659   0.931  10.689
  140DPPC   C1B 1677   3.669   1.351  10.169
  140DPPC   C2B 1678   3.399   1.371  10.449
  140DPPC   C3B 1679   3.079   1.241  10.789
  140DPPC   C4B 1680   2.929   1.281  11.189
  141DPPC   NC3 1681  14.239   2.361  14.359
  141DPPC   PO4 1682  14.629   2.401  14.299
  141DPPC   GL1 1683  14.969   2.341  14.489
  141DPPC   GL2 1684  15.069   2.151  14.349
  141DPPC   C1A 1685  15.349   2.531  14.519
  141DPPC   C2A 1686  15.619   2.541  14.829
  141DPPC   C3A 1687  15.949   2.551  15.169
  141DPPC   C4A 1688  16.339   2.511  15.429
  141DPPC   C1B 1689  15.399   2.051  14.509
  141DPPC   C2B 1690  15.679   2.021  14.789
  141DPPC   C3B 1691  16.019   2.041  15.159
  141DPPC   C4B 1692  16.419   2.051  15.479
  142DPPC   NC3 1693  15.529   5.413  12.959
  142DPPC   PO4 1694  15.349   5.293  13.259
  142DPPC   GL1 1695  15.249   5.473  13.699
  142DPPC   GL2 1696  15.409   5.673  13.509
  142DPPC   C1A 1697  15.329   5.473  14.029
  142DPPC   C2A 1698  15.439   5.403  14.429
  142DPPC   C3A 1699  15.709   5.383  14.809
  142DPPC   C4A 1700  16.029   5.443  15.149
  142DPPC   C1B 1701  15.699   5.843  13.629
  142DPPC   C2B 1702  15.959   5.933  13.969
  142DPPC   C3B 1703  16.269   5.963  14.309
  142DPPC   C4B 1704  16.629   5.963  14.739
  143DPPC   NC3 1705  16.419   2.341  11.699
  143DPPC   PO4 1706  16.219   2.681  11.819
  143DPPC   GL1 1707  16.489   2.781  12.129
  143DPPC   GL2 1708  16.569   2.511  12.109
  143DPPC   C1A 1709  16.779   2.891  12.359
  143DPPC   C2A 1710  17.029   2.951  12.619
  143DPPC   C3A 1711  17.329   2.941  12.969
  143DPPC   C4A 1712  17.609   2.881  13.399
  143DPPC   C1B 1713  16.839   2.401  12.329
  143DPPC   C2B 1714  17.109   2.451  12.679
  143DPPC   C3B 1715  17.409   2.471  12.999
  143DPPC   C4B 1716  17.759   2.421  13.349
  144DPPC   NC3 1717  15.859   3.731  12.109
  144DPPC   PO4 1718  15.739   3.351  12.219
  144DPPC   GL1 1719  15.849   3.431  12.629
  144DPPC   GL2 1720  16.039   3.621  12.499
  144DPPC   C1A 1721  16.119   3.341  12.849
  144DPPC   C2A 1722  16.339   3.241  13.179
  144DPPC   C3A 1723  16.639   3.271  13.529
  144DPPC   C4A 1724  16.979   3.231  13.869
  144DPPC   C1B 1725  16.419   3.621  12.689
  144DPPC   C2B 1726  16.659   3.601  13.019
  144DPPC   C3B 1727  16.999   3.531  13.399
  144DPPC   C4B 1728  17.339   3.571  13.809
  145DPPC   NC3 1729  20.109   3.791   8.869
  145DPPC   PO4 1730  19.779   3.651   8.959
  145DPPC   GL1 1731  19.939   3.561   9.309
  145DPPC   GL2 1732  20.189   3.401   9.129
  145DPPC   C1A 1733  20.059   3.531   9.639
  145DPPC   C2A 1734  20.379   3.571   9.879
  145DPPC   C3A 1735  20.709   3.511  10.239
  145DPPC   C4A 1736  20.919   3.431  10.649
  145DPPC   C1B 1737  20.419   3.381   9.429
  145DPPC   C2B 1738  20.809   3.451   9.609
  145DPPC   C3B 1739   0.011   3.141   9.669
  145DPPC   C4B 1740   0.131   2.931   9.269
  146DPPC   NC3 1741   3.509   3.961   8.519
  146DPPC   PO4 1742   3.749   4.071   8.839
  146DPPC   GL1 1743   3.499   4.221   9.109
  146DPPC   GL2 1744   3.389   4.001   9.209
  146DPPC   C1A 1745   3.479   4.523   9.299
  146DPPC   C2A 1746   3.329   4.663   9.669
  146DPPC   C3A 1747   3.049   4.743  10.079
  146DPPC   C4A 1748   2.759   4.783  10.439
  146DPPC   C1B 1749   3.289   4.091   9.549
  146DPPC   C2B 1750   3.189   4.243   9.919
  146DPPC   C3B 1751   2.929   4.283  10.349
  146DPPC   C4B 1752   2.609   4.333  10.749
  147DPPC   NC3 1753  16.809   0.791  11.299
  147DPPC   PO4 1754  16.679   0.691  10.929
  147DPPC   GL1 1755  17.049   0.971  10.839
  147DPPC   GL2 1756  16.979   1.231  10.889
  147DPPC   C1A 1757  17.279   0.771  11.089
  147DPPC   C2A 1758  17.509   0.621  11.359
  147DPPC   C3A 1759  17.799   0.571  11.639
  147DPPC   C4A 1760  18.069   0.591  12.029
  147DPPC   C1B 1761  17.309   1.361  10.989
  147DPPC   C2B 1762  17.679   1.321  11.179
  147DPPC   C3B 1763  18.089   1.341  11.499
  147DPPC   C4B 1764  18.389   1.421  11.899
  148DPPC   NC3 1765  16.279   0.271  11.779
  148DPPC   PO4 1766  16.219   0.571  11.519
  148DPPC   GL1 1767  16.479   0.901  11.589
  148DPPC   GL2 1768  16.619   0.601  11.649
  148DPPC   C1A 1769  16.609   1.161  11.769
  148DPPC   C2A 1770  17.029   1.291  11.809
  148DPPC   C3A 1771  17.459   1.271  12.039
  148DPPC   C4A 1772  17.749   1.311  12.439
  148DPPC   C1B 1773  16.919   0.801  11.759
  148DPPC   C2B 1774  17.299   0.821  11.939
  148DPPC   C3B 1775  17.709   0.821  12.249
  148DPPC   C4B 1776  17.999   0.801  12.619
  149DPPC   NC3 1777  15.069   0.651  12.949
  149DPPC   PO4 1778  15.449   0.781  12.799
  149DPPC   GL1 1779  15.849   0.811  12.909
  149DPPC   GL2 1780  15.799   1.061  13.049
  149DPPC   C1A 1781  15.999   0.571  13.199
  149DPPC   C2A 1782  16.379   0.471  13.389
  149DPPC   C3A 1783  16.669   0.511  13.689
  149DPPC   C4A 1784  17.089   0.501  13.969
  149DPPC   C1B 1785  16.099   1.101  13.279
  149DPPC   C2B 1786  16.409   0.981  13.539
  149DPPC   C3B 1787  16.789   0.931  13.879
  149DPPC   C4B 1788  17.169   0.901  14.229
  150DPPC   NC3 1789  18.349   1.611   9.649
  150DPPC   PO4 1790  18.029   1.811   9.719
  150DPPC   GL1 1791  17.949   2.051  10.089
  150DPPC   GL2 1792  17.649   2.141  10.049
  150DPPC   C1A 1793  17.889   2.051  10.499
  150DPPC   C2A 1794  18.029   2.141  10.889
  150DPPC   C3A 1795  18.299   2.151  11.259
  150DPPC   C4A 1796  18.639   2.181  11.649
  150DPPC   C1B 1797  17.499   2.261  10.349
  150DPPC   C2B 1798  17.419   2.211  10.759
  150DPPC   C3B 1799  17.689   2.381  11.189
  150DPPC   C4B 1800  18.009   2.351  11.569
  151DPPC   NC3 1801   0.261   1.371   7.929
  151DPPC   PO4 1802   0.121   1.031   8.079
  151DPPC   GL1 1803   0.241   1.101   8.479
  151DPPC   GL2 1804   0.121   0.821   8.509
  151DPPC   C1A 1805   0.441   1.281   8.739
  151DPPC   C2A 1806   0.561   1.611   9.019
  151DPPC   C3A 1807   0.681   2.091   9.119
  151DPPC   C4A 1808   0.821   2.361   9.439
  151DPPC   C1B 1809   0.211   0.701   8.849
  151DPPC   C2B 1810   0.381   0.611   9.179
  151DPPC   C3B 1811   0.731   0.441   9.479
  151DPPC   C4B 1812   1.191   0.431   9.439
  152DPPC   NC3 1813  19.969   6.113   8.619
  152DPPC   PO4 1814  20.329   5.983   8.699
  152DPPC   GL1 1815  20.609   6.093   9.039
  152DPPC   GL2 1816  20.519   6.403   8.939
  152DPPC   C1A 1817  20.789   6.153   9.429
  152DPPC   C2A 1818  21.029   6.083   9.769
  152DPPC   C3A 1819   0.111   6.073  10.209
  152DPPC   C4A 1820   0.461   6.103  10.579
  152DPPC   C1B 1821  20.709   6.563   9.219
  152DPPC   C2B 1822  20.939   6.563   9.579
  152DPPC   C3B 1823   0.061   6.533   9.989
  152DPPC   C4B 1824   0.241   0.021  10.489
  153DPPC   NC3 1825  15.789   0.191  11.719
  153DPPC   PO4 1826  15.819   0.581  11.819
  153DPPC   GL1 1827  16.239   0.741  11.939
  153DPPC   GL2 1828  16.209   0.621  12.179
  153DPPC   C1A 1829  16.559   0.811  11.999
  153DPPC   C2A 1830  16.899   0.891  12.219
  153DPPC   C3A 1831  17.259   0.941  12.499
  153DPPC   C4A 1832  17.579   0.971  12.909
  153DPPC   C1B 1833  16.539   0.581  12.379
  153DPPC   C2B 1834  16.839   0.631  12.599
  153DPPC   C3B 1835  17.189   0.651  12.969
  153DPPC   C4B 1836  17.549   0.581  13.259
  154DPPC   NC3 1837  16.329   5.393  10.969
  154DPPC   PO4 1838  16.159   5.673  11.199
  154DPPC   GL1 1839  16.339   5.623  11.519
  154DPPC   GL2 1840  16.499   5.863  11.579
  154DPPC   C1A 1841  16.549   5.423  11.729
  154DPPC   C2A 1842  16.929   5.463  11.879
  154DPPC   C3A 1843  17.279   5.583  12.179
  154DPPC   C4A 1844  17.609   5.613  12.509
  154DPPC   C1B 1845  16.769   5.953  11.809
  154DPPC   C2B 1846  17.129   6.033  12.019
  154DPPC   C3B 1847  17.469   6.043  12.389
  154DPPC   C4B 1848  17.849   6.003  12.779
  155DPPC   NC3 1849  14.219   3.541  13.889
  155DPPC   PO4 1850  14.259   3.301  14.189
  155DPPC   GL1 1851  14.609   3.241  14.329
  155DPPC   GL2 1852  14.819   3.161  14.259
  155DPPC   C1A 1853  14.769   3.551  14.459
  155DPPC   C2A 1854  14.909   3.891  14.669
  155DPPC   C3A 1855  15.269   4.061  14.789
  155DPPC   C4A 1856  15.699   4.061  15.149
  155DPPC   C1B 1857  15.119   3.161  14.479
  155DPPC   C2B 1858  15.479   3.071  14.729
  155DPPC   C3B 1859  15.739   3.051  15.099
  155DPPC   C4B 1860  16.139   3.061  15.349
  156DPPC   NC3 1861   2.299   0.791   8.239
  156DPPC   PO4 1862   2.369   0.431   8.159
  156DPPC   GL1 1863   2.439   0.411   8.579
  156DPPC   GL2 1864   2.179   0.381   8.629
  156DPPC   C1A 1865   2.489   0.091   8.779
  156DPPC   C2A 1866   2.569   6.323   9.019
  156DPPC   C3A 1867   2.809   5.863   9.179
  156DPPC   C4A 1868   2.819   5.333   9.269
  156DPPC   C1B 1869   2.079   0.451   8.969
  156DPPC   C2B 1870   1.869   0.341   9.289
  156DPPC   C3B 1871   1.751   6.563   9.529
  156DPPC   C4B 1872   1.721   6.153   9.769
  157DPPC   NC3 1873  15.819   1.971  12.739
  157DPPC   PO4 1874  15.589   2.201  12.949
  157DPPC   GL1 1875  15.859   2.321  13.219
  157DPPC   GL2 1876  15.959   2.021  13.219
  157DPPC   C1A 1877  16.119   2.471  13.459
  157DPPC   C2A 1878  16.369   2.471  13.799
  157DPPC   C3A 1879  16.699   2.411  14.119
  157DPPC   C4A 1880  17.009   2.621  14.479
  157DPPC   C1B 1881  16.209   2.031  13.479
  157DPPC   C2B 1882  16.529   1.951  13.789
  157DPPC   C3B 1883  16.829   1.931  14.149
  157DPPC   C4B 1884  17.189   1.971  14.509
  158DPPC   NC3 1885  17.309   1.271   9.369
  158DPPC   PO4 1886  17.299   1.071   9.739
  158DPPC   GL1 1887  17.569   1.101  10.099
  158DPPC   GL2 1888  17.419   0.961  10.269
  158DPPC   C1A 1889  17.799   1.351  10.299
  158DPPC   C2A 1890  18.009   1.581  10.569
  158DPPC   C3A 1891  18.399   1.941  10.649
  158DPPC   C4A 1892  18.639   2.371  10.769
  158DPPC   C1B 1893  17.569   0.831  10.589
  158DPPC   C2B 1894  17.709   0.741  10.939
  158DPPC   C3B 1895  18.009   0.871  11.299
  158DPPC   C4B 1896  18.389   0.921  11.709
  159DPPC   NC3 1897  14.179   5.583  13.789
  159DPPC   PO4 1898  14.369   5.363  14.029
  159DPPC   GL1 1899  14.659   5.263  14.279
  159DPPC   GL2 1900  14.759   5.073  14.139
  159DPPC   C1A 1901  14.889   5.383  14.509
  159DPPC   C2A 1902  15.059   5.623  14.819
  159DPPC   C3A 1903  15.399   5.623  15.189
  159DPPC   C4A 1904  15.799   5.643  15.519
  159DPPC   C1B 1905  15.119   5.123  14.279
  159DPPC   C2B 1906  15.419   4.883  14.409
  159DPPC   C3B 1907  15.779   4.843  14.779
  159DPPC   C4B 1908  16.039   4.853  15.139
  160DPPC   NC3 1909  16.739   3.901  10.939
  160DPPC   PO4 1910  16.589   4.141  11.209
  160DPPC   GL1 1911  16.439   4.191  11.609
  160DPPC   GL2 1912  16.489   3.881  11.549
  160DPPC   C1A 1913  16.659   4.463  11.739
  160DPPC   C2A 1914  16.859   4.713  12.009
  160DPPC   C3A 1915  17.189   4.743  12.439
  160DPPC   C4A 1916  17.479   4.733  12.829
  160DPPC   C1B 1917  16.739   3.721  11.739
  160DPPC   C2B 1918  16.989   3.671  12.069
  160DPPC   C3B 1919  17.269   3.681  12.439
  160DPPC   C4B 1920  17.569   3.751  12.869
  161DPPC   NC3 1921  15.869   4.873  11.779
  161DPPC   PO4 1922  15.669   4.723  12.059
  161DPPC   GL1 1923  15.989   4.743  12.379
  161DPPC   GL2 1924  15.989   5.003  12.249
  161DPPC   C1A 1925  16.219   4.733  12.689
  161DPPC   C2A 1926  16.519   4.593  12.929
  161DPPC   C3A 1927  16.899   4.523  13.299
  161DPPC   C4A 1928  17.149   4.633  13.679
  161DPPC   C1B 1929  16.349   5.033  12.359
  161DPPC   C2B 1930  16.659   4.983  12.599
  161DPPC   C3B 1931  16.999   4.883  12.949
  161DPPC   C4B 1932  17.349   4.903  13.359
  162DPPC   NC3 1933  15.969   2.411  12.249
  162DPPC   PO4 1934  15.799   2.451  12.549
  162DPPC   GL1 1935  16.139   2.281  12.639
  162DPPC   GL2 1936  16.129   2.231  12.889
  162DPPC   C1A 1937  16.509   2.211  12.589
  162DPPC   C2A 1938  16.779   2.141  12.889
  162DPPC   C3A 1939  17.069   2.121  13.219
  162DPPC   C4A 1940  17.439   2.081  13.549
  162DPPC   C1B 1941  16.379   2.331  13.099
  162DPPC   C2B 1942  16.609   2.281  13.389
  162DPPC   C3B 1943  16.949   2.241  13.679
  162DPPC   C4B 1944  17.269   2.201  14.059
  163DPPC   NC3 1945  14.439   4.343  13.739
  163DPPC   PO4 1946  14.789   4.201  13.909
  163DPPC   GL1 1947  14.909   4.191  14.349
  163DPPC   GL2 1948  15.109   3.981  14.239
  163DPPC   C1A 1949  15.039   4.423  14.579
  163DPPC   C2A 1950  15.349   4.543  14.779
  163DPPC   C3A 1951  15.659   4.563  15.159
  163DPPC   C4A 1952  15.889   4.553  15.549
  163DPPC   C1B 1953  15.469   3.811  14.329
  163DPPC   C2B 1954  15.819   3.861  14.589
  163DPPC   C3B 1955  16.139   3.881  15.009
  163DPPC   C4B 1956  16.079   4.091  15.459
  164DPPC   NC3 1957  17.409   5.683   9.599
  164DPPC   PO4 1958  17.549   5.623   9.969
  164DPPC   GL1 1959  17.499   5.533  10.319
  164DPPC   GL2 1960  17.489   5.293  10.399
  164DPPC   C1A 1961  17.739   5.693  10.589
  164DPPC   C2A 1962  17.829   5.943  10.879
  164DPPC   C3A 1963  18.249   5.993  11.179
  164DPPC   C4A 1964  18.519   5.953  11.589
  164DPPC   C1B 1965  17.579   5.223  10.749
  164DPPC   C2B 1966  17.689   5.143  11.169
  164DPPC   C3B 1967  17.929   5.203  11.559
  164DPPC   C4B 1968  18.269   5.113  11.909
  165DPPC   NC3 1969  18.949   1.841   9.069
  165DPPC   PO4 1970  18.809   1.951   9.419
  165DPPC   GL1 1971  18.999   2.131   9.769
  165DPPC   GL2 1972  19.019   2.351   9.699
  165DPPC   C1A 1973  19.159   2.071  10.089
  165DPPC   C2A 1974  19.419   1.991  10.409
  165DPPC   C3A 1975  19.679   2.161  10.799
  165DPPC   C4A 1976  19.969   2.171  11.249
  165DPPC   C1B 1977  18.879   2.531   9.939
  165DPPC   C2B 1978  18.669   2.811  10.209
  165DPPC   C3B 1979  18.599   3.171  10.629
  165DPPC   C4B 1980  18.459   3.491  10.959
  166DPPC   NC3 1981  20.659   2.171   8.239
  166DPPC   PO4 1982  20.769   1.791   8.329
  166DPPC   GL1 1983  21.009   1.751   8.669
  166DPPC   GL2 1984  20.869   1.981   8.749
  166DPPC   C1A 1985   0.001   1.441   8.879
  166DPPC   C2A 1986   0.191   1.151   9.109
  166DPPC   C3A 1987   0.511   1.051   9.419
  166DPPC   C4A 1988   0.701   0.851   9.829
  166DPPC   C1B 1989  20.959   2.131   9.109
  166DPPC   C2B 1990  20.959   2.281   9.479
  166DPPC   C3B 1991  20.939   2.651   9.849
  166DPPC   C4B 1992  20.829   2.811  10.309
  167DPPC   NC3 1993  15.489   4.071  12.979
  167DPPC   PO4 1994  15.429   3.681  12.969
  167DPPC   GL1 1995  15.429   3.471  13.379
  167DPPC   GL2 1996  15.359   3.181  13.179
  167DPPC   C1A 1997  15.709   3.511  13.589
  167DPPC   C2A 1998  16.139   3.471  13.599
  167DPPC   C3A 1999  16.439   3.471  13.969
  167DPPC   C4A 2000  16.759   3.431  14.279
  167DPPC   C1B 2001  15.709   3.071  13.329
  167DPPC   C2B 2002  16.029   3.001  13.529
  167DPPC   C3B 2003  16.359   2.991  13.829
  167DPPC   C4B 2004  16.709   2.921  14.139
  168DPPC   NC3 2005  15.089   2.891  13.359
  168DPPC   PO4 2006  15.019   3.251  13.539
  168DPPC   GL1 2007  15.259   3.591  13.749
  168DPPC   GL2 2008  15.049   3.631  13.879
  168DPPC   C1A 2009  15.589   3.781  13.939
  168DPPC   C2A 2010  15.939   3.671  14.149
  168DPPC   C3A 2011  16.279   3.691  14.469
  168DPPC   C4A 2012  16.649   3.681  14.839
  168DPPC   C1B 2013  15.189   3.561  14.239
  168DPPC   C2B 2014  15.279   3.541  14.659
  168DPPC   C3B 2015  15.629   3.611  14.979
  168DPPC   C4B 2016  15.999   3.591  15.309
  169DPPC   NC3 2017  16.229   0.991  11.209
  169DPPC   PO4 2018  16.519   1.181  11.109
  169DPPC   GL1 2019  16.839   1.321  11.299
  169DPPC   GL2 2020  16.769   1.531  11.529
  169DPPC   C1A 2021  17.139   1.151  11.439
  169DPPC   C2A 2022  17.509   1.111  11.589
  169DPPC   C3A 2023  17.899   1.091  11.849
  169DPPC   C4A 2024  18.179   1.151  12.269
  169DPPC   C1B 2025  16.949   1.881  11.549
  169DPPC   C2B 2026  17.019   2.181  11.839
  169DPPC   C3B 2027  17.419   2.221  12.219
  169DPPC   C4B 2028  17.669   2.201  12.639
  170DPPC   NC3 2029  14.719   0.551  13.869
  170DPPC   PO4 2030  14.569   0.721  14.229
  170DPPC   GL1 2031  14.929   0.931  14.439
  170DPPC   GL2 2032  15.029   0.871  14.189
  170DPPC   C1A 2033  15.159   0.841  14.729
  170DPPC   C2A 2034  15.499   0.751  14.999
  170DPPC   C3A 2035  15.809   0.761  15.349
  170DPPC   C4A 2036  16.099   0.751  15.719
  170DPPC   C1B 2037  15.349   0.701  14.299
  170DPPC   C2B 2038  15.669   0.571  14.539
  170DPPC   C3B 2039  16.009   0.571  14.859
  170DPPC   C4B 2040  16.399   0.561  15.179
  171DPPC   NC3 2041  15.379   1.261  13.009
  171DPPC   PO4 2042  15.129   1.101  13.239
  171DPPC   GL1 2043  15.359   1.141  13.569
  171DPPC   GL2 2044  15.609   1.191  13.409
  171DPPC   C1A 2045  15.399   1.041  13.879
  171DPPC   C2A 2046  15.709   0.941  14.129
  171DPPC   C3A 2047  16.079   0.851  14.469
  171DPPC   C4A 2048  16.449   0.871  14.749
  171DPPC   C1B 2049  15.899   1.141  13.659
  171DPPC   C2B 2050  16.189   1.171  13.929
  171DPPC   C3B 2051  16.529   1.121  14.269
  171DPPC   C4B 2052  16.889   1.071  14.619
  172DPPC   NC3 2053  15.639   4.373  12.529
  172DPPC   PO4 2054  15.619   4.823  12.579
  172DPPC   GL1 2055  15.879   5.063  12.779
  172DPPC   GL2 2056  15.809   5.053  13.019
  172DPPC   C1A 2057  16.279   5.143  12.789
  172DPPC   C2A 2058  16.519   5.103  13.149
  172DPPC   C3A 2059  16.809   5.113  13.489
  172DPPC   C4A 2060  17.179   5.113  13.789
  172DPPC   C1B 2061  15.999   5.173  13.289
  172DPPC   C2B 2062  16.299   5.263  13.589
  172DPPC   C3B 2063  16.649   5.293  13.919
  172DPPC   C4B 2064  16.939   5.333  14.279
  173DPPC   NC3 2065   2.079   6.173   8.039
  173DPPC   PO4 2066   1.741   6.393   8.049
  173DPPC   GL1 2067   1.681   0.071   8.399
  173DPPC   GL2 2068   1.411   0.101   8.419
  173DPPC   C1A 2069   1.829   6.553   8.689
  173DPPC   C2A 2070   2.079   6.593   8.989
  173DPPC   C3A 2071   2.459   0.051   9.349
  173DPPC   C4A 2072   2.649   0.061   9.769
  173DPPC   C1B 2073   1.241   0.261   8.709
  173DPPC   C2B 2074   0.961   0.481   8.969
  173DPPC   C3B 2075   0.751   0.901   8.999
  173DPPC   C4B 2076   0.881   1.291   8.789
  174DPPC   NC3 2077   3.769   0.901   8.869
  174DPPC   PO4 2078   3.709   0.891   9.249
  174DPPC   GL1 2079   3.399   0.701   9.399
  174DPPC   GL2 2080   3.579   0.521   9.569
  174DPPC   C1A 2081   3.119   0.761   9.619
  174DPPC   C2A 2082   2.849   0.811   9.929
  174DPPC   C3A 2083   2.499   0.681  10.279
  174DPPC   C4A 2084   2.029   0.631  10.119
  174DPPC   C1B 2085   3.429   0.551   9.929
  174DPPC   C2B 2086   3.259   0.561  10.249
  174DPPC   C3B 2087   2.949   0.541  10.629
  174DPPC   C4B 2088   2.649   0.501  11.029
  175DPPC   NC3 2089  17.459   5.063   9.919
  175DPPC   PO4 2090  17.179   4.903  10.159
  175DPPC   GL1 2091  17.409   4.833  10.569
  175DPPC   GL2 2092  17.509   4.553  10.439
  175DPPC   C1A 2093  17.389   4.603  10.869
  175DPPC   C2A 2094  17.699   4.613  11.049
  175DPPC   C3A 2095  17.949   4.623  11.489
  175DPPC   C4A 2096  18.329   4.573  11.839
  175DPPC   C1B 2097  17.519   4.231  10.619
  175DPPC   C2B 2098  17.699   4.081  10.889
  175DPPC   C3B 2099  17.979   4.041  11.329
  175DPPC   C4B 2100  18.269   4.031  11.719
  176DPPS   CNO 2101  18.649   0.951   9.209
  176DPPS   PO4 2102  18.899   0.771   9.459
  176DPPS   GL1 2103  19.149   0.951   9.759
  176DPPS   GL2 2104  18.999   1.191   9.739
  176DPPS   C1A 2105  19.409   1.151   9.989
  176DPPS   C2A 2106  19.489   1.141  10.399
  176DPPS   C3A 2107  19.749   1.031  10.819
  176DPPS   C4A 2108  20.129   1.011  11.209
  176DPPS   C1B 2109  18.939   1.251  10.099
  176DPPS   C2B 2110  18.659   1.381  10.329
  176DPPS   C3B 2111  18.449   1.411  10.709
  176DPPS   C4B 2112  18.119   1.591  11.049
  177DPPS   CNO 2113  16.969   5.253  10.439
  177DPPS   PO4 2114  17.049   5.603  10.369
  177DPPS   GL1 2115  17.189   5.723  10.699
  177DPPS   GL2 2116  17.239   5.483  10.839
  177DPPS   C1A 2117  17.399   5.963  10.869
  177DPPS   C2A 2118  17.499   6.093  11.249
  177DPPS   C3A 2119  17.829   6.163  11.579
  177DPPS   C4A 2120  18.139   6.243  11.899
  177DPPS   C1B 2121  17.579   5.613  11.009
  177DPPS   C2B 2122  17.789   5.683  11.369
  177DPPS   C3B 2123  18.079   5.713  11.729
  177DPPS   C4B 2124  18.399   5.753  12.109
  178DPPS   CNO 2125  16.119   4.473  11.309
  178DPPS   PO4 2126  16.249   4.763  11.469
  178DPPS   GL1 2127  16.309   4.853  11.929
  178DPPS   GL2 2128  16.549   4.953  11.779
  178DPPS   C1A 2129  16.469   4.643  12.229
  178DPPS   C2A 2130  16.669   4.403  12.449
  178DPPS   C3A 2131  16.979   4.383  12.839
  178DPPS   C4A 2132  17.329   4.323  13.139
  178DPPS   C1B 2133  16.689   5.133  12.099
  178DPPS   C2B 2134  16.969   5.283  12.409
  178DPPS   C3B 2135  17.229   5.303  12.739
  178DPPS   C4B 2136  17.609   5.253  13.069
  179DPPS   CNO 2137  16.599   2.911  10.919
  179DPPS   PO4 2138  16.839   2.901  10.619
  179DPPS   GL1 2139  17.119   2.751  10.839
  179DPPS   GL2 2140  17.039   2.611  11.059
  179DPPS   C1A 2141  17.419   2.841  11.009
  179DPPS   C2A 2142  17.729   2.891  11.299
  179DPPS   C3A 2143  18.009   2.861  11.699
  179DPPS   C4A 2144  18.299   2.811  12.059
  179DPPS   C1B 2145  17.269   2.551  11.359
  179DPPS   C2B 2146  17.539   2.531  11.659
  179DPPS   C3B 2147  17.849   2.521  12.059
  179DPPS   C4B 2148  18.119   2.501  12.509
  180DPPS   CNO 2149  16.099   6.023  12.409
  180DPPS   PO4 2150  15.719   6.033  12.409
  180DPPS   GL1 2151  15.889   6.353  12.719
  180DPPS   GL2 2152  15.999   6.523  12.549
  180DPPS   C1A 2153  16.179   6.243  12.919
  180DPPS   C2A 2154  16.429   6.083  13.199
  180DPPS   C3A 2155  16.769   6.063  13.559
  180DPPS   C4A 2156  17.099   6.063  13.939
  180DPPS   C1B 2157  16.269   0.031  12.749
  180DPPS   C2B 2158  16.489   0.321  12.929
  180DPPS   C3B 2159  16.839   0.301  13.169
  180DPPS   C4B 2160  17.209   0.271  13.469
  181DPPS   CNO 2161  15.379   5.293  12.439
  181DPPS   PO4 2162  15.759   5.393  12.449
  181DPPS   GL1 2163  15.999   5.723  12.749
  181DPPS   GL2 2164  15.999   5.493  12.929
  181DPPS   C1A 2165  16.329   5.883  12.769
  181DPPS   C2A 2166  16.689   5.943  12.809
  181DPPS   C3A 2167  17.029   5.863  13.139
  181DPPS   C4A 2168  17.309   5.873  13.559
  181DPPS   C1B 2169  16.299   5.623  13.109
  181DPPS   C2B 2170  16.599   5.583  13.339
  181DPPS   C3B 2171  16.939   5.543  13.679
  181DPPS   C4B 2172  17.289   5.643  14.099
  182DPPS   CNO 2173  16.199   3.211  10.839
  182DPPS   PO4 2174  16.359   3.531  11.009
  182DPPS   GL1 2175  16.749   3.561  11.199
  182DPPS   GL2 2176  16.819   3.261  11.139
  182DPPS   C1A 2177  17.039   3.751  11.339
  182DPPS   C2A 2178  17.079   4.021  11.609
  182DPPS   C3A 2179  17.399   3.981  11.949
  182DPPS   C4A 2180  17.779   4.041  12.339
  182DPPS   C1B 2181  17.059   3.021  11.229
  182DPPS   C2B 2182  17.239   3.001  11.589
  182DPPS   C3B 2183  17.569   2.941  11.939
  182DPPS   C4B 2184  17.869   2.941  12.349
  183DPPS   CNO 2185   0.771   1.881   8.349
  183DPPS   PO4 2186   0.521   2.151   8.239
  183DPPS   GL1 2187   0.671   2.411   8.489
  183DPPS   GL2 2188   0.921   2.291   8.569
  183DPPS   C1A 2189   0.461   2.351   8.829
  183DPPS   C2A 2190   0.241   2.481   9.129
  183DPPS   C3A 2191   0.261   2.591   9.609
  183DPPS   C4A 2192   0.271   2.711  10.059
  183DPPS   C1B 2193   1.071   2.131   8.889
  183DPPS   C2B 2194   1.011   1.721   9.109
  183DPPS   C3B 2195   0.881   1.391   9.379
  183DPPS   C4B 2196   1.041   0.931   9.409
  184DPPS   CNO 2197   2.599   2.611   9.029
  184DPPS   PO4 2198   2.559   2.831   8.719
  184DPPS   GL1 2199   2.409   3.181   8.999
  184DPPS   GL2 2200   2.599   3.311   9.059
  184DPPS   C1A 2201   2.249   3.051   9.309
  184DPPS   C2A 2202   2.029   2.871   9.569
  184DPPS   C3A 2203   1.839   2.441   9.769
  184DPPS   C4A 2204   1.791   2.011   9.569
  184DPPS   C1B 2205   2.709   3.121   9.309
  184DPPS   C2B 2206   2.899   2.811   9.539
  184DPPS   C3B 2207   2.839   2.881  10.009
  184DPPS   C4B 2208   2.599   2.991  10.449
  185DPPS   CNO 2209  15.419   4.031  12.289
  185DPPS   PO4 2210  15.569   3.811  12.539
  185DPPS   GL1 2211  15.909   3.991  12.799
  185DPPS   GL2 2212  16.079   3.811  12.879
  185DPPS   C1A 2213  15.979   4.161  13.119
  185DPPS   C2A 2214  16.309   4.253  13.319
  185DPPS   C3A 2215  16.579   4.323  13.679
  185DPPS   C4A 2216  16.869   4.293  14.009
  185DPPS   C1B 2217  16.249   3.831  13.199
  185DPPS   C2B 2218  16.549   3.761  13.499
  185DPPS   C3B 2219  16.869   3.781  13.849
  185DPPS   C4B 2220  17.199   3.841  14.259
  186DPPS   CNO 2221  15.259   5.833  13.119
  186DPPS   PO4 2222  15.629   5.903  12.969
  186DPPS   GL1 2223  15.939   5.873  13.229
  186DPPS   GL2 2224  15.779   5.613  13.279
  186DPPS   C1A 2225  16.199   5.823  13.509
  186DPPS   C2A 2226  16.409   5.763  13.849
  186DPPS   C3A 2227  16.759   5.853  14.199
  186DPPS   C4A 2228  17.069   5.783  14.539
  186DPPS   C1B 2229  15.829   5.413  13.589
  186DPPS   C2B 2230  15.949   5.413  13.969
  186DPPS   C3B 2231  16.299   5.443  14.269
  186DPPS   C4B 2232  16.639   5.493  14.589
  187DPPS   CNO 2233  16.409   6.433  10.869
  187DPPS   PO4 2234  16.339   6.543  11.219
  187DPPS   GL1 2235  16.569   6.523  11.529
  187DPPS   GL2 2236  16.649   6.273  11.489
  187DPPS   C1A 2237  16.739   0.191  11.679
  187DPPS   C2A 2238  16.849   0.421  12.009
  187DPPS   C3A 2239  17.249   0.451  12.299
  187DPPS   C4A 2240  17.589   0.481  12.619
  187DPPS   C1B 2241  16.989   6.303  11.579
  187DPPS   C2B 2242  17.349   6.313  11.739
  187DPPS   C3B 2243  17.639   6.423  12.049
  187DPPS   C4B 2244  17.989   6.363  12.409
  188DPPS   CNO 2245  20.979   5.833   8.169
  188DPPS   PO4 2246  20.829   6.133   8.319
  188DPPS   GL1 2247  20.889   6.003   8.709
  188DPPS   GL2 2248  20.859   5.683   8.649
  188DPPS   C1A 2249  21.069   6.023   9.089
  188DPPS   C2A 2250   0.221   5.983   9.399
  188DPPS   C3A 2251   0.451   5.813   9.759
  188DPPS   C4A 2252   0.711   5.973  10.159
  188DPPS   C1B 2253  21.059   5.473   8.869
  188DPPS   C2B 2254   0.221   5.203   8.919
  188DPPS   C3B 2255   0.611   4.943   8.759
  188DPPS   C4B 2256   0.881   4.513   8.669
  189DPPS   CNO 2257  14.919   1.981  13.589
  189DPPS   PO4 2258  14.759   1.711  13.819
  189DPPS   GL1 2259  15.049   1.751  14.109
  189DPPS   GL2 2260  15.189   1.931  13.919
  189DPPS   C1A 2261  15.249   1.611  14.409
  189DPPS   C2A 2262  15.549   1.561  14.669
  189DPPS   C3A 2263  15.879   1.581  15.019
  189DPPS   C4A 2264  16.219   1.571  15.419
  189DPPS   C1B 2265  15.549   1.921  14.079
  189DPPS   C2B 2266  15.839   1.821  14.349
  189DPPS   C3B 2267  16.199   1.851  14.679
  189DPPS   C4B 2268  16.479   1.861  15.049
  190DPPS   CNO 2269  16.419   4.273  10.359
  190DPPS   PO4 2270  16.659   4.323  10.659
  190DPPS   GL1 2271  17.029   4.253  10.899
  190DPPS   GL2 2272  16.929   4.413  11.049
  190DPPS   C1A 2273  17.289   4.011  11.009
  190DPPS   C2A 2274  17.509   3.841  11.329
  190DPPS   C3A 2275  17.819   3.731  11.719
  190DPPS   C4A 2276  18.169   3.801  12.119
  190DPPS   C1B 2277  17.209   4.403  11.249
  190DPPS   C2B 2278  17.539   4.323  11.499
  190DPPS   C3B 2279  17.829   4.343  11.869
  190DPPS   C4B 2280  18.169   4.253  12.269
  191DPPS   CNO 2281  16.479   5.053  10.619
  191DPPS   PO4 2282  16.749   4.783  10.559
  191DPPS   GL1 2283  17.029   4.853  10.889
  191DPPS   GL2 2284  17.009   5.143  10.919
  191DPPS   C1A 2285  17.229   4.823  11.219
  191DPPS   C2A 2286  17.459   4.813  11.559
  191DPPS   C3A 2287  17.799   4.863  11.879
  191DPPS   C4A 2288  18.109   4.763  12.269
  191DPPS   C1B 2289  17.229   5.273  11.229
  191DPPS   C2B 2290  17.439   5.383  11.559
  191DPPS   C3B 2291  17.699   5.413  11.959
  191DPPS   C4B 2292  18.019   5.383  12.349
  192DPPS   CNO 2293  14.619   4.231  13.259
  192DPPS   PO4 2294  14.969   4.413  13.359
  192DPPS   GL1 2295  15.429   4.343  13.539
  192DPPS   GL2 2296  15.319   4.573  13.689
  192DPPS   C1A 2297  15.679   4.243  13.799
  192DPPS   C2A 2298  15.919   4.181  14.179
  192DPPS   C3A 2299  16.249   4.181  14.609
  192DPPS   C4A 2300  16.589   4.171  14.909
  192DPPS   C1B 2301  15.579   4.673  13.949
  192DPPS   C2B 2302  15.859   4.693  14.199
  192DPPS   C3B 2303  16.189   4.713  14.569
  192DPPS   C4B 2304  16.489   4.663  14.979
  193DPPS   CNO 2305  15.499   1.611  12.639
  193DPPS   PO4 2306  15.379   1.761  12.959
  193DPPS   GL1 2307  15.719   1.571  13.049
  193DPPS   GL2 2308  15.849   1.451  12.859
  193DPPS   C1A 2309  15.979   1.511  13.279
  193DPPS   C2A 2310  16.229   1.511  13.549
  193DPPS   C3A 2311  16.599   1.441  13.819
  193DPPS   C4A 2312  16.949   1.421  14.119
  193DPPS   C1B 2313  16.209   1.441  12.949
  193DPPS   C2B 2314  16.519   1.301  13.149
  193DPPS   C3B 2315  16.919   1.261  13.499
  193DPPS   C4B 2316  17.259   1.241  13.839
  194DPPS   CNO 2317  20.189   4.783   8.719
  194DPPS   PO4 2318  19.909   4.643   8.909
  194DPPS   GL1 2319  20.139   4.413   9.179
  194DPPS   GL2 2320  19.939   4.111   9.099
  194DPPS   C1A 2321  20.429   4.303   9.419
  194DPPS   C2A 2322  20.699   4.273   9.729
  194DPPS   C3A 2323  20.959   4.263  10.119
  194DPPS   C4A 2324   0.221   4.231  10.279
  194DPPS   C1B 2325  20.209   3.931   9.279
  194DPPS   C2B 2326  20.549   3.841   9.519
  194DPPS   C3B 2327  20.919   3.801   9.899
  194DPPS   C4B 2328   0.091   3.731  10.239
  195DPPS   CNO 2329  14.639   2.391  13.809
  195DPPS   PO4 2330  14.869   2.451  13.519
  195DPPS   GL1 2331  15.209   2.311  13.719
  195DPPS   GL2 2332  15.109   2.381  13.919
  195DPPS   C1A 2333  15.589   2.311  13.759
  195DPPS   C2A 2334  15.979   2.141  13.859
  195DPPS   C3A 2335  16.249   2.111  14.239
  195DPPS   C4A 2336  16.659   2.141  14.559
  195DPPS   C1B 2337  15.379   2.341  14.159
  195DPPS   C2B 2338  15.739   2.351  14.349
  195DPPS   C3B 2339  16.069   2.351  14.699
  195DPPS   C4B 2340  16.489   2.401  14.979
  196DPPS   CNO 2341  17.939   4.883   9.369
  196DPPS   PO4 2342  17.789   5.173   9.549
  196DPPS   GL1 2343  18.019   5.373   9.869
  196DPPS   GL2 2344  17.869   5.233  10.049
  196DPPS   C1A 2345  18.129   5.643  10.129
  196DPPS   C2A 2346  18.189   5.753  10.469
  196DPPS   C3A 2347  18.519   5.803  10.789
  196DPPS   C4A 2348  18.839   5.853  11.179
  196DPPS   C1B 2349  17.969   5.313  10.439
  196DPPS   C2B 2350  18.049   5.403  10.849
  196DPPS   C3B 2351  18.269   5.513  11.329
  196DPPS   C4B 2352  18.589   5.483  11.699
  197DPPS   CNO 2353  14.539   6.493  13.369
  197DPPS   PO4 2354  14.869   6.543  13.519
  197DPPS   GL1 2355  14.979   0.111  13.869
  197DPPS   GL2 2356  15.119   6.423  13.939
  197DPPS   C1A 2357  15.229   0.241  14.099
  197DPPS   C2A 2358  15.549   0.121  14.299
  197DPPS   C3A 2359  15.889   0.061  14.679
  197DPPS   C4A 2360  16.219   0.141  14.999
  197DPPS   C1B 2361  15.369   6.293  14.149
  197DPPS   C2B 2362  15.719   6.243  14.349
  197DPPS   C3B 2363  16.089   6.223  14.659
  197DPPS   C4B 2364  16.349   6.283  15.039
  198DPPS   CNO 2365  19.059   4.323   9.199
  198DPPS   PO4 2366  19.379   4.553   9.149
  198DPPS   GL1 2367  19.729   4.563   9.359
  198DPPS   GL2 2368  19.899   4.733   9.379
  198DPPS   C1A 2369  19.899   4.233   9.509
  198DPPS   C2A 2370  20.169   4.091   9.789
  198DPPS   C3A 2371  20.509   4.031  10.159
  198DPPS   C4A 2372  20.839   3.931  10.469
  198DPPS   C1B 2373  20.069   4.603   9.689
  198DPPS   C2B 2374  20.309   4.523  10.019
  198DPPS   C3B 2375  20.579   4.453  10.389
  198DPPS   C4B 2376  20.959   4.413  10.719
  199DPPS   CNO 2377  14.899   5.083  13.279
  199DPPS   PO4 2378  15.049   5.023  13.649
  199DPPS   GL1 2379  15.439   5.083  13.699
  199DPPS   GL2 2380  15.649   5.023  13.489
  199DPPS   C1A 2381  15.629   5.103  14.059
  199DPPS   C2A 2382  15.909   5.123  14.399
  199DPPS   C3A 2383  16.279   5.143  14.719
  199DPPS   C4A 2384  16.529   5.153  15.129
  199DPPS   C1B 2385  15.919   4.983  13.739
  199DPPS   C2B 2386  16.219   4.953  13.999
  199DPPS   C3B 2387  16.539   4.943  14.319
  199DPPS   C4B 2388  16.779   5.013  14.749
  200DPPS   CNO 2389  14.589   3.821  13.579
  200DPPS   PO4 2390  14.909   3.761  13.429
  200DPPS   GL1 2391  15.229   3.971  13.609
  200DPPS   GL2 2392  15.369   3.921  13.429
  200DPPS   C1A 2393  15.329   4.111  13.929
  200DPPS   C2A 2394  15.429   4.293  14.329
  200DPPS   C3A 2395  15.779   4.353  14.659
  200DPPS   C4A 2396  16.079   4.383  15.029
  200DPPS   C1B 2397  15.709   3.971  13.469
  200DPPS   C2B 2398  16.059   3.941  13.699
  200DPPS   C3B 2399  16.369   3.981  14.069
  200DPPS   C4B 2400  16.749   3.961  14.439
12000DPPC   NC3 2401   1.271   3.661  13.289
12000DPPC   PO4 2402   1.181   3.431  12.959
12000DPPC   GL1 2403   1.411   3.371  12.639
12000DPPC   GL2 2404   1.211   3.341  12.439
12000DPPC   C1A 2405   1.741   3.271  12.429
12000DPPC   C2A 2406   1.949   3.221  12.099
12000DPPC   C3A 2407   2.229   3.241  11.699
12000DPPC   C4A 2408   2.509   3.231  11.279
12000DPPC   C1B 2409   1.361   3.441  12.129
12000DPPC   C2B 2410   1.661   3.431  11.809
12000DPPC   C3B 2411   1.859   3.441  11.379
12000DPPC   C4B 2412   1.999   3.621  10.949
12001DPPC   NC3 2413   2.599   1.981  15.239
12001DPPC   PO4 2414   2.859   1.891  14.959
12001DPPC   GL1 2415   2.949   1.751  14.619
12001DPPC   GL2 2416   3.069   1.501  14.829
12001DPPC   C1A 2417   3.209   1.691  14.409
12001DPPC   C2A 2418   3.409   1.781  14.069
12001DPPC   C3A 2419   3.699   1.761  13.699
12001DPPC   C4A 2420   4.039   1.771  13.289
12001DPPC   C1B 2421   3.409   1.571  14.839
12001DPPC   C2B 2422   3.639   1.571  14.529
12001DPPC   C3B 2423   3.899   1.641  14.109
12001DPPC   C4B 2424   4.199   1.651  13.749
12002DPPC   NC3 2425   2.819   0.631  15.019
12002DPPC   PO4 2426   2.689   0.921  14.799
12002DPPC   GL1 2427   2.799   1.011  14.459
12002DPPC   GL2 2428   3.109   1.181  14.569
12002DPPC   C1A 2429   2.939   0.961  14.159
12002DPPC   C2A 2430   3.119   1.001  13.749
12002DPPC   C3A 2431   3.469   1.041  13.419
12002DPPC   C4A 2432   3.769   0.941  12.989
12002DPPC   C1B 2433   3.359   1.281  14.289
12002DPPC   C2B 2434   3.579   1.311  13.979
12002DPPC   C3B 2435   3.869   1.321  13.629
12002DPPC   C4B 2436   4.139   1.291  13.189
12003DPPC   NC3 2437   0.911   5.943  12.419
12003DPPC   PO4 2438   0.691   6.093  12.129
12003DPPC   GL1 2439   1.011   6.123  11.869
12003DPPC   GL2 2440   1.211   6.013  11.999
12003DPPC   C1A 2441   0.971   6.213  11.469
12003DPPC   C2A 2442   1.091   6.223  11.059
12003DPPC   C3A 2443   1.421   6.263  10.729
12003DPPC   C4A 2444   1.691   6.183  10.309
12003DPPC   C1B 2445   1.301   5.963  11.649
12003DPPC   C2B 2446   1.471   6.023  11.319
12003DPPC   C3B 2447   1.811   6.053  11.009
12003DPPC   C4B 2448   2.089   6.023  10.609
12004DPPC   NC3 2449   1.211   0.951  13.229
12004DPPC   PO4 2450   0.971   0.611  13.109
12004DPPC   GL1 2451   1.291   0.571  12.899
12004DPPC   GL2 2452   1.201   0.591  12.669
12004DPPC   C1A 2453   1.661   0.581  12.859
12004DPPC   C2A 2454   1.939   0.791  12.679
12004DPPC   C3A 2455   2.239   0.831  12.299
12004DPPC   C4A 2456   2.489   0.831  11.869
12004DPPC   C1B 2457   1.471   0.451  12.419
12004DPPC   C2B 2458   1.781   0.591  12.189
12004DPPC   C3B 2459   2.099   0.561  11.849
12004DPPC   C4B 2460   2.419   0.541  11.459
12005DPPC   NC3 2461   0.771   1.551  13.209
12005DPPC   PO4 2462   1.151   1.471  13.289
12005DPPC   GL1 2463   1.441   1.671  13.019
12005DPPC   GL2 2464   1.501   1.431  12.829
12005DPPC   C1A 2465   1.821   1.731  13.119
12005DPPC   C2A 2466   2.129   1.621  12.839
12005DPPC   C3A 2467   2.459   1.581  12.569
12005DPPC   C4A 2468   2.739   1.631  12.149
12005DPPC   C1B 2469   1.811   1.341  12.629
12005DPPC   C2B 2470   2.079   1.281  12.409
12005DPPC   C3B 2471   2.309   1.291  11.989
12005DPPC   C4B 2472   2.669   1.251  11.639
12006DPPC   NC3 2473   0.781   5.973  12.939
12006DPPC   PO4 2474   0.891   6.323  12.799
12006DPPC   GL1 2475   1.221   6.403  12.489
12006DPPC   GL2 2476   1.121   6.363  12.289
12006DPPC   C1A 2477   1.411   0.041  12.379
12006DPPC   C2A 2478   1.781   0.001  12.209
12006DPPC   C3A 2479   2.129   0.061  11.829
12006DPPC   C4A 2480   2.439   0.021  11.469
12006DPPC   C1B 2481   1.371   6.443  11.989
12006DPPC   C2B 2482   1.651   6.403  11.669
12006DPPC   C3B 2483   2.029   6.313  11.399
12006DPPC   C4B 2484   2.289   6.303  10.999
12007DPPC   NC3 2485   2.869   3.761  15.509
12007DPPC   PO4 2486   2.749   3.591  15.169
12007DPPC   GL1 2487   3.129   3.571  15.029
12007DPPC   GL2 2488   3.299   3.691  15.169
12007DPPC   C1A 2489   3.199   3.401  14.709
12007DPPC   C2A 2490   3.429   3.221  14.399
12007DPPC   C3A 2491   3.789   3.081  14.049
12007DPPC   C4A 2492   4.039   3.091  13.589
12007DPPC   C1B 2493   3.489   3.821  14.909
12007DPPC   C2B 2494   3.739   3.951  14.579
12007DPPC   C3B 2495   4.009   3.931  14.209
12007DPPC   C4B 2496   4.299   3.841  13.819
12008DPPC   NC3 2497   1.541   1.871  13.449
12008DPPC   PO4 2498   1.821   1.711  13.699
12008DPPC   GL1 2499   2.129   1.631  13.359
12008DPPC   GL2 2500   2.059   1.311  13.469
12008DPPC   C1A 2501   2.269   1.951  13.149
12008DPPC   C2A 2502   2.609   1.931  12.939
12008DPPC   C3A 2503   2.909   1.911  12.589
12008DPPC   C4A 2504   3.189   1.861  12.239
12008DPPC   C1B 2505   2.369   1.101  13.479
12008DPPC   C2B 2506   2.629   0.971  13.149
12008DPPC   C3B 2507   2.869   0.871  12.779
12008DPPC   C4B 2508   3.179   0.821  12.359
12009DPPC   NC3 2509   3.439   5.593  15.989
12009DPPC   PO4 2510   3.409   5.903  15.789
12009DPPC   GL1 2511   3.669   5.733  15.609
12009DPPC   GL2 2512   3.819   5.523  15.589
12009DPPC   C1A 2513   3.649   5.723  15.219
12009DPPC   C2A 2514   3.759   5.743  14.819
12009DPPC   C3A 2515   3.939   5.773  14.389
12009DPPC   C4A 2516   4.249   5.763  14.069
12009DPPC   C1B 2517   4.079   5.613  15.339
12009DPPC   C2B 2518   4.189   5.543  14.959
12009DPPC   C3B 2519   4.509   5.543  14.549
12009DPPC   C4B 2520   4.799   5.573  14.159
12010DPPC   NC3 2521   2.189   6.343  14.329
12010DPPC   PO4 2522   2.309   6.003  14.479
12010DPPC   GL1 2523   2.519   5.673  14.289
12010DPPC   GL2 2524   2.549   5.953  14.089
12010DPPC   C1A 2525   2.899   5.683  14.179
12010DPPC   C2A 2526   3.259   5.633  13.969
12010DPPC   C3A 2527   3.559   5.633  13.579
12010DPPC   C4A 2528   3.869   5.613  13.229
12010DPPC   C1B 2529   2.769   5.913  13.789
12010DPPC   C2B 2530   3.029   5.823  13.499
12010DPPC   C3B 2531   3.339   5.793  13.139
12010DPPC   C4B 2532   3.679   5.793  12.759
12011DPPC   NC3 2533   2.659   4.493  15.279
12011DPPC   PO4 2534   2.699   4.121  15.139
12011DPPC   GL1 2535   3.089   4.061  14.919
12011DPPC   GL2 2536   2.979   3.841  14.789
12011DPPC   C1A 2537   3.409   4.233  15.029
12011DPPC   C2A 2538   3.839   4.243  15.009
12011DPPC   C3A 2539   4.099   4.263  14.609
12011DPPC   C4A 2540   4.399   4.191  14.279
12011DPPC   C1B 2541   3.249   3.801  14.569
12011DPPC   C2B 2542   3.499   3.691  14.269
12011DPPC   C3B 2543   3.769   3.631  13.889
12011DPPC   C4B 2544   4.029   3.601  13.479
12012DPPC   NC3 2545   3.909   1.171  16.039
12012DPPC   PO4 2546   3.569   1.141  15.919
12012DPPC   GL1 2547   3.869   0.961  15.619
12012DPPC   GL2 2548   3.659   1.121  15.439
12012DPPC   C1A 2549   4.139   1.131  15.429
12012DPPC   C2A 2550   4.359   1.281  15.109
12012DPPC   C3A 2551   4.659   1.241  14.729
12012DPPC   C4A 2552   4.959   1.211  14.369
12012DPPC   C1B 2553   3.839   1.341  15.199
12012DPPC   C2B 2554   3.949   1.411  14.809
12012DPPC   C3B 2555   4.309   1.431  14.459
12012DPPC   C4B 2556   4.589   1.501  14.049
12013DPPC   NC3 2557   4.079   5.273  16.319
12013DPPC   PO4 2558   3.849   5.583  16.259
12013DPPC   GL1 2559   4.039   5.653  15.889
12013DPPC   GL2 2560   4.039   5.343  15.879
12013DPPC   C1A 2561   4.249   5.883  15.679
12013DPPC   C2A 2562   4.459   5.923  15.319
12013DPPC   C3A 2563   4.709   5.863  14.949
12013DPPC   C4A 2564   5.079   5.773  14.609
12013DPPC   C1B 2565   4.249   5.353  15.659
12013DPPC   C2B 2566   4.489   5.343  15.309
12013DPPC   C3B 2567   4.749   5.353  14.929
12013DPPC   C4B 2568   5.039   5.293  14.549
12014DPPC   NC3 2569   1.831   0.301  13.559
12014DPPC   PO4 2570   1.531   0.171  13.719
12014DPPC   GL1 2571   1.501   0.051  13.269
12014DPPC   GL2 2572   1.401   6.413  13.349
12014DPPC   C1A 2573   1.731   0.121  12.969
12014DPPC   C2A 2574   1.919   0.291  12.649
12014DPPC   C3A 2575   2.229   0.311  12.259
12014DPPC   C4A 2576   2.569   0.321  11.869
12014DPPC   C1B 2577   1.701   6.203  13.249
12014DPPC   C2B 2578   2.119   6.133  13.139
12014DPPC   C3B 2579   2.359   6.113  12.759
12014DPPC   C4B 2580   2.719   6.163  12.429
12015DPPC   NC3 2581  20.729   1.141  11.599
12015DPPC   PO4 2582  21.099   1.021  11.569
12015DPPC   GL1 2583  21.059   0.981  11.139
12015DPPC   GL2 2584   0.111   0.741  11.139
12015DPPC   C1A 2585  20.839   1.111  10.849
12015DPPC   C2A 2586  20.659   1.091  10.479
12015DPPC   C3A 2587  20.319   1.141  10.109
12015DPPC   C4A 2588  19.989   1.201   9.769
12015DPPC   C1B 2589   0.451   0.731  10.929
12015DPPC   C2B 2590   0.771   0.731  10.639
12015DPPC   C3B 2591   0.961   0.701  10.209
12015DPPC   C4B 2592   1.171   0.701   9.819
12016DPPC   NC3 2593   2.739   3.301  14.789
12016DPPC   PO4 2594   2.789   2.881  14.829
12016DPPC   GL1 2595   3.119   2.901  14.509
12016DPPC   GL2 2596   2.949   3.121  14.389
12016DPPC   C1A 2597   3.449   2.781  14.379
12016DPPC   C2A 2598   3.809   2.641  14.169
12016DPPC   C3A 2599   4.059   2.591  13.769
12016DPPC   C4A 2600   4.429   2.661  13.399
12016DPPC   C1B 2601   3.109   3.171  14.059
12016DPPC   C2B 2602   3.399   3.281  13.759
12016DPPC   C3B 2603   3.669   3.321  13.349
12016DPPC   C4B 2604   3.979   3.281  12.969
12017DPPC   NC3 2605   2.119   2.031  14.509
12017DPPC   PO4 2606   1.959   1.951  14.159
12017DPPC   GL1 2607   2.299   1.871  13.819
12017DPPC   GL2 2608   2.419   2.061  13.989
12017DPPC   C1A 2609   2.389   1.551  13.669
12017DPPC   C2A 2610   2.539   1.531  13.269
12017DPPC   C3A 2611   2.809   1.361  12.879
12017DPPC   C4A 2612   3.129   1.321  12.479
12017DPPC   C1B 2613   2.789   2.171  13.939
12017DPPC   C2B 2614   3.209   2.271  14.019
12017DPPC   C3B 2615   3.559   2.321  13.749
12017DPPC   C4B 2616   3.889   2.211  13.409
12018DPPC   NC3 2617   3.169   5.333  15.379
12018DPPC   PO4 2618   3.469   5.253  15.639
12018DPPC   GL1 2619   3.869   5.093  15.519
12018DPPC   GL2 2620   3.779   4.833  15.699
12018DPPC   C1A 2621   4.129   5.043  15.249
12018DPPC   C2A 2622   4.369   5.013  14.859
12018DPPC   C3A 2623   4.629   4.943  14.429
12018DPPC   C4A 2624   4.559   4.673  14.019
12018DPPC   C1B 2625   4.009   4.643  15.549
12018DPPC   C2B 2626   4.269   4.563  15.169
12018DPPC   C3B 2627   4.519   4.563  14.799
12018DPPC   C4B 2628   4.789   4.483  14.419
12019DPPC   NC3 2629   1.421   4.463  12.749
12019DPPC   PO4 2630   1.541   4.333  13.099
12019DPPC   GL1 2631   1.849   4.141  12.969
12019DPPC   GL2 2632   2.039   4.171  13.219
12019DPPC   C1A 2633   2.009   4.091  12.599
12019DPPC   C2A 2634   2.259   4.061  12.229
12019DPPC   C3A 2635   2.519   4.101  11.839
12019DPPC   C4A 2636   2.779   4.081  11.419
12019DPPC   C1B 2637   2.389   4.201  13.129
12019DPPC   C2B 2638   2.759   4.161  12.959
12019DPPC   C3B 2639   3.099   4.243  12.579
12019DPPC   C4B 2640   3.359   4.171  12.159
12020DPPC   NC3 2641   0.801   1.471  12.079
12020DPPC   PO4 2642   0.831   1.731  12.379
12020DPPC   GL1 2643   1.111   1.891  12.179
12020DPPC   GL2 2644   1.211   1.641  12.059
12020DPPC   C1A 2645   1.511   1.931  12.119
12020DPPC   C2A 2646   1.869   1.921  11.819
12020DPPC   C3A 2647   2.049   1.911  11.409
12020DPPC   C4A 2648   2.329   1.941  11.009
12020DPPC   C1B 2649   1.391   1.681  11.729
12020DPPC   C2B 2650   1.611   1.651  11.389
12020DPPC   C3B 2651   1.811   1.711  10.959
12020DPPC   C4B 2652   2.109   1.731  10.549
12021DPPC   NC3 2653   3.709   2.681  15.769
12021DPPC   PO4 2654   3.729   2.341  15.969
12021DPPC   GL1 2655   3.969   2.311  15.629
12021DPPC   GL2 2656   3.729   2.371  15.469
12021DPPC   C1A 2657   4.239   2.191  15.459
12021DPPC   C2A 2658   4.589   2.001  15.309
12021DPPC   C3A 2659   4.919   1.981  14.959
12021DPPC   C4A 2660   5.249   1.941  14.629
12021DPPC   C1B 2661   3.939   2.291  15.189
12021DPPC   C2B 2662   4.279   2.231  14.989
12021DPPC   C3B 2663   4.629   2.211  14.609
12021DPPC   C4B 2664   4.969   2.271  14.229
12022DPPC   NC3 2665   0.711   6.523  12.389
12022DPPC   PO4 2666   0.681   6.593  12.009
12022DPPC   GL1 2667   0.961   6.543  11.749
12022DPPC   GL2 2668   0.781   0.071  11.509
12022DPPC   C1A 2669   1.251   6.583  11.549
12022DPPC   C2A 2670   1.471   6.533  11.199
12022DPPC   C3A 2671   1.821   6.573  10.889
12022DPPC   C4A 2672   2.029   6.563  10.539
12022DPPC   C1B 2673   0.941   0.141  11.189
12022DPPC   C2B 2674   1.131   0.061  10.829
12022DPPC   C3B 2675   1.481   0.071  10.449
12022DPPC   C4B 2676   1.839   0.141  10.099
12023DPPC   NC3 2677   0.411   1.101  11.309
12023DPPC   PO4 2678   0.581   0.791  11.519
12023DPPC   GL1 2679   0.741   0.611  11.269
12023DPPC   GL2 2680   0.531   0.431  11.259
12023DPPC   C1A 2681   1.021   0.571  11.029
12023DPPC   C2A 2682   1.231   0.521  10.639
12023DPPC   C3A 2683   1.551   0.561  10.269
12023DPPC   C4A 2684   1.671   0.561   9.749
12023DPPC   C1B 2685   0.641   0.321  10.949
12023DPPC   C2B 2686   0.721   0.251  10.569
12023DPPC   C3B 2687   0.981   0.221  10.159
12023DPPC   C4B 2688   1.411   0.101   9.859
12024DPPC   NC3 2689   0.521   2.171  12.479
12024DPPC   PO4 2690   0.871   2.331  12.439
12024DPPC   GL1 2691   1.051   2.371  12.039
12024DPPC   GL2 2692   0.871   2.501  11.909
12024DPPC   C1A 2693   1.261   2.171  11.809
12024DPPC   C2A 2694   1.521   2.151  11.479
12024DPPC   C3A 2695   1.771   2.161  11.079
12024DPPC   C4A 2696   2.009   2.191  10.709
12024DPPC   C1B 2697   0.961   2.671  11.559
12024DPPC   C2B 2698   1.081   2.791  11.189
12024DPPC   C3B 2699   1.251   2.771  10.789
12024DPPC   C4B 2700   1.551   2.781  10.419
12025DPPC   NC3 2701   3.719   6.543  16.209
12025DPPC   PO4 2702   3.819   0.241  15.949
12025DPPC   GL1 2703   4.199   0.201  15.709
12025DPPC   GL2 2704   3.979   0.131  15.569
12025DPPC   C1A 2705   4.389   0.261  15.389
12025DPPC   C2A 2706   4.609   0.211  15.049
12025DPPC   C3A 2707   4.869   0.271  14.659
12025DPPC   C4A 2708   5.169   0.231  14.259
12025DPPC   C1B 2709   3.949   6.553  15.269
12025DPPC   C2B 2710   4.139   6.473  14.879
12025DPPC   C3B 2711   4.399   6.573  14.509
12025DPPC   C4B 2712   4.739   6.533  14.129
12026DPPC   NC3 2713   2.929   2.791  15.289
12026DPPC   PO4 2714   3.089   3.171  15.239
12026DPPC   GL1 2715   3.359   2.971  14.939
12026DPPC   GL2 2716   3.479   3.271  14.979
12026DPPC   C1A 2717   3.669   2.781  14.829
12026DPPC   C2A 2718   3.989   2.911  14.569
12026DPPC   C3A 2719   4.269   2.861  14.219
12026DPPC   C4A 2720   4.469   2.951  13.789
12026DPPC   C1B 2721   3.719   3.421  14.689
12026DPPC   C2B 2722   3.979   3.371  14.359
12026DPPC   C3B 2723   4.279   3.351  13.929
12026DPPC   C4B 2724   4.519   3.351  13.549
12027DPPC   NC3 2725   3.519   2.081  16.439
12027DPPC   PO4 2726   3.619   1.801  16.149
12027DPPC   GL1 2727   3.849   1.901  15.909
12027DPPC   GL2 2728   4.119   1.781  16.019
12027DPPC   C1A 2729   3.959   1.891  15.559
12027DPPC   C2A 2730   4.199   1.781  15.249
12027DPPC   C3A 2731   4.409   1.731  14.839
12027DPPC   C4A 2732   4.739   1.711  14.529
12027DPPC   C1B 2733   4.429   1.901  15.919
12027DPPC   C2B 2734   4.809   1.751  15.799
12027DPPC   C3B 2735   5.169   1.801  15.499
12027DPPC   C4B 2736   5.439   1.841  15.119
12028DPPC   NC3 2737   1.849   6.433  13.979
12028DPPC   PO4 2738   2.019   0.171  14.089
12028DPPC   GL1 2739   2.259   0.081  13.769
12028DPPC   GL2 2740   2.249   0.331  13.669
12028DPPC   C1A 2741   2.439   6.563  13.459
12028DPPC   C2A 2742   2.679   6.493  13.099
12028DPPC   C3A 2743   2.999   6.493  12.789
12028DPPC   C4A 2744   3.279   6.453  12.439
12028DPPC   C1B 2745   2.449   0.471  13.369
12028DPPC   C2B 2746   2.709   0.401  13.029
12028DPPC   C3B 2747   3.009   0.351  12.689
12028DPPC   C4B 2748   3.349   0.321  12.309
12029DPPC   NC3 2749  20.199   4.041  12.319
12029DPPC   PO4 2750  20.479   3.921  12.099
12029DPPC   GL1 2751  20.379   4.141  11.699
12029DPPC   GL2 2752  20.119   4.131  11.879
12029DPPC   C1A 2753  20.289   3.961  11.379
12029DPPC   C2A 2754  20.079   3.921  11.009
12029DPPC   C3A 2755  19.789   3.791  10.669
12029DPPC   C4A 2756  19.449   3.751  10.349
12029DPPC   C1B 2757  19.889   4.061  11.599
12029DPPC   C2B 2758  19.669   4.021  11.309
12029DPPC   C3B 2759  19.369   4.071  10.919
12029DPPC   C4B 2760  19.099   4.161  10.529
12030DPPC   NC3 2761   1.631   2.781  13.919
12030DPPC   PO4 2762   1.451   2.801  13.559
12030DPPC   GL1 2763   1.741   2.711  13.299
12030DPPC   GL2 2764   1.859   2.681  13.519
12030DPPC   C1A 2765   2.019   2.751  13.029
12030DPPC   C2A 2766   2.399   2.851  12.979
12030DPPC   C3A 2767   2.739   2.871  12.669
12030DPPC   C4A 2768   3.019   2.851  12.269
12030DPPC   C1B 2769   2.129   2.511  13.369
12030DPPC   C2B 2770   2.419   2.381  13.139
12030DPPC   C3B 2771   2.669   2.381  12.719
12030DPPC   C4B 2772   2.889   2.381  12.369
12031DPPC   NC3 2773   2.199   3.161  13.959
12031DPPC   PO4 2774   2.129   3.461  13.749
12031DPPC   GL1 2775   2.469   3.461  13.469
12031DPPC   GL2 2776   2.539   3.211  13.489
12031DPPC   C1A 2777   2.639   3.661  13.219
12031DPPC   C2A 2778   2.889   3.651  12.899
12031DPPC   C3A 2779   3.179   3.671  12.539
12031DPPC   C4A 2780   3.369   3.681  12.119
12031DPPC   C1B 2781   2.789   3.131  13.199
12031DPPC   C2B 2782   3.029   3.141  12.909
12031DPPC   C3B 2783   3.319   3.161  12.529
12031DPPC   C4B 2784   3.569   3.221  12.099
12032DPPC   NC3 2785  20.679   0.401  11.989
12032DPPC   PO4 2786  20.779   0.261  11.639
12032DPPC   GL1 2787  20.569   0.351  11.319
12032DPPC   GL2 2788  20.359   0.461  11.449
12032DPPC   C1A 2789  20.519   0.361  10.929
12032DPPC   C2A 2790  20.319   0.351  10.529
12032DPPC   C3A 2791  20.079   0.451  10.129
12032DPPC   C4A 2792  19.819   0.641   9.769
12032DPPC   C1B 2793  20.089   0.461  11.169
12032DPPC   C2B 2794  19.929   0.531  10.799
12032DPPC   C3B 2795  19.629   0.631  10.459
12032DPPC   C4B 2796  19.409   0.731  10.099
12033DPPC   NC3 2797   3.159   1.231  15.559
12033DPPC   PO4 2798   2.919   1.031  15.299
12033DPPC   GL1 2799   3.169   1.011  14.999
12033DPPC   GL2 2800   3.329   1.171  15.109
12033DPPC   C1A 2801   3.369   0.791  14.839
12033DPPC   C2A 2802   3.709   0.601  14.639
12033DPPC   C3A 2803   4.069   0.591  14.289
12033DPPC   C4A 2804   4.349   0.621  13.909
12033DPPC   C1B 2805   3.569   1.141  14.799
12033DPPC   C2B 2806   3.729   1.051  14.439
12033DPPC   C3B 2807   4.089   1.161  14.089
12033DPPC   C4B 2808   4.399   1.151  13.709
12034DPPC   NC3 2809   0.811   4.181  12.999
12034DPPC   PO4 2810   1.121   4.001  12.959
12034DPPC   GL1 2811   1.471   3.981  12.829
12034DPPC   GL2 2812   1.581   3.691  12.939
12034DPPC   C1A 2813   1.581   4.151  12.509
12034DPPC   C2A 2814   1.721   4.211  12.119
12034DPPC   C3A 2815   1.979   4.231  11.779
12034DPPC   C4A 2816   2.269   4.333  11.409
12034DPPC   C1B 2817   1.889   3.641  12.719
12034DPPC   C2B 2818   2.209   3.521  12.509
12034DPPC   C3B 2819   2.449   3.561  12.089
12034DPPC   C4B 2820   2.629   3.591  11.629
12035DPPC   NC3 2821   3.109   1.381  16.089
12035DPPC   PO4 2822   3.229   1.651  15.809
12035DPPC   GL1 2823   3.539   1.551  15.519
12035DPPC   GL2 2824   3.719   1.521  15.739
12035DPPC   C1A 2825   3.699   1.791  15.239
12035DPPC   C2A 2826   3.869   1.901  14.869
12035DPPC   C3A 2827   4.119   1.881  14.469
12035DPPC   C4A 2828   4.509   2.001  14.169
12035DPPC   C1B 2829   4.079   1.421  15.739
12035DPPC   C2B 2830   4.449   1.441  15.609
12035DPPC   C3B 2831   4.779   1.541  15.249
12035DPPC   C4B 2832   5.089   1.521  14.809
12036DPPC   NC3 2833   1.431   5.803  13.369
12036DPPC   PO4 2834   1.071   5.993  13.339
12036DPPC   GL1 2835   1.261   6.173  13.009
12036DPPC   GL2 2836   1.201   5.963  12.779
12036DPPC   C1A 2837   1.571   6.313  12.859
12036DPPC   C2A 2838   1.919   6.363  12.689
12036DPPC   C3A 2839   2.249   6.373  12.329
12036DPPC   C4A 2840   2.619   6.353  11.929
12036DPPC   C1B 2841   1.421   5.963  12.459
12036DPPC   C2B 2842   1.781   6.113  12.229
12036DPPC   C3B 2843   2.119   6.153  11.879
12036DPPC   C4B 2844   2.469   6.083  11.479
12037DPPC   NC3 2845  20.999   3.421  11.549
12037DPPC   PO4 2846  20.669   3.251  11.399
12037DPPC   GL1 2847  20.889   3.051  11.069
12037DPPC   GL2 2848  21.069   3.291  11.109
12037DPPC   C1A 2849  20.679   3.071  10.779
12037DPPC   C2A 2850  20.419   3.221  10.499
12037DPPC   C3A 2851  20.139   3.161  10.129
12037DPPC   C4A 2852  20.179   3.111   9.669
12037DPPC   C1B 2853   0.101   3.531  10.929
12037DPPC   C2B 2854   0.211   3.871  10.679
12037DPPC   C3B 2855   0.701   3.981  10.439
12037DPPC   C4B 2856   1.011   3.961  10.069
12038DPPC   NC3 2857   1.431   3.991  13.809
12038DPPC   PO4 2858   1.781   3.911  14.019
12038DPPC   GL1 2859   2.329   3.921  13.809
12038DPPC   GL2 2860   2.139   3.931  13.609
12038DPPC   C1A 2861   2.629   3.961  13.599
12038DPPC   C2A 2862   2.989   4.001  13.389
12038DPPC   C3A 2863   3.249   3.991  12.989
12038DPPC   C4A 2864   3.569   3.961  12.589
12038DPPC   C1B 2865   2.219   3.811  13.299
12038DPPC   C2B 2866   2.349   3.801  12.889
12038DPPC   C3B 2867   2.599   3.801  12.479
12038DPPC   C4B 2868   2.899   3.811  12.119
12039DPPC   NC3 2869   3.199   3.461  15.649
12039DPPC   PO4 2870   3.369   3.831  15.589
12039DPPC   GL1 2871   3.699   3.791  15.279
12039DPPC   GL2 2872   3.809   3.921  15.499
12039DPPC   C1A 2873   3.979   3.761  15.019
12039DPPC   C2A 2874   4.219   3.711  14.659
12039DPPC   C3A 2875   4.459   3.711  14.279
12039DPPC   C4A 2876   4.769   3.661  13.899
12039DPPC   C1B 2877   4.149   4.021  15.359
12039DPPC   C2B 2878   4.399   4.031  15.009
12039DPPC   C3B 2879   4.739   3.971  14.699
12039DPPC   C4B 2880   4.919   3.981  14.279
12040DPPC   NC3 2881   2.059   4.693  14.559
12040DPPC   PO4 2882   2.289   4.473  14.319
12040DPPC   GL1 2883   2.659   4.753  14.349
12040DPPC   GL2 2884   2.739   4.523  14.299
12040DPPC   C1A 2885   2.869   4.903  14.059
12040DPPC   C2A 2886   3.069   4.803  13.729
12040DPPC   C3A 2887   3.389   4.843  13.359
12040DPPC   C4A 2888   3.699   4.663  13.029
12040DPPC   C1B 2889   2.929   4.423  14.009
12040DPPC   C2B 2890   3.199   4.313  13.719
12040DPPC   C3B 2891   3.449   4.303  13.359
12040DPPC   C4B 2892   3.699   4.201  12.999
12041DPPC   NC3 2893   0.411   0.801  12.019
12041DPPC   PO4 2894   0.621   1.091  11.899
12041DPPC   GL1 2895   0.891   1.201  11.539
12041DPPC   GL2 2896   0.911   1.471  11.609
12041DPPC   C1A 2897   0.891   1.151  11.189
12041DPPC   C2A 2898   1.031   1.041  10.829
12041DPPC   C3A 2899   1.311   1.061  10.419
12041DPPC   C4A 2900   1.511   1.001  10.049
12041DPPC   C1B 2901   1.141   1.491  11.299
12041DPPC   C2B 2902   1.411   1.421  11.019
12041DPPC   C3B 2903   1.681   1.411  10.599
12041DPPC   C4B 2904   1.989   1.421  10.209
12042DPPC   NC3 2905   2.499   4.993  15.159
12042DPPC   PO4 2906   2.889   4.883  15.229
12042DPPC   GL1 2907   3.179   4.973  15.009
12042DPPC   GL2 2908   3.079   5.203  14.819
12042DPPC   C1A 2909   3.379   4.703  14.889
12042DPPC   C2A 2910   3.559   4.513  14.579
12042DPPC   C3A 2911   3.799   4.423  14.199
12042DPPC   C4A 2912   4.189   4.403  13.859
12042DPPC   C1B 2913   3.379   5.093  14.599
12042DPPC   C2B 2914   3.689   4.953  14.389
12042DPPC   C3B 2915   3.999   4.953  14.049
12042DPPC   C4B 2916   4.239   4.953  13.659
12043DPPC   NC3 2917   0.711   0.681  12.729
12043DPPC   PO4 2918   0.851   0.771  12.369
12043DPPC   GL1 2919   1.101   0.761  12.019
12043DPPC   GL2 2920   1.311   0.741  12.149
12043DPPC   C1A 2921   1.121   0.891  11.619
12043DPPC   C2A 2922   1.251   0.881  11.219
12043DPPC   C3A 2923   1.561   0.951  10.819
12043DPPC   C4A 2924   1.829   0.991  10.429
12043DPPC   C1B 2925   1.511   0.751  11.889
12043DPPC   C2B 2926   1.671   0.751  11.529
12043DPPC   C3B 2927   1.939   0.711  11.179
12043DPPC   C4B 2928   2.209   0.641  10.739
12044DPPC   NC3 2929   1.271   2.321  13.639
12044DPPC   PO4 2930   1.651   2.321  13.579
12044DPPC   GL1 2931   1.869   2.181  13.299
12044DPPC   GL2 2932   2.009   2.041  13.509
12044DPPC   C1A 2933   1.959   2.141  12.959
12044DPPC   C2A 2934   2.209   2.051  12.599
12044DPPC   C3A 2935   2.529   2.061  12.249
12044DPPC   C4A 2936   2.829   2.101  11.929
12044DPPC   C1B 2937   2.379   2.191  13.529
12044DPPC   C2B 2938   2.749   2.121  13.419
12044DPPC   C3B 2939   3.029   2.181  13.009
12044DPPC   C4B 2940   3.329   2.121  12.679
12045DPPC   NC3 2941   2.059   3.611  14.339
12045DPPC   PO4 2942   2.409   3.461  14.429
12045DPPC   GL1 2943   2.649   3.411  14.109
12045DPPC   GL2 2944   2.589   3.551  13.909
12045DPPC   C1A 2945   2.719   3.101  13.959
12045DPPC   C2A 2946   2.919   3.001  13.649
12045DPPC   C3A 2947   3.249   3.021  13.319
12045DPPC   C4A 2948   3.539   2.881  12.919
12045DPPC   C1B 2949   2.869   3.491  13.689
12045DPPC   C2B 2950   3.089   3.471  13.329
12045DPPC   C3B 2951   3.389   3.431  12.939
12045DPPC   C4B 2952   3.749   3.411  12.569
12046DPPC   NC3 2953   2.509   3.821  14.749
12046DPPC   PO4 2954   2.329   3.981  14.439
12046DPPC   GL1 2955   2.669   4.081  14.249
12046DPPC   GL2 2956   2.539   4.211  14.019
12046DPPC   C1A 2957   2.979   3.931  14.079
12046DPPC   C2A 2958   3.249   3.791  13.799
12046DPPC   C3A 2959   3.489   3.831  13.379
12046DPPC   C4A 2960   3.769   3.741  12.979
12046DPPC   C1B 2961   2.669   4.373  13.679
12046DPPC   C2B 2962   2.879   4.473  13.339
12046DPPC   C3B 2963   3.239   4.483  12.949
12046DPPC   C4B 2964   3.539   4.493  12.569
12047DPPC   NC3 2965   0.481   3.171  12.259
12047DPPC   PO4 2966   0.751   3.301  12.549
12047DPPC   GL1 2967   0.901   3.651  12.399
12047DPPC   GL2 2968   1.141   3.721  12.599
12047DPPC   C1A 2969   1.041   3.651  12.019
12047DPPC   C2A 2970   1.151   3.561  11.659
12047DPPC   C3A 2971   1.351   3.591  11.239
12047DPPC   C4A 2972   1.531   3.721  10.769
12047DPPC   C1B 2973   1.511   3.741  12.479
12047DPPC   C2B 2974   1.829   3.731  12.229
12047DPPC   C3B 2975   2.119   3.721  11.809
12047DPPC   C4B 2976   2.279   3.751  11.359
12048DPPC   NC3 2977   2.629   2.111  14.479
12048DPPC   PO4 2978   2.499   1.731  14.319
12048DPPC   GL1 2979   2.689   1.721  13.959
12048DPPC   GL2 2980   2.959   1.811  14.059
12048DPPC   C1A 2981   2.789   1.731  13.599
12048DPPC   C2A 2982   2.989   1.731  13.279
12048DPPC   C3A 2983   3.249   1.691  12.899
12048DPPC   C4A 2984   3.489   1.631  12.559
12048DPPC   C1B 2985   3.149   1.961  13.739
12048DPPC   C2B 2986   3.379   2.001  13.359
12048DPPC   C3B 2987   3.709   2.011  12.989
12048DPPC   C4B 2988   3.919   1.921  12.559
12049DPPC   NC3 2989   1.999   2.311  13.879
12049DPPC   PO4 2990   2.099   2.701  13.899
12049DPPC   GL1 2991   2.289   2.851  13.629
12049DPPC   GL2 2992   2.159   3.031  13.409
12049DPPC   C1A 2993   2.559   2.741  13.389
12049DPPC   C2A 2994   2.869   2.681  13.119
12049DPPC   C3A 2995   3.179   2.611  12.759
12049DPPC   C4A 2996   3.449   2.691  12.369
12049DPPC   C1B 2997   2.269   3.221  13.139
12049DPPC   C2B 2998   2.509   3.311  12.829
12049DPPC   C3B 2999   2.829   3.331  12.479
12049DPPC   C4B 3000   3.079   3.281  12.039
12050DPPC   NC3 3001   0.611   2.671  13.259
12050DPPC   PO4 3002   0.931   2.431  13.289
12050DPPC   GL1 3003   1.301   2.181  13.169
12050DPPC   GL2 3004   1.421   2.471  13.199
12050DPPC   C1A 3005   1.521   2.071  12.949
12050DPPC   C2A 3006   1.721   1.891  12.639
12050DPPC   C3A 3007   2.039   1.791  12.269
12050DPPC   C4A 3008   2.329   1.851  11.869
12050DPPC   C1B 3009   1.691   2.481  12.999
12050DPPC   C2B 3010   1.939   2.501  12.699
12050DPPC   C3B 3011   2.359   2.561  12.339
12050DPPC   C4B 3012   2.709   2.611  11.939
12051DPPC   NC3 3013   0.621   4.161  12.509
12051DPPC   PO4 3014   0.961   4.343  12.549
12051DPPC   GL1 3015   1.111   4.071  12.339
12051DPPC   GL2 3016   0.871   4.041  12.129
12051DPPC   C1A 3017   1.371   3.911  12.099
12051DPPC   C2A 3018   1.531   3.921  11.719
12051DPPC   C3A 3019   1.811   3.971  11.349
12051DPPC   C4A 3020   2.099   4.091  10.999
12051DPPC   C1B 3021   1.071   4.051  11.829
12051DPPC   C2B 3022   1.121   4.041  11.459
12051DPPC   C3B 3023   1.331   4.121  11.089
12051DPPC   C4B 3024   1.681   4.211  10.769
12052DPPC   NC3 3025   2.339   5.073  14.409
12052DPPC   PO4 3026   2.629   5.113  14.699
12052DPPC   GL1 3027   2.779   5.253  14.399
12052DPPC   GL2 3028   2.639   5.323  14.069
12052DPPC   C1A 3029   3.119   5.213  14.239
12052DPPC   C2A 3030   3.419   5.153  14.009
12052DPPC   C3A 3031   3.719   5.163  13.619
12052DPPC   C4A 3032   3.999   5.033  13.219
12052DPPC   C1B 3033   2.889   5.333  13.819
12052DPPC   C2B 3034   3.159   5.303  13.509
12052DPPC   C3B 3035   3.469   5.253  13.119
12052DPPC   C4B 3036   3.719   5.223  12.749
12053DPPC   NC3 3037   2.649   4.293  14.679
12053DPPC   PO4 3038   2.479   4.653  14.769
12053DPPC   GL1 3039   2.869   4.723  14.789
12053DPPC   GL2 3040   2.949   4.493  14.879
12053DPPC   C1A 3041   3.059   4.813  14.499
12053DPPC   C2A 3042   3.269   4.663  14.189
12053DPPC   C3A 3043   3.559   4.623  13.869
12053DPPC   C4A 3044   3.899   4.613  13.499
12053DPPC   C1B 3045   3.099   4.313  14.539
12053DPPC   C2B 3046   3.369   4.181  14.229
12053DPPC   C3B 3047   3.679   4.101  13.839
12053DPPC   C4B 3048   3.979   4.081  13.439
12054DPPC   NC3 3049   0.821   2.771  12.249
12054DPPC   PO4 3050   0.981   3.091  12.169
12054DPPC   GL1 3051   1.201   3.011  11.819
12054DPPC   GL2 3052   1.241   2.781  11.939
12054DPPC   C1A 3053   1.331   3.061  11.459
12054DPPC   C2A 3054   1.451   3.121  11.069
12054DPPC   C3A 3055   1.751   3.211  10.679
12054DPPC   C4A 3056   2.089   3.121  10.289
12054DPPC   C1B 3057   1.371   2.641  11.619
12054DPPC   C2B 3058   1.541   2.591  11.219
12054DPPC   C3B 3059   1.831   2.641  10.879
12054DPPC   C4B 3060   2.079   2.671  10.549
12055DPPC   NC3 3061   2.889   6.253  15.159
12055DPPC   PO4 3062   2.689   5.963  14.929
12055DPPC   GL1 3063   2.779   5.953  14.479
12055DPPC   GL2 3064   2.889   5.633  14.569
12055DPPC   C1A 3065   2.969   6.083  14.209
12055DPPC   C2A 3066   3.179   6.133  13.859
12055DPPC   C3A 3067   3.509   6.113  13.529
12055DPPC   C4A 3068   3.829   6.093  13.119
12055DPPC   C1B 3069   3.279   5.553  14.599
12055DPPC   C2B 3070   3.579   5.433  14.389
12055DPPC   C3B 3071   3.899   5.423  14.019
12055DPPC   C4B 3072   4.239   5.453  13.619
12056DPPC   NC3 3073   1.161   6.303  13.769
12056DPPC   PO4 3074   1.521   6.093  13.809
12056DPPC   GL1 3075   1.919   6.183  13.559
12056DPPC   GL2 3076   1.909   5.913  13.509
12056DPPC   C1A 3077   2.019   6.483  13.429
12056DPPC   C2A 3078   2.179   0.141  13.119
12056DPPC   C3A 3079   2.359   0.081  12.669
12056DPPC   C4A 3080   2.709   0.041  12.419
12056DPPC   C1B 3081   2.119   5.683  13.309
12056DPPC   C2B 3082   2.449   5.673  13.049
12056DPPC   C3B 3083   2.649   5.713  12.589
12056DPPC   C4B 3084   2.999   5.783  12.269
12057DPPC   NC3 3085   2.399   2.651  14.659
12057DPPC   PO4 3086   2.319   2.441  14.309
12057DPPC   GL1 3087   2.549   2.651  14.029
12057DPPC   GL2 3088   2.509   2.501  13.849
12057DPPC   C1A 3089   2.919   2.761  14.069
12057DPPC   C2A 3090   3.299   2.801  13.949
12057DPPC   C3A 3091   3.599   2.831  13.599
12057DPPC   C4A 3092   3.929   2.781  13.229
12057DPPC   C1B 3093   2.819   2.491  13.659
12057DPPC   C2B 3094   3.149   2.441  13.499
12057DPPC   C3B 3095   3.469   2.431  13.169
12057DPPC   C4B 3096   3.699   2.471  12.749
12058DPPC   NC3 3097  20.339   2.881  11.779
12058DPPC   PO4 3098  20.429   3.261  11.839
12058DPPC   GL1 3099  20.119   3.641  11.939
12058DPPC   GL2 3100  20.159   3.611  11.649
12058DPPC   C1A 3101  19.779   3.661  11.959
12058DPPC   C2A 3102  19.469   3.761  11.709
12058DPPC   C3A 3103  19.159   3.801  11.349
12058DPPC   C4A 3104  18.849   3.841  10.989
12058DPPC   C1B 3105  19.889   3.651  11.449
12058DPPC   C2B 3106  19.629   3.591  11.139
12058DPPC   C3B 3107  19.319   3.581  10.859
12058DPPC   C4B 3108  18.999   3.611  10.579
12059DPPC   NC3 3109  20.699   4.653  11.779
12059DPPC   PO4 3110  20.849   4.313  11.619
12059DPPC   GL1 3111  20.599   4.211  11.249
12059DPPC   GL2 3112  20.379   4.393  11.339
12059DPPC   C1A 3113  20.519   4.181  10.939
12059DPPC   C2A 3114  20.309   4.151  10.629
12059DPPC   C3A 3115  20.019   4.191  10.249
12059DPPC   C4A 3116  19.679   4.121   9.919
12059DPPC   C1B 3117  20.059   4.343  11.209
12059DPPC   C2B 3118  19.879   4.303  10.839
12059DPPC   C3B 3119  19.539   4.403  10.499
12059DPPC   C4B 3120  19.209   4.343  10.089
12060DPPC   NC3 3121   2.049   4.323  13.849
12060DPPC   PO4 3122   1.731   4.423  13.609
12060DPPC   GL1 3123   1.889   4.583  13.239
12060DPPC   GL2 3124   1.919   4.843  13.289
12060DPPC   C1A 3125   2.129   4.543  12.939
12060DPPC   C2A 3126   2.359   4.373  12.659
12060DPPC   C3A 3127   2.639   4.373  12.319
12060DPPC   C4A 3128   2.949   4.323  11.899
12060DPPC   C1B 3129   2.079   4.983  13.029
12060DPPC   C2B 3130   2.289   4.893  12.729
12060DPPC   C3B 3131   2.559   4.853  12.319
12060DPPC   C4B 3132   2.909   4.863  11.939
12061DPPC   NC3 3133   1.251   2.901  13.159
12061DPPC   PO4 3134   1.151   2.951  12.749
12061DPPC   GL1 3135   1.271   2.741  12.409
12061DPPC   GL2 3136   1.441   3.021  12.279
12061DPPC   C1A 3137   1.481   2.541  12.199
12061DPPC   C2A 3138   1.711   2.471  11.849
12061DPPC   C3A 3139   2.009   2.381  11.479
12061DPPC   C4A 3140   2.269   2.451  11.099
12061DPPC   C1B 3141   1.601   2.991  11.959
12061DPPC   C2B 3142   1.781   2.971  11.629
12061DPPC   C3B 3143   2.009   2.961  11.219
12061DPPC   C4B 3144   2.229   3.121  10.809
12062DPPC   NC3 3145   0.891   5.023  12.389
12062DPPC   PO4 3146   1.161   4.803  12.559
12062DPPC   GL1 3147   1.421   4.603  12.259
12062DPPC   GL2 3148   1.331   4.393  12.219
12062DPPC   C1A 3149   1.731   4.663  12.039
12062DPPC   C2A 3150   1.999   4.723  11.699
12062DPPC   C3A 3151   2.319   4.853  11.369
12062DPPC   C4A 3152   2.409   4.793  10.899
12062DPPC   C1B 3153   1.351   4.353  11.879
12062DPPC   C2B 3154   1.501   4.373  11.489
12062DPPC   C3B 3155   1.839   4.473  11.159
12062DPPC   C4B 3156   2.009   4.543  10.679
12063DPPC   NC3 3157   1.671   5.473  14.079
12063DPPC   PO4 3158   1.711   5.533  13.719
12063DPPC   GL1 3159   1.919   5.213  13.449
12063DPPC   GL2 3160   1.761   5.483  13.219
12063DPPC   C1A 3161   2.309   5.133  13.469
12063DPPC   C2A 3162   2.489   5.173  13.109
12063DPPC   C3A 3163   2.739   5.203  12.649
12063DPPC   C4A 3164   3.039   5.243  12.259
12063DPPC   C1B 3165   2.049   5.433  12.959
12063DPPC   C2B 3166   2.259   5.383  12.599
12063DPPC   C3B 3167   2.599   5.373  12.209
12063DPPC   C4B 3168   2.879   5.473  11.879
12064DPPC   NC3 3169   4.429   6.253  16.569
12064DPPC   PO4 3170   4.059   6.323  16.449
12064DPPC   GL1 3171   4.109   6.493  16.029
12064DPPC   GL2 3172   4.349   0.051  16.119
12064DPPC   C1A 3173   4.209   6.403  15.709
12064DPPC   C2A 3174   4.359   6.413  15.349
12064DPPC   C3A 3175   4.629   6.333  14.889
12064DPPC   C4A 3176   4.939   6.363  14.509
12064DPPC   C1B 3177   4.589   0.051  15.849
12064DPPC   C2B 3178   4.809   0.041  15.489
12064DPPC   C3B 3179   5.099   0.001  15.099
12064DPPC   C4B 3180   5.339   0.061  14.739
12065DPPC   NC3 3181   1.751   0.661  13.959
12065DPPC   PO4 3182   1.979   0.621  14.289
12065DPPC   GL1 3183   2.319   0.521  14.089
12065DPPC   GL2 3184   2.479   0.271  14.129
12065DPPC   C1A 3185   2.579   0.631  13.889
12065DPPC   C2A 3186   2.779   0.751  13.529
12065DPPC   C3A 3187   3.149   0.701  13.169
12065DPPC   C4A 3188   3.429   0.661  12.759
12065DPPC   C1B 3189   2.679   0.161  13.869
12065DPPC   C2B 3190   2.879   0.251  13.539
12065DPPC   C3B 3191   3.149   0.161  13.159
12065DPPC   C4B 3192   3.499   0.131  12.819
12066DPPC   NC3 3193   4.079   0.301  16.409
12066DPPC   PO4 3194   4.159   0.611  16.559
12066DPPC   GL1 3195   4.409   0.801  16.309
12066DPPC   GL2 3196   4.289   1.001  16.179
12066DPPC   C1A 3197   4.739   0.881  16.189
12066DPPC   C2A 3198   4.979   0.881  15.829
12066DPPC   C3A 3199   5.239   0.811  15.429
12066DPPC   C4A 3200   5.549   0.821  15.079
12066DPPC   C1B 3201   4.309   0.981  15.829
12066DPPC   C2B 3202   4.549   0.971  15.529
12066DPPC   C3B 3203   4.819   0.971  15.199
12066DPPC   C4B 3204   5.159   1.031  14.909
12067DPPC   NC3 3205   3.539   0.231  15.489
12067DPPC   PO4 3206   3.269   6.573  15.369
12067DPPC   GL1 3207   3.289   6.453  14.959
12067DPPC   GL2 3208   3.579   6.513  14.989
12067DPPC   C1A 3209   3.319   6.483  14.539
12067DPPC   C2A 3210   3.569   6.373  14.249
12067DPPC   C3A 3211   3.849   6.343  13.849
12067DPPC   C4A 3212   4.159   6.433  13.499
12067DPPC   C1B 3213   3.689   0.121  14.739
12067DPPC   C2B 3214   3.929   0.111  14.439
12067DPPC   C3B 3215   4.259   0.101  14.049
12067DPPC   C4B 3216   4.499   0.121  13.669
12068DPPC   NC3 3217   0.381   2.111  11.479
12068DPPC   PO4 3218   0.101   2.381  11.459
12068DPPC   GL1 3219   0.001   2.581  11.119
12068DPPC   GL2 3220  20.859   2.431  11.109
12068DPPC   C1A 3221   0.031   2.541  10.759
12068DPPC   C2A 3222   0.101   2.271  10.459
12068DPPC   C3A 3223   0.111   2.261   9.989
12068DPPC   C4A 3224   0.271   2.041   9.589
12068DPPC   C1B 3225  20.679   2.621  10.889
12068DPPC   C2B 3226  20.439   2.681  10.589
12068DPPC   C3B 3227  20.339   2.701  10.139
12068DPPC   C4B 3228  20.409   2.621   9.649
12069DPPC   NC3 3229   2.239   6.013  15.069
12069DPPC   PO4 3230   2.309   6.343  14.859
12069DPPC   GL1 3231   2.609   6.333  14.549
12069DPPC   GL2 3232   2.859   6.393  14.679
12069DPPC   C1A 3233   2.659   6.373  14.179
12069DPPC   C2A 3234   2.699   6.343  13.799
12069DPPC   C3A 3235   2.999   6.313  13.419
12069DPPC   C4A 3236   3.399   6.273  13.059
12069DPPC   C1B 3237   3.159   6.113  14.589
12069DPPC   C2B 3238   3.429   5.903  14.389
12069DPPC   C3B 3239   3.689   5.953  14.029
12069DPPC   C4B 3240   3.999   5.943  13.659
12070DPPC   NC3 3241  21.029   3.901  11.829
12070DPPC   PO4 3242   0.201   3.721  11.819
12070DPPC   GL1 3243   0.551   3.681  11.509
12070DPPC   GL2 3244   0.341   3.931  11.369
12070DPPC   C1A 3245   0.821   3.731  11.299
12070DPPC   C2A 3246   0.921   3.831  10.929
12070DPPC   C3A 3247   1.131   4.001  10.579
12070DPPC   C4A 3248   1.451   3.841  10.249
12070DPPC   C1B 3249   0.511   3.961  11.039
12070DPPC   C2B 3250   0.431   4.293  10.789
12070DPPC   C3B 3251   0.511   4.623  10.479
12070DPPC   C4B 3252   0.351   5.063  10.339
12071DPPC   NC3 3253   3.279   6.303  16.109
12071DPPC   PO4 3254   3.609   6.093  16.199
12071DPPC   GL1 3255   3.939   6.103  15.939
12071DPPC   GL2 3256   4.149   6.063  16.089
12071DPPC   C1A 3257   3.859   6.123  15.559
12071DPPC   C2A 3258   4.019   6.073  15.159
12071DPPC   C3A 3259   4.269   6.003  14.779
12071DPPC   C4A 3260   4.589   5.993  14.409
12071DPPC   C1B 3261   4.489   6.213  16.029
12071DPPC   C2B 3262   4.709   6.163  15.709
12071DPPC   C3B 3263   4.939   6.163  15.279
12071DPPC   C4B 3264   5.199   6.173  14.909
12072DPPC   NC3 3265   0.961   5.173  12.919
12072DPPC   PO4 3266   0.991   5.523  12.729
12072DPPC   GL1 3267   1.151   5.513  12.429
12072DPPC   GL2 3268   1.311   5.193  12.479
12072DPPC   C1A 3269   1.381   5.643  12.219
12072DPPC   C2A 3270   1.651   5.743  11.879
12072DPPC   C3A 3271   1.939   5.763  11.469
12072DPPC   C4A 3272   2.279   5.783  11.129
12072DPPC   C1B 3273   1.461   5.093  12.189
12072DPPC   C2B 3274   1.741   5.143  11.859
12072DPPC   C3B 3275   1.979   5.243  11.449
12072DPPC   C4B 3276   2.379   5.293  11.119
12073DPPC   NC3 3277   1.411   4.763  13.429
12073DPPC   PO4 3278   1.501   4.913  13.099
12073DPPC   GL1 3279   1.571   4.903  12.709
12073DPPC   GL2 3280   1.791   4.713  12.809
12073DPPC   C1A 3281   1.801   5.003  12.479
12073DPPC   C2A 3282   2.089   5.093  12.199
12073DPPC   C3A 3283   2.409   5.063  11.819
12073DPPC   C4A 3284   2.719   5.123  11.409
12073DPPC   C1B 3285   1.849   4.533  12.519
12073DPPC   C2B 3286   2.109   4.573  12.249
12073DPPC   C3B 3287   2.449   4.573  11.889
12073DPPC   C4B 3288   2.669   4.583  11.509
12074DPPC   NC3 3289   1.909   3.491  13.189
12074DPPC   PO4 3290   1.581   3.241  13.219
12074DPPC   GL1 3291   1.621   2.991  12.879
12074DPPC   GL2 3292   1.771   3.211  12.849
12074DPPC   C1A 3293   1.661   2.821  12.569
12074DPPC   C2A 3294   1.899   2.761  12.249
12074DPPC   C3A 3295   2.159   2.761  11.869
12074DPPC   C4A 3296   2.469   2.771  11.509
12074DPPC   C1B 3297   2.039   3.081  12.689
12074DPPC   C2B 3298   2.319   3.061  12.409
12074DPPC   C3B 3299   2.579   3.091  12.049
12074DPPC   C4B 3300   2.839   3.061  11.669
12075DPPS   CNO 3301   0.591   2.131  12.009
12075DPPS   PO4 3302   0.731   1.891  11.829
12075DPPS   GL1 3303   0.811   1.871  11.419
12075DPPS   GL2 3304   1.071   1.981  11.439
12075DPPS   C1A 3305   0.661   2.031  11.059
12075DPPS   C2A 3306   0.791   1.941  10.709
12075DPPS   C3A 3307   1.161   2.061  10.399
12075DPPS   C4A 3308   1.461   2.011   9.969
12075DPPS   C1B 3309   1.271   1.891  11.169
12075DPPS   C2B 3310   1.371   1.861  10.779
12075DPPS   C3B 3311   1.661   1.881  10.369
12075DPPS   C4B 3312   1.979   1.921  10.009
12076DPPS   CNO 3313   0.471   3.741  12.349
12076DPPS   PO4 3314   0.231   4.011  12.259
12076DPPS   GL1 3315   0.501   4.233  12.009
12076DPPS   GL2 3316   0.561   3.991  11.839
12076DPPS   C1A 3317   0.811   4.413  11.899
12076DPPS   C2A 3318   1.021   4.553  11.589
12076DPPS   C3A 3319   1.151   4.663  11.179
12076DPPS   C4A 3320   1.411   4.633  10.809
12076DPPS   C1B 3321   0.631   4.161  11.509
12076DPPS   C2B 3322   0.731   4.413  11.179
12076DPPS   C3B 3323   0.911   4.423  10.789
12076DPPS   C4B 3324   1.091   4.453  10.309
12077DPPS   CNO 3325  20.869   2.011  11.359
12077DPPS   PO4 3326   0.051   1.861  11.239
12077DPPS   GL1 3327   0.091   2.161  10.999
12077DPPS   GL2 3328  21.029   2.001  10.829
12077DPPS   C1A 3329   0.401   2.211  10.739
12077DPPS   C2A 3330   0.761   2.441  10.689
12077DPPS   C3A 3331   1.031   2.581  10.399
12077DPPS   C4A 3332   1.381   2.521   9.989
12077DPPS   C1B 3333  21.059   1.841  10.489
12077DPPS   C2B 3334  20.929   1.851  10.109
12077DPPS   C3B 3335  20.899   1.761   9.599
12077DPPS   C4B 3336  20.639   1.771   9.149
12078DPPS   CNO 3337  20.929   6.583  12.159
12078DPPS   PO4 3338  20.899   6.183  12.149
12078DPPS   GL1 3339  20.779   6.163  11.799
12078DPPS   GL2 3340  20.659   5.953  11.699
12078DPPS   C1A 3341  20.549   6.383  11.599
12078DPPS   C2A 3342  20.319   6.523  11.229
12078DPPS   C3A 3343  19.999   0.031  10.859
12078DPPS   C4A 3344  19.799   0.161  10.429
12078DPPS   C1B 3345  20.469   5.963  11.399
12078DPPS   C2B 3346  20.269   6.033  11.069
12078DPPS   C3B 3347  20.039   6.113  10.679
12078DPPS   C4B 3348  19.799   6.183  10.289
12079DPPS   CNO 3349   2.299   1.201  14.789
12079DPPS   PO4 3350   2.379   1.261  14.429
12079DPPS   GL1 3351   2.819   1.351  14.209
12079DPPS   GL2 3352   2.549   1.271  13.999
12079DPPS   C1A 3353   3.039   1.391  13.919
12079DPPS   C2A 3354   3.309   1.491  13.609
12079DPPS   C3A 3355   3.609   1.501  13.219
12079DPPS   C4A 3356   3.879   1.451  12.799
12079DPPS   C1B 3357   2.719   1.161  13.699
12079DPPS   C2B 3358   2.939   1.211  13.359
12079DPPS   C3B 3359   3.299   1.121  12.979
12079DPPS   C4B 3360   3.559   1.121  12.599
12080DPPS   CNO 3361   0.171   4.533  12.509
12080DPPS   PO4 3362   0.531   4.623  12.409
12080DPPS   GL1 3363   0.681   4.743  12.039
12080DPPS   GL2 3364   0.451   4.713  11.859
12080DPPS   C1A 3365   1.051   4.733  11.999
12080DPPS   C2A 3366   1.391   4.833  11.769
12080DPPS   C3A 3367   1.611   4.873  11.369
12080DPPS   C4A 3368   1.959   4.973  11.009
12080DPPS   C1B 3369   0.601   4.703  11.559
12080DPPS   C2B 3370   0.721   4.923  11.199
12080DPPS   C3B 3371   0.981   4.873  10.809
12080DPPS   C4B 3372   1.181   4.923  10.409
12081DPPS   CNO 3373   1.391   0.521  13.369
12081DPPS   PO4 3374   1.601   0.801  13.489
12081DPPS   GL1 3375   1.869   0.851  13.209
12081DPPS   GL2 3376   1.979   0.601  13.169
12081DPPS   C1A 3377   2.149   1.051  13.099
12081DPPS   C2A 3378   2.319   1.101  12.759
12081DPPS   C3A 3379   2.649   1.141  12.389
12081DPPS   C4A 3380   2.959   1.131  11.989
12081DPPS   C1B 3381   2.259   0.551  12.989
12081DPPS   C2B 3382   2.499   0.561  12.649
12081DPPS   C3B 3383   2.719   0.501  12.289
12081DPPS   C4B 3384   3.029   0.551  11.939
12082DPPS   CNO 3385   3.379   3.091  16.029
12082DPPS   PO4 3386   3.199   2.991  15.709
12082DPPS   GL1 3387   3.499   3.121  15.399
12082DPPS   GL2 3388   3.559   3.371  15.409
12082DPPS   C1A 3389   3.779   2.941  15.249
12082DPPS   C2A 3390   4.089   2.751  15.079
12082DPPS   C3A 3391   4.419   2.661  14.709
12082DPPS   C4A 3392   4.759   2.721  14.349
12082DPPS   C1B 3393   3.819   3.371  15.169
12082DPPS   C2B 3394   4.089   3.261  14.899
12082DPPS   C3B 3395   4.439   3.151  14.579
12082DPPS   C4B 3396   4.729   3.241  14.199
12083DPPS   CNO 3397   3.079   0.441  15.419
12083DPPS   PO4 3398   3.319   0.771  15.409
12083DPPS   GL1 3399   3.689   0.731  15.249
12083DPPS   GL2 3400   3.819   0.541  15.329
12083DPPS   C1A 3401   3.899   0.861  14.989
12083DPPS   C2A 3402   4.179   0.901  14.679
12083DPPS   C3A 3403   4.499   0.941  14.359
12083DPPS   C4A 3404   4.779   0.941  13.959
12083DPPS   C1B 3405   3.899   0.311  15.069
12083DPPS   C2B 3406   4.189   0.351  14.709
12083DPPS   C3B 3407   4.519   0.421  14.329
12083DPPS   C4B 3408   4.839   0.391  13.939
12084DPPS   CNO 3409   1.501   4.933  14.279
12084DPPS   PO4 3410   1.879   5.043  14.269
12084DPPS   GL1 3411   2.179   4.863  13.989
12084DPPS   GL2 3412   2.059   4.793  13.729
12084DPPS   C1A 3413   2.479   4.963  13.819
12084DPPS   C2A 3414   2.729   5.063  13.499
12084DPPS   C3A 3415   2.999   4.993  13.089
12084DPPS   C4A 3416   3.249   4.933  12.739
12084DPPS   C1B 3417   2.299   4.713  13.449
12084DPPS   C2B 3418   2.539   4.683  13.099
12084DPPS   C3B 3419   2.819   4.663  12.729
12084DPPS   C4B 3420   3.119   4.663  12.329
12085DPPS   CNO 3421   1.601   5.773  14.459
12085DPPS   PO4 3422   1.801   5.973  14.209
12085DPPS   GL1 3423   1.979   5.833  13.949
12085DPPS   GL2 3424   2.119   6.073  13.979
12085DPPS   C1A 3425   2.289   5.743  13.749
12085DPPS   C2A 3426   2.599   5.553  13.509
12085DPPS   C3A 3427   2.909   5.483  13.099
12085DPPS   C4A 3428   3.159   5.473  12.659
12085DPPS   C1B 3429   2.309   6.223  13.729
12085DPPS   C2B 3430   2.549   6.053  13.399
12085DPPS   C3B 3431   2.869   6.033  12.979
12085DPPS   C4B 3432   3.229   5.983  12.679
12086DPPS   CNO 3433   0.241   0.131  12.439
12086DPPS   PO4 3434   0.491   0.381  12.259
12086DPPS   GL1 3435   0.811   0.401  12.069
12086DPPS   GL2 3436   1.031   0.321  12.199
12086DPPS   C1A 3437   0.991   0.431  11.759
12086DPPS   C2A 3438   1.281   0.401  11.459
12086DPPS   C3A 3439   1.551   0.451  11.039
12086DPPS   C4A 3440   1.821   0.421  10.599
12086DPPS   C1B 3441   1.341   0.331  12.009
12086DPPS   C2B 3442   1.661   0.311  11.779
12086DPPS   C3B 3443   1.919   0.241  11.389
12086DPPS   C4B 3444   2.239   0.241  11.049
12087DPPS   CNO 3445   0.111   2.681  11.939
12087DPPS   PO4 3446   0.451   2.601  11.969
12087DPPS   GL1 3447   0.561   2.531  11.559
12087DPPS   GL2 3448   0.771   2.311  11.529
12087DPPS   C1A 3449   0.621   2.811  11.309
12087DPPS   C2A 3450   0.381   2.991  10.989
12087DPPS   C3A 3451   0.281   3.171  10.569
12087DPPS   C4A 3452  21.129   3.241  10.179
12087DPPS   C1B 3453   0.921   2.351  11.209
12087DPPS   C2B 3454   1.161   2.281  10.949
12087DPPS   C3B 3455   1.511   2.351  10.639
12087DPPS   C4B 3456   1.831   2.381  10.229
12088DPPS   CNO 3457   0.821   5.413  13.539
12088DPPS   PO4 3458   0.991   5.513  13.239
12088DPPS   GL1 3459   1.341   5.593  12.999
12088DPPS   GL2 3460   1.371   5.333  12.909
12088DPPS   C1A 3461   1.591   5.783  12.899
12088DPPS   C2A 3462   1.949   5.873  12.649
12088DPPS   C3A 3463   2.309   5.903  12.269
12088DPPS   C4A 3464   2.579   5.843  11.979
12088DPPS   C1B 3465   1.631   5.373  12.689
12088DPPS   C2B 3466   1.829   5.483  12.359
12088DPPS   C3B 3467   2.139   5.573  11.919
12088DPPS   C4B 3468   2.409   5.533  11.509
12089DPPS   CNO 3469  20.969   0.811  11.979
12089DPPS   PO4 3470  20.589   0.861  12.059
12089DPPS   GL1 3471  20.319   0.941  11.719
12089DPPS   GL2 3472  20.239   0.681  11.819
12089DPPS   C1A 3473  19.959   1.131  11.639
12089DPPS   C2A 3474  19.669   1.261  11.359
12089DPPS   C3A 3475  19.369   1.351  11.019
12089DPPS   C4A 3476  19.059   1.401  10.639
12089DPPS   C1B 3477  19.999   0.641  11.579
12089DPPS   C2B 3478  19.709   0.731  11.279
12089DPPS   C3B 3479  19.409   0.751  10.959
12089DPPS   C4B 3480  19.119   0.791  10.579
12090DPPS   CNO 3481   0.961   1.451  12.759
12090DPPS   PO4 3482   1.121   1.131  12.769
12090DPPS   GL1 3483   1.371   1.061  12.499
12090DPPS   GL2 3484   1.151   1.201  12.299
12090DPPS   C1A 3485   1.681   1.071  12.259
12090DPPS   C2A 3486   1.859   1.021  11.899
12090DPPS   C3A 3487   2.189   1.041  11.549
12090DPPS   C4A 3488   2.479   0.991  11.209
12090DPPS   C1B 3489   1.261   1.171  11.909
12090DPPS   C2B 3490   1.501   1.201  11.569
12090DPPS   C3B 3491   1.801   1.231  11.199
12090DPPS   C4B 3492   2.159   1.221  10.819
12091DPPS   CNO 3493   2.549   0.171  15.049
12091DPPS   PO4 3494   2.919   0.161  15.009
12091DPPS   GL1 3495   3.159   0.281  14.669
12091DPPS   GL2 3496   3.029   0.501  14.669
12091DPPS   C1A 3497   3.419   0.341  14.379
12091DPPS   C2A 3498   3.599   0.361  14.039
12091DPPS   C3A 3499   3.919   0.391  13.689
12091DPPS   C4A 3500   4.189   0.391  13.229
12091DPPS   C1B 3501   3.199   0.771  14.459
12091DPPS   C2B 3502   3.449   0.851  14.119
12091DPPS   C3B 3503   3.809   0.861  13.839
12091DPPS   C4B 3504   4.059   0.831  13.419
12092DPPS   CNO 3505   1.989   0.821  14.859
12092DPPS   PO4 3506   2.289   0.611  14.869
12092DPPS   GL1 3507   2.519   0.551  14.549
12092DPPS   GL2 3508   2.659   0.261  14.579
12092DPPS   C1A 3509   2.789   0.561  14.279
12092DPPS   C2A 3510   3.079   0.501  13.989
12092DPPS   C3A 3511   3.359   0.521  13.639
12092DPPS   C4A 3512   3.669   0.521  13.249
12092DPPS   C1B 3513   2.949   0.131  14.379
12092DPPS   C2B 3514   3.129   6.583  14.059
12092DPPS   C3B 3515   3.379   6.593  13.709
12092DPPS   C4B 3516   3.679   0.001  13.299
12093DPPS   CNO 3517  20.799   1.321  12.029
12093DPPS   PO4 3518  20.419   1.371  11.909
12093DPPS   GL1 3519  20.339   1.581  11.649
12093DPPS   GL2 3520  20.509   1.581  11.429
12093DPPS   C1A 3521  20.069   1.491  11.339
12093DPPS   C2A 3522  19.879   1.481  10.969
12093DPPS   C3A 3523  19.579   1.571  10.599
12093DPPS   C4A 3524  19.229   1.591  10.189
12093DPPS   C1B 3525  20.359   1.751  11.139
12093DPPS   C2B 3526  20.159   1.871  10.829
12093DPPS   C3B 3527  19.939   1.831  10.379
12093DPPS   C4B 3528  19.669   1.941   9.999
12094DPPS   CNO 3529   2.719   5.793  15.439
12094DPPS   PO4 3530   3.059   5.783  15.389
12094DPPS   GL1 3531   3.229   5.673  15.019
12094DPPS   GL2 3532   3.209   5.983  14.979
12094DPPS   C1A 3533   3.499   5.373  15.009
12094DPPS   C2A 3534   3.809   5.163  14.839
12094DPPS   C3A 3535   4.159   5.203  14.469
12094DPPS   C4A 3536   4.429   5.193  14.029
12094DPPS   C1B 3537   3.529   6.123  14.849
12094DPPS   C2B 3538   3.829   6.223  14.599
12094DPPS   C3B 3539   4.099   6.243  14.259
12094DPPS   C4B 3540   4.389   6.213  13.919
12095DPPS   CNO 3541   0.691   2.131  12.999
12095DPPS   PO4 3542   0.991   1.981  12.869
12095DPPS   GL1 3543   1.271   2.021  12.579
12095DPPS   GL2 3544   1.291   1.701  12.539
12095DPPS   C1A 3545   1.551   2.281  12.529
12095DPPS   C2A 3546   1.859   2.231  12.249
12095DPPS   C3A 3547   2.279   2.321  11.919
12095DPPS   C4A 3548   2.519   2.261  11.499
12095DPPS   C1B 3549   1.521   1.521  12.339
12095DPPS   C2B 3550   1.711   1.521  11.969
12095DPPS   C3B 3551   1.999   1.461  11.629
12095DPPS   C4B 3552   2.299   1.441  11.249
12096DPPS   CNO 3553   0.531   5.653  12.489
12096DPPS   PO4 3554   0.591   5.543  12.149
12096DPPS   GL1 3555   0.931   5.603  12.059
12096DPPS   GL2 3556   1.061   5.373  12.019
12096DPPS   C1A 3557   0.951   5.703  11.719
12096DPPS   C2A 3558   1.011   5.733  11.299
12096DPPS   C3A 3559   1.341   5.723  10.919
12096DPPS   C4A 3560   1.641   5.793  10.579
12096DPPS   C1B 3561   1.311   5.423  11.759
12096DPPS   C2B 3562   1.521   5.533  11.429
12096DPPS   C3B 3563   1.771   5.523  11.029
12096DPPS   C4B 3564   2.129   5.473  10.699
12097DPPS   CNO 3565   3.259   4.051  16.249
12097DPPS   PO4 3566   3.169   4.151  15.919
12097DPPS   GL1 3567   3.399   4.303  15.749
12097DPPS   GL2 3568   3.629   4.131  15.909
12097DPPS   C1A 3569   3.589   4.403  15.459
12097DPPS   C2A 3570   3.729   4.753  15.249
12097DPPS   C3A 3571   3.959   4.713  14.819
12097DPPS   C4A 3572   4.229   4.713  14.429
12097DPPS   C1B 3573   4.009   4.121  15.869
12097DPPS   C2B 3574   4.329   3.911  15.739
12097DPPS   C3B 3575   4.639   3.811  15.399
12097DPPS   C4B 3576   5.009   3.791  15.129
12098DPPS   CNO 3577   2.979   1.991  15.629
12098DPPS   PO4 3578   2.969   2.311  15.389
12098DPPS   GL1 3579   3.379   2.221  15.219
12098DPPS   GL2 3580   3.289   2.031  14.969
12098DPPS   C1A 3581   3.569   2.381  15.019
12098DPPS   C2A 3582   3.899   2.381  14.729
12098DPPS   C3A 3583   4.189   2.401  14.329
12098DPPS   C4A 3584   4.489   2.471  13.949
12098DPPS   C1B 3585   3.499   2.041  14.709
12098DPPS   C2B 3586   3.699   2.101  14.339
12098DPPS   C3B 3587   3.989   2.131  13.959
12098DPPS   C4B 3588   4.299   2.081  13.619
12099DPPS   CNO 3589   0.091   5.363  12.299
12099DPPS   PO4 3590   0.311   5.113  12.149
12099DPPS   GL1 3591   0.681   5.093  11.829
12099DPPS   GL2 3592   0.561   5.373  11.709
12099DPPS   C1A 3593   0.891   5.013  11.629
12099DPPS   C2A 3594   1.161   5.133  11.339
12099DPPS   C3A 3595   1.441   5.143  10.949
12099DPPS   C4A 3596   1.681   4.973  10.519
12099DPPS   C1B 3597   0.631   5.443  11.349
12099DPPS   C2B 3598   0.901   5.393  10.979
12099DPPS   C3B 3599   1.211   5.383  10.569
12099DPPS   C4B 3600   1.551   5.343  10.219
12100DPPC   NC3 3601   1.751   4.693   7.939
12100DPPC   PO4 3602   1.731   5.093   8.019
12100DPPC   GL1 3603   1.731   5.253   8.399
12100DPPC   GL2 3604   1.889   5.443   8.399
12100DPPC   C1A 3605   1.691   5.123   8.779
12100DPPC   C2A 3606   1.561   5.043   9.169
12100DPPC   C3A 3607   1.321   5.063   9.569
12100DPPC   C4A 3608   1.171   5.123   9.959
12100DPPC   C1B 3609   2.119   5.293   8.629
12100DPPC   C2B 3610   2.369   5.273   8.979
12100DPPC   C3B 3611   2.339   5.183   9.429
12100DPPC   C4B 3612   2.559   5.503   9.799
12101DPPC   NC3 3613   3.349   2.041   9.069
12101DPPC   PO4 3614   3.369   2.441   9.229
12101DPPC   GL1 3615   3.369   2.701   9.569
12101DPPC   GL2 3616   3.379   2.901   9.399
12101DPPC   C1A 3617   3.269   2.771   9.889
12101DPPC   C2A 3618   3.269   2.851  10.269
12101DPPC   C3A 3619   3.009   2.861  10.669
12101DPPC   C4A 3620   2.629   2.861  10.979
12101DPPC   C1B 3621   3.129   3.171   9.509
12101DPPC   C2B 3622   2.939   3.411   9.689
12101DPPC   C3B 3623   2.649   3.411  10.059
12101DPPC   C4B 3624   2.389   3.501  10.479
12102DPPC   NC3 3625   4.449   4.373  10.259
12102DPPC   PO4 3626   4.599   4.713  10.209
12102DPPC   GL1 3627   4.279   5.013  10.409
12102DPPC   GL2 3628   4.229   4.723  10.509
12102DPPC   C1A 3629   4.189   5.103  10.739
12102DPPC   C2A 3630   3.919   5.163  11.029
12102DPPC   C3A 3631   3.619   5.103  11.409
12102DPPC   C4A 3632   3.359   5.153  11.859
12102DPPC   C1B 3633   4.119   4.683  10.819
12102DPPC   C2B 3634   3.909   4.583  11.149
12102DPPC   C3B 3635   3.629   4.603  11.499
12102DPPC   C4B 3636   3.359   4.673  11.879
12103DPPC   NC3 3637   5.909   6.213  12.139
12103DPPC   PO4 3638   6.289   6.283  12.289
12103DPPC   GL1 3639   6.309   6.233  12.689
12103DPPC   GL2 3640   6.019   6.063  12.609
12103DPPC   C1A 3641   6.079   6.273  12.989
12103DPPC   C2A 3642   5.899   6.323  13.339
12103DPPC   C3A 3643   5.589   6.283  13.659
12103DPPC   C4A 3644   5.259   6.333  14.079
12103DPPC   C1B 3645   5.709   6.033  12.849
12103DPPC   C2B 3646   5.469   5.963  13.239
12103DPPC   C3B 3647   5.159   6.083  13.639
12103DPPC   C4B 3648   4.879   6.033  13.979
12104DPPC   NC3 3649   6.869   1.801  12.869
12104DPPC   PO4 3650   6.779   2.131  12.719
12104DPPC   GL1 3651   6.409   2.241  12.649
12104DPPC   GL2 3652   6.329   2.531  12.609
12104DPPC   C1A 3653   6.159   2.131  12.839
12104DPPC   C2A 3654   5.799   2.121  12.999
12104DPPC   C3A 3655   5.499   2.111  13.449
12104DPPC   C4A 3656   5.229   2.201  13.789
12104DPPC   C1B 3657   6.219   2.711  12.899
12104DPPC   C2B 3658   6.079   2.931  13.249
12104DPPC   C3B 3659   5.759   3.031  13.579
12104DPPC   C4B 3660   5.489   3.091  13.929
12105DPPC   NC3 3661   6.709   3.231  12.169
12105DPPC   PO4 3662   6.529   2.951  12.329
12105DPPC   GL1 3663   6.079   2.931  12.389
12105DPPC   GL2 3664   6.189   3.031  12.629
12105DPPC   C1A 3665   5.739   2.911  12.449
12105DPPC   C2A 3666   5.409   2.871  12.709
12105DPPC   C3A 3667   5.039   2.851  13.019
12105DPPC   C4A 3668   4.849   2.861  13.449
12105DPPC   C1B 3669   5.889   3.011  12.819
12105DPPC   C2B 3670   5.619   3.201  13.099
12105DPPC   C3B 3671   5.279   3.131  13.409
12105DPPC   C4B 3672   5.029   3.291  13.729
12106DPPC   NC3 3673   6.609   1.931  12.289
12106DPPC   PO4 3674   6.249   1.731  12.199
12106DPPC   GL1 3675   5.879   1.691  12.349
12106DPPC   GL2 3676   5.759   1.581  12.169
12106DPPC   C1A 3677   5.719   1.501  12.609
12106DPPC   C2A 3678   5.409   1.391  12.889
12106DPPC   C3A 3679   5.099   1.501  13.239
12106DPPC   C4A 3680   4.869   1.441  13.649
12106DPPC   C1B 3681   5.419   1.671  12.189
12106DPPC   C2B 3682   5.149   1.611  12.459
12106DPPC   C3B 3683   4.849   1.631  12.829
12106DPPC   C4B 3684   4.609   1.571  13.249
12107DPPC   NC3 3685   1.571   3.741   8.259
12107DPPC   PO4 3686   1.191   3.741   8.339
12107DPPC   GL1 3687   1.131   3.721   8.709
12107DPPC   GL2 3688   1.081   3.431   8.729
12107DPPC   C1A 3689   1.271   3.771   9.029
12107DPPC   C2A 3690   1.501   3.511   9.239
12107DPPC   C3A 3691   1.631   3.151   9.559
12107DPPC   C4A 3692   1.751   2.931   9.959
12107DPPC   C1B 3693   1.041   3.351   9.119
12107DPPC   C2B 3694   1.081   3.201   9.539
12107DPPC   C3B 3695   1.081   3.101  10.029
12107DPPC   C4B 3696   0.741   3.111  10.379
12108DPPC   NC3 3697   0.331   2.211   7.759
12108DPPC   PO4 3698   0.031   2.201   8.009
12108DPPC   GL1 3699   0.021   2.411   8.409
12108DPPC   GL2 3700   0.121   2.181   8.509
12108DPPC   C1A 3701  20.919   2.471   8.669
12108DPPC   C2A 3702  20.869   2.641   9.059
12108DPPC   C3A 3703  20.789   2.951   9.429
12108DPPC   C4A 3704  20.629   3.101   9.959
12108DPPC   C1B 3705   0.151   2.091   8.909
12108DPPC   C2B 3706   0.101   1.761   9.209
12108DPPC   C3B 3707   0.281   1.541   9.539
12108DPPC   C4B 3708   0.631   1.381   9.829
12109DPPC   NC3 3709   2.209   2.071   8.929
12109DPPC   PO4 3710   2.619   2.111   8.909
12109DPPC   GL1 3711   2.919   2.171   9.229
12109DPPC   GL2 3712   2.859   1.841   9.249
12109DPPC   C1A 3713   2.809   2.261   9.549
12109DPPC   C2A 3714   2.899   2.431   9.899
12109DPPC   C3A 3715   2.679   2.531  10.309
12109DPPC   C4A 3716   2.509   2.451  10.719
12109DPPC   C1B 3717   3.199   1.831   9.419
12109DPPC   C2B 3718   3.109   2.011   9.799
12109DPPC   C3B 3719   2.839   2.041  10.189
12109DPPC   C4B 3720   2.649   1.981  10.589
12110DPPC   NC3 3721   4.469   3.291   8.849
12110DPPC   PO4 3722   4.169   3.231   9.139
12110DPPC   GL1 3723   3.849   3.341   9.299
12110DPPC   GL2 3724   3.799   3.231   9.539
12110DPPC   C1A 3725   3.549   3.491   9.219
12110DPPC   C2A 3726   3.199   3.661   9.399
12110DPPC   C3A 3727   2.859   3.911   9.699
12110DPPC   C4A 3728   2.589   3.961  10.119
12110DPPC   C1B 3729   3.489   3.321   9.719
12110DPPC   C2B 3730   3.279   3.371  10.079
12110DPPC   C3B 3731   2.989   3.361  10.459
12110DPPC   C4B 3732   2.749   3.391  10.839
12111DPPC   NC3 3733   4.229   0.041   9.169
12111DPPC   PO4 3734   4.169   0.281   9.509
12111DPPC   GL1 3735   3.869   0.181   9.739
12111DPPC   GL2 3736   3.879   0.361   9.939
12111DPPC   C1A 3737   3.529   0.041   9.929
12111DPPC   C2A 3738   3.289   6.583  10.229
12111DPPC   C3A 3739   2.999   0.021  10.589
12111DPPC   C4A 3740   2.729   0.031  10.969
12111DPPC   C1B 3741   3.739   0.341  10.259
12111DPPC   C2B 3742   3.499   0.301  10.619
12111DPPC   C3B 3743   3.189   0.301  11.039
12111DPPC   C4B 3744   2.939   0.271  11.459
12112DPPC   NC3 3745   4.639   2.141   9.639
12112DPPC   PO4 3746   4.449   2.391   9.889
12112DPPC   GL1 3747   4.159   2.211  10.179
12112DPPC   GL2 3748   4.389   2.131  10.329
12112DPPC   C1A 3749   3.809   2.211  10.309
12112DPPC   C2A 3750   3.559   2.101  10.639
12112DPPC   C3A 3751   3.369   2.081  11.059
12112DPPC   C4A 3752   3.029   2.071  11.459
12112DPPC   C1B 3753   4.239   2.101  10.659
12112DPPC   C2B 3754   3.959   1.971  10.959
12112DPPC   C3B 3755   3.729   1.901  11.329
12112DPPC   C4B 3756   3.449   1.921  11.769
12113DPPC   NC3 3757  18.839   3.731   9.699
12113DPPC   PO4 3758  18.639   3.391   9.699
12113DPPC   GL1 3759  18.649   3.271   9.979
12113DPPC   GL2 3760  18.789   3.411  10.189
12113DPPC   C1A 3761  18.339   3.101  10.099
12113DPPC   C2A 3762  18.199   2.781  10.339
12113DPPC   C3A 3763  18.259   2.341  10.359
12113DPPC   C4A 3764  18.689   2.151  10.169
12113DPPC   C1B 3765  18.959   3.171  10.329
12113DPPC   C2B 3766  19.299   3.171  10.569
12113DPPC   C3B 3767  19.599   3.101  10.879
12113DPPC   C4B 3768  19.899   3.171  11.239
12114DPPC   NC3 3769   4.319   3.331   9.719
12114DPPC   PO4 3770   4.139   3.641   9.589
12114DPPC   GL1 3771   3.799   3.741   9.819
12114DPPC   GL2 3772   3.599   3.721   9.629
12114DPPC   C1A 3773   3.719   3.571  10.159
12114DPPC   C2A 3774   3.529   3.601  10.509
12114DPPC   C3A 3775   3.219   3.621  10.899
12114DPPC   C4A 3776   2.929   3.651  11.279
12114DPPC   C1B 3777   3.289   3.771   9.829
12114DPPC   C2B 3778   3.019   3.761  10.169
12114DPPC   C3B 3779   2.809   3.841  10.589
12114DPPC   C4B 3780   2.539   3.851  10.949
12115DPPC   NC3 3781  17.229   1.581   9.809
12115DPPC   PO4 3782  17.189   1.371  10.149
12115DPPC   GL1 3783  17.349   1.481  10.459
12115DPPC   GL2 3784  17.399   1.241  10.579
12115DPPC   C1A 3785  17.489   1.681  10.739
12115DPPC   C2A 3786  17.669   1.831  11.049
12115DPPC   C3A 3787  17.869   1.931  11.449
12115DPPC   C4A 3788  18.189   1.941  11.779
12115DPPC   C1B 3789  17.749   1.211  10.739
12115DPPC   C2B 3790  18.109   1.021  10.799
12115DPPC   C3B 3791  18.449   1.131  11.139
12115DPPC   C4B 3792  18.899   0.921  11.019
12116DPPC   NC3 3793   6.049   4.211  12.149
12116DPPC   PO4 3794   5.859   4.473  11.939
12116DPPC   GL1 3795   5.479   4.463  12.039
12116DPPC   GL2 3796   5.399   4.413  11.719
12116DPPC   C1A 3797   5.289   4.413  12.349
12116DPPC   C2A 3798   4.979   4.303  12.639
12116DPPC   C3A 3799   4.729   4.343  13.039
12116DPPC   C4A 3800   4.429   4.423  13.449
12116DPPC   C1B 3801   5.059   4.433  11.899
12116DPPC   C2B 3802   4.829   4.553  12.179
12116DPPC   C3B 3803   4.489   4.573  12.539
12116DPPC   C4B 3804   4.219   4.543  12.989
12117DPPC   NC3 3805   4.149   4.161   9.599
12117DPPC   PO4 3806   4.199   4.061   9.989
12117DPPC   GL1 3807   3.989   3.861  10.189
12117DPPC   GL2 3808   4.159   3.581  10.099
12117DPPC   C1A 3809   3.879   3.861  10.589
12117DPPC   C2A 3810   3.739   3.891  10.939
12117DPPC   C3A 3811   3.409   3.911  11.299
12117DPPC   C4A 3812   3.149   3.881  11.699
12117DPPC   C1B 3813   4.039   3.401  10.369
12117DPPC   C2B 3814   3.899   3.421  10.789
12117DPPC   C3B 3815   3.659   3.471  11.139
12117DPPC   C4B 3816   3.359   3.431  11.529
12118DPPC   NC3 3817  19.629   5.043   9.089
12118DPPC   PO4 3818  19.799   5.313   9.339
12118DPPC   GL1 3819  20.169   5.433   9.409
12118DPPC   GL2 3820  20.289   5.543   9.149
12118DPPC   C1A 3821  20.349   5.273   9.649
12118DPPC   C2A 3822  20.649   5.223   9.929
12118DPPC   C3A 3823  21.009   5.193  10.329
12118DPPC   C4A 3824   0.121   5.243  10.719
12118DPPC   C1B 3825  20.619   5.393   9.169
12118DPPC   C2B 3826  20.949   5.133   9.219
12118DPPC   C3B 3827  21.089   4.703   9.079
12118DPPC   C4B 3828   0.161   4.283   9.179
12119DPPC   NC3 3829   5.129   0.711  10.989
12119DPPC   PO4 3830   4.979   0.751  10.589
12119DPPC   GL1 3831   4.549   0.801  10.689
12119DPPC   GL2 3832   4.609   0.961  10.969
12119DPPC   C1A 3833   4.299   0.661  10.869
12119DPPC   C2A 3834   4.109   0.421  11.129
12119DPPC   C3A 3835   3.879   0.331  11.569
12119DPPC   C4A 3836   3.549   0.371  11.889
12119DPPC   C1B 3837   4.429   0.781  11.239
12119DPPC   C2B 3838   4.219   0.691  11.579
12119DPPC   C3B 3839   3.909   0.711  11.979
12119DPPC   C4B 3840   3.729   0.661  12.379
12120DPPC   NC3 3841   4.299   0.561   9.989
12120DPPC   PO4 3842   4.259   0.161  10.019
12120DPPC   GL1 3843   4.079   0.071  10.379
12120DPPC   GL2 3844   3.889   6.533  10.169
12120DPPC   C1A 3845   3.909   0.191  10.719
12120DPPC   C2A 3846   3.729   0.151  11.129
12120DPPC   C3A 3847   3.429   0.071  11.519
12120DPPC   C4A 3848   3.079   0.021  11.919
12120DPPC   C1B 3849   3.699   6.543  10.469
12120DPPC   C2B 3850   3.459   6.423  10.779
12120DPPC   C3B 3851   3.149   6.403  11.109
12120DPPC   C4B 3852   2.879   6.383  11.469
12121DPPC   NC3 3853  17.399   5.943  10.359
12121DPPC   PO4 3854  17.199   6.323  10.259
12121DPPC   GL1 3855  17.519   6.433  10.519
12121DPPC   GL2 3856  17.319   0.041  10.559
12121DPPC   C1A 3857  17.689   6.433  10.819
12121DPPC   C2A 3858  17.929   6.403  11.159
12121DPPC   C3A 3859  18.279   6.463  11.429
12121DPPC   C4A 3860  18.599   6.533  11.719
12121DPPC   C1B 3861  17.489   0.391  10.439
12121DPPC   C2B 3862  17.799   0.591  10.259
12121DPPC   C3B 3863  18.189   0.441  10.089
12121DPPC   C4B 3864  18.739   0.261  10.079
12122DPPC   NC3 3865   7.049   6.073  13.049
12122DPPC   PO4 3866   6.879   5.853  12.759
12122DPPC   GL1 3867   6.499   5.783  12.929
12122DPPC   GL2 3868   6.659   5.803  13.219
12122DPPC   C1A 3869   6.209   5.903  13.099
12122DPPC   C2A 3870   5.939   5.803  13.419
12122DPPC   C3A 3871   5.569   5.763  13.789
12122DPPC   C4A 3872   5.289   5.823  14.169
12122DPPC   C1B 3873   6.429   5.703  13.529
12122DPPC   C2B 3874   6.159   5.663  13.869
12122DPPC   C3B 3875   5.789   5.653  14.209
12122DPPC   C4B 3876   5.569   5.653  14.639
12123DPPC   NC3 3877   4.429   5.453  10.339
12123DPPC   PO4 3878   4.299   5.703  10.079
12123DPPC   GL1 3879   3.919   5.913  10.099
12123DPPC   GL2 3880   3.829   5.763   9.909
12123DPPC   C1A 3881   3.669   5.843  10.399
12123DPPC   C2A 3882   3.469   5.843  10.719
12123DPPC   C3A 3883   3.209   5.853  11.139
12123DPPC   C4A 3884   2.899   5.853  11.469
12123DPPC   C1B 3885   3.519   5.623   9.909
12123DPPC   C2B 3886   3.299   5.583  10.269
12123DPPC   C3B 3887   3.009   5.643  10.649
12123DPPC   C4B 3888   2.769   5.593  11.099
12124DPPC   NC3 3889   4.889   0.271  10.589
12124DPPC   PO4 3890   5.199   0.231  10.849
12124DPPC   GL1 3891   5.039   0.281  11.239
12124DPPC   GL2 3892   4.849   0.011  11.099
12124DPPC   C1A 3893   4.989   0.261  11.619
12124DPPC   C2A 3894   4.889   0.251  12.029
12124DPPC   C3A 3895   4.709   0.311  12.439
12124DPPC   C4A 3896   4.499   0.251  12.859
12124DPPC   C1B 3897   4.579   0.041  11.309
12124DPPC   C2B 3898   4.319   0.131  11.609
12124DPPC   C3B 3899   4.099   0.211  12.039
12124DPPC   C4B 3900   3.809   0.151  12.419
12125DPPC   NC3 3901   6.239   1.621  11.699
12125DPPC   PO4 3902   6.049   1.741  11.339
12125DPPC   GL1 3903   5.649   1.871  11.519
12125DPPC   GL2 3904   5.469   1.781  11.279
12125DPPC   C1A 3905   5.439   1.691  11.739
12125DPPC   C2A 3906   5.479   1.321  11.899
12125DPPC   C3A 3907   5.349   0.871  11.999
12125DPPC   C4A 3908   5.329   0.391  12.109
12125DPPC   C1B 3909   5.169   1.851  11.419
12125DPPC   C2B 3910   4.789   2.001  11.459
12125DPPC   C3B 3911   4.479   2.071  11.769
12125DPPC   C4B 3912   4.199   2.071  12.149
12126DPPC   NC3 3913  20.929   0.431   7.909
12126DPPC   PO4 3914  20.829   0.561   8.299
12126DPPC   GL1 3915  20.919   0.481   8.669
12126DPPC   GL2 3916   0.051   0.401   8.629
12126DPPC   C1A 3917  20.949   0.631   9.029
12126DPPC   C2A 3918  21.089   0.801   9.369
12126DPPC   C3A 3919   0.221   0.801   9.779
12126DPPC   C4A 3920   0.361   0.761  10.239
12126DPPC   C1B 3921   0.331   0.291   8.859
12126DPPC   C2B 3922   0.601   0.131   9.079
12126DPPC   C3B 3923   1.071   6.543   9.099
12126DPPC   C4B 3924   1.501   0.081   9.069
12127DPPC   NC3 3925   5.869   0.421  11.389
12127DPPC   PO4 3926   5.979   0.491  11.749
12127DPPC   GL1 3927   5.749   0.291  12.089
12127DPPC   GL2 3928   5.749   0.571  12.199
12127DPPC   C1A 3929   5.629   0.021  12.269
12127DPPC   C2A 3930   5.289   0.131  12.529
12127DPPC   C3A 3931   4.989   0.071  12.849
12127DPPC   C4A 3932   4.769   0.041  13.269
12127DPPC   C1B 3933   5.549   0.641  12.439
12127DPPC   C2B 3934   5.239   0.721  12.739
12127DPPC   C3B 3935   4.919   0.591  13.069
12127DPPC   C4B 3936   4.589   0.651  13.429
12128DPPC   NC3 3937   4.549   6.473  10.439
12128DPPC   PO4 3938   4.829   6.363  10.679
12128DPPC   GL1 3939   4.609   6.213  11.009
12128DPPC   GL2 3940   4.459   6.123  10.849
12128DPPC   C1A 3941   4.499   6.193  11.369
12128DPPC   C2A 3942   4.329   6.193  11.699
12128DPPC   C3A 3943   4.079   6.243  12.089
12128DPPC   C4A 3944   3.739   6.253  12.479
12128DPPC   C1B 3945   4.229   5.913  11.089
12128DPPC   C2B 3946   4.029   5.923  11.449
12128DPPC   C3B 3947   3.749   5.963  11.819
12128DPPC   C4B 3948   3.449   5.913  12.239
12129DPPC   NC3 3949   4.149   4.263   9.049
12129DPPC   PO4 3950   4.109   4.563   9.339
12129DPPC   GL1 3951   3.789   4.523   9.589
12129DPPC   GL2 3952   3.709   4.263   9.469
12129DPPC   C1A 3953   3.679   4.563   9.949
12129DPPC   C2A 3954   3.449   4.473  10.289
12129DPPC   C3A 3955   3.249   4.543  10.659
12129DPPC   C4A 3956   3.039   4.553  11.079
12129DPPC   C1B 3957   3.629   4.121   9.799
12129DPPC   C2B 3958   3.499   3.971  10.179
12129DPPC   C3B 3959   3.319   4.051  10.619
12129DPPC   C4B 3960   2.989   4.041  10.969
12130DPPC   NC3 3961   7.269   1.171  13.069
12130DPPC   PO4 3962   6.949   1.291  12.889
12130DPPC   GL1 3963   6.599   1.391  12.979
12130DPPC   GL2 3964   6.469   1.291  12.809
12130DPPC   C1A 3965   6.299   1.451  13.219
12130DPPC   C2A 3966   6.049   1.471  13.519
12130DPPC   C3A 3967   5.749   1.431  13.929
12130DPPC   C4A 3968   5.489   1.581  14.349
12130DPPC   C1B 3969   6.089   1.191  12.909
12130DPPC   C2B 3970   5.809   1.181  13.199
12130DPPC   C3B 3971   5.559   1.171  13.579
12130DPPC   C4B 3972   5.269   1.271  13.919
12131DPPC   NC3 3973  19.589   1.441   8.719
12131DPPC   PO4 3974  19.659   1.171   8.989
12131DPPC   GL1 3975  19.969   1.391   9.209
12131DPPC   GL2 3976  19.909   1.661   8.989
12131DPPC   C1A 3977  20.249   1.271   9.419
12131DPPC   C2A 3978  20.529   1.351   9.649
12131DPPC   C3A 3979  20.739   1.401  10.069
12131DPPC   C4A 3980  21.029   1.381  10.469
12131DPPC   C1B 3981  20.159   1.851   9.209
12131DPPC   C2B 3982  20.399   1.971   9.549
12131DPPC   C3B 3983  20.679   2.211   9.829
12131DPPC   C4B 3984  20.769   2.341  10.299
12132DPPC   NC3 3985   3.989   2.261   9.689
12132DPPC   PO4 3986   4.029   1.901   9.849
12132DPPC   GL1 3987   3.809   1.801  10.129
12132DPPC   GL2 3988   4.029   1.801  10.309
12132DPPC   C1A 3989   3.419   1.781  10.269
12132DPPC   C2A 3990   3.139   1.801  10.599
12132DPPC   C3A 3991   2.999   1.771  11.059
12132DPPC   C4A 3992   2.639   1.781  11.339
12132DPPC   C1B 3993   3.879   1.631  10.589
12132DPPC   C2B 3994   3.569   1.661  10.869
12132DPPC   C3B 3995   3.349   1.541  11.279
12132DPPC   C4B 3996   3.019   1.601  11.669
12133DPPC   NC3 3997   5.079   3.301  10.099
12133DPPC   PO4 3998   4.699   3.181  10.089
12133DPPC   GL1 3999   4.429   3.181  10.469
12133DPPC   GL2 4000   4.459   3.451  10.459
12133DPPC   C1A 4001   4.179   2.991  10.569
12133DPPC   C2A 4002   3.929   2.901  10.859
12133DPPC   C3A 4003   3.599   2.911  11.189
12133DPPC   C4A 4004   3.329   2.941  11.669
12133DPPC   C1B 4005   4.299   3.651  10.669
12133DPPC   C2B 4006   4.259   3.721  11.039
12133DPPC   C3B 4007   4.019   3.621  11.429
12133DPPC   C4B 4008   3.709   3.651  11.769
12134DPPC   NC3 4009   5.349   2.861  10.839
12134DPPC   PO4 4010   5.439   2.571  11.099
12134DPPC   GL1 4011   5.059   2.531  11.299
12134DPPC   GL2 4012   5.099   2.351  11.469
12134DPPC   C1A 4013   4.929   2.711  11.569
12134DPPC   C2A 4014   4.789   2.861  11.949
12134DPPC   C3A 4015   4.479   2.811  12.369
12134DPPC   C4A 4016   4.159   2.781  12.769
12134DPPC   C1B 4017   4.979   2.341  11.779
12134DPPC   C2B 4018   4.769   2.331  12.119
12134DPPC   C3B 4019   4.499   2.341  12.549
12134DPPC   C4B 4020   4.139   2.271  12.859
12135DPPC   NC3 4021  21.119   3.891   8.209
12135DPPC   PO4 4022   0.261   3.801   8.469
12135DPPC   GL1 4023   0.181   3.571   8.799
12135DPPC   GL2 4024   0.111   3.771   8.969
12135DPPC   C1A 4025   0.361   3.301   8.989
12135DPPC   C2A 4026   0.571   3.421   9.339
12135DPPC   C3A 4027   0.761   3.511   9.759
12135DPPC   C4A 4028   0.541   3.891  10.009
12135DPPC   C1B 4029   0.361   3.871   9.189
12135DPPC   C2B 4030   0.631   4.121   9.359
12135DPPC   C3B 4031   0.991   4.211   9.619
12135DPPC   C4B 4032   1.431   4.101   9.859
12136DPPC   NC3 4033   5.309   2.111  11.049
12136DPPC   PO4 4034   5.219   2.021  10.739
12136DPPC   GL1 4035   4.789   2.191  10.839
12136DPPC   GL2 4036   4.639   2.041  10.749
12136DPPC   C1A 4037   4.679   2.351  11.169
12136DPPC   C2A 4038   4.569   2.481  11.519
12136DPPC   C3A 4039   4.279   2.511  11.959
12136DPPC   C4A 4040   4.089   2.481  12.379
12136DPPC   C1B 4041   4.539   1.781  11.029
12136DPPC   C2B 4042   4.369   1.731  11.339
12136DPPC   C3B 4043   4.069   1.761  11.719
12136DPPC   C4B 4044   3.809   1.741  12.129
12137DPPC   NC3 4045   6.249   2.551  12.119
12137DPPC   PO4 4046   6.069   2.201  12.249
12137DPPC   GL1 4047   5.729   2.171  12.439
12137DPPC   GL2 4048   5.929   2.381  12.589
12137DPPC   C1A 4049   5.529   1.931  12.589
12137DPPC   C2A 4050   5.299   1.881  12.909
12137DPPC   C3A 4051   5.019   1.961  13.319
12137DPPC   C4A 4052   4.769   1.911  13.759
12137DPPC   C1B 4053   5.809   2.591  12.869
12137DPPC   C2B 4054   5.589   2.641  13.199
12137DPPC   C3B 4055   5.369   2.691  13.659
12137DPPC   C4B 4056   4.999   2.761  13.919
12138DPPC   NC3 4057  17.329   3.561   9.959
12138DPPC   PO4 4058  16.969   3.531  10.119
12138DPPC   GL1 4059  17.059   3.391  10.499
12138DPPC   GL2 4060  17.109   3.631  10.599
12138DPPC   C1A 4061  17.349   3.231  10.679
12138DPPC   C2A 4062  17.739   3.121  10.829
12138DPPC   C3A 4063  18.179   3.031  10.939
12138DPPC   C4A 4064  18.439   3.111  11.289
12138DPPC   C1B 4065  17.199   3.561  10.959
12138DPPC   C2B 4066  17.449   3.331  11.219
12138DPPC   C3B 4067  17.739   3.291  11.579
12138DPPC   C4B 4068  18.029   3.271  11.969
12139DPPC   NC3 4069   6.399   0.551  11.969
12139DPPC   PO4 4070   6.609   0.511  12.269
12139DPPC   GL1 4071   6.559   0.581  12.659
12139DPPC   GL2 4072   6.369   0.851  12.679
12139DPPC   C1A 4073   6.419   0.271  12.829
12139DPPC   C2A 4074   6.099   0.161  13.099
12139DPPC   C3A 4075   5.749   0.211  13.399
12139DPPC   C4A 4076   5.459   0.281  13.809
12139DPPC   C1B 4077   6.169   0.661  12.989
12139DPPC   C2B 4078   5.849   0.671  13.229
12139DPPC   C3B 4079   5.499   0.691  13.539
12139DPPC   C4B 4080   5.229   0.721  13.989
12140DPPC   NC3 4081  21.069   4.141   8.679
12140DPPC   PO4 4082  20.669   4.041   8.579
12140DPPC   GL1 4083  20.589   3.881   8.979
12140DPPC   GL2 4084  20.559   4.263   8.999
12140DPPC   C1A 4085  20.859   3.791   9.209
12140DPPC   C2A 4086  21.069   3.991   9.459
12140DPPC   C3A 4087   0.231   4.211   9.779
12140DPPC   C4A 4088   0.621   4.383  10.049
12140DPPC   C1B 4089  20.829   4.353   9.239
12140DPPC   C2B 4090  21.079   4.573   9.519
12140DPPC   C3B 4091   0.301   4.753   9.929
12140DPPC   C4B 4092   0.761   4.903  10.099
12141DPPC   NC3 4093  20.019   0.501   8.629
12141DPPC   PO4 4094  20.099   0.721   8.949
12141DPPC   GL1 4095  20.459   0.751   9.189
12141DPPC   GL2 4096  20.579   0.871   8.919
12141DPPC   C1A 4097  20.579   0.961   9.449
12141DPPC   C2A 4098  20.789   0.971   9.829
12141DPPC   C3A 4099  21.049   0.901  10.229
12141DPPC   C4A 4100   0.061   0.881  10.669
12141DPPC   C1B 4101  20.819   1.071   9.119
12141DPPC   C2B 4102  21.009   1.261   9.459
12141DPPC   C3B 4103   0.051   1.301   9.879
12141DPPC   C4B 4104   0.331   1.261  10.269
12142DPPC   NC3 4105   3.779   2.941   9.159
12142DPPC   PO4 4106   3.779   2.651   9.399
12142DPPC   GL1 4107   3.729   2.861   9.769
12142DPPC   GL2 4108   3.789   2.621   9.949
12142DPPC   C1A 4109   3.669   3.071  10.039
12142DPPC   C2A 4110   3.679   3.071  10.419
12142DPPC   C3A 4111   3.439   3.151  10.839
12142DPPC   C4A 4112   3.059   3.141  11.149
12142DPPC   C1B 4113   3.689   2.661  10.279
12142DPPC   C2B 4114   3.509   2.631  10.679
12142DPPC   C3B 4115   3.229   2.561  11.089
12142DPPC   C4B 4116   2.939   2.591  11.479
12143DPPC   NC3 4117  20.449   6.373   8.479
12143DPPC   PO4 4118  20.189   6.573   8.659
12143DPPC   GL1 4119  20.149   6.223   9.019
12143DPPC   GL2 4120  19.969   6.363   9.059
12143DPPC   C1A 4121  20.309   6.263   9.359
12143DPPC   C2A 4122  20.539   6.323   9.709
12143DPPC   C3A 4123  20.809   6.283  10.169
12143DPPC   C4A 4124  21.039   6.193  10.619
12143DPPC   C1B 4125  19.859   6.503   9.379
12143DPPC   C2B 4126  19.629   0.181   9.589
12143DPPC   C3B 4127  19.519   0.241  10.029
12143DPPC   C4B 4128  19.139   0.341  10.309
12144DPPC   NC3 4129   4.769   1.201  10.549
12144DPPC   PO4 4130   5.109   1.191  10.809
12144DPPC   GL1 4131   5.119   1.121  11.229
12144DPPC   GL2 4132   5.269   1.311  11.349
12144DPPC   C1A 4133   4.869   1.121  11.479
12144DPPC   C2A 4134   4.669   0.931  11.749
12144DPPC   C3A 4135   4.339   0.951  12.089
12144DPPC   C4A 4136   4.069   1.021  12.479
12144DPPC   C1B 4137   5.119   1.431  11.659
12144DPPC   C2B 4138   4.989   1.241  11.989
12144DPPC   C3B 4139   4.719   1.261  12.369
12144DPPC   C4B 4140   4.449   1.311  12.739
12145DPPC   NC3 4141   5.809   1.961  10.879
12145DPPC   PO4 4142   5.799   2.201  11.219
12145DPPC   GL1 4143   5.559   2.271  11.509
12145DPPC   GL2 4144   5.569   2.481  11.559
12145DPPC   C1A 4145   5.349   2.081  11.729
12145DPPC   C2A 4146   5.009   1.911  11.909
12145DPPC   C3A 4147   4.629   1.781  12.289
12145DPPC   C4A 4148   4.419   1.881  12.759
12145DPPC   C1B 4149   5.329   2.571  11.809
12145DPPC   C2B 4150   5.169   2.591  12.189
12145DPPC   C3B 4151   4.959   2.621  12.599
12145DPPC   C4B 4152   4.639   2.591  12.939
12146DPPC   NC3 4153   5.539   1.341  10.529
12146DPPC   PO4 4154   5.409   1.571  10.859
12146DPPC   GL1 4155   5.009   1.611  11.059
12146DPPC   GL2 4156   4.889   1.601  10.839
12146DPPC   C1A 4157   4.769   1.501  11.279
12146DPPC   C2A 4158   4.659   1.501  11.689
12146DPPC   C3A 4159   4.359   1.441  12.009
12146DPPC   C4A 4160   4.219   1.561  12.449
12146DPPC   C1B 4161   4.599   1.351  10.909
12146DPPC   C2B 4162   4.399   1.221  11.259
12146DPPC   C3B 4163   4.129   1.181  11.629
12146DPPC   C4B 4164   3.859   1.241  12.089
12147DPPC   NC3 4165   4.829   1.991  10.349
12147DPPC   PO4 4166   4.569   1.691  10.369
12147DPPC   GL1 4167   4.319   1.651  10.669
12147DPPC   GL2 4168   4.319   1.321  10.589
12147DPPC   C1A 4169   4.199   1.541  10.969
12147DPPC   C2A 4170   3.909   1.451  11.229
12147DPPC   C3A 4171   3.669   1.421  11.649
12147DPPC   C4A 4172   3.379   1.431  12.059
12147DPPC   C1B 4173   4.179   1.111  10.859
12147DPPC   C2B 4174   3.969   0.941  11.189
12147DPPC   C3B 4175   3.709   0.901  11.529
12147DPPC   C4B 4176   3.459   0.841  11.919
12148DPPC   NC3 4177   3.859   2.421   8.919
12148DPPC   PO4 4178   3.799   2.151   9.209
12148DPPC   GL1 4179   3.529   2.151   9.509
12148DPPC   GL2 4180   3.599   1.921   9.689
12148DPPC   C1A 4181   3.399   2.321   9.819
12148DPPC   C2A 4182   3.349   2.301  10.259
12148DPPC   C3A 4183   3.019   2.341  10.619
12148DPPC   C4A 4184   2.829   2.281  11.049
12148DPPC   C1B 4185   3.429   1.621   9.879
12148DPPC   C2B 4186   3.109   1.511  10.109
12148DPPC   C3B 4187   2.829   1.461  10.459
12148DPPC   C4B 4188   2.629   1.501  10.859
12149DPPC   NC3 4189   5.299   6.413  11.049
12149DPPC   PO4 4190   5.449   0.031  11.329
12149DPPC   GL1 4191   5.269   6.423  11.619
12149DPPC   GL2 4192   5.019   6.413  11.489
12149DPPC   C1A 4193   5.149   6.493  11.969
12149DPPC   C2A 4194   4.959   6.453  12.349
12149DPPC   C3A 4195   4.699   6.333  12.699
12149DPPC   C4A 4196   4.449   6.343  13.039
12149DPPC   C1B 4197   4.739   6.513  11.729
12149DPPC   C2B 4198   4.539   6.503  12.069
12149DPPC   C3B 4199   4.269   6.503  12.519
12149DPPC   C4B 4200   3.989   6.573  12.889
12150DPPC   NC3 4201   5.629   1.171  11.099
12150DPPC   PO4 4202   5.469   0.851  11.299
12150DPPC   GL1 4203   5.179   0.821  11.519
12150DPPC   GL2 4204   4.899   0.691  11.389
12150DPPC   C1A 4205   5.029   0.631  11.799
12150DPPC   C2A 4206   4.859   0.741  12.199
12150DPPC   C3A 4207   4.709   0.761  12.629
12150DPPC   C4A 4208   4.329   0.771  12.929
12150DPPC   C1B 4209   4.669   0.471  11.599
12150DPPC   C2B 4210   4.479   0.521  11.969
12150DPPC   C3B 4211   4.219   0.551  12.429
12150DPPC   C4B 4212   3.909   0.461  12.809
12151DPPC   NC3 4213   6.359   5.073  12.439
12151DPPC   PO4 4214   6.139   4.753  12.349
12151DPPC   GL1 4215   5.909   4.463  12.559
12151DPPC   GL2 4216   5.759   4.263  12.499
12151DPPC   C1A 4217   5.839   4.433  12.909
12151DPPC   C2A 4218   5.669   4.443  13.269
12151DPPC   C3A 4219   5.339   4.493  13.589
12151DPPC   C4A 4220   5.059   4.553  14.009
12151DPPC   C1B 4221   5.449   4.263  12.769
12151DPPC   C2B 4222   5.229   4.181  13.099
12151DPPC   C3B 4223   4.919   4.201  13.449
12151DPPC   C4B 4224   4.669   4.171  13.889
12152DPPC   NC3 4225   3.989   0.711   9.609
12152DPPC   PO4 4226   4.169   1.001   9.789
12152DPPC   GL1 4227   3.949   0.961  10.089
12152DPPC   GL2 4228   3.849   0.731  10.109
12152DPPC   C1A 4229   3.929   1.061  10.439
12152DPPC   C2A 4230   3.759   1.201  10.759
12152DPPC   C3A 4231   3.489   1.081  11.149
12152DPPC   C4A 4232   3.239   1.101  11.569
12152DPPC   C1B 4233   3.619   0.801  10.409
12152DPPC   C2B 4234   3.409   0.841  10.729
12152DPPC   C3B 4235   3.059   0.831  11.079
12152DPPC   C4B 4236   2.859   0.781  11.509
12153DPPC   NC3 4237   4.959   6.103  10.259
12153DPPC   PO4 4238   4.609   5.963  10.449
12153DPPC   GL1 4239   4.229   6.003  10.449
12153DPPC   GL2 4240   4.079   6.243  10.549
12153DPPC   C1A 4241   4.039   5.773  10.659
12153DPPC   C2A 4242   3.849   5.673  11.019
12153DPPC   C3A 4243   3.599   5.633  11.389
12153DPPC   C4A 4244   3.309   5.743  11.779
12153DPPC   C1B 4245   3.859   6.163  10.859
12153DPPC   C2B 4246   3.669   6.123  11.179
12153DPPC   C3B 4247   3.359   6.183  11.539
12153DPPC   C4B 4248   3.109   6.153  11.919
12154DPPC   NC3 4249   0.291   5.453   8.069
12154DPPC   PO4 4250   0.341   5.813   7.959
12154DPPC   GL1 4251   0.421   6.033   8.159
12154DPPC   GL2 4252   0.231   6.153   8.299
12154DPPC   C1A 4253   0.621   5.983   8.469
12154DPPC   C2A 4254   0.961   5.943   8.669
12154DPPC   C3A 4255   1.141   6.043   9.169
12154DPPC   C4A 4256   1.041   5.883   9.649
12154DPPC   C1B 4257   0.211   6.013   8.659
12154DPPC   C2B 4258   0.281   5.743   8.979
12154DPPC   C3B 4259   0.281   5.503   9.409
12154DPPC   C4B 4260   0.401   5.193   9.749
12155DPPC   NC3 4261   6.339   0.161  11.559
12155DPPC   PO4 4262   6.269   0.071  11.939
12155DPPC   GL1 4263   6.169   0.141  12.329
12155DPPC   GL2 4264   6.159   0.441  12.349
12155DPPC   C1A 4265   5.959   0.001  12.609
12155DPPC   C2A 4266   5.659   6.513  12.919
12155DPPC   C3A 4267   5.349   6.503  13.309
12155DPPC   C4A 4268   5.049   6.573  13.719
12155DPPC   C1B 4269   6.009   0.411  12.689
12155DPPC   C2B 4270   5.629   0.401  12.819
12155DPPC   C3B 4271   5.359   0.391  13.139
12155DPPC   C4B 4272   5.049   0.451  13.539
12156DPPC   NC3 4273   0.901   0.251   7.889
12156DPPC   PO4 4274   0.701   0.381   8.189
12156DPPC   GL1 4275   0.761   0.221   8.569
12156DPPC   GL2 4276   0.481   0.091   8.509
12156DPPC   C1A 4277   0.921   6.483   8.599
12156DPPC   C2A 4278   1.331   6.353   8.679
12156DPPC   C3A 4279   1.641   6.233   8.959
12156DPPC   C4A 4280   1.631   5.873   9.309
12156DPPC   C1B 4281   0.451   6.413   8.669
12156DPPC   C2B 4282   0.581   6.173   8.929
12156DPPC   C3B 4283   0.701   6.223   9.379
12156DPPC   C4B 4284   0.811   6.573   9.659
12157DPPC   NC3 4285   5.359   5.443  10.819
12157DPPC   PO4 4286   5.459   5.403  11.219
12157DPPC   GL1 4287   5.349   5.183  11.549
12157DPPC   GL2 4288   5.409   5.433  11.689
12157DPPC   C1A 4289   4.969   5.183  11.469
12157DPPC   C2A 4290   4.569   5.163  11.569
12157DPPC   C3A 4291   4.219   5.223  11.839
12157DPPC   C4A 4292   4.019   5.203  12.289
12157DPPC   C1B 4293   5.219   5.383  12.009
12157DPPC   C2B 4294   5.089   5.413  12.419
12157DPPC   C3B 4295   4.789   5.343  12.829
12157DPPC   C4B 4296   4.479   5.403  13.149
12158DPPC   NC3 4297  18.989   6.363   9.009
12158DPPC   PO4 4298  18.839   0.071   9.199
12158DPPC   GL1 4299  19.089   0.371   9.519
12158DPPC   GL2 4300  19.109   0.021   9.629
12158DPPC   C1A 4301  19.089   0.551   9.859
12158DPPC   C2A 4302  18.909   0.791  10.149
12158DPPC   C3A 4303  18.639   0.951  10.519
12158DPPC   C4A 4304  18.249   0.991  10.309
12158DPPC   C1B 4305  18.979   6.533   9.969
12158DPPC   C2B 4306  18.769   6.383  10.279
12158DPPC   C3B 4307  18.609   6.293  10.669
12158DPPC   C4B 4308  18.659   6.303  11.189
12159DPPC   NC3 4309   4.389   5.063   9.369
12159DPPC   PO4 4310   4.419   4.913   9.719
12159DPPC   GL1 4311   4.119   4.813   9.959
12159DPPC   GL2 4312   4.099   4.483   9.969
12159DPPC   C1A 4313   3.899   4.893  10.269
12159DPPC   C2A 4314   3.759   4.813  10.599
12159DPPC   C3A 4315   3.499   4.793  11.039
12159DPPC   C4A 4316   3.219   4.863  11.439
12159DPPC   C1B 4317   3.959   4.443  10.299
12159DPPC   C2B 4318   3.769   4.293  10.659
12159DPPC   C3B 4319   3.479   4.333  11.089
12159DPPC   C4B 4320   3.189   4.413  11.509
12160DPPC   NC3 4321   3.029   6.353   8.609
12160DPPC   PO4 4322   3.299   6.083   8.699
12160DPPC   GL1 4323   3.429   6.043   9.149
12160DPPC   GL2 4324   3.259   5.743   9.069
12160DPPC   C1A 4325   3.339   6.253   9.389
12160DPPC   C2A 4326   3.179   6.313   9.799
12160DPPC   C3A 4327   2.819   6.333  10.149
12160DPPC   C4A 4328   2.609   6.283  10.589
12160DPPC   C1B 4329   3.139   5.563   9.359
12160DPPC   C2B 4330   3.019   5.363   9.729
12160DPPC   C3B 4331   2.869   5.263  10.239
12160DPPC   C4B 4332   2.659   5.273  10.679
12161DPPC   NC3 4333   1.521   5.623   8.179
12161DPPC   PO4 4334   1.869   5.703   8.059
12161DPPC   GL1 4335   2.019   5.903   8.419
12161DPPC   GL2 4336   1.839   6.153   8.429
12161DPPC   C1A 4337   1.939   5.753   8.729
12161DPPC   C2A 4338   1.859   5.483   9.049
12161DPPC   C3A 4339   1.849   5.323   9.479
12161DPPC   C4A 4340   1.999   5.253   9.939
12161DPPC   C1B 4341   1.521   5.963   8.599
12161DPPC   C2B 4342   1.441   5.673   8.879
12161DPPC   C3B 4343   1.211   5.413   9.239
12161DPPC   C4B 4344   0.701   5.173   9.339
12162DPPC   NC3 4345  16.669   4.151   9.909
12162DPPC   PO4 4346  17.019   3.971   9.899
12162DPPC   GL1 4347  17.289   3.971  10.179
12162DPPC   GL2 4348  17.449   4.091  10.139
12162DPPC   C1A 4349  17.509   3.741  10.429
12162DPPC   C2A 4350  17.669   3.621  10.829
12162DPPC   C3A 4351  17.949   3.471  11.139
12162DPPC   C4A 4352  18.219   3.511  11.519
12162DPPC   C1B 4353  17.769   4.181  10.319
12162DPPC   C2B 4354  17.979   4.363  10.609
12162DPPC   C3B 4355  18.229   4.493  11.009
12162DPPC   C4B 4356  18.479   4.523  11.389
12163DPPC   NC3 4357   5.869   2.721  11.329
12163DPPC   PO4 4358   5.609   3.031  11.219
12163DPPC   GL1 4359   5.349   2.901  11.499
12163DPPC   GL2 4360   5.139   2.941  11.239
12163DPPC   C1A 4361   5.269   3.041  11.859
12163DPPC   C2A 4362   5.129   3.061  12.229
12163DPPC   C3A 4363   4.809   3.071  12.629
12163DPPC   C4A 4364   4.529   3.061  13.089
12163DPPC   C1B 4365   4.849   3.051  11.309
12163DPPC   C2B 4366   4.469   2.961  11.519
12163DPPC   C3B 4367   4.139   2.941  11.939
12163DPPC   C4B 4368   3.859   2.951  12.379
12164DPPC   NC3 4369   6.089   5.763  12.099
12164DPPC   PO4 4370   6.259   5.443  12.129
12164DPPC   GL1 4371   5.989   5.423  12.359
12164DPPC   GL2 4372   5.819   5.183  12.329
12164DPPC   C1A 4373   5.849   5.663  12.589
12164DPPC   C2A 4374   5.779   5.593  12.999
12164DPPC   C3A 4375   5.439   5.483  13.389
12164DPPC   C4A 4376   5.099   5.473  13.769
12164DPPC   C1B 4377   5.629   4.943  12.559
12164DPPC   C2B 4378   5.389   4.683  12.859
12164DPPC   C3B 4379   5.079   4.673  13.199
12164DPPC   C4B 4380   4.819   4.693  13.599
12165DPPC   NC3 4381   6.139   4.243  11.549
12165DPPC   PO4 4382   5.809   3.951  11.599
12165DPPC   GL1 4383   5.449   3.991  11.849
12165DPPC   GL2 4384   5.659   3.991  12.069
12165DPPC   C1A 4385   5.159   3.961  11.979
12165DPPC   C2A 4386   4.849   4.051  12.279
12165DPPC   C3A 4387   4.569   4.081  12.659
12165DPPC   C4A 4388   4.229   4.011  13.019
12165DPPC   C1B 4389   5.439   3.941  12.379
12165DPPC   C2B 4390   5.169   3.831  12.689
12165DPPC   C3B 4391   4.849   3.891  13.059
12165DPPC   C4B 4392   4.529   3.921  13.429
12166DPPC   NC3 4393   3.009   3.961   8.339
12166DPPC   PO4 4394   3.079   4.091   8.689
12166DPPC   GL1 4395   2.949   4.011   9.139
12166DPPC   GL2 4396   3.039   4.313   9.179
12166DPPC   C1A 4397   2.669   3.771   9.269
12166DPPC   C2A 4398   2.479   3.521   9.549
12166DPPC   C3A 4399   2.449   3.081   9.789
12166DPPC   C4A 4400   2.289   2.731  10.069
12166DPPC   C1B 4401   2.909   4.443   9.529
12166DPPC   C2B 4402   2.709   4.363   9.859
12166DPPC   C3B 4403   2.449   4.453  10.219
12166DPPC   C4B 4404   2.199   4.161  10.489
12167DPPC   NC3 4405   3.739   6.333   8.849
12167DPPC   PO4 4406   3.519   0.051   8.829
12167DPPC   GL1 4407   3.259   0.001   9.079
12167DPPC   GL2 4408   3.079   6.363   9.079
12167DPPC   C1A 4409   3.279   0.091   9.429
12167DPPC   C2A 4410   3.129   0.231   9.779
12167DPPC   C3A 4411   2.809   0.291  10.199
12167DPPC   C4A 4412   2.469   0.211  10.529
12167DPPC   C1B 4413   2.909   6.243   9.399
12167DPPC   C2B 4414   2.629   6.083   9.659
12167DPPC   C3B 4415   2.379   5.923  10.039
12167DPPC   C4B 4416   2.329   5.503  10.229
12168DPPC   NC3 4417   4.629   2.731  10.259
12168DPPC   PO4 4418   4.709   2.421  10.469
12168DPPC   GL1 4419   4.449   2.411  10.849
12168DPPC   GL2 4420   4.269   2.571  10.699
12168DPPC   C1A 4421   4.329   2.171  11.079
12168DPPC   C2A 4422   4.099   2.231  11.439
12168DPPC   C3A 4423   3.849   2.231  11.849
12168DPPC   C4A 4424   3.599   2.251  12.219
12168DPPC   C1B 4425   3.949   2.411  10.769
12168DPPC   C2B 4426   3.749   2.411  11.099
12168DPPC   C3B 4427   3.499   2.371  11.509
12168DPPC   C4B 4428   3.199   2.411  11.929
12169DPPC   NC3 4429   2.379   2.971   7.999
12169DPPC   PO4 4430   2.069   3.021   8.299
12169DPPC   GL1 4431   1.959   3.191   8.699
12169DPPC   GL2 4432   2.109   2.941   8.799
12169DPPC   C1A 4433   1.989   3.371   9.019
12169DPPC   C2A 4434   2.039   3.451   9.409
12169DPPC   C3A 4435   1.999   3.501   9.889
12169DPPC   C4A 4436   1.899   3.571  10.389
12169DPPC   C1B 4437   1.849   2.841   9.039
12169DPPC   C2B 4438   1.641   2.651   9.359
12169DPPC   C3B 4439   1.171   2.701   9.589
12169DPPC   C4B 4440   0.831   2.661   9.949
12170DPPC   NC3 4441   0.221   0.521   8.159
12170DPPC   PO4 4442   0.051   0.161   8.189
12170DPPC   GL1 4443  21.129   6.533   8.469
12170DPPC   GL2 4444  20.869   0.111   8.559
12170DPPC   C1A 4445   0.031   6.383   8.809
12170DPPC   C2A 4446   0.211   6.393   9.169
12170DPPC   C3A 4447   0.331   6.433   9.589
12170DPPC   C4A 4448   0.481   6.393  10.089
12170DPPC   C1B 4449  20.939   0.141   8.909
12170DPPC   C2B 4450   0.001   0.301   9.209
12170DPPC   C3B 4451   0.261   0.351   9.629
12170DPPC   C4B 4452   0.471   0.321  10.079
12171DPPC   NC3 4453   0.891   2.911   7.949
12171DPPC   PO4 4454   0.551   3.171   7.969
12171DPPC   GL1 4455   0.361   3.341   8.299
12171DPPC   GL2 4456   0.611   3.401   8.369
12171DPPC   C1A 4457   0.161   3.211   8.579
12171DPPC   C2A 4458  21.059   3.201   8.919
12171DPPC   C3A 4459   0.041   3.451   9.299
12171DPPC   C4A 4460   0.211   3.621   9.699
12171DPPC   C1B 4461   0.681   3.601   8.649
12171DPPC   C2B 4462   0.761   3.741   8.999
12171DPPC   C3B 4463   1.011   3.761   9.439
12171DPPC   C4B 4464   1.291   3.561   9.779
12172DPPC   NC3 4465   6.189   3.591  11.629
12172DPPC   PO4 4466   6.359   3.571  11.989
12172DPPC   GL1 4467   6.239   3.311  12.309
12172DPPC   GL2 4468   6.429   3.431  12.499
12172DPPC   C1A 4469   5.929   3.341  12.439
12172DPPC   C2A 4470   5.509   3.361  12.429
12172DPPC   C3A 4471   5.229   3.271  12.769
12172DPPC   C4A 4472   4.919   3.371  13.169
12172DPPC   C1B 4473   6.199   3.481  12.769
12172DPPC   C2B 4474   5.989   3.531  13.119
12172DPPC   C3B 4475   5.749   3.511  13.529
12172DPPC   C4B 4476   5.429   3.581  13.819
12173DPPC   NC3 4477   5.859   5.253  11.559
12173DPPC   PO4 4478   5.819   5.413  11.929
12173DPPC   GL1 4479   5.609   5.583  12.239
12173DPPC   GL2 4480   5.649   5.843  12.309
12173DPPC   C1A 4481   5.519   5.433  12.589
12173DPPC   C2A 4482   5.319   5.273  12.909
12173DPPC   C3A 4483   5.009   5.163  13.239
12173DPPC   C4A 4484   4.719   5.243  13.579
12173DPPC   C1B 4485   5.419   5.833  12.589
12173DPPC   C2B 4486   5.149   5.733  12.919
12173DPPC   C3B 4487   4.899   5.643  13.279
12173DPPC   C4B 4488   4.599   5.743  13.709
12174DPPC   NC3 4489   5.419   3.911  11.329
12174DPPC   PO4 4490   5.359   4.201  11.079
12174DPPC   GL1 4491   4.909   4.201  11.159
12174DPPC   GL2 4492   4.989   3.891  11.139
12174DPPC   C1A 4493   4.839   4.253  11.549
12174DPPC   C2A 4494   4.629   4.233  11.849
12174DPPC   C3A 4495   4.319   4.263  12.209
12174DPPC   C4A 4496   4.019   4.253  12.619
12174DPPC   C1B 4497   4.959   3.831  11.529
12174DPPC   C2B 4498   4.709   3.771  11.849
12174DPPC   C3B 4499   4.449   3.731  12.239
12174DPPC   C4B 4500   4.179   3.751  12.609
12175DPPS   CNO 4501   5.759   6.163  10.979
12175DPPS   PO4 4502   5.449   5.933  11.039
12175DPPS   GL1 4503   5.379   5.783  11.459
12175DPPS   GL2 4504   5.149   5.633  11.429
12175DPPS   C1A 4505   5.079   6.003  11.659
12175DPPS   C2A 4506   4.789   6.093  11.929
12175DPPS   C3A 4507   4.459   6.073  12.339
12175DPPS   C4A 4508   4.169   6.043  12.729
12175DPPS   C1B 4509   4.979   5.523  11.679
12175DPPS   C2B 4510   4.719   5.483  12.019
12175DPPS   C3B 4511   4.429   5.543  12.379
12175DPPS   C4B 4512   4.119   5.543  12.779
12176DPPS   CNO 4513   5.329   4.943  10.649
12176DPPS   PO4 4514   5.179   4.983  10.969
12176DPPS   GL1 4515   4.899   4.813  11.159
12176DPPS   GL2 4516   4.639   4.973  11.109
12176DPPS   C1A 4517   4.759   4.743  11.499
12176DPPS   C2A 4518   4.499   4.723  11.799
12176DPPS   C3A 4519   4.259   4.763  12.179
12176DPPS   C4A 4520   3.979   4.783  12.609
12176DPPS   C1B 4521   4.319   4.923  11.189
12176DPPS   C2B 4522   4.059   4.933  11.499
12176DPPS   C3B 4523   3.799   4.883  11.889
12176DPPS   C4B 4524   3.559   4.923  12.269
12177DPPS   CNO 4525   4.549   5.423   9.699
12177DPPS   PO4 4526   4.259   5.523   9.489
12177DPPS   GL1 4527   3.969   5.313   9.769
12177DPPS   GL2 4528   4.169   5.273   9.969
12177DPPS   C1A 4529   3.709   5.143   9.879
12177DPPS   C2A 4530   3.479   5.023  10.169
12177DPPS   C3A 4531   3.209   5.073  10.539
12177DPPS   C4A 4532   2.979   5.043  10.949
12177DPPS   C1B 4533   3.939   5.303  10.239
12177DPPS   C2B 4534   3.649   5.393  10.539
12177DPPS   C3B 4535   3.409   5.383  10.959
12177DPPS   C4B 4536   3.159   5.413  11.389
12178DPPS   CNO 4537   5.189   3.591  10.509
12178DPPS   PO4 4538   5.289   3.251  10.549
12178DPPS   GL1 4539   4.989   3.221  10.899
12178DPPS   GL2 4540   4.829   3.071  10.709
12178DPPS   C1A 4541   4.919   3.431  11.179
12178DPPS   C2A 4542   4.589   3.491  11.339
12178DPPS   C3A 4543   4.339   3.401  11.769
12178DPPS   C4A 4544   4.019   3.411  12.189
12178DPPS   C1B 4545   4.599   2.811  10.859
12178DPPS   C2B 4546   4.329   2.701  11.129
12178DPPS   C3B 4547   3.989   2.681  11.509
12178DPPS   C4B 4548   3.659   2.681  11.929
12179DPPS   CNO 4549   2.509   4.221   7.959
12179DPPS   PO4 4550   2.569   4.273   8.319
12179DPPS   GL1 4551   2.599   4.111   8.659
12179DPPS   GL2 4552   2.279   4.111   8.639
12179DPPS   C1A 4553   2.609   4.111   8.959
12179DPPS   C2A 4554   2.549   4.263   9.339
12179DPPS   C3A 4555   2.249   4.061   9.719
12179DPPS   C4A 4556   1.919   4.001  10.099
12179DPPS   C1B 4557   2.079   4.243   8.979
12179DPPS   C2B 4558   1.999   4.343   9.329
12179DPPS   C3B 4559   1.801   4.373   9.789
12179DPPS   C4B 4560   1.601   4.383  10.279
12180DPPS   CNO 4561   3.419   1.661   8.639
12180DPPS   PO4 4562   3.439   1.261   8.679
12180DPPS   GL1 4563   3.369   1.121   9.019
12180DPPS   GL2 4564   3.299   0.831   8.949
12180DPPS   C1A 4565   3.259   1.201   9.339
12180DPPS   C2A 4566   3.009   1.271   9.649
12180DPPS   C3A 4567   2.659   1.321   9.909
12180DPPS   C4A 4568   2.369   1.131  10.269
12180DPPS   C1B 4569   2.979   0.781   9.119
12180DPPS   C2B 4570   2.729   0.921   9.419
12180DPPS   C3B 4571   2.369   1.011   9.679
12180DPPS   C4B 4572   1.939   1.051   9.829
12181DPPS   CNO 4573   4.569   3.791   9.749
12181DPPS   PO4 4574   4.709   3.681  10.069
12181DPPS   GL1 4575   4.579   3.871  10.389
12181DPPS   GL2 4576   4.759   3.811  10.579
12181DPPS   C1A 4577   4.329   4.031  10.559
12181DPPS   C2A 4578   4.189   4.181  10.929
12181DPPS   C3A 4579   3.929   4.141  11.349
12181DPPS   C4A 4580   3.579   4.171  11.699
12181DPPS   C1B 4581   4.699   3.511  10.789
12181DPPS   C2B 4582   4.449   3.241  10.969
12181DPPS   C3B 4583   4.069   3.161  11.289
12181DPPS   C4B 4584   3.759   3.171  11.659
12182DPPS   CNO 4585   6.049   3.691  10.939
12182DPPS   PO4 4586   5.819   3.631  11.249
12182DPPS   GL1 4587   5.549   3.421  11.479
12182DPPS   GL2 4588   5.549   3.581  11.679
12182DPPS   C1A 4589   5.209   3.361  11.509
12182DPPS   C2A 4590   4.919   3.331  11.809
12182DPPS   C3A 4591   4.569   3.251  12.179
12182DPPS   C4A 4592   4.309   3.291  12.629
12182DPPS   C1B 4593   5.299   3.541  11.999
12182DPPS   C2B 4594   4.979   3.561  12.289
12182DPPS   C3B 4595   4.679   3.591  12.689
12182DPPS   C4B 4596   4.389   3.531  13.059
12183DPPS   CNO 4597   6.139   4.933  11.179
12183DPPS   PO4 4598   6.059   4.763  11.509
12183DPPS   GL1 4599   5.629   4.803  11.719
12183DPPS   GL2 4600   5.729   4.953  11.959
12183DPPS   C1A 4601   5.259   4.833  11.739
12183DPPS   C2A 4602   4.929   5.023  11.949
12183DPPS   C3A 4603   4.639   5.113  12.299
12183DPPS   C4A 4604   4.329   5.093  12.679
12183DPPS   C1B 4605   5.419   4.973  12.139
12183DPPS   C2B 4606   5.149   4.923  12.439
12183DPPS   C3B 4607   4.839   4.853  12.829
12183DPPS   C4B 4608   4.509   4.903  13.239
12184DPPS   CNO 4609  18.589   4.111   9.289
12184DPPS   PO4 4610  18.799   4.191   9.609
12184DPPS   GL1 4611  19.259   4.021   9.589
12184DPPS   GL2 4612  19.439   4.293   9.569
12184DPPS   C1A 4613  19.229   3.871   9.899
12184DPPS   C2A 4614  18.919   3.861  10.159
12184DPPS   C3A 4615  18.539   3.791  10.449
12184DPPS   C4A 4616  18.249   3.941  10.829
12184DPPS   C1B 4617  19.509   4.563   9.829
12184DPPS   C2B 4618  19.779   4.703  10.149
12184DPPS   C3B 4619  20.119   4.693  10.539
12184DPPS   C4B 4620  20.299   4.603  10.959
12185DPPS   CNO 4621   1.959   0.761   7.819
12185DPPS   PO4 4622   1.801   0.841   8.159
12185DPPS   GL1 4623   1.959   0.781   8.579
12185DPPS   GL2 4624   1.761   0.871   8.729
12185DPPS   C1A 4625   2.259   0.841   8.789
12185DPPS   C2A 4626   2.449   1.121   8.969
12185DPPS   C3A 4627   2.539   1.411   9.339
12185DPPS   C4A 4628   2.729   1.761   9.659
12185DPPS   C1B 4629   1.889   1.031   9.019
12185DPPS   C2B 4630   2.029   1.301   9.289
12185DPPS   C3B 4631   2.209   1.511   9.759
12185DPPS   C4B 4632   2.439   1.681  10.159
12186DPPS   CNO 4633   5.099   0.581  10.069
12186DPPS   PO4 4634   4.769   0.381  10.119
12186DPPS   GL1 4635   4.469   0.491  10.399
12186DPPS   GL2 4636   4.409   0.241  10.589
12186DPPS   C1A 4637   4.119   0.621  10.459
12186DPPS   C2A 4638   3.859   0.651  10.789
12186DPPS   C3A 4639   3.619   0.611  11.119
12186DPPS   C4A 4640   3.349   0.581  11.479
12186DPPS   C1B 4641   4.289   0.001  10.869
12186DPPS   C2B 4642   4.099   6.383  11.189
12186DPPS   C3B 4643   3.829   6.413  11.589
12186DPPS   C4B 4644   3.629   6.443  12.029
12187DPPS   CNO 4645   6.529   3.991  11.719
12187DPPS   PO4 4646   6.539   4.091  12.089
12187DPPS   GL1 4647   6.269   3.841  12.359
12187DPPS   GL2 4648   6.369   3.961  12.569
12187DPPS   C1A 4649   5.919   3.891  12.469
12187DPPS   C2A 4650   5.739   3.751  12.809
12187DPPS   C3A 4651   5.379   3.621  13.139
12187DPPS   C4A 4652   5.039   3.741  13.509
12187DPPS   C1B 4653   6.139   3.981  12.899
12187DPPS   C2B 4654   5.879   3.991  13.219
12187DPPS   C3B 4655   5.499   3.981  13.479
12187DPPS   C4B 4656   5.209   4.101  13.839
12188DPPS   CNO 4657  19.969   5.443   8.879
12188DPPS   PO4 4658  19.919   5.783   8.989
12188DPPS   GL1 4659  19.879   5.783   9.429
12188DPPS   GL2 4660  19.839   6.073   9.369
12188DPPS   C1A 4661  19.929   5.653   9.759
12188DPPS   C2A 4662  20.169   5.503   9.989
12188DPPS   C3A 4663  20.459   5.423  10.369
12188DPPS   C4A 4664  20.719   5.423  10.799
12188DPPS   C1B 4665  19.709   6.163   9.669
12188DPPS   C2B 4666  19.429   6.323   9.909
12188DPPS   C3B 4667  19.219   6.473  10.349
12188DPPS   C4B 4668  18.949   0.021  10.699
12189DPPS   CNO 4669   5.079   4.663  10.369
12189DPPS   PO4 4670   4.899   4.343  10.409
12189DPPS   GL1 4671   4.709   4.221  10.699
12189DPPS   GL2 4672   4.599   4.493  10.779
12189DPPS   C1A 4673   4.589   3.981  10.949
12189DPPS   C2A 4674   4.509   3.971  11.359
12189DPPS   C3A 4675   4.209   4.001  11.789
12189DPPS   C4A 4676   3.889   4.011  12.179
12189DPPS   C1B 4677   4.599   4.433  11.119
12189DPPS   C2B 4678   4.319   4.483  11.409
12189DPPS   C3B 4679   4.029   4.473  11.779
12189DPPS   C4B 4680   3.809   4.473  12.199
12190DPPS   CNO 4681   4.789   5.023  10.559
12190DPPS   PO4 4682   4.929   5.393  10.579
12190DPPS   GL1 4683   4.659   5.633  10.819
12190DPPS   GL2 4684   4.569   5.403  10.899
12190DPPS   C1A 4685   4.649   5.763  11.149
12190DPPS   C2A 4686   4.569   5.683  11.549
12190DPPS   C3A 4687   4.299   5.703  11.869
12190DPPS   C4A 4688   4.019   5.773  12.319
12190DPPS   C1B 4689   4.319   5.473  11.189
12190DPPS   C2B 4690   4.019   5.433  11.439
12190DPPS   C3B 4691   3.749   5.453  11.859
12190DPPS   C4B 4692   3.589   5.413  12.339
12191DPPS   CNO 4693   3.029   6.083   8.199
12191DPPS   PO4 4694   2.629   6.163   8.189
12191DPPS   GL1 4695   2.329   6.163   8.439
12191DPPS   GL2 4696   2.429   5.823   8.559
12191DPPS   C1A 4697   2.169   6.153   8.859
12191DPPS   C2A 4698   2.119   6.173   9.299
12191DPPS   C3A 4699   2.179   6.333   9.809
12191DPPS   C4A 4700   2.299   0.001  10.139
12191DPPS   C1B 4701   2.349   5.753   8.889
12191DPPS   C2B 4702   2.259   5.693   9.269
12191DPPS   C3B 4703   2.089   5.703   9.699
12191DPPS   C4B 4704   1.839   5.753  10.099
12192DPPS   CNO 4705   2.559   4.703   7.969
12192DPPS   PO4 4706   2.219   4.893   7.999
12192DPPS   GL1 4707   2.059   4.863   8.439
12192DPPS   GL2 4708   1.811   4.833   8.419
12192DPPS   C1A 4709   2.089   4.903   8.829
12192DPPS   C2A 4710   2.089   4.823   9.249
12192DPPS   C3A 4711   1.829   4.813   9.609
12192DPPS   C4A 4712   1.611   4.873  10.049
12192DPPS   C1B 4713   1.541   4.743   8.679
12192DPPS   C2B 4714   1.191   4.863   8.859
12192DPPS   C3B 4715   1.021   4.733   9.329
12192DPPS   C4B 4716   0.671   4.563   9.619
12193DPPS   CNO 4717   5.709   3.131  12.019
12193DPPS   PO4 4718   5.859   2.811  11.909
12193DPPS   GL1 4719   5.759   2.491  12.149
12193DPPS   GL2 4720   5.649   2.251  11.969
12193DPPS   C1A 4721   5.539   2.521  12.449
12193DPPS   C2A 4722   5.369   2.371  12.809
12193DPPS   C3A 4723   5.159   2.421  13.289
12193DPPS   C4A 4724   4.779   2.351  13.589
12193DPPS   C1B 4725   5.369   2.211  12.169
12193DPPS   C2B 4726   5.059   2.141  12.439
12193DPPS   C3B 4727   4.869   2.111  12.839
12193DPPS   C4B 4728   4.519   2.151  13.179
12194DPPS   CNO 4729   4.359   6.003   9.309
12194DPPS   PO4 4730   4.019   6.183   9.219
12194DPPS   GL1 4731   3.779   6.193   9.569
12194DPPS   GL2 4732   3.899   6.353   9.759
12194DPPS   C1A 4733   3.469   5.923   9.639
12194DPPS   C2A 4734   3.109   5.873   9.809
12194DPPS   C3A 4735   2.849   5.823  10.209
12194DPPS   C4A 4736   2.549   5.763  10.609
12194DPPS   C1B 4737   3.639   6.183   9.969
12194DPPS   C2B 4738   3.319   6.103  10.209
12194DPPS   C3B 4739   3.089   6.133  10.619
12194DPPS   C4B 4740   2.749   6.073  11.019
12195DPPS   CNO 4741   6.359   0.711  11.449
12195DPPS   PO4 4742   6.289   0.971  11.739
12195DPPS   GL1 4743   6.029   0.841  12.059
12195DPPS   GL2 4744   6.199   0.901  12.249
12195DPPS   C1A 4745   5.739   1.061  12.229
12195DPPS   C2A 4746   5.379   1.151  12.449
12195DPPS   C3A 4747   5.039   1.181  12.739
12195DPPS   C4A 4748   4.749   1.061  13.059
12195DPPS   C1B 4749   5.959   0.841  12.489
12195DPPS   C2B 4750   5.719   0.941  12.799
12195DPPS   C3B 4751   5.359   0.981  13.119
12195DPPS   C4B 4752   5.059   1.011  13.479
12196DPPS   CNO 4753  19.029   5.503   9.299
12196DPPS   PO4 4754  19.139   5.133   9.219
12196DPPS   GL1 4755  19.489   4.893   9.529
12196DPPS   GL2 4756  19.269   5.033   9.779
12196DPPS   C1A 4757  19.779   4.933   9.749
12196DPPS   C2A 4758  20.159   4.963  10.029
12196DPPS   C3A 4759  20.539   4.923  10.369
12196DPPS   C4A 4760  20.749   4.843  10.789
12196DPPS   C1B 4761  19.379   4.923  10.139
12196DPPS   C2B 4762  19.569   4.953  10.499
12196DPPS   C3B 4763  19.789   4.813  10.909
12196DPPS   C4B 4764  20.069   4.813  11.329
12197DPPS   CNO 4765   5.649   6.133  11.499
12197DPPS   PO4 4766   5.789   5.873  11.699
12197DPPS   GL1 4767   5.399   5.843  11.919
12197DPPS   GL2 4768   5.459   6.113  12.009
12197DPPS   C1A 4769   5.179   5.793  12.179
12197DPPS   C2A 4770   4.929   5.913  12.449
12197DPPS   C3A 4771   4.639   5.823  12.889
12197DPPS   C4A 4772   4.319   5.863  13.289
12197DPPS   C1B 4773   5.419   6.183  12.379
12197DPPS   C2B 4774   5.219   6.243  12.709
12197DPPS   C3B 4775   4.999   6.203  13.149
12197DPPS   C4B 4776   4.669   6.253  13.549
12198DPPS   CNO 4777   0.101   4.623   8.579
12198DPPS   PO4 4778   0.151   4.343   8.339
12198DPPS   GL1 4779   0.391   4.201   8.569
12198DPPS   GL2 4780   0.631   4.121   8.469
12198DPPS   C1A 4781   0.541   4.211   8.929
12198DPPS   C2A 4782   0.561   4.613   9.119
12198DPPS   C3A 4783   0.241   4.943   9.319
12198DPPS   C4A 4784  21.079   5.043   9.719
12198DPPS   C1B 4785   0.881   4.051   8.679
12198DPPS   C2B 4786   1.031   4.171   9.089
12198DPPS   C3B 4787   1.441   4.011   9.389
12198DPPS   C4B 4788   1.821   3.851   9.589
12199DPPS   CNO 4789   0.901   2.431   8.109
12199DPPS   PO4 4790   1.171   2.601   8.309
12199DPPS   GL1 4791   1.211   2.641   8.689
12199DPPS   GL2 4792   0.911   2.731   8.759
12199DPPS   C1A 4793   1.441   2.321   8.849
12199DPPS   C2A 4794   1.771   2.301   9.069
12199DPPS   C3A 4795   2.089   2.401   9.299
12199DPPS   C4A 4796   2.419   2.591   9.549
12199DPPS   C1B 4797   0.791   2.871   9.079
12199DPPS   C2B 4798   0.661   2.931   9.419
12199DPPS   C3B 4799   0.491   3.041   9.809
12199DPPS   C4B 4800   0.431   3.421  10.119
23999DPPC   NC3 4801   5.659   2.931  18.569
23999DPPC   PO4 4802   5.609   3.121  18.219
23999DPPC   GL1 4803   5.799   3.011  17.859
23999DPPC   GL2 4804   5.629   3.011  17.659
23999DPPC   C1A 4805   6.089   2.991  17.689
23999DPPC   C2A 4806   6.309   2.951  17.359
23999DPPC   C3A 4807   6.569   2.891  17.019
23999DPPC   C4A 4808   6.809   2.911  16.609
23999DPPC   C1B 4809   5.819   3.071  17.359
23999DPPC   C2B 4810   5.989   3.191  17.029
23999DPPC   C3B 4811   6.219   3.151  16.629
23999DPPC   C4B 4812   6.519   3.121  16.219
24000DPPC   NC3 4813   7.269   1.981  20.249
24000DPPC   PO4 4814   7.559   2.161  20.349
24000DPPC   GL1 4815   7.899   1.961  20.099
24000DPPC   GL2 4816   7.849   1.731  20.279
24000DPPC   C1A 4817   8.079   2.011  19.799
24000DPPC   C2A 4818   8.269   1.901  19.449
24000DPPC   C3A 4819   8.469   1.821  18.979
24000DPPC   C4A 4820   8.769   1.781  18.589
24000DPPC   C1B 4821   7.809   1.591  19.979
24000DPPC   C2B 4822   8.129   1.421  19.739
24000DPPC   C3B 4823   8.429   1.381  19.329
24000DPPC   C4B 4824   8.589   1.381  18.819
24001DPPC   NC3 4825   7.489   0.211  20.349
24001DPPC   PO4 4826   7.359   0.561  20.189
24001DPPC   GL1 4827   7.299   0.851  19.869
24001DPPC   GL2 4828   7.469   1.011  19.999
24001DPPC   C1A 4829   7.479   0.861  19.549
24001DPPC   C2A 4830   7.499   0.771  19.179
24001DPPC   C3A 4831   7.719   0.701  18.749
24001DPPC   C4A 4832   7.999   0.651  18.349
24001DPPC   C1B 4833   7.779   1.111  19.789
24001DPPC   C2B 4834   7.909   1.121  19.439
24001DPPC   C3B 4835   8.079   1.061  19.009
24001DPPC   C4B 4836   8.309   0.971  18.559
24002DPPC   NC3 4837   4.999   5.223  17.769
24002DPPC   PO4 4838   4.829   5.313  17.439
24002DPPC   GL1 4839   4.979   5.293  17.029
24002DPPC   GL2 4840   4.949   5.613  17.099
24002DPPC   C1A 4841   5.179   5.223  16.779
24002DPPC   C2A 4842   5.429   5.273  16.469
24002DPPC   C3A 4843   5.639   5.253  16.049
24002DPPC   C4A 4844   5.919   5.223  15.659
24002DPPC   C1B 4845   5.119   5.703  16.749
24002DPPC   C2B 4846   5.339   5.753  16.419
24002DPPC   C3B 4847   5.539   5.743  15.939
24002DPPC   C4B 4848   5.839   5.723  15.509
24003DPPC   NC3 4849   4.859   0.791  17.809
24003DPPC   PO4 4850   5.019   0.451  17.949
24003DPPC   GL1 4851   5.499   0.461  17.919
24003DPPC   GL2 4852   5.459   0.281  17.719
24003DPPC   C1A 4853   5.869   0.551  17.819
24003DPPC   C2A 4854   5.969   0.611  17.399
24003DPPC   C3A 4855   6.279   0.641  17.109
24003DPPC   C4A 4856   6.539   0.631  16.749
24003DPPC   C1B 4857   5.679   0.251  17.349
24003DPPC   C2B 4858   5.929   0.331  16.979
24003DPPC   C3B 4859   6.129   0.291  16.559
24003DPPC   C4B 4860   6.409   0.231  16.099
24004DPPC   NC3 4861   5.499   1.351  18.579
24004DPPC   PO4 4862   5.829   1.211  18.659
24004DPPC   GL1 4863   6.139   1.041  18.469
24004DPPC   GL2 4864   6.009   0.981  18.139
24004DPPC   C1A 4865   6.439   1.191  18.349
24004DPPC   C2A 4866   6.649   1.261  18.049
24004DPPC   C3A 4867   6.819   1.181  17.609
24004DPPC   C4A 4868   7.029   1.271  17.179
24004DPPC   C1B 4869   6.309   0.941  17.989
24004DPPC   C2B 4870   6.399   0.901  17.559
24004DPPC   C3B 4871   6.689   0.881  17.199
24004DPPC   C4B 4872   6.979   1.001  16.809
24005DPPC   NC3 4873   4.639   6.083  18.149
24005DPPC   PO4 4874   4.789   5.713  17.959
24005DPPC   GL1 4875   5.209   5.793  17.789
24005DPPC   GL2 4876   5.199   5.593  17.629
24005DPPC   C1A 4877   5.549   5.983  17.759
24005DPPC   C2A 4878   5.909   6.163  17.629
24005DPPC   C3A 4879   6.239   6.243  17.259
24005DPPC   C4A 4880   6.579   6.243  16.899
24005DPPC   C1B 4881   5.319   5.663  17.289
24005DPPC   C2B 4882   5.539   5.653  16.899
24005DPPC   C3B 4883   5.829   5.603  16.479
24005DPPC   C4B 4884   6.039   5.613  16.079
24006DPPC   NC3 4885   7.009   2.781  19.989
24006DPPC   PO4 4886   7.219   3.081  20.129
24006DPPC   GL1 4887   7.599   3.141  20.019
24006DPPC   GL2 4888   7.629   3.281  20.249
24006DPPC   C1A 4889   7.859   3.101  19.749
24006DPPC   C2A 4890   7.999   2.941  19.349
24006DPPC   C3A 4891   8.289   2.841  18.979
24006DPPC   C4A 4892   8.599   2.911  18.599
24006DPPC   C1B 4893   7.909   3.481  20.119
24006DPPC   C2B 4894   8.149   3.701  19.809
24006DPPC   C3B 4895   8.429   3.681  19.439
24006DPPC   C4B 4896   8.729   3.661  19.059
24007DPPC   NC3 4897   6.099   0.721  19.519
24007DPPC   PO4 4898   6.079   1.101  19.389
24007DPPC   GL1 4899   6.229   1.091  18.999
24007DPPC   GL2 4900   6.219   0.831  18.879
24007DPPC   C1A 4901   6.569   1.131  18.849
24007DPPC   C2A 4902   6.859   1.151  18.529
24007DPPC   C3A 4903   7.099   1.131  18.139
24007DPPC   C4A 4904   7.309   1.081  17.699
24007DPPC   C1B 4905   6.479   0.781  18.589
24007DPPC   C2B 4906   6.639   0.771  18.219
24007DPPC   C3B 4907   6.879   0.691  17.839
24007DPPC   C4B 4908   7.109   0.701  17.379
24008DPPC   NC3 4909   8.059   5.863  21.359
24008DPPC   PO4 4910   7.899   5.913  20.999
24008DPPC   GL1 4911   8.179   5.873  20.589
24008DPPC   GL2 4912   8.239   5.653  20.699
24008DPPC   C1A 4913   8.269   5.743  20.289
24008DPPC   C2A 4914   8.319   5.943  19.959
24008DPPC   C3A 4915   8.599   5.953  19.639
24008DPPC   C4A 4916   8.789   5.993  19.179
24008DPPC   C1B 4917   8.469   5.473  20.539
24008DPPC   C2B 4918   8.649   5.333  20.209
24008DPPC   C3B 4919   8.939   5.363  19.869
24008DPPC   C4B 4920   9.219   5.383  19.419
24009DPPC   NC3 4921   6.209   5.403  19.669
24009DPPC   PO4 4922   6.569   5.333  19.779
24009DPPC   GL1 4923   6.819   5.263  19.509
24009DPPC   GL2 4924   6.779   5.193  19.299
24009DPPC   C1A 4925   7.209   5.273  19.529
24009DPPC   C2A 4926   7.559   5.383  19.279
24009DPPC   C3A 4927   7.909   5.303  18.969
24009DPPC   C4A 4928   8.199   5.313  18.569
24009DPPC   C1B 4929   7.109   5.343  19.159
24009DPPC   C2B 4930   7.389   5.423  18.839
24009DPPC   C3B 4931   7.729   5.453  18.429
24009DPPC   C4B 4932   7.889   5.443  17.989
24010DPPC   NC3 4933   6.899   3.491  20.399
24010DPPC   PO4 4934   7.279   3.461  20.529
24010DPPC   GL1 4935   7.519   3.701  20.299
24010DPPC   GL2 4936   7.479   3.701  20.069
24010DPPC   C1A 4937   7.909   3.791  20.449
24010DPPC   C2A 4938   8.179   3.981  20.259
24010DPPC   C3A 4939   8.549   3.981  19.919
24010DPPC   C4A 4940   8.849   4.031  19.439
24010DPPC   C1B 4941   7.729   3.631  19.779
24010DPPC   C2B 4942   7.929   3.491  19.449
24010DPPC   C3B 4943   8.229   3.351  19.059
24010DPPC   C4B 4944   8.469   3.481  18.649
24011DPPC   NC3 4945   7.949   1.831  20.689
24011DPPC   PO4 4946   7.869   1.481  20.699
24011DPPC   GL1 4947   8.229   1.361  20.479
24011DPPC   GL2 4948   8.309   1.591  20.569
24011DPPC   C1A 4949   8.539   1.271  20.249
24011DPPC   C2A 4950   8.639   1.261  19.809
24011DPPC   C3A 4951   8.889   1.221  19.389
24011DPPC   C4A 4952   9.149   1.121  18.899
24011DPPC   C1B 4953   8.339   1.781  20.299
24011DPPC   C2B 4954   8.469   1.751  19.899
24011DPPC   C3B 4955   8.739   1.711  19.479
24011DPPC   C4B 4956   8.979   1.671  19.059
24012DPPC   NC3 4957   7.989   3.811  20.999
24012DPPC   PO4 4958   8.239   4.011  21.199
24012DPPC   GL1 4959   8.619   4.111  20.949
24012DPPC   GL2 4960   8.579   3.791  20.909
24012DPPC   C1A 4961   8.829   4.263  20.709
24012DPPC   C2A 4962   8.929   4.433  20.299
24012DPPC   C3A 4963   9.049   4.383  19.799
24012DPPC   C4A 4964   9.289   4.333  19.379
24012DPPC   C1B 4965   8.809   3.551  20.739
24012DPPC   C2B 4966   8.999   3.451  20.359
24012DPPC   C3B 4967   9.209   3.391  19.919
24012DPPC   C4B 4968   9.459   3.321  19.509
24013DPPC   NC3 4969   5.399   6.163  18.629
24013DPPC   PO4 4970   5.619   6.423  18.419
24013DPPC   GL1 4971   6.039   6.553  18.399
24013DPPC   GL2 4972   6.069   6.313  18.539
24013DPPC   C1A 4973   6.279   6.593  18.089
24013DPPC   C2A 4974   6.509   6.563  17.769
24013DPPC   C3A 4975   6.749   6.543  17.289
24013DPPC   C4A 4976   7.029   6.473  16.889
24013DPPC   C1B 4977   6.309   6.023  18.469
24013DPPC   C2B 4978   6.719   5.903  18.359
24013DPPC   C3B 4979   6.929   5.863  18.009
24013DPPC   C4B 4980   7.179   5.793  17.559
24014DPPC   NC3 4981   4.209   5.963  16.989
24014DPPC   PO4 4982   4.609   5.973  17.029
24014DPPC   GL1 4983   4.859   6.073  16.739
24014DPPC   GL2 4984   4.669   5.833  16.539
24014DPPC   C1A 4985   5.119   6.223  16.489
24014DPPC   C2A 4986   5.389   6.293  16.189
24014DPPC   C3A 4987   5.699   6.253  15.809
24014DPPC   C4A 4988   5.959   6.193  15.389
24014DPPC   C1B 4989   4.769   5.913  16.189
24014DPPC   C2B 4990   5.079   5.973  15.889
24014DPPC   C3B 4991   5.389   5.953  15.519
24014DPPC   C4B 4992   5.619   5.993  15.039
24015DPPC   NC3 4993   7.859   2.921  20.359
24015DPPC   PO4 4994   7.569   2.681  20.219
24015DPPC   GL1 4995   7.679   2.721  19.739
24015DPPC   GL2 4996   7.429   2.961  19.679
24015DPPC   C1A 4997   7.859   2.471  19.529
24015DPPC   C2A 4998   8.129   2.421  19.169
24015DPPC   C3A 4999   8.429   2.381  18.829
24015DPPC   C4A 5000   8.739   2.321  18.439
24015DPPC   C1B 5001   7.529   3.091  19.359
24015DPPC   C2B 5002   7.729   3.071  18.959
24015DPPC   C3B 5003   8.059   3.071  18.569
24015DPPC   C4B 5004   8.369   3.011  18.159
24016DPPC   NC3 5005   7.009   1.171  19.969
24016DPPC   PO4 5006   6.879   1.501  19.819
24016DPPC   GL1 5007   6.769   1.631  19.499
24016DPPC   GL2 5008   6.909   1.921  19.419
24016DPPC   C1A 5009   6.989   1.551  19.199
24016DPPC   C2A 5010   7.099   1.451  18.819
24016DPPC   C3A 5011   7.369   1.401  18.459
24016DPPC   C4A 5012   7.579   1.341  17.979
24016DPPC   C1B 5013   7.239   2.081  19.559
24016DPPC   C2B 5014   7.609   2.111  19.379
24016DPPC   C3B 5015   7.919   2.061  18.949
24016DPPC   C4B 5016   8.229   1.981  18.569
24017DPPC   NC3 5017   9.939   0.361  21.259
24017DPPC   PO4 5018   9.649   0.601  21.439
24017DPPC   GL1 5019   9.669   0.821  21.079
24017DPPC   GL2 5020   9.939   0.841  21.189
24017DPPC   C1A 5021   9.659   0.711  20.719
24017DPPC   C2A 5022   9.969   0.601  20.489
24017DPPC   C3A 5023  10.099   0.561  20.009
24017DPPC   C4A 5024  10.289   0.581  19.579
24017DPPC   C1B 5025  10.129   0.611  20.939
24017DPPC   C2B 5026  10.339   0.341  20.669
24017DPPC   C3B 5027  10.529   0.011  20.359
24017DPPC   C4B 5028  10.979   6.443  20.389
24018DPPC   NC3 5029   5.269   4.293  18.929
24018DPPC   PO4 5030   5.539   3.981  18.829
24018DPPC   GL1 5031   5.869   4.021  18.499
24018DPPC   GL2 5032   6.059   4.051  18.769
24018DPPC   C1A 5033   6.119   3.881  18.189
24018DPPC   C2A 5034   6.279   3.801  17.789
24018DPPC   C3A 5035   6.599   3.761  17.349
24018DPPC   C4A 5036   6.879   3.751  17.009
24018DPPC   C1B 5037   6.439   4.011  18.699
24018DPPC   C2B 5038   6.769   3.961  18.549
24018DPPC   C3B 5039   7.069   3.941  18.169
24018DPPC   C4B 5040   7.369   3.861  17.809
24019DPPC   NC3 5041   5.169   1.361  18.189
24019DPPC   PO4 5042   5.119   1.191  17.859
24019DPPC   GL1 5043   5.389   1.231  17.529
24019DPPC   GL2 5044   5.209   1.191  17.259
24019DPPC   C1A 5045   5.709   1.441  17.579
24019DPPC   C2A 5046   5.949   1.651  17.289
24019DPPC   C3A 5047   6.209   1.601  16.869
24019DPPC   C4A 5048   6.519   1.631  16.419
24019DPPC   C1B 5049   5.359   1.001  16.949
24019DPPC   C2B 5050   5.539   0.901  16.599
24019DPPC   C3B 5051   5.819   0.961  16.169
24019DPPC   C4B 5052   6.039   1.011  15.709
24020DPPC   NC3 5053  13.589   3.031  20.839
24020DPPC   PO4 5054  13.459   3.381  20.919
24020DPPC   GL1 5055  13.179   3.731  20.859
24020DPPC   GL2 5056  13.119   3.501  20.569
24020DPPC   C1A 5057  12.889   3.931  20.679
24020DPPC   C2A 5058  12.629   3.981  20.299
24020DPPC   C3A 5059  12.469   3.971  19.879
24020DPPC   C4A 5060  12.179   4.091  19.459
24020DPPC   C1B 5061  12.839   3.601  20.359
24020DPPC   C2B 5062  12.549   3.511  20.079
24020DPPC   C3B 5063  12.319   3.551  19.679
24020DPPC   C4B 5064  11.959   3.641  19.329
24021DPPC   NC3 5065   4.769   6.403  17.439
24021DPPC   PO4 5066   4.949   6.203  17.739
24021DPPC   GL1 5067   5.259   6.063  17.419
24021DPPC   GL2 5068   5.039   6.133  17.209
24021DPPC   C1A 5069   5.619   5.993  17.249
24021DPPC   C2A 5070   5.949   5.933  17.039
24021DPPC   C3A 5071   6.229   5.933  16.619
24021DPPC   C4A 5072   6.439   5.853  16.229
24021DPPC   C1B 5073   5.319   6.013  16.979
24021DPPC   C2B 5074   5.589   6.113  16.699
24021DPPC   C3B 5075   5.919   6.103  16.279
24021DPPC   C4B 5076   6.179   6.093  15.899
24022DPPC   NC3 5077   3.719   3.601  15.809
24022DPPC   PO4 5078   3.829   3.181  15.829
24022DPPC   GL1 5079   3.989   3.301  15.509
24022DPPC   GL2 5080   4.089   3.581  15.569
24022DPPC   C1A 5081   4.279   3.131  15.309
24022DPPC   C2A 5082   4.589   3.021  15.069
24022DPPC   C3A 5083   4.869   3.071  14.739
24022DPPC   C4A 5084   5.169   3.011  14.369
24022DPPC   C1B 5085   4.289   3.591  15.269
24022DPPC   C2B 5086   4.539   3.491  14.959
24022DPPC   C3B 5087   4.799   3.541  14.579
24022DPPC   C4B 5088   5.159   3.501  14.239
24023DPPC   NC3 5089   4.749   1.541  17.189
24023DPPC   PO4 5090   5.009   1.661  17.449
24023DPPC   GL1 5091   5.479   1.611  17.319
24023DPPC   GL2 5092   5.229   1.611  17.069
24023DPPC   C1A 5093   5.609   1.341  17.179
24023DPPC   C2A 5094   5.799   1.261  16.799
24023DPPC   C3A 5095   6.059   1.251  16.439
24023DPPC   C4A 5096   6.379   1.261  16.099
24023DPPC   C1B 5097   5.369   1.521  16.759
24023DPPC   C2B 5098   5.589   1.461  16.379
24023DPPC   C3B 5099   5.879   1.481  16.009
24023DPPC   C4B 5100   6.159   1.491  15.589
24024DPPC   NC3 5101  11.939   4.333  21.779
24024DPPC   PO4 5102  11.709   4.191  21.509
24024DPPC   GL1 5103  11.239   4.303  21.349
24024DPPC   GL2 5104  11.449   4.503  21.169
24024DPPC   C1A 5105  10.949   4.393  21.169
24024DPPC   C2A 5106  10.649   4.353  20.879
24024DPPC   C3A 5107  10.219   4.191  20.669
24024DPPC   C4A 5108   9.819   3.961  20.479
24024DPPC   C1B 5109  11.279   4.643  20.949
24024DPPC   C2B 5110  10.929   4.833  20.789
24024DPPC   C3B 5111  10.629   4.673  20.469
24024DPPC   C4B 5112  10.399   4.363  20.199
24025DPPC   NC3 5113   7.389   2.981  20.609
24025DPPC   PO4 5114   7.699   2.991  20.869
24025DPPC   GL1 5115   8.149   2.781  20.669
24025DPPC   GL2 5116   8.209   3.041  20.659
24025DPPC   C1A 5117   8.309   2.691  20.359
24025DPPC   C2A 5118   8.139   2.681  19.919
24025DPPC   C3A 5119   8.469   2.731  19.589
24025DPPC   C4A 5120   8.709   2.701  19.149
24025DPPC   C1B 5121   8.299   3.151  20.289
24025DPPC   C2B 5122   8.379   3.201  19.859
24025DPPC   C3B 5123   8.529   3.201  19.369
24025DPPC   C4B 5124   8.819   3.181  18.939
24026DPPC   NC3 5125   8.709   5.433  21.639
24026DPPC   PO4 5126   8.539   5.653  21.389
24026DPPC   GL1 5127   8.809   5.733  21.089
24026DPPC   GL2 5128   8.719   5.423  21.039
24026DPPC   C1A 5129   8.919   5.953  20.799
24026DPPC   C2A 5130   9.049   6.153  20.459
24026DPPC   C3A 5131   9.269   6.163  20.029
24026DPPC   C4A 5132   9.569   6.103  19.569
24026DPPC   C1B 5133   8.629   5.203  20.799
24026DPPC   C2B 5134   8.729   4.913  20.529
24026DPPC   C3B 5135   8.909   4.873  20.069
24026DPPC   C4B 5136   9.119   4.913  19.649
24027DPPC   NC3 5137   6.519   0.821  19.239
24027DPPC   PO4 5138   6.369   0.471  19.189
24027DPPC   GL1 5139   6.679   0.361  18.889
24027DPPC   GL2 5140   6.839   0.611  18.969
24027DPPC   C1A 5141   6.819   0.031  18.709
24027DPPC   C2A 5142   7.079   0.091  18.429
24027DPPC   C3A 5143   7.339   0.051  18.019
24027DPPC   C4A 5144   7.589   0.061  17.639
24027DPPC   C1B 5145   6.919   0.641  18.609
24027DPPC   C2B 5146   7.109   0.601  18.279
24027DPPC   C3B 5147   7.339   0.541  17.849
24027DPPC   C4B 5148   7.599   0.531  17.419
24028DPPC   NC3 5149   4.189   4.513  16.599
24028DPPC   PO4 5150   4.249   4.923  16.639
24028DPPC   GL1 5151   4.459   4.963  16.309
24028DPPC   GL2 5152   4.469   4.673  16.309
24028DPPC   C1A 5153   4.669   5.083  16.079
24028DPPC   C2A 5154   4.829   5.143  15.689
24028DPPC   C3A 5155   5.099   5.183  15.289
24028DPPC   C4A 5156   5.369   5.183  14.839
24028DPPC   C1B 5157   4.679   4.643  16.029
24028DPPC   C2B 5158   4.889   4.633  15.689
24028DPPC   C3B 5159   5.189   4.633  15.259
24028DPPC   C4B 5160   5.549   4.603  14.909
24029DPPC   NC3 5161   6.419   2.501  19.179
24029DPPC   PO4 5162   6.139   2.261  19.039
24029DPPC   GL1 5163   6.329   2.261  18.699
24029DPPC   GL2 5164   6.509   2.091  18.709
24029DPPC   C1A 5165   6.459   2.411  18.419
24029DPPC   C2A 5166   6.699   2.531  18.169
24029DPPC   C3A 5167   7.069   2.561  17.859
24029DPPC   C4A 5168   7.329   2.571  17.449
24029DPPC   C1B 5169   6.769   2.071  18.429
24029DPPC   C2B 5170   7.009   2.061  18.059
24029DPPC   C3B 5171   7.249   2.091  17.639
24029DPPC   C4B 5172   7.469   1.971  17.219
24030DPPC   NC3 5173   6.079   2.741  18.889
24030DPPC   PO4 5174   6.309   3.071  18.889
24030DPPC   GL1 5175   6.649   3.231  18.679
24030DPPC   GL2 5176   6.829   3.031  18.869
24030DPPC   C1A 5177   6.879   3.441  18.489
24030DPPC   C2A 5178   7.199   3.461  18.179
24030DPPC   C3A 5179   7.459   3.381  17.829
24030DPPC   C4A 5180   7.759   3.341  17.469
24030DPPC   C1B 5181   7.009   2.951  18.549
24030DPPC   C2B 5182   7.239   2.971  18.209
24030DPPC   C3B 5183   7.529   2.901  17.829
24030DPPC   C4B 5184   7.789   2.821  17.469
24031DPPC   NC3 5185   4.489   0.871  16.779
24031DPPC   PO4 5186   4.409   0.621  17.039
24031DPPC   GL1 5187   4.719   0.311  16.949
24031DPPC   GL2 5188   4.889   0.501  16.989
24031DPPC   C1A 5189   4.909   0.171  16.649
24031DPPC   C2A 5190   5.219   0.111  16.359
24031DPPC   C3A 5191   5.529   0.151  15.989
24031DPPC   C4A 5192   5.829   0.121  15.629
24031DPPC   C1B 5193   4.959   0.741  16.669
24031DPPC   C2B 5194   5.169   0.701  16.319
24031DPPC   C3B 5195   5.439   0.631  15.929
24031DPPC   C4B 5196   5.719   0.661  15.549
24032DPPC   NC3 5197   8.319   0.991  20.739
24032DPPC   PO4 5198   7.959   0.981  20.599
24032DPPC   GL1 5199   8.079   0.861  20.269
24032DPPC   GL2 5200   8.089   1.101  20.099
24032DPPC   C1A 5201   8.249   0.591  20.079
24032DPPC   C2A 5202   8.329   0.421  19.689
24032DPPC   C3A 5203   8.449   0.391  19.239
24032DPPC   C4A 5204   8.749   0.371  18.799
24032DPPC   C1B 5205   8.219   0.921  19.799
24032DPPC   C2B 5206   8.389   0.901  19.449
24032DPPC   C3B 5207   8.579   0.841  19.029
24032DPPC   C4B 5208   8.759   0.851  18.599
24033DPPC   NC3 5209   5.489   3.501  18.599
24033DPPC   PO4 5210   5.289   3.601  18.289
24033DPPC   GL1 5211   5.619   3.761  18.139
24033DPPC   GL2 5212   5.829   3.571  18.289
24033DPPC   C1A 5213   5.819   3.831  17.869
24033DPPC   C2A 5214   5.869   4.011  17.499
24033DPPC   C3A 5215   6.189   3.931  17.109
24033DPPC   C4A 5216   6.509   3.921  16.709
24033DPPC   C1B 5217   6.059   3.461  18.019
24033DPPC   C2B 5218   6.439   3.311  17.799
24033DPPC   C3B 5219   6.729   3.301  17.389
24033DPPC   C4B 5220   7.019   3.251  16.999
24034DPPC   NC3 5221   9.099   2.291  21.529
24034DPPC   PO4 5222   8.829   2.301  21.249
24034DPPC   GL1 5223   8.959   2.321  20.849
24034DPPC   GL2 5224   8.819   1.991  20.899
24034DPPC   C1A 5225   8.859   2.511  20.549
24034DPPC   C2A 5226   8.769   2.491  20.099
24034DPPC   C3A 5227   8.949   2.511  19.619
24034DPPC   C4A 5228   9.219   2.561  19.239
24034DPPC   C1B 5229   9.099   1.921  20.669
24034DPPC   C2B 5230   9.299   1.891  20.329
24034DPPC   C3B 5231   9.499   1.801  19.959
24034DPPC   C4B 5232   9.769   1.661  19.549
24035DPPC   NC3 5233   6.019   5.663  18.889
24035DPPC   PO4 5234   5.839   5.993  18.799
24035DPPC   GL1 5235   5.809   5.953  18.369
24035DPPC   GL2 5236   5.729   5.843  18.189
24035DPPC   C1A 5237   6.029   6.153  18.129
24035DPPC   C2A 5238   6.339   6.123  17.879
24035DPPC   C3A 5239   6.669   6.053  17.549
24035DPPC   C4A 5240   6.909   6.063  17.169
24035DPPC   C1B 5241   5.959   5.783  17.869
24035DPPC   C2B 5242   6.179   5.763  17.519
24035DPPC   C3B 5243   6.459   5.753  17.079
24035DPPC   C4B 5244   6.779   5.713  16.769
24036DPPC   NC3 5245   3.729   4.101  16.699
24036DPPC   PO4 5246   4.109   4.041  16.719
24036DPPC   GL1 5247   4.199   4.171  16.309
24036DPPC   GL2 5248   4.269   3.841  16.319
24036DPPC   C1A 5249   4.529   4.263  16.179
24036DPPC   C2A 5250   4.789   4.151  15.889
24036DPPC   C3A 5251   5.089   4.111  15.529
24036DPPC   C4A 5252   5.359   4.151  15.109
24036DPPC   C1B 5253   4.519   3.731  16.099
24036DPPC   C2B 5254   4.869   3.631  15.929
24036DPPC   C3B 5255   5.199   3.661  15.579
24036DPPC   C4B 5256   5.509   3.691  15.189
24037DPPC   NC3 5257   5.959   3.911  19.249
24037DPPC   PO4 5258   6.329   3.861  19.179
24037DPPC   GL1 5259   6.619   3.701  18.989
24037DPPC   GL2 5260   6.409   3.611  18.809
24037DPPC   C1A 5261   6.989   3.611  18.889
24037DPPC   C2A 5262   7.309   3.711  18.609
24037DPPC   C3A 5263   7.649   3.671  18.259
24037DPPC   C4A 5264   7.949   3.611  17.849
24037DPPC   C1B 5265   6.339   3.601  18.479
24037DPPC   C2B 5266   6.599   3.621  18.179
24037DPPC   C3B 5267   6.919   3.631  17.759
24037DPPC   C4B 5268   7.229   3.521  17.429
24038DPPC   NC3 5269   8.199   2.931  21.099
24038DPPC   PO4 5270   8.039   3.291  21.219
24038DPPC   GL1 5271   8.299   3.511  21.009
24038DPPC   GL2 5272   8.509   3.251  21.019
24038DPPC   C1A 5273   8.349   3.591  20.639
24038DPPC   C2A 5274   8.529   3.521  20.269
24038DPPC   C3A 5275   8.729   3.571  19.819
24038DPPC   C4A 5276   8.989   3.531  19.439
24038DPPC   C1B 5277   8.639   3.041  20.679
24038DPPC   C2B 5278   8.769   2.941  20.299
24038DPPC   C3B 5279   8.839   2.971  19.799
24038DPPC   C4B 5280   9.079   3.011  19.359
24039DPPC   NC3 5281   6.589   4.071  19.659
24039DPPC   PO4 5282   6.889   4.383  19.679
24039DPPC   GL1 5283   7.299   4.403  19.529
24039DPPC   GL2 5284   7.279   4.151  19.369
24039DPPC   C1A 5285   7.419   4.473  19.179
24039DPPC   C2A 5286   7.649   4.493  18.809
24039DPPC   C3A 5287   7.859   4.513  18.419
24039DPPC   C4A 5288   8.229   4.533  18.089
24039DPPC   C1B 5289   7.499   3.991  19.129
24039DPPC   C2B 5290   7.769   3.991  18.759
24039DPPC   C3B 5291   8.069   3.981  18.409
24039DPPC   C4B 5292   8.289   3.971  17.959
24040DPPC   NC3 5293   4.079   3.051  16.449
24040DPPC   PO4 5294   3.989   2.811  16.149
24040DPPC   GL1 5295   4.219   2.831  15.899
24040DPPC   GL2 5296   4.409   3.091  15.949
24040DPPC   C1A 5297   4.259   2.671  15.589
24040DPPC   C2A 5298   4.529   2.581  15.269
24040DPPC   C3A 5299   4.899   2.561  14.879
24040DPPC   C4A 5300   5.229   2.521  14.569
24040DPPC   C1B 5301   4.549   3.381  15.749
24040DPPC   C2B 5302   4.809   3.331  15.419
24040DPPC   C3B 5303   5.099   3.291  15.099
24040DPPC   C4B 5304   5.329   3.361  14.699
24041DPPC   NC3 5305   7.509   5.183  20.639
24041DPPC   PO4 5306   7.719   4.903  20.709
24041DPPC   GL1 5307   7.769   4.813  20.389
24041DPPC   GL2 5308   7.659   5.013  20.219
24041DPPC   C1A 5309   7.929   4.543  20.179
24041DPPC   C2A 5310   8.109   4.363  19.849
24041DPPC   C3A 5311   8.359   4.211  19.399
24041DPPC   C4A 5312   8.629   4.211  19.019
24041DPPC   C1B 5313   7.939   4.963  20.029
24041DPPC   C2B 5314   8.099   4.773  19.639
24041DPPC   C3B 5315   8.359   4.683  19.249
24041DPPC   C4B 5316   8.649   4.743  18.859
24042DPPC   NC3 5317   4.419   0.241  17.329
24042DPPC   PO4 5318   4.769   0.411  17.469
24042DPPC   GL1 5319   5.139   0.451  17.479
24042DPPC   GL2 5320   5.079   0.141  17.579
24042DPPC   C1A 5321   5.279   0.461  17.159
24042DPPC   C2A 5322   5.449   0.451  16.769
24042DPPC   C3A 5323   5.659   0.441  16.359
24042DPPC   C4A 5324   6.009   0.531  16.009
24042DPPC   C1B 5325   5.169   6.583  17.249
24042DPPC   C2B 5326   5.339   6.523  16.869
24042DPPC   C3B 5327   5.649   6.563  16.509
24042DPPC   C4B 5328   5.959   6.573  16.169
24043DPPC   NC3 5329   6.299   1.541  19.629
24043DPPC   PO4 5330   6.419   1.451  19.229
24043DPPC   GL1 5331   6.639   1.591  18.929
24043DPPC   GL2 5332   6.549   1.801  19.019
24043DPPC   C1A 5333   6.769   1.651  18.609
24043DPPC   C2A 5334   6.949   1.631  18.239
24043DPPC   C3A 5335   7.129   1.571  17.839
24043DPPC   C4A 5336   7.409   1.541  17.479
24043DPPC   C1B 5337   6.829   1.961  18.959
24043DPPC   C2B 5338   7.159   1.931  18.639
24043DPPC   C3B 5339   7.449   1.881  18.209
24043DPPC   C4B 5340   7.689   1.861  17.809
24044DPPC   NC3 5341   7.299   3.381  19.749
24044DPPC   PO4 5342   6.959   3.151  19.599
24044DPPC   GL1 5343   7.119   2.961  19.299
24044DPPC   GL2 5344   7.119   3.261  19.119
24044DPPC   C1A 5345   7.229   2.751  19.029
24044DPPC   C2A 5346   7.409   2.751  18.669
24044DPPC   C3A 5347   7.729   2.771  18.269
24044DPPC   C4A 5348   8.019   2.671  17.879
24044DPPC   C1B 5349   7.289   3.251  18.789
24044DPPC   C2B 5350   7.569   3.231  18.479
24044DPPC   C3B 5351   7.839   3.171  18.069
24044DPPC   C4B 5352   8.109   3.121  17.749
24045DPPC   NC3 5353   6.439   3.241  19.649
24045DPPC   PO4 5354   6.639   3.591  19.599
24045DPPC   GL1 5355   7.039   3.781  19.499
24045DPPC   GL2 5356   6.889   3.881  19.319
24045DPPC   C1A 5357   7.339   3.591  19.349
24045DPPC   C2A 5358   7.609   3.531  19.059
24045DPPC   C3A 5359   7.919   3.541  18.649
24045DPPC   C4A 5360   8.189   3.471  18.279
24045DPPC   C1B 5361   6.999   4.051  18.969
24045DPPC   C2B 5362   7.269   4.171  18.679
24045DPPC   C3B 5363   7.489   4.171  18.359
24045DPPC   C4B 5364   7.829   4.181  17.989
24046DPPC   NC3 5365   5.029   2.601  17.889
24046DPPC   PO4 5366   5.209   2.931  17.969
24046DPPC   GL1 5367   5.269   3.231  17.719
24046DPPC   GL2 5368   5.489   3.431  17.879
24046DPPC   C1A 5369   5.399   3.221  17.369
24046DPPC   C2A 5370   5.429   3.021  17.029
24046DPPC   C3A 5371   5.649   2.831  16.699
24046DPPC   C4A 5372   5.989   2.801  16.309
24046DPPC   C1B 5373   5.789   3.501  17.619
24046DPPC   C2B 5374   6.109   3.541  17.379
24046DPPC   C3B 5375   6.459   3.391  16.979
24046DPPC   C4B 5376   6.739   3.431  16.609
24047DPPC   NC3 5377   7.739   1.271  20.289
24047DPPC   PO4 5378   7.379   1.461  20.229
24047DPPC   GL1 5379   7.289   1.521  19.719
24047DPPC   GL2 5380   7.429   1.321  19.709
24047DPPC   C1A 5381   7.339   1.711  19.429
24047DPPC   C2A 5382   7.469   1.781  19.049
24047DPPC   C3A 5383   7.719   1.731  18.659
24047DPPC   C4A 5384   7.899   1.651  18.229
24047DPPC   C1B 5385   7.689   1.481  19.469
24047DPPC   C2B 5386   7.939   1.571  19.159
24047DPPC   C3B 5387   8.139   1.511  18.669
24047DPPC   C4B 5388   8.419   1.441  18.269
24048DPPC   NC3 5389   6.689   3.311  19.189
24048DPPC   PO4 5390   6.639   2.901  19.229
24048DPPC   GL1 5391   6.769   2.591  18.889
24048DPPC   GL2 5392   6.519   2.691  18.749
24048DPPC   C1A 5393   6.949   2.511  18.599
24048DPPC   C2A 5394   7.239   2.441  18.289
24048DPPC   C3A 5395   7.569   2.381  17.969
24048DPPC   C4A 5396   7.769   2.311  17.519
24048DPPC   C1B 5397   6.579   2.901  18.449
24048DPPC   C2B 5398   6.769   3.131  18.169
24048DPPC   C3B 5399   6.989   3.121  17.769
24048DPPC   C4B 5400   7.259   3.031  17.379
24049DPPC   NC3 5401   6.269   1.431  18.709
24049DPPC   PO4 5402   6.149   1.801  18.749
24049DPPC   GL1 5403   6.219   1.881  18.399
24049DPPC   GL2 5404   6.139   2.121  18.319
24049DPPC   C1A 5405   6.499   1.811  18.129
24049DPPC   C2A 5406   6.639   1.741  17.739
24049DPPC   C3A 5407   6.979   1.731  17.359
24049DPPC   C4A 5408   7.219   1.651  16.899
24049DPPC   C1B 5409   6.359   2.191  18.009
24049DPPC   C2B 5410   6.639   2.241  17.689
24049DPPC   C3B 5411   6.949   2.231  17.299
24049DPPC   C4B 5412   7.199   2.201  16.839
24050DPPC   NC3 5413   4.969   3.341  18.009
24050DPPC   PO4 5414   4.869   3.521  17.709
24050DPPC   GL1 5415   5.089   3.491  17.399
24050DPPC   GL2 5416   5.079   3.391  17.199
24050DPPC   C1A 5417   5.399   3.671  17.369
24050DPPC   C2A 5418   5.719   3.621  17.069
24050DPPC   C3A 5419   6.039   3.701  16.679
24050DPPC   C4A 5420   6.339   3.621  16.279
24050DPPC   C1B 5421   5.299   3.411  16.929
24050DPPC   C2B 5422   5.559   3.271  16.639
24050DPPC   C3B 5423   5.839   3.341  16.279
24050DPPC   C4B 5424   6.079   3.321  15.919
24051DPPC   NC3 5425   7.029   5.353  19.999
24051DPPC   PO4 5426   7.159   5.063  20.239
24051DPPC   GL1 5427   7.409   4.793  19.899
24051DPPC   GL2 5428   7.149   4.903  19.799
24051DPPC   C1A 5429   7.589   4.743  19.589
24051DPPC   C2A 5430   7.819   4.853  19.199
24051DPPC   C3A 5431   8.109   4.863  18.809
24051DPPC   C4A 5432   8.379   4.863  18.439
24051DPPC   C1B 5433   7.199   4.843  19.449
24051DPPC   C2B 5434   7.339   4.933  19.049
24051DPPC   C3B 5435   7.649   5.003  18.669
24051DPPC   C4B 5436   7.919   4.983  18.279
24052DPPC   NC3 5437   6.929   4.303  20.559
24052DPPC   PO4 5438   7.249   4.171  20.379
24052DPPC   GL1 5439   7.519   4.333  20.169
24052DPPC   GL2 5440   7.699   4.101  20.209
24052DPPC   C1A 5441   7.649   4.393  19.809
24052DPPC   C2A 5442   7.909   4.413  19.419
24052DPPC   C3A 5443   8.099   4.403  18.999
24052DPPC   C4A 5444   8.419   4.383  18.579
24052DPPC   C1B 5445   7.809   4.021  19.849
24052DPPC   C2B 5446   7.799   3.951  19.439
24052DPPC   C3B 5447   8.119   3.901  19.099
24052DPPC   C4B 5448   8.379   3.931  18.759
24053DPPC   NC3 5449   4.599   2.491  17.119
24053DPPC   PO4 5450   4.829   2.451  17.419
24053DPPC   GL1 5451   5.269   2.301  17.369
24053DPPC   GL2 5452   5.259   2.011  17.329
24053DPPC   C1A 5453   5.469   2.411  17.109
24053DPPC   C2A 5454   5.739   2.361  16.789
24053DPPC   C3A 5455   5.989   2.321  16.419
24053DPPC   C4A 5456   6.149   2.281  15.979
24053DPPC   C1B 5457   5.549   1.981  17.109
24053DPPC   C2B 5458   5.779   1.861  16.829
24053DPPC   C3B 5459   6.039   1.821  16.399
24053DPPC   C4B 5460   6.329   1.801  16.029
24054DPPC   NC3 5461   7.749   5.643  20.519
24054DPPC   PO4 5462   7.489   5.513  20.289
24054DPPC   GL1 5463   7.519   5.563  19.849
24054DPPC   GL2 5464   7.519   5.233  19.839
24054DPPC   C1A 5465   7.309   5.693  19.569
24054DPPC   C2A 5466   7.289   5.763  19.159
24054DPPC   C3A 5467   7.489   6.013  18.799
24054DPPC   C4A 5468   7.679   5.953  18.389
24054DPPC   C1B 5469   7.819   5.173  19.619
24054DPPC   C2B 5470   8.179   5.233  19.409
24054DPPC   C3B 5471   8.439   5.183  19.039
24054DPPC   C4B 5472   8.719   5.253  18.669
24055DPPC   NC3 5473   6.059   6.583  19.349
24055DPPC   PO4 5474   6.169   6.483  18.979
24055DPPC   GL1 5475   6.489   6.253  18.819
24055DPPC   GL2 5476   6.329   5.963  18.959
24055DPPC   C1A 5477   6.589   6.393  18.459
24055DPPC   C2A 5478   6.849   6.363  18.119
24055DPPC   C3A 5479   7.039   6.393  17.729
24055DPPC   C4A 5480   7.279   6.353  17.339
24055DPPC   C1B 5481   6.459   5.683  18.729
24055DPPC   C2B 5482   6.689   5.413  18.459
24055DPPC   C3B 5483   6.949   5.353  17.999
24055DPPC   C4B 5484   7.269   5.313  17.599
24056DPPC   NC3 5485   6.949   1.971  19.879
24056DPPC   PO4 5486   6.729   2.311  19.869
24056DPPC   GL1 5487   6.989   2.541  19.619
24056DPPC   GL2 5488   6.889   2.341  19.379
24056DPPC   C1A 5489   7.339   2.551  19.449
24056DPPC   C2A 5490   7.669   2.611  19.129
24056DPPC   C3A 5491   7.889   2.601  18.719
24056DPPC   C4A 5492   8.269   2.571  18.399
24056DPPC   C1B 5493   7.139   2.251  19.099
24056DPPC   C2B 5494   7.449   2.251  18.819
24056DPPC   C3B 5495   7.759   2.191  18.389
24056DPPC   C4B 5496   8.009   2.161  17.989
24057DPPC   NC3 5497   3.579   5.163  16.539
24057DPPC   PO4 5498   3.659   4.803  16.459
24057DPPC   GL1 5499   3.989   4.843  16.179
24057DPPC   GL2 5500   4.069   4.623  16.159
24057DPPC   C1A 5501   4.259   4.953  15.949
24057DPPC   C2A 5502   4.419   4.873  15.599
24057DPPC   C3A 5503   4.699   4.863  15.249
24057DPPC   C4A 5504   4.949   4.863  14.809
24057DPPC   C1B 5505   4.269   4.473  15.889
24057DPPC   C2B 5506   4.469   4.353  15.539
24057DPPC   C3B 5507   4.789   4.333  15.179
24057DPPC   C4B 5508   5.069   4.333  14.779
24058DPPC   NC3 5509   4.609   3.341  17.309
24058DPPC   PO4 5510   4.769   2.981  17.279
24058DPPC   GL1 5511   4.969   2.941  16.949
24058DPPC   GL2 5512   5.069   2.681  17.069
24058DPPC   C1A 5513   5.109   3.071  16.619
24058DPPC   C2A 5514   5.329   3.041  16.269
24058DPPC   C3A 5515   5.639   3.001  15.889
24058DPPC   C4A 5516   5.949   3.031  15.499
24058DPPC   C1B 5517   5.249   2.621  16.719
24058DPPC   C2B 5518   5.419   2.491  16.389
24058DPPC   C3B 5519   5.649   2.481  16.009
24058DPPC   C4B 5520   5.969   2.531  15.549
24059DPPC   NC3 5521   5.489   4.201  18.319
24059DPPC   PO4 5522   5.609   4.423  18.589
24059DPPC   GL1 5523   6.019   4.493  18.619
24059DPPC   GL2 5524   6.009   4.723  18.469
24059DPPC   C1A 5525   6.259   4.393  18.479
24059DPPC   C2A 5526   6.469   4.151  18.229
24059DPPC   C3A 5527   6.729   4.131  17.819
24059DPPC   C4A 5528   7.059   4.041  17.439
24059DPPC   C1B 5529   6.209   4.693  18.139
24059DPPC   C2B 5530   6.599   4.583  17.919
24059DPPC   C3B 5531   6.889   4.573  17.589
24059DPPC   C4B 5532   7.149   4.443  17.219
24060DPPC   NC3 5533   4.959   2.081  17.739
24060DPPC   PO4 5534   5.189   2.161  18.059
24060DPPC   GL1 5535   5.479   2.281  17.769
24060DPPC   GL2 5536   5.429   2.571  17.749
24060DPPC   C1A 5537   5.799   2.141  17.549
24060DPPC   C2A 5538   5.999   2.111  17.219
24060DPPC   C3A 5539   6.209   2.111  16.809
24060DPPC   C4A 5540   6.509   2.141  16.429
24060DPPC   C1B 5541   5.629   2.651  17.479
24060DPPC   C2B 5542   5.899   2.651  17.179
24060DPPC   C3B 5543   6.169   2.611  16.749
24060DPPC   C4B 5544   6.429   2.641  16.369
24061DPPC   NC3 5545   4.749   4.453  17.829
24061DPPC   PO4 5546   5.059   4.303  18.019
24061DPPC   GL1 5547   5.479   4.293  17.889
24061DPPC   GL2 5548   5.339   4.231  17.559
24061DPPC   C1A 5549   5.719   4.453  17.649
24061DPPC   C2A 5550   5.969   4.423  17.279
24061DPPC   C3A 5551   6.239   4.413  16.879
24061DPPC   C4A 5552   6.529   4.443  16.419
24061DPPC   C1B 5553   5.569   4.171  17.249
24061DPPC   C2B 5554   5.769   4.161  16.879
24061DPPC   C3B 5555   6.049   4.151  16.509
24061DPPC   C4B 5556   6.279   4.081  16.059
24062DPPC   NC3 5557   6.379   5.043  19.319
24062DPPC   PO4 5558   6.009   5.133  19.189
24062DPPC   GL1 5559   6.249   4.943  18.849
24062DPPC   GL2 5560   6.139   5.143  18.629
24062DPPC   C1A 5561   6.409   4.793  18.569
24062DPPC   C2A 5562   6.699   4.823  18.299
24062DPPC   C3A 5563   7.049   4.793  17.989
24062DPPC   C4A 5564   7.339   4.803  17.599
24062DPPC   C1B 5565   6.199   5.143  18.249
24062DPPC   C2B 5566   6.469   5.093  17.929
24062DPPC   C3B 5567   6.739   5.043  17.609
24062DPPC   C4B 5568   7.039   4.953  17.199
24063DPPC   NC3 5569  13.729   2.111  21.059
24063DPPC   PO4 5570  13.399   2.151  20.839
24063DPPC   GL1 5571  13.259   2.211  20.519
24063DPPC   GL2 5572  13.239   1.971  20.359
24063DPPC   C1A 5573  13.039   2.431  20.329
24063DPPC   C2A 5574  12.779   2.601  20.029
24063DPPC   C3A 5575  12.429   2.601  19.649
24063DPPC   C4A 5576  12.189   2.591  19.199
24063DPPC   C1B 5577  13.459   1.851  20.119
24063DPPC   C2B 5578  13.679   1.491  19.999
24063DPPC   C3B 5579  14.139   1.421  19.849
24063DPPC   C4B 5580  14.609   1.421  19.889
24064DPPC   NC3 5581   6.599   6.573  19.139
24064DPPC   PO4 5582   6.499   0.011  19.499
24064DPPC   GL1 5583   6.889   0.171  19.449
24064DPPC   GL2 5584   6.989   6.583  19.629
24064DPPC   C1A 5585   7.099   0.311  19.139
24064DPPC   C2A 5586   7.309   0.371  18.779
24064DPPC   C3A 5587   7.529   0.361  18.399
24064DPPC   C4A 5588   7.869   0.271  17.999
24064DPPC   C1B 5589   7.179   6.493  19.329
24064DPPC   C2B 5590   7.259   6.533  18.929
24064DPPC   C3B 5591   7.509   6.433  18.519
24064DPPC   C4B 5592   7.799   6.393  18.159
24065DPPC   NC3 5593   8.699   2.731  22.079
24065DPPC   PO4 5594   8.739   2.701  21.729
24065DPPC   GL1 5595   8.819   2.951  21.369
24065DPPC   GL2 5596   8.789   2.731  21.189
24065DPPC   C1A 5597   9.069   3.141  21.169
24065DPPC   C2A 5598   9.239   3.351  20.869
24065DPPC   C3A 5599   9.459   3.521  20.479
24065DPPC   C4A 5600   9.639   3.661  20.019
24065DPPC   C1B 5601   8.989   2.801  20.829
24065DPPC   C2B 5602   9.189   2.951  20.579
24065DPPC   C3B 5603   9.439   3.081  20.249
24065DPPC   C4B 5604   9.779   3.101  19.839
24066DPPC   NC3 5605   7.249   6.033  20.469
24066DPPC   PO4 5606   7.499   6.323  20.399
24066DPPC   GL1 5607   7.749   6.453  20.229
24066DPPC   GL2 5608   7.869   0.031  20.279
24066DPPC   C1A 5609   7.909   6.283  19.919
24066DPPC   C2A 5610   8.069   6.193  19.549
24066DPPC   C3A 5611   8.219   6.133  19.139
24066DPPC   C4A 5612   8.409   6.103  18.709
24066DPPC   C1B 5613   8.149   0.141  20.119
24066DPPC   C2B 5614   8.309   6.523  19.829
24066DPPC   C3B 5615   8.569   6.453  19.429
24066DPPC   C4B 5616   8.749   6.423  18.929
24067DPPC   NC3 5617   4.469   5.143  17.129
24067DPPC   PO4 5618   4.439   5.533  17.039
24067DPPC   GL1 5619   4.709   5.423  16.689
24067DPPC   GL2 5620   4.399   5.403  16.569
24067DPPC   C1A 5621   4.859   5.433  16.329
24067DPPC   C2A 5622   5.099   5.443  15.979
24067DPPC   C3A 5623   5.429   5.433  15.539
24067DPPC   C4A 5624   5.699   5.513  15.089
24067DPPC   C1B 5625   4.439   5.543  16.169
24067DPPC   C2B 5626   4.589   5.583  15.799
24067DPPC   C3B 5627   4.889   5.683  15.489
24067DPPC   C4B 5628   5.179   5.653  15.109
24068DPPC   NC3 5629   6.649   6.583  19.959
24068DPPC   PO4 5630   6.659   6.213  19.779
24068DPPC   GL1 5631   6.829   6.243  19.369
24068DPPC   GL2 5632   7.109   6.163  19.589
24068DPPC   C1A 5633   6.909   6.163  18.979
24068DPPC   C2A 5634   7.029   6.243  18.619
24068DPPC   C3A 5635   7.269   6.163  18.189
24068DPPC   C4A 5636   7.549   6.173  17.789
24068DPPC   C1B 5637   7.469   6.083  19.459
24068DPPC   C2B 5638   7.759   5.863  19.229
24068DPPC   C3B 5639   7.939   5.783  18.769
24068DPPC   C4B 5640   8.249   5.803  18.349
24069DPPC   NC3 5641   4.349   4.273  17.049
24069DPPC   PO4 5642   4.299   4.643  17.079
24069DPPC   GL1 5643   4.729   4.753  16.849
24069DPPC   GL2 5644   4.599   4.503  16.739
24069DPPC   C1A 5645   4.869   5.003  16.539
24069DPPC   C2A 5646   5.119   5.013  16.159
24069DPPC   C3A 5647   5.299   4.973  15.719
24069DPPC   C4A 5648   5.569   4.993  15.289
24069DPPC   C1B 5649   4.819   4.463  16.449
24069DPPC   C2B 5650   5.129   4.443  16.159
24069DPPC   C3B 5651   5.339   4.463  15.779
24069DPPC   C4B 5652   5.639   4.473  15.439
24070DPPC   NC3 5653   8.169   0.091  20.639
24070DPPC   PO4 5654   7.979   6.303  20.649
24070DPPC   GL1 5655   8.089   6.193  20.309
24070DPPC   GL2 5656   7.859   6.013  20.249
24070DPPC   C1A 5657   8.429   6.343  20.209
24070DPPC   C2A 5658   8.759   6.333  19.929
24070DPPC   C3A 5659   9.009   6.273  19.529
24070DPPC   C4A 5660   9.299   6.313  19.069
24070DPPC   C1B 5661   7.929   5.743  19.979
24070DPPC   C2B 5662   7.939   5.623  19.609
24070DPPC   C3B 5663   8.239   5.623  19.159
24070DPPC   C4B 5664   8.549   5.653  18.859
24071DPPC   NC3 5665   5.199   6.123  18.179
24071DPPC   PO4 5666   5.259   5.713  18.229
24071DPPC   GL1 5667   5.499   5.523  17.969
24071DPPC   GL2 5668   5.439   5.283  17.919
24071DPPC   C1A 5669   5.639   5.573  17.669
24071DPPC   C2A 5670   5.779   5.533  17.309
24071DPPC   C3A 5671   6.089   5.463  16.939
24071DPPC   C4A 5672   6.289   5.433  16.529
24071DPPC   C1B 5673   5.599   5.113  17.679
24071DPPC   C2B 5674   5.799   4.963  17.379
24071DPPC   C3B 5675   6.149   4.903  17.009
24071DPPC   C4B 5676   6.429   4.853  16.619
24072DPPC   NC3 5677   5.639   4.933  18.419
24072DPPC   PO4 5678   5.469   4.733  18.169
24072DPPC   GL1 5679   5.779   4.583  18.129
24072DPPC   GL2 5680   5.909   4.333  18.149
24072DPPC   C1A 5681   5.909   4.803  17.839
24072DPPC   C2A 5682   6.269   4.773  17.599
24072DPPC   C3A 5683   6.569   4.763  17.189
24072DPPC   C4A 5684   6.849   4.713  16.809
24072DPPC   C1B 5685   6.109   4.211  17.869
24072DPPC   C2B 5686   6.349   4.253  17.519
24072DPPC   C3B 5687   6.649   4.211  17.179
24072DPPC   C4B 5688   6.969   4.181  16.729
24073DPPC   NC3 5689   5.829   2.101  18.649
24073DPPC   PO4 5690   5.949   2.481  18.539
24073DPPC   GL1 5691   5.779   2.641  18.179
24073DPPC   GL2 5692   5.999   2.841  18.239
24073DPPC   C1A 5693   5.869   2.521  17.849
24073DPPC   C2A 5694   6.199   2.411  17.599
24073DPPC   C3A 5695   6.429   2.401  17.169
24073DPPC   C4A 5696   6.709   2.451  16.789
24073DPPC   C1B 5697   6.269   2.841  18.049
24073DPPC   C2B 5698   6.559   2.811  17.789
24073DPPC   C3B 5699   6.829   2.741  17.429
24073DPPC   C4B 5700   7.059   2.691  17.049
24074DPPS   CNO 5701   3.929   6.433  16.929
24074DPPS   PO4 5702   4.239   0.061  16.839
24074DPPS   GL1 5703   4.469   0.101  16.539
24074DPPS   GL2 5704   4.539   0.331  16.499
24074DPPS   C1A 5705   4.689   6.513  16.279
24074DPPS   C2A 5706   4.979   6.483  15.969
24074DPPS   C3A 5707   5.309   6.473  15.609
24074DPPS   C4A 5708   5.519   6.433  15.239
24074DPPS   C1B 5709   4.759   0.331  16.269
24074DPPS   C2B 5710   5.029   0.391  15.969
24074DPPS   C3B 5711   5.269   0.351  15.529
24074DPPS   C4B 5712   5.579   0.321  15.079
24075DPPS   CNO 5713   3.689   3.321  16.319
24075DPPS   PO4 5714   3.939   3.521  16.519
24075DPPS   GL1 5715   4.379   3.401  16.519
24075DPPS   GL2 5716   4.359   3.551  16.769
24075DPPS   C1A 5717   4.719   3.241  16.429
24075DPPS   C2A 5718   4.899   3.131  16.049
24075DPPS   C3A 5719   5.189   3.101  15.659
24075DPPS   C4A 5720   5.519   3.181  15.269
24075DPPS   C1B 5721   4.659   3.821  16.639
24075DPPS   C2B 5722   4.969   3.971  16.419
24075DPPS   C3B 5723   5.279   3.951  16.059
24075DPPS   C4B 5724   5.619   3.971  15.609
24076DPPS   CNO 5725   4.359   2.411  16.499
24076DPPS   PO4 5726   4.319   2.681  16.739
24076DPPS   GL1 5727   4.689   2.751  16.559
24076DPPS   GL2 5728   4.509   2.841  16.339
24076DPPS   C1A 5729   4.969   2.651  16.339
24076DPPS   C2A 5730   5.159   2.671  15.939
24076DPPS   C3A 5731   5.389   2.641  15.529
24076DPPS   C4A 5732   5.699   2.691  15.149
24076DPPS   C1B 5733   4.619   2.741  16.019
24076DPPS   C2B 5734   4.739   2.811  15.639
24076DPPS   C3B 5735   5.009   2.831  15.279
24076DPPS   C4B 5736   5.269   2.871  14.889
24077DPPS   CNO 5737   3.989   1.081  16.549
24077DPPS   PO4 5738   4.159   1.421  16.419
24077DPPS   GL1 5739   4.429   1.441  16.119
24077DPPS   GL2 5740   4.659   1.621  16.249
24077DPPS   C1A 5741   4.699   1.251  15.929
24077DPPS   C2A 5742   5.059   1.311  15.669
24077DPPS   C3A 5743   5.279   1.381  15.279
24077DPPS   C4A 5744   5.559   1.411  14.839
24077DPPS   C1B 5745   5.019   1.551  16.159
24077DPPS   C2B 5746   5.349   1.621  15.949
24077DPPS   C3B 5747   5.649   1.681  15.559
24077DPPS   C4B 5748   5.909   1.661  15.139
24078DPPS   CNO 5749   6.559   0.541  19.689
24078DPPS   PO4 5750   6.879   0.771  19.579
24078DPPS   GL1 5751   7.009   1.171  19.499
24078DPPS   GL2 5752   6.799   1.181  19.269
24078DPPS   C1A 5753   7.299   1.251  19.289
24078DPPS   C2A 5754   7.549   1.281  18.929
24078DPPS   C3A 5755   7.839   1.161  18.569
24078DPPS   C4A 5756   8.049   1.171  18.109
24078DPPS   C1B 5757   7.029   1.001  18.989
24078DPPS   C2B 5758   7.289   0.951  18.669
24078DPPS   C3B 5759   7.529   0.911  18.249
24078DPPS   C4B 5760   7.759   0.831  17.809
24079DPPS   CNO 5761   4.549   3.971  17.539
24079DPPS   PO4 5762   4.919   4.001  17.489
24079DPPS   GL1 5763   5.099   4.071  17.159
24079DPPS   GL2 5764   5.109   3.851  16.959
24079DPPS   C1A 5765   5.189   4.473  17.159
24079DPPS   C2A 5766   5.539   4.673  17.039
24079DPPS   C3A 5767   5.829   4.623  16.699
24079DPPS   C4A 5768   6.089   4.633  16.259
24079DPPS   C1B 5769   5.419   3.881  16.779
24079DPPS   C2B 5770   5.609   3.771  16.439
24079DPPS   C3B 5771   5.869   3.761  16.039
24079DPPS   C4B 5772   6.109   3.751  15.629
24080DPPS   CNO 5773   5.599   0.381  18.959
24080DPPS   PO4 5774   5.969   0.321  18.959
24080DPPS   GL1 5775   6.159   0.441  18.549
24080DPPS   GL2 5776   6.289   0.211  18.619
24080DPPS   C1A 5777   6.199   0.581  18.219
24080DPPS   C2A 5778   6.329   0.451  17.859
24080DPPS   C3A 5779   6.589   0.411  17.459
24080DPPS   C4A 5780   6.859   0.431  17.069
24080DPPS   C1B 5781   6.609   0.321  18.429
24080DPPS   C2B 5782   6.799   0.281  18.059
24080DPPS   C3B 5783   7.039   0.241  17.569
24080DPPS   C4B 5784   7.349   0.211  17.139
24081DPPS   CNO 5785  12.759   1.581  21.199
24081DPPS   PO4 5786  12.509   1.271  21.179
24081DPPS   GL1 5787  12.579   0.941  20.839
24081DPPS   GL2 5788  12.439   0.781  20.999
24081DPPS   C1A 5789  12.379   0.961  20.549
24081DPPS   C2A 5790  12.159   1.021  20.209
24081DPPS   C3A 5791  11.709   1.201  20.049
24081DPPS   C4A 5792  11.229   1.271  19.979
24081DPPS   C1B 5793  12.149   0.561  20.849
24081DPPS   C2B 5794  11.769   0.621  20.669
24081DPPS   C3B 5795  11.539   0.841  20.369
24081DPPS   C4B 5796  11.119   0.741  20.119
24082DPPS   CNO 5797   8.039   0.241  21.109
24082DPPS   PO4 5798   8.129   0.531  20.909
24082DPPS   GL1 5799   8.309   0.611  20.509
24082DPPS   GL2 5800   8.449   0.381  20.429
24082DPPS   C1A 5801   8.509   0.861  20.289
24082DPPS   C2A 5802   8.649   0.771  19.909
24082DPPS   C3A 5803   8.809   0.721  19.459
24082DPPS   C4A 5804   9.049   0.661  19.079
24082DPPS   C1B 5805   8.619   0.351  20.119
24082DPPS   C2B 5806   8.799   0.221  19.759
24082DPPS   C3B 5807   8.979   0.121  19.259
24082DPPS   C4B 5808   9.199   0.181  18.799
24083DPPS   CNO 5809   6.109   4.273  19.539
24083DPPS   PO4 5810   6.349   4.553  19.549
24083DPPS   GL1 5811   6.669   4.723  19.229
24083DPPS   GL2 5812   6.519   4.683  19.019
24083DPPS   C1A 5813   6.949   4.693  19.019
24083DPPS   C2A 5814   7.189   4.633  18.729
24083DPPS   C3A 5815   7.399   4.703  18.349
24083DPPS   C4A 5816   7.709   4.653  17.939
24083DPPS   C1B 5817   6.709   4.493  18.729
24083DPPS   C2B 5818   6.949   4.383  18.329
24083DPPS   C3B 5819   7.269   4.353  17.909
24083DPPS   C4B 5820   7.549   4.303  17.539
24084DPPS   CNO 5821   5.899   6.123  19.349
24084DPPS   PO4 5822   6.019   5.733  19.379
24084DPPS   GL1 5823   6.349   5.503  19.209
24084DPPS   GL2 5824   6.529   5.673  19.349
24084DPPS   C1A 5825   6.569   5.263  18.949
24084DPPS   C2A 5826   6.859   5.043  18.789
24084DPPS   C3A 5827   7.189   5.113  18.469
24084DPPS   C4A 5828   7.489   5.123  18.089
24084DPPS   C1B 5829   6.799   5.783  19.139
24084DPPS   C2B 5830   6.909   5.723  18.799
24084DPPS   C3B 5831   7.239   5.663  18.449
24084DPPS   C4B 5832   7.449   5.703  17.999
24085DPPS   CNO 5833   4.899   6.583  18.039
24085DPPS   PO4 5834   5.269   0.021  18.159
24085DPPS   GL1 5835   5.409   6.413  17.789
24085DPPS   GL2 5836   5.689   6.453  17.909
24085DPPS   C1A 5837   5.609   6.443  17.489
24085DPPS   C2A 5838   5.779   6.383  17.099
24085DPPS   C3A 5839   6.069   6.373  16.759
24085DPPS   C4A 5840   6.359   6.323  16.339
24085DPPS   C1B 5841   5.989   0.091  17.769
24085DPPS   C2B 5842   6.169   0.151  17.409
24085DPPS   C3B 5843   6.419   0.191  17.029
24085DPPS   C4B 5844   6.599   0.151  16.599
24086DPPS   CNO 5845   4.919   0.851  17.269
24086DPPS   PO4 5846   4.779   1.081  17.059
24086DPPS   GL1 5847   4.989   1.271  16.759
24086DPPS   GL2 5848   4.899   1.571  16.749
24086DPPS   C1A 5849   5.149   1.161  16.439
24086DPPS   C2A 5850   5.309   1.141  16.099
24086DPPS   C3A 5851   5.549   1.121  15.719
24086DPPS   C4A 5852   5.799   1.231  15.339
24086DPPS   C1B 5853   5.149   1.821  16.609
24086DPPS   C2B 5854   5.429   1.951  16.329
24086DPPS   C3B 5855   5.729   1.981  15.949
24086DPPS   C4B 5856   6.109   2.001  15.599
24087DPPS   CNO 5857   5.609   5.493  19.069
24087DPPS   PO4 5858   5.659   5.243  18.799
24087DPPS   GL1 5859   5.879   5.433  18.489
24087DPPS   GL2 5860   5.689   5.383  18.319
24087DPPS   C1A 5861   6.199   5.613  18.389
24087DPPS   C2A 5862   6.419   5.593  18.039
24087DPPS   C3A 5863   6.659   5.563  17.629
24087DPPS   C4A 5864   6.949   5.523  17.199
24087DPPS   C1B 5865   5.889   5.343  18.019
24087DPPS   C2B 5866   6.059   5.293  17.699
24087DPPS   C3B 5867   6.359   5.283  17.349
24087DPPS   C4B 5868   6.569   5.213  16.899
24088DPPS   CNO 5869   3.589   0.451  16.329
24088DPPS   PO4 5870   3.839   0.731  16.199
24088DPPS   GL1 5871   4.269   0.501  16.049
24088DPPS   GL2 5872   4.079   0.621  15.889
24088DPPS   C1A 5873   4.589   0.501  15.819
24088DPPS   C2A 5874   4.809   0.541  15.449
24088DPPS   C3A 5875   5.099   0.521  15.029
24088DPPS   C4A 5876   5.379   0.631  14.669
24088DPPS   C1B 5877   4.219   0.641  15.509
24088DPPS   C2B 5878   4.309   0.691  15.119
24088DPPS   C3B 5879   4.649   0.691  14.809
24088DPPS   C4B 5880   4.969   0.681  14.419
24089DPPS   CNO 5881   5.059   0.871  18.299
24089DPPS   PO4 5882   5.449   0.951  18.229
24089DPPS   GL1 5883   5.529   0.921  17.849
24089DPPS   GL2 5884   5.319   0.831  17.749
24089DPPS   C1A 5885   5.799   1.031  17.629
24089DPPS   C2A 5886   6.039   1.131  17.269
24089DPPS   C3A 5887   6.369   1.131  16.929
24089DPPS   C4A 5888   6.589   1.141  16.519
24089DPPS   C1B 5889   5.449   0.791  17.389
24089DPPS   C2B 5890   5.699   0.761  17.049
24089DPPS   C3B 5891   6.049   0.841  16.699
24089DPPS   C4B 5892   6.289   0.751  16.349
24090DPPS   CNO 5893   7.599   0.621  20.659
24090DPPS   PO4 5894   7.869   0.471  20.429
24090DPPS   GL1 5895   7.749   0.421  20.009
24090DPPS   GL2 5896   7.759   0.691  19.939
24090DPPS   C1A 5897   7.929   0.221  19.739
24090DPPS   C2A 5898   8.079   0.051  19.329
24090DPPS   C3A 5899   8.279   0.031  18.919
24090DPPS   C4A 5900   8.549   6.573  18.499
24090DPPS   C1B 5901   7.919   0.691  19.639
24090DPPS   C2B 5902   7.999   0.561  19.229
24090DPPS   C3B 5903   8.229   0.521  18.799
24090DPPS   C4B 5904   8.469   0.531  18.359
24091DPPS   CNO 5905   6.969   0.171  20.299
24091DPPS   PO4 5906   7.139   6.513  20.119
24091DPPS   GL1 5907   7.459   0.111  19.879
24091DPPS   GL2 5908   7.449   6.493  19.749
24091DPPS   C1A 5909   7.519   0.351  19.629
24091DPPS   C2A 5910   7.539   0.261  19.209
24091DPPS   C3A 5911   7.789   0.171  18.779
24091DPPS   C4A 5912   8.059   0.181  18.419
24091DPPS   C1B 5913   7.639   6.513  19.469
24091DPPS   C2B 5914   7.759   6.363  19.119
24091DPPS   C3B 5915   7.939   6.313  18.639
24091DPPS   C4B 5916   8.259   6.313  18.249
24092DPPS   CNO 5917   4.029   2.271  16.889
24092DPPS   PO4 5918   4.369   2.131  16.909
24092DPPS   GL1 5919   4.749   2.271  16.589
24092DPPS   GL2 5920   4.739   1.971  16.589
24092DPPS   C1A 5921   4.699   2.341  16.219
24092DPPS   C2A 5922   4.679   2.281  15.779
24092DPPS   C3A 5923   5.019   2.321  15.459
24092DPPS   C4A 5924   5.349   2.371  15.099
24092DPPS   C1B 5925   4.949   1.961  16.229
24092DPPS   C2B 5926   5.219   2.101  15.929
24092DPPS   C3B 5927   5.479   2.161  15.529
24092DPPS   C4B 5928   5.829   2.161  15.169
24093DPPS   CNO 5929   8.189   5.413  21.099
24093DPPS   PO4 5930   7.959   5.313  20.839
24093DPPS   GL1 5931   8.069   5.173  20.519
24093DPPS   GL2 5932   7.959   5.333  20.279
24093DPPS   C1A 5933   8.209   4.843  20.379
24093DPPS   C2A 5934   8.419   4.963  20.049
24093DPPS   C3A 5935   8.619   4.903  19.619
24093DPPS   C4A 5936   8.939   4.953  19.189
24093DPPS   C1B 5937   8.219   5.363  20.049
24093DPPS   C2B 5938   8.459   5.493  19.759
24093DPPS   C3B 5939   8.739   5.403  19.379
24093DPPS   C4B 5940   9.069   5.573  18.989
24094DPPS   CNO 5941   5.329   2.081  18.539
24094DPPS   PO4 5942   5.469   1.761  18.349
24094DPPS   GL1 5943   5.819   1.691  18.349
24094DPPS   GL2 5944   5.969   1.501  18.349
24094DPPS   C1A 5945   5.939   1.791  17.999
24094DPPS   C2A 5946   6.149   1.881  17.679
24094DPPS   C3A 5947   6.449   1.871  17.309
24094DPPS   C4A 5948   6.729   1.981  16.899
24094DPPS   C1B 5949   6.199   1.441  18.059
24094DPPS   C2B 5950   6.259   1.401  17.629
24094DPPS   C3B 5951   6.539   1.401  17.269
24094DPPS   C4B 5952   6.769   1.501  16.829
24095DPPS   CNO 5953   4.279   4.963  17.539
24095DPPS   PO4 5954   4.659   4.873  17.619
24095DPPS   GL1 5955   4.909   4.913  17.279
24095DPPS   GL2 5956   5.139   5.013  17.379
24095DPPS   C1A 5957   5.099   4.853  16.959
24095DPPS   C2A 5958   5.319   4.753  16.609
24095DPPS   C3A 5959   5.549   4.713  16.189
24095DPPS   C4A 5960   5.779   4.773  15.819
24095DPPS   C1B 5961   5.379   5.263  17.239
24095DPPS   C2B 5962   5.639   5.173  16.899
24095DPPS   C3B 5963   5.929   5.073  16.529
24095DPPS   C4B 5964   6.209   5.083  16.129
24096DPPS   CNO 5965   7.719   4.533  21.299
24096DPPS   PO4 5966   7.779   4.253  21.029
24096DPPS   GL1 5967   8.179   4.333  20.889
24096DPPS   GL2 5968   8.229   4.081  20.749
24096DPPS   C1A 5969   8.279   4.483  20.639
24096DPPS   C2A 5970   8.369   4.433  20.229
24096DPPS   C3A 5971   8.599   4.493  19.819
24096DPPS   C4A 5972   8.769   4.503  19.399
24096DPPS   C1B 5973   8.509   3.951  20.549
24096DPPS   C2B 5974   8.859   3.961  20.339
24096DPPS   C3B 5975   9.149   3.851  19.969
24096DPPS   C4B 5976   9.409   3.851  19.539
24097DPPS   CNO 5977   7.719   2.551  21.179
24097DPPS   PO4 5978   8.069   2.491  21.009
24097DPPS   GL1 5979   8.179   2.211  20.749
24097DPPS   GL2 5980   8.009   2.301  20.499
24097DPPS   C1A 5981   8.539   2.091  20.599
24097DPPS   C2A 5982   8.809   2.021  20.299
24097DPPS   C3A 5983   8.969   2.001  19.849
24097DPPS   C4A 5984   9.129   2.001  19.449
24097DPPS   C1B 5985   8.249   2.261  20.179
24097DPPS   C2B 5986   8.469   2.251  19.779
24097DPPS   C3B 5987   8.679   2.211  19.389
24097DPPS   C4B 5988   8.909   2.251  18.949
24098DPPS   CNO 5989   4.149   3.581  17.419
24098DPPS   PO4 5990   4.279   3.801  17.149
24098DPPS   GL1 5991   4.659   3.881  17.079
24098DPPS   GL2 5992   4.749   3.591  16.989
24098DPPS   C1A 5993   4.799   4.181  16.859
24098DPPS   C2A 5994   5.179   4.303  16.729
24098DPPS   C3A 5995   5.519   4.233  16.429
24098DPPS   C4A 5996   5.809   4.273  15.979
24098DPPS   C1B 5997   4.989   3.571  16.669
24098DPPS   C2B 5998   5.089   3.521  16.349
24098DPPS   C3B 5999   5.389   3.481  15.989
24098DPPS   C4B 6000   5.689   3.451  15.619
24099DPPC   NC3 6001   8.019   3.111  13.989
24099DPPC   PO4 6002   7.649   3.071  14.139
24099DPPC   GL1 6003   7.299   2.881  14.449
24099DPPC   GL2 6004   7.499   2.671  14.429
24099DPPC   C1A 6005   7.019   2.831  14.719
24099DPPC   C2A 6006   6.759   2.781  15.049
24099DPPC   C3A 6007   6.559   2.751  15.449
24099DPPC   C4A 6008   6.249   2.891  15.829
24099DPPC   C1B 6009   7.539   2.611  14.789
24099DPPC   C2B 6010   7.289   2.551  15.099
24099DPPC   C3B 6011   7.039   2.661  15.519
24099DPPC   C4B 6012   6.719   2.561  15.879
24100DPPC   NC3 6013   8.689   1.801  14.859
24100DPPC   PO4 6014   8.389   2.061  14.849
24100DPPC   GL1 6015   8.069   1.981  15.099
24100DPPC   GL2 6016   7.989   1.811  14.889
24100DPPC   C1A 6017   7.849   1.881  15.349
24100DPPC   C2A 6018   7.569   1.901  15.669
24100DPPC   C3A 6019   7.259   1.941  16.049
24100DPPC   C4A 6020   6.959   1.941  16.439
24100DPPC   C1B 6021   7.739   1.571  14.989
24100DPPC   C2B 6022   7.429   1.521  15.279
24100DPPC   C3B 6023   7.149   1.571  15.669
24100DPPC   C4B 6024   6.879   1.591  16.079
24101DPPC   NC3 6025   9.449   5.153  15.859
24101DPPC   PO4 6026   9.139   4.943  16.039
24101DPPC   GL1 6027   8.809   4.703  15.919
24101DPPC   GL2 6028   8.599   4.823  15.789
24101DPPC   C1A 6029   8.689   4.623  16.289
24101DPPC   C2A 6030   8.469   4.533  16.669
24101DPPC   C3A 6031   8.199   4.623  17.069
24101DPPC   C4A 6032   7.959   4.553  17.509
24101DPPC   C1B 6033   8.329   4.703  16.009
24101DPPC   C2B 6034   8.099   4.743  16.359
24101DPPC   C3B 6035   7.849   4.783  16.749
24101DPPC   C4B 6036   7.559   4.793  17.149
24102DPPC   NC3 6037  10.899   5.383  16.999
24102DPPC   PO4 6038  10.629   5.113  17.129
24102DPPC   GL1 6039  10.449   5.263  17.449
24102DPPC   GL2 6040  10.389   5.033  17.559
24102DPPC   C1A 6041  10.229   5.533  17.659
24102DPPC   C2A 6042  10.029   5.723  17.979
24102DPPC   C3A 6043   9.799   5.803  18.389
24102DPPC   C4A 6044   9.499   5.773  18.809
24102DPPC   C1B 6045  10.119   5.123  17.809
24102DPPC   C2B 6046   9.939   5.253  18.169
24102DPPC   C3B 6047   9.729   5.183  18.579
24102DPPC   C4B 6048   9.469   5.263  18.989
24103DPPC   NC3 6049  10.789   2.031  17.299
24103DPPC   PO4 6050  11.059   2.121  17.609
24103DPPC   GL1 6051  10.839   2.101  17.919
24103DPPC   GL2 6052  10.689   2.271  17.749
24103DPPC   C1A 6053  10.549   2.171  18.139
24103DPPC   C2A 6054  10.349   2.311  18.469
24103DPPC   C3A 6055   9.999   2.251  18.889
24103DPPC   C4A 6056   9.809   2.301  19.359
24103DPPC   C1B 6057  10.369   2.401  17.839
24103DPPC   C2B 6058  10.059   2.431  18.099
24103DPPC   C3B 6059   9.769   2.421  18.449
24103DPPC   C4B 6060   9.459   2.481  18.859
24104DPPC   NC3 6061  10.639   2.881  17.609
24104DPPC   PO4 6062  10.639   2.561  17.369
24104DPPC   GL1 6063  10.159   2.481  17.409
24104DPPC   GL2 6064  10.169   2.781  17.459
24104DPPC   C1A 6065   9.859   2.501  17.699
24104DPPC   C2A 6066   9.569   2.511  17.979
24104DPPC   C3A 6067   9.309   2.571  18.379
24104DPPC   C4A 6068   8.999   2.691  18.739
24104DPPC   C1B 6069  10.109   2.871  17.819
24104DPPC   C2B 6070   9.819   2.921  18.109
24104DPPC   C3B 6071   9.639   2.921  18.499
24104DPPC   C4B 6072   9.419   2.931  18.949
24105DPPC   NC3 6073  10.579   1.301  16.239
24105DPPC   PO4 6074  10.239   1.391  16.489
24105DPPC   GL1 6075  10.229   1.271  16.939
24105DPPC   GL2 6076   9.929   1.381  16.919
24105DPPC   C1A 6077  10.279   1.221  17.279
24105DPPC   C2A 6078  10.039   1.161  17.639
24105DPPC   C3A 6079   9.799   1.131  18.039
24105DPPC   C4A 6080   9.439   1.081  18.429
24105DPPC   C1B 6081   9.749   1.301  17.219
24105DPPC   C2B 6082   9.529   1.231  17.549
24105DPPC   C3B 6083   9.209   1.221  17.899
24105DPPC   C4B 6084   8.929   1.251  18.369
24106DPPC   NC3 6085   6.619   4.563  13.139
24106DPPC   PO4 6086   6.559   4.833  12.819
24106DPPC   GL1 6087   6.209   4.963  13.009
24106DPPC   GL2 6088   6.029   4.903  12.759
24106DPPC   C1A 6089   6.109   4.753  13.339
24106DPPC   C2A 6090   5.919   4.793  13.669
24106DPPC   C3A 6091   5.569   4.823  13.979
24106DPPC   C4A 6092   5.319   4.833  14.459
24106DPPC   C1B 6093   5.809   4.893  13.009
24106DPPC   C2B 6094   5.509   4.943  13.249
24106DPPC   C3B 6095   5.249   4.993  13.649
24106DPPC   C4B 6096   4.959   5.073  14.039
24107DPPC   NC3 6097   7.989   0.301  14.339
24107DPPC   PO4 6098   7.739   0.071  14.179
24107DPPC   GL1 6099   7.309   0.001  14.299
24107DPPC   GL2 6100   7.499   6.453  14.499
24107DPPC   C1A 6101   7.059   6.593  14.499
24107DPPC   C2A 6102   6.809   6.573  14.829
24107DPPC   C3A 6103   6.629   6.533  15.279
24107DPPC   C4A 6104   6.309   6.553  15.699
24107DPPC   C1B 6105   7.429   6.423  14.829
24107DPPC   C2B 6106   7.209   6.383  15.169
24107DPPC   C3B 6107   6.969   6.363  15.559
24107DPPC   C4B 6108   6.669   6.333  15.939
24108DPPC   NC3 6109   7.949   4.393  14.419
24108DPPC   PO4 6110   8.279   4.231  14.589
24108DPPC   GL1 6111   8.139   4.021  14.899
24108DPPC   GL2 6112   7.899   3.971  14.849
24108DPPC   C1A 6113   8.029   4.161  15.189
24108DPPC   C2A 6114   7.799   4.231  15.489
24108DPPC   C3A 6115   7.499   4.211  15.859
24108DPPC   C4A 6116   7.159   4.131  16.209
24108DPPC   C1B 6117   7.659   3.931  15.139
24108DPPC   C2B 6118   7.359   3.941  15.409
24108DPPC   C3B 6119   7.089   3.851  15.789
24108DPPC   C4B 6120   6.789   3.831  16.209
24109DPPC   NC3 6121   7.419   5.803  12.909
24109DPPC   PO4 6122   7.459   5.743  13.299
24109DPPC   GL1 6123   7.069   5.833  13.459
24109DPPC   GL2 6124   7.199   6.073  13.579
24109DPPC   C1A 6125   6.839   5.723  13.669
24109DPPC   C2A 6126   6.749   5.553  13.989
24109DPPC   C3A 6127   6.389   5.373  14.329
24109DPPC   C4A 6128   6.079   5.493  14.719
24109DPPC   C1B 6129   7.049   6.193  13.899
24109DPPC   C2B 6130   6.879   6.293  14.239
24109DPPC   C3B 6131   6.529   6.263  14.539
24109DPPC   C4B 6132   6.269   6.273  14.969
24110DPPC   NC3 6133   8.169   6.013  14.799
24110DPPC   PO4 6134   8.359   6.323  14.909
24110DPPC   GL1 6135   8.189   6.283  15.229
24110DPPC   GL2 6136   8.029   6.003  15.259
24110DPPC   C1A 6137   8.149   6.503  15.509
24110DPPC   C2A 6138   7.849   6.483  15.809
24110DPPC   C3A 6139   7.629   6.543  16.179
24110DPPC   C4A 6140   7.349   6.473  16.519
24110DPPC   C1B 6141   7.899   6.013  15.559
24110DPPC   C2B 6142   7.759   5.963  15.919
24110DPPC   C3B 6143   7.509   6.003  16.299
24110DPPC   C4B 6144   7.229   5.983  16.689
24111DPPC   NC3 6145   8.069   1.691  14.419
24111DPPC   PO4 6146   8.309   1.531  14.679
24111DPPC   GL1 6147   8.169   1.381  15.079
24111DPPC   GL2 6148   8.349   1.651  15.089
24111DPPC   C1A 6149   7.909   1.371  15.379
24111DPPC   C2A 6150   7.629   1.411  15.709
24111DPPC   C3A 6151   7.389   1.351  16.089
24111DPPC   C4A 6152   7.049   1.361  16.419
24111DPPC   C1B 6153   8.309   1.761  15.389
24111DPPC   C2B 6154   8.109   1.601  15.749
24111DPPC   C3B 6155   7.819   1.641  16.169
24111DPPC   C4B 6156   7.449   1.651  16.489
24112DPPC   NC3 6157   6.679   1.061  12.459
24112DPPC   PO4 6158   6.669   1.471  12.459
24112DPPC   GL1 6159   6.409   1.761  12.719
24112DPPC   GL2 6160   6.199   1.611  12.759
24112DPPC   C1A 6161   6.379   1.921  13.099
24112DPPC   C2A 6162   6.109   1.951  13.389
24112DPPC   C3A 6163   5.799   1.971  13.769
24112DPPC   C4A 6164   5.549   2.021  14.139
24112DPPC   C1B 6165   5.929   1.581  13.009
24112DPPC   C2B 6166   5.579   1.661  13.269
24112DPPC   C3B 6167   5.289   1.711  13.699
24112DPPC   C4B 6168   5.029   1.741  14.149
24113DPPC   NC3 6169   7.749   0.971  13.859
24113DPPC   PO4 6170   7.689   0.611  13.959
24113DPPC   GL1 6171   7.469   0.411  14.289
24113DPPC   GL2 6172   7.259   0.371  14.079
24113DPPC   C1A 6173   7.219   0.391  14.549
24113DPPC   C2A 6174   6.849   0.481  14.789
24113DPPC   C3A 6175   6.569   0.451  15.199
24113DPPC   C4A 6176   6.189   0.461  15.509
24113DPPC   C1B 6177   6.939   0.241  14.139
24113DPPC   C2B 6178   6.609   0.141  14.429
24113DPPC   C3B 6179   6.349   0.181  14.889
24113DPPC   C4B 6180   6.019   0.041  15.169
24114DPPC   NC3 6181   7.589   3.561  13.239
24114DPPC   PO4 6182   7.319   3.341  13.479
24114DPPC   GL1 6183   6.959   3.411  13.649
24114DPPC   GL2 6184   7.029   3.601  13.869
24114DPPC   C1A 6185   6.669   3.251  13.819
24114DPPC   C2A 6186   6.399   3.121  14.099
24114DPPC   C3A 6187   6.119   3.101  14.489
24114DPPC   C4A 6188   5.809   3.071  14.839
24114DPPC   C1B 6189   6.859   3.491  14.169
24114DPPC   C2B 6190   6.589   3.421  14.439
24114DPPC   C3B 6191   6.259   3.401  14.809
24114DPPC   C4B 6192   5.969   3.431  15.189
24115DPPC   NC3 6193  10.449   4.353  17.389
24115DPPC   PO4 6194  10.259   4.273  17.069
24115DPPC   GL1 6195   9.869   4.091  17.149
24115DPPC   GL2 6196   9.739   4.161  16.909
24115DPPC   C1A 6197   9.649   4.141  17.459
24115DPPC   C2A 6198   9.369   4.111  17.789
24115DPPC   C3A 6199   9.109   4.121  18.189
24115DPPC   C4A 6200   8.869   4.131  18.609
24115DPPC   C1B 6201   9.339   4.161  16.979
24115DPPC   C2B 6202   9.159   4.283  17.299
24115DPPC   C3B 6203   8.909   4.273  17.669
24115DPPC   C4B 6204   8.659   4.293  18.099
24116DPPC   NC3 6205   8.699   2.841  15.069
24116DPPC   PO4 6206   8.399   2.681  14.859
24116DPPC   GL1 6207   8.159   2.941  14.939
24116DPPC   GL2 6208   8.219   2.931  15.219
24116DPPC   C1A 6209   7.799   3.011  15.079
24116DPPC   C2A 6210   7.579   2.901  15.399
24116DPPC   C3A 6211   7.299   2.931  15.769
24116DPPC   C4A 6212   7.009   2.861  16.149
24116DPPC   C1B 6213   8.039   2.781  15.489
24116DPPC   C2B 6214   7.829   2.661  15.819
24116DPPC   C3B 6215   7.529   2.681  16.199
24116DPPC   C4B 6216   7.329   2.611  16.619
24117DPPC   NC3 6217   7.289   0.661  13.239
24117DPPC   PO4 6218   7.529   0.921  13.419
24117DPPC   GL1 6219   7.299   1.221  13.629
24117DPPC   GL2 6220   7.519   1.361  13.779
24117DPPC   C1A 6221   6.979   1.141  13.809
24117DPPC   C2A 6222   6.769   1.181  14.159
24117DPPC   C3A 6223   6.429   1.141  14.519
24117DPPC   C4A 6224   6.129   1.071  14.869
24117DPPC   C1B 6225   7.309   1.311  14.099
24117DPPC   C2B 6226   7.119   1.431  14.419
24117DPPC   C3B 6227   6.779   1.421  14.739
24117DPPC   C4B 6228   6.479   1.431  15.169
24118DPPC   NC3 6229   9.489   0.291  15.359
24118DPPC   PO4 6230   9.349   0.231  15.729
24118DPPC   GL1 6231   8.949   0.151  15.939
24118DPPC   GL2 6232   9.039   0.291  16.149
24118DPPC   C1A 6233   8.689   6.593  16.099
24118DPPC   C2A 6234   8.449   6.543  16.449
24118DPPC   C3A 6235   8.129   6.553  16.829
24118DPPC   C4A 6236   7.829   0.011  17.199
24118DPPC   C1B 6237   8.859   0.271  16.419
24118DPPC   C2B 6238   8.619   0.311  16.729
24118DPPC   C3B 6239   8.339   0.281  17.129
24118DPPC   C4B 6240   8.059   0.311  17.559
24119DPPC   NC3 6241   8.879   6.123  14.969
24119DPPC   PO4 6242   8.569   5.903  15.109
24119DPPC   GL1 6243   8.469   5.973  15.549
24119DPPC   GL2 6244   8.359   5.733  15.549
24119DPPC   C1A 6245   8.349   6.173  15.829
24119DPPC   C2A 6246   8.129   6.263  16.139
24119DPPC   C3A 6247   7.859   6.243  16.519
24119DPPC   C4A 6248   7.609   6.293  16.879
24119DPPC   C1B 6249   8.069   5.543  15.519
24119DPPC   C2B 6250   7.909   5.483  15.879
24119DPPC   C3B 6251   7.629   5.473  16.259
24119DPPC   C4B 6252   7.299   5.493  16.679
24120DPPC   NC3 6253   7.979   2.611  13.289
24120DPPC   PO4 6254   7.829   2.801  13.629
24120DPPC   GL1 6255   7.459   2.751  13.869
24120DPPC   GL2 6256   7.299   2.881  13.669
24120DPPC   C1A 6257   7.159   2.681  14.099
24120DPPC   C2A 6258   6.879   2.531  14.389
24120DPPC   C3A 6259   6.599   2.391  14.719
24120DPPC   C4A 6260   6.279   2.431  15.119
24120DPPC   C1B 6261   7.089   3.061  13.929
24120DPPC   C2B 6262   6.889   3.071  14.289
24120DPPC   C3B 6263   6.599   2.981  14.639
24120DPPC   C4B 6264   6.269   2.901  15.029
24121DPPC   NC3 6265  11.039   5.883  17.629
24121DPPC   PO4 6266  10.909   5.523  17.459
24121DPPC   GL1 6267  10.649   5.353  17.809
24121DPPC   GL2 6268  10.879   5.353  17.909
24121DPPC   C1A 6269  10.439   5.353  18.099
24121DPPC   C2A 6270  10.229   5.533  18.439
24121DPPC   C3A 6271   9.939   5.583  18.849
24121DPPC   C4A 6272   9.739   5.653  19.299
24121DPPC   C1B 6273  10.939   5.243  18.269
24121DPPC   C2B 6274  10.689   5.263  18.579
24121DPPC   C3B 6275  10.449   5.393  18.939
24121DPPC   C4B 6276  10.229   5.473  19.359
24122DPPC   NC3 6277   8.939   5.153  15.179
24122DPPC   PO4 6278   8.619   4.933  15.299
24122DPPC   GL1 6279   8.249   4.953  15.409
24122DPPC   GL2 6280   8.189   5.163  15.349
24122DPPC   C1A 6281   8.159   5.023  15.739
24122DPPC   C2A 6282   7.839   5.003  15.959
24122DPPC   C3A 6283   7.589   5.003  16.369
24122DPPC   C4A 6284   7.259   5.023  16.739
24122DPPC   C1B 6285   7.839   5.143  15.469
24122DPPC   C2B 6286   7.479   5.273  15.729
24122DPPC   C3B 6287   7.199   5.213  16.129
24122DPPC   C4B 6288   6.829   5.153  16.469
24123DPPC   NC3 6289   9.529   0.501  16.159
24123DPPC   PO4 6290   9.529   0.121  16.199
24123DPPC   GL1 6291   9.389   6.423  16.399
24123DPPC   GL2 6292   9.099   6.443  16.359
24123DPPC   C1A 6293   9.519   6.553  16.719
24123DPPC   C2A 6294   9.409   6.503  17.099
24123DPPC   C3A 6295   9.109   6.563  17.569
24123DPPC   C4A 6296   8.839   6.553  17.999
24123DPPC   C1B 6297   8.879   6.433  16.619
24123DPPC   C2B 6298   8.629   6.383  16.909
24123DPPC   C3B 6299   8.339   6.403  17.309
24123DPPC   C4B 6300   8.049   6.413  17.689
24124DPPC   NC3 6301   9.729   1.051  16.109
24124DPPC   PO4 6302   9.729   1.261  16.429
24124DPPC   GL1 6303   9.439   1.201  16.739
24124DPPC   GL2 6304   9.249   1.421  16.569
24124DPPC   C1A 6305   9.359   0.991  17.029
24124DPPC   C2A 6306   9.199   0.911  17.359
24124DPPC   C3A 6307   8.859   0.911  17.689
24124DPPC   C4A 6308   8.569   0.971  18.079
24124DPPC   C1B 6309   9.039   1.641  16.769
24124DPPC   C2B 6310   8.799   1.631  17.089
24124DPPC   C3B 6311   8.549   1.641  17.439
24124DPPC   C4B 6312   8.159   1.611  17.759
24125DPPC   NC3 6313   8.039   6.323  14.029
24125DPPC   PO4 6314   8.169   6.423  14.429
24125DPPC   GL1 6315   7.879   0.021  14.759
24125DPPC   GL2 6316   7.849   6.383  14.869
24125DPPC   C1A 6317   7.599   0.271  14.779
24125DPPC   C2A 6318   7.279   0.271  14.999
24125DPPC   C3A 6319   7.019   0.231  15.319
24125DPPC   C4A 6320   6.749   0.191  15.699
24125DPPC   C1B 6321   7.669   6.303  15.229
24125DPPC   C2B 6322   7.449   6.213  15.599
24125DPPC   C3B 6323   7.129   6.133  16.039
24125DPPC   C4B 6324   6.859   6.243  16.469
24126DPPC   NC3 6325  10.619   0.281  16.529
24126DPPC   PO4 6326  10.289   0.511  16.539
24126DPPC   GL1 6327  10.049   0.491  16.779
24126DPPC   GL2 6328   9.849   0.311  16.619
24126DPPC   C1A 6329   9.899   0.481  17.079
24126DPPC   C2A 6330  10.099   0.351  17.429
24126DPPC   C3A 6331   9.959   0.121  17.839
24126DPPC   C4A 6332   9.669   0.151  18.209
24126DPPC   C1B 6333   9.569   0.331  16.859
24126DPPC   C2B 6334   9.349   0.411  17.149
24126DPPC   C3B 6335   9.079   0.511  17.609
24126DPPC   C4B 6336   8.709   0.471  17.949
24127DPPC   NC3 6337   9.219   6.413  15.919
24127DPPC   PO4 6338   9.159   6.093  16.129
24127DPPC   GL1 6339   8.919   5.873  16.349
24127DPPC   GL2 6340   8.719   5.723  16.169
24127DPPC   C1A 6341   8.859   5.873  16.719
24127DPPC   C2A 6342   8.609   5.843  17.039
24127DPPC   C3A 6343   8.309   5.933  17.429
24127DPPC   C4A 6344   8.039   5.913  17.809
24127DPPC   C1B 6345   8.499   5.553  16.379
24127DPPC   C2B 6346   8.279   5.583  16.759
24127DPPC   C3B 6347   7.969   5.633  17.169
24127DPPC   C4B 6348   7.659   5.583  17.559
24128DPPC   NC3 6349   8.029   3.801  14.459
24128DPPC   PO4 6350   8.339   3.661  14.749
24128DPPC   GL1 6351   8.229   3.661  15.099
24128DPPC   GL2 6352   8.219   3.361  15.069
24128DPPC   C1A 6353   7.989   3.811  15.389
24128DPPC   C2A 6354   7.739   3.721  15.709
24128DPPC   C3A 6355   7.449   3.701  16.119
24128DPPC   C4A 6356   7.129   3.741  16.559
24128DPPC   C1B 6357   8.009   3.301  15.429
24128DPPC   C2B 6358   7.809   3.251  15.759
24128DPPC   C3B 6359   7.509   3.221  16.159
24128DPPC   C4B 6360   7.269   3.111  16.569
24129DPPC   NC3 6361  11.099   0.971  17.409
24129DPPC   PO4 6362  11.249   1.241  17.609
24129DPPC   GL1 6363  10.969   1.251  17.959
24129DPPC   GL2 6364  10.819   0.981  17.759
24129DPPC   C1A 6365  10.749   1.321  18.169
24129DPPC   C2A 6366  10.439   1.261  18.489
24129DPPC   C3A 6367  10.139   1.281  18.919
24129DPPC   C4A 6368   9.869   1.171  19.299
24129DPPC   C1B 6369  10.559   0.901  17.919
24129DPPC   C2B 6370  10.229   0.951  18.139
24129DPPC   C3B 6371   9.909   0.971  18.529
24129DPPC   C4B 6372   9.609   0.871  18.859
24130DPPC   NC3 6373   7.609   4.303  13.729
24130DPPC   PO4 6374   7.669   4.523  14.039
24130DPPC   GL1 6375   7.229   4.413  14.259
24130DPPC   GL2 6376   7.429   4.553  14.499
24130DPPC   C1A 6377   6.979   4.343  14.499
24130DPPC   C2A 6378   6.739   4.323  14.859
24130DPPC   C3A 6379   6.419   4.243  15.199
24130DPPC   C4A 6380   6.109   4.263  15.559
24130DPPC   C1B 6381   7.269   4.583  14.869
24130DPPC   C2B 6382   6.949   4.683  15.179
24130DPPC   C3B 6383   6.629   4.643  15.489
24130DPPC   C4B 6384   6.339   4.593  15.849
24131DPPC   NC3 6385   8.379   0.191  14.689
24131DPPC   PO4 6386   8.389   0.621  14.749
24131DPPC   GL1 6387   8.239   0.861  15.089
24131DPPC   GL2 6388   8.389   1.001  15.209
24131DPPC   C1A 6389   8.029   0.761  15.319
24131DPPC   C2A 6390   7.789   0.781  15.659
24131DPPC   C3A 6391   7.479   0.851  16.009
24131DPPC   C4A 6392   7.249   0.901  16.419
24131DPPC   C1B 6393   8.189   1.091  15.539
24131DPPC   C2B 6394   7.999   1.151  15.909
24131DPPC   C3B 6395   7.759   1.121  16.379
24131DPPC   C4B 6396   7.479   1.221  16.759
24132DPPC   NC3 6397   9.119   3.641  15.239
24132DPPC   PO4 6398   9.049   3.231  15.279
24132DPPC   GL1 6399   8.759   3.081  15.559
24132DPPC   GL2 6400   8.509   3.161  15.409
24132DPPC   C1A 6401   8.749   2.911  15.869
24132DPPC   C2A 6402   8.569   2.781  16.229
24132DPPC   C3A 6403   8.279   2.741  16.609
24132DPPC   C4A 6404   7.949   2.751  16.949
24132DPPC   C1B 6405   8.259   3.081  15.719
24132DPPC   C2B 6406   8.059   3.031  16.129
24132DPPC   C3B 6407   7.789   3.001  16.519
24132DPPC   C4B 6408   7.519   2.981  16.979
24133DPPC   NC3 6409   9.769   2.561  16.099
24133DPPC   PO4 6410   9.769   2.261  16.309
24133DPPC   GL1 6411   9.359   2.191  16.529
24133DPPC   GL2 6412   9.329   1.931  16.629
24133DPPC   C1A 6413   9.249   2.401  16.809
24133DPPC   C2A 6414   9.119   2.481  17.189
24133DPPC   C3A 6415   8.809   2.471  17.569
24133DPPC   C4A 6416   8.489   2.511  17.939
24133DPPC   C1B 6417   9.249   1.931  17.019
24133DPPC   C2B 6418   9.069   1.941  17.359
24133DPPC   C3B 6419   8.899   1.941  17.779
24133DPPC   C4B 6420   8.579   1.881  18.149
24134DPPC   NC3 6421   6.949   0.331  12.569
24134DPPC   PO4 6422   6.959   0.721  12.789
24134DPPC   GL1 6423   6.829   0.841  13.179
24134DPPC   GL2 6424   6.559   0.931  13.089
24134DPPC   C1A 6425   6.749   0.841  13.539
24134DPPC   C2A 6426   6.429   0.851  13.869
24134DPPC   C3A 6427   6.089   0.821  14.199
24134DPPC   C4A 6428   5.849   0.831  14.609
24134DPPC   C1B 6429   6.259   0.971  13.299
24134DPPC   C2B 6430   5.999   1.011  13.629
24134DPPC   C3B 6431   5.689   0.961  14.009
24134DPPC   C4B 6432   5.429   1.061  14.399
24135DPPC   NC3 6433   9.029   2.191  15.679
24135DPPC   PO4 6434   9.189   1.811  15.729
24135DPPC   GL1 6435   9.119   1.841  16.089
24135DPPC   GL2 6436   8.949   1.661  15.989
24135DPPC   C1A 6437   8.969   1.951  16.409
24135DPPC   C2A 6438   8.839   2.061  16.759
24135DPPC   C3A 6439   8.639   2.131  17.249
24135DPPC   C4A 6440   8.409   2.111  17.649
24135DPPC   C1B 6441   8.739   1.641  16.259
24135DPPC   C2B 6442   8.509   1.741  16.579
24135DPPC   C3B 6443   8.299   1.781  16.969
24135DPPC   C4B 6444   7.969   1.861  17.389
24136DPPC   NC3 6445  10.239   1.741  16.889
24136DPPC   PO4 6446  10.529   1.681  17.109
24136DPPC   GL1 6447  10.369   1.731  17.499
24136DPPC   GL2 6448  10.469   1.921  17.629
24136DPPC   C1A 6449  10.099   1.621  17.639
24136DPPC   C2A 6450   9.769   1.601  17.879
24136DPPC   C3A 6451   9.509   1.561  18.289
24136DPPC   C4A 6452   9.219   1.571  18.639
24136DPPC   C1B 6453  10.259   1.991  17.919
24136DPPC   C2B 6454  10.029   1.951  18.269
24136DPPC   C3B 6455   9.669   1.911  18.649
24136DPPC   C4B 6456   9.409   2.021  19.049
24137DPPC   NC3 6457   6.769   6.163  12.329
24137DPPC   PO4 6458   6.939   6.413  12.629
24137DPPC   GL1 6459   6.759   6.473  13.019
24137DPPC   GL2 6460   6.589   6.213  13.049
24137DPPC   C1A 6461   6.529   0.011  13.269
24137DPPC   C2A 6462   6.219   0.001  13.579
24137DPPC   C3A 6463   5.899   0.041  13.909
24137DPPC   C4A 6464   5.639   6.593  14.309
24137DPPC   C1B 6465   6.409   6.133  13.389
24137DPPC   C2B 6466   6.199   6.163  13.759
24137DPPC   C3B 6467   5.919   6.183  14.129
24137DPPC   C4B 6468   5.519   6.143  14.449
24138DPPC   NC3 6469  10.459   0.381  17.049
24138DPPC   PO4 6470  10.669   0.001  17.049
24138DPPC   GL1 6471  10.649   6.563  17.429
24138DPPC   GL2 6472  10.789   0.241  17.439
24138DPPC   C1A 6473  10.469   6.543  17.789
24138DPPC   C2A 6474  10.309   0.001  18.179
24138DPPC   C3A 6475  10.039   0.021  18.609
24138DPPC   C4A 6476   9.739   0.061  18.939
24138DPPC   C1B 6477  10.609   0.411  17.639
24138DPPC   C2B 6478  10.359   0.441  17.929
24138DPPC   C3B 6479  10.089   0.461  18.319
24138DPPC   C4B 6480   9.919   0.461  18.759
24139DPPC   NC3 6481   7.579   1.951  13.239
24139DPPC   PO4 6482   7.199   2.051  13.149
24139DPPC   GL1 6483   6.789   2.141  13.229
24139DPPC   GL2 6484   6.849   1.921  13.359
24139DPPC   C1A 6485   6.509   2.271  13.539
24139DPPC   C2A 6486   6.239   2.341  13.849
24139DPPC   C3A 6487   5.979   2.361  14.169
24139DPPC   C4A 6488   5.699   2.311  14.639
24139DPPC   C1B 6489   6.609   1.811  13.599
24139DPPC   C2B 6490   6.299   1.891  13.879
24139DPPC   C3B 6491   5.999   1.841  14.259
24139DPPC   C4B 6492   5.769   1.841  14.709
24140DPPC   NC3 6493   7.759   5.653  13.659
24140DPPC   PO4 6494   7.579   5.343  13.639
24140DPPC   GL1 6495   7.149   5.403  13.719
24140DPPC   GL2 6496   7.279   5.683  13.809
24140DPPC   C1A 6497   6.819   5.243  13.589
24140DPPC   C2A 6498   6.399   5.243  13.719
24140DPPC   C3A 6499   6.059   5.183  14.019
24140DPPC   C4A 6500   5.719   5.143  14.499
24140DPPC   C1B 6501   7.099   5.823  14.149
24140DPPC   C2B 6502   6.799   5.833  14.429
24140DPPC   C3B 6503   6.459   5.793  14.809
24140DPPC   C4B 6504   6.159   5.823  15.159
24141DPPC   NC3 6505   9.289   2.881  15.449
24141DPPC   PO4 6506   8.989   2.611  15.379
24141DPPC   GL1 6507   8.729   2.601  15.619
24141DPPC   GL2 6508   8.509   2.711  15.449
24141DPPC   C1A 6509   8.509   2.271  15.689
24141DPPC   C2A 6510   8.119   2.151  15.679
24141DPPC   C3A 6511   7.719   2.181  16.019
24141DPPC   C4A 6512   7.519   2.191  16.479
24141DPPC   C1B 6513   8.289   2.611  15.779
24141DPPC   C2B 6514   8.119   2.471  16.149
24141DPPC   C3B 6515   7.909   2.471  16.539
24141DPPC   C4B 6516   7.629   2.421  16.949
24142DPPC   NC3 6517   8.489   3.191  14.749
24142DPPC   PO4 6518   8.459   2.981  14.419
24142DPPC   GL1 6519   7.989   3.121  14.449
24142DPPC   GL2 6520   8.049   3.331  14.669
24142DPPC   C1A 6521   7.699   3.021  14.689
24142DPPC   C2A 6522   7.369   3.071  14.919
24142DPPC   C3A 6523   7.129   3.101  15.329
24142DPPC   C4A 6524   6.809   3.101  15.729
24142DPPC   C1B 6525   7.809   3.421  14.939
24142DPPC   C2B 6526   7.579   3.441  15.269
24142DPPC   C3B 6527   7.349   3.401  15.719
24142DPPC   C4B 6528   7.039   3.381  16.099
24143DPPC   NC3 6529   9.009   1.361  15.669
24143DPPC   PO4 6530   9.239   1.061  15.859
24143DPPC   GL1 6531   9.219   0.831  16.139
24143DPPC   GL2 6532   9.349   1.001  16.339
24143DPPC   C1A 6533   8.909   0.781  16.279
24143DPPC   C2A 6534   8.679   0.771  16.649
24143DPPC   C3A 6535   8.349   0.801  17.049
24143DPPC   C4A 6536   8.019   0.821  17.339
24143DPPC   C1B 6537   9.089   1.001  16.599
24143DPPC   C2B 6538   8.929   1.121  16.989
24143DPPC   C3B 6539   8.629   1.101  17.339
24143DPPC   C4B 6540   8.289   1.101  17.649
24144DPPC   NC3 6541  10.129   2.281  16.689
24144DPPC   PO4 6542  10.189   1.961  16.479
24144DPPC   GL1 6543   9.839   1.661  16.649
24144DPPC   GL2 6544   9.769   1.941  16.629
24144DPPC   C1A 6545   9.569   1.641  16.849
24144DPPC   C2A 6546   9.319   1.441  17.129
24144DPPC   C3A 6547   9.049   1.401  17.489
24144DPPC   C4A 6548   8.679   1.371  17.809
24144DPPC   C1B 6549   9.609   2.181  16.899
24144DPPC   C2B 6550   9.649   2.271  17.299
24144DPPC   C3B 6551   9.309   2.271  17.609
24144DPPC   C4B 6552   9.049   2.341  17.989
24145DPPC   NC3 6553   9.599   1.731  16.269
24145DPPC   PO4 6554   9.329   1.441  16.129
24145DPPC   GL1 6555   8.989   1.231  16.279
24145DPPC   GL2 6556   8.769   1.121  16.009
24145DPPC   C1A 6557   8.699   1.261  16.509
24145DPPC   C2A 6558   8.489   1.311  16.899
24145DPPC   C3A 6559   8.169   1.351  17.259
24145DPPC   C4A 6560   7.819   1.271  17.559
24145DPPC   C1B 6561   8.489   0.931  16.229
24145DPPC   C2B 6562   8.239   0.951  16.549
24145DPPC   C3B 6563   7.909   0.991  16.869
24145DPPC   C4B 6564   7.499   1.001  17.249
24146DPPC   NC3 6565   9.069   0.631  15.679
24146DPPC   PO4 6566   8.759   0.931  15.599
24146DPPC   GL1 6567   8.439   0.621  15.529
24146DPPC   GL2 6568   8.669   0.431  15.639
24146DPPC   C1A 6569   8.239   0.721  15.839
24146DPPC   C2A 6570   7.979   0.721  16.169
24146DPPC   C3A 6571   7.689   0.651  16.539
24146DPPC   C4A 6572   7.399   0.671  16.889
24146DPPC   C1B 6573   8.589   0.581  15.959
24146DPPC   C2B 6574   8.419   0.491  16.289
24146DPPC   C3B 6575   8.169   0.471  16.679
24146DPPC   C4B 6576   7.849   0.491  17.019
24147DPPC   NC3 6577   8.399   0.991  14.419
24147DPPC   PO4 6578   8.059   0.821  14.339
24147DPPC   GL1 6579   7.769   0.711  14.659
24147DPPC   GL2 6580   7.879   0.691  14.869
24147DPPC   C1A 6581   7.449   0.731  14.799
24147DPPC   C2A 6582   7.159   0.751  15.079
24147DPPC   C3A 6583   6.859   0.751  15.449
24147DPPC   C4A 6584   6.549   0.651  15.849
24147DPPC   C1B 6585   7.659   0.511  15.189
24147DPPC   C2B 6586   7.349   0.571  15.529
24147DPPC   C3B 6587   7.059   0.621  15.889
24147DPPC   C4B 6588   6.809   0.561  16.319
24148DPPC   NC3 6589  10.319   6.203  17.119
24148DPPC   PO4 6590  10.269   6.113  16.749
24148DPPC   GL1 6591   9.869   6.163  16.959
24148DPPC   GL2 6592   9.759   5.993  16.829
24148DPPC   C1A 6593   9.789   6.293  17.319
24148DPPC   C2A 6594   9.589   6.383  17.629
24148DPPC   C3A 6595   9.309   6.433  17.989
24148DPPC   C4A 6596   9.109   6.423  18.399
24148DPPC   C1B 6597   9.499   5.993  17.099
24148DPPC   C2B 6598   9.279   6.063  17.439
24148DPPC   C3B 6599   8.959   6.093  17.859
24148DPPC   C4B 6600   8.679   6.123  18.259
24149DPPC   NC3 6601   9.979   0.961  16.699
24149DPPC   PO4 6602   9.699   0.751  16.539
24149DPPC   GL1 6603   9.309   0.631  16.609
24149DPPC   GL2 6604   9.299   0.341  16.549
24149DPPC   C1A 6605   9.099   0.651  16.879
24149DPPC   C2A 6606   8.819   0.621  17.169
24149DPPC   C3A 6607   8.509   0.621  17.529
24149DPPC   C4A 6608   8.239   0.691  17.929
24149DPPC   C1B 6609   9.079   0.231  16.819
24149DPPC   C2B 6610   8.839   0.131  17.149
24149DPPC   C3B 6611   8.629   0.141  17.559
24149DPPC   C4B 6612   8.339   0.121  17.989
24150DPPC   NC3 6613  10.379   3.511  17.019
24150DPPC   PO4 6614  10.369   3.801  17.249
24150DPPC   GL1 6615  10.179   4.021  17.499
24150DPPC   GL2 6616   9.989   3.891  17.549
24150DPPC   C1A 6617  10.189   4.221  17.829
24150DPPC   C2A 6618  10.099   4.221  18.229
24150DPPC   C3A 6619   9.859   4.253  18.649
24150DPPC   C4A 6620   9.599   4.273  19.019
24150DPPC   C1B 6621   9.829   3.941  17.839
24150DPPC   C2B 6622   9.659   3.891  18.239
24150DPPC   C3B 6623   9.409   3.951  18.619
24150DPPC   C4B 6624   9.139   3.951  18.999
24151DPPC   NC3 6625   8.769   0.691  15.139
24151DPPC   PO4 6626   8.569   0.341  15.189
24151DPPC   GL1 6627   8.169   0.351  15.239
24151DPPC   GL2 6628   8.109   0.101  15.109
24151DPPC   C1A 6629   7.969   0.341  15.559
24151DPPC   C2A 6630   7.739   0.361  15.909
24151DPPC   C3A 6631   7.409   0.401  16.209
24151DPPC   C4A 6632   7.159   0.311  16.569
24151DPPC   C1B 6633   7.759   0.101  15.159
24151DPPC   C2B 6634   7.469   0.091  15.479
24151DPPC   C3B 6635   7.269   0.131  15.809
24151DPPC   C4B 6636   6.879   0.091  16.209
24152DPPC   NC3 6637   8.279   5.513  15.129
24152DPPC   PO4 6638   8.579   5.423  15.329
24152DPPC   GL1 6639   8.429   5.313  15.729
24152DPPC   GL2 6640   8.519   5.543  15.849
24152DPPC   C1A 6641   8.329   5.143  16.079
24152DPPC   C2A 6642   8.069   5.263  16.369
24152DPPC   C3A 6643   7.819   5.343  16.719
24152DPPC   C4A 6644   7.449   5.283  17.109
24152DPPC   C1B 6645   8.309   5.713  16.029
24152DPPC   C2B 6646   7.979   5.773  16.339
24152DPPC   C3B 6647   7.749   5.823  16.719
24152DPPC   C4B 6648   7.479   5.893  17.159
24153DPPC   NC3 6649   7.159   2.471  12.899
24153DPPC   PO4 6650   7.059   2.871  12.959
24153DPPC   GL1 6651   6.659   2.791  13.079
24153DPPC   GL2 6652   6.689   2.481  13.049
24153DPPC   C1A 6653   6.479   2.751  13.399
24153DPPC   C2A 6654   6.229   2.851  13.689
24153DPPC   C3A 6655   5.969   2.841  14.079
24153DPPC   C4A 6656   5.649   2.761  14.469
24153DPPC   C1B 6657   6.349   2.411  13.139
24153DPPC   C2B 6658   6.069   2.471  13.359
24153DPPC   C3B 6659   5.779   2.501  13.739
24153DPPC   C4B 6660   5.389   2.541  14.109
24154DPPC   NC3 6661   9.929   6.423  16.569
24154DPPC   PO4 6662  10.209   0.061  16.719
24154DPPC   GL1 6663  10.159   0.021  17.139
24154DPPC   GL2 6664   9.849   0.041  17.009
24154DPPC   C1A 6665  10.149   6.483  17.489
24154DPPC   C2A 6666  10.139   6.223  17.769
24154DPPC   C3A 6667   9.819   6.233  18.159
24154DPPC   C4A 6668   9.589   6.213  18.579
24154DPPC   C1B 6669   9.679   0.181  17.359
24154DPPC   C2B 6670   9.509   0.231  17.719
24154DPPC   C3B 6671   9.289   0.371  18.069
24154DPPC   C4B 6672   8.919   0.321  18.359
24155DPPC   NC3 6673   7.949   2.671  14.459
24155DPPC   PO4 6674   7.859   2.471  14.129
24155DPPC   GL1 6675   7.519   2.271  14.159
24155DPPC   GL2 6676   7.659   2.001  14.279
24155DPPC   C1A 6677   7.269   2.271  14.419
24155DPPC   C2A 6678   7.109   2.241  14.769
24155DPPC   C3A 6679   6.829   2.241  15.119
24155DPPC   C4A 6680   6.599   2.261  15.489
24155DPPC   C1B 6681   7.419   1.791  14.469
24155DPPC   C2B 6682   7.169   1.791  14.789
24155DPPC   C3B 6683   6.919   1.711  15.169
24155DPPC   C4B 6684   6.649   1.751  15.629
24156DPPC   NC3 6685   9.659   5.533  16.619
24156DPPC   PO4 6686   9.479   5.353  16.319
24156DPPC   GL1 6687   9.239   5.063  16.539
24156DPPC   GL2 6688   9.429   5.143  16.729
24156DPPC   C1A 6689   8.909   4.983  16.719
24156DPPC   C2A 6690   8.669   4.873  17.039
24156DPPC   C3A 6691   8.409   4.873  17.459
24156DPPC   C4A 6692   8.159   4.953  17.839
24156DPPC   C1B 6693   9.179   5.263  16.999
24156DPPC   C2B 6694   8.939   5.223  17.349
24156DPPC   C3B 6695   8.679   5.233  17.759
24156DPPC   C4B 6696   8.399   5.323  18.119
24157DPPC   NC3 6697   7.239   5.253  13.309
24157DPPC   PO4 6698   7.049   5.503  13.099
24157DPPC   GL1 6699   6.789   5.243  13.199
24157DPPC   GL2 6700   6.759   5.013  13.169
24157DPPC   C1A 6701   6.409   5.303  13.269
24157DPPC   C2A 6702   5.989   5.263  13.339
24157DPPC   C3A 6703   5.679   5.253  13.729
24157DPPC   C4A 6704   5.429   5.313  14.179
24157DPPC   C1B 6705   6.529   4.883  13.449
24157DPPC   C2B 6706   6.489   4.683  13.789
24157DPPC   C3B 6707   6.099   4.653  14.099
24157DPPC   C4B 6708   5.749   4.593  14.459
24158DPPC   NC3 6709   9.069   4.353  15.749
24158DPPC   PO4 6710   8.869   4.011  15.579
24158DPPC   GL1 6711   8.549   3.931  15.789
24158DPPC   GL2 6712   8.299   4.091  15.589
24158DPPC   C1A 6713   8.399   3.811  16.119
24158DPPC   C2A 6714   8.139   3.791  16.489
24158DPPC   C3A 6715   7.869   3.831  16.949
24158DPPC   C4A 6716   7.639   3.821  17.389
24158DPPC   C1B 6717   8.059   4.041  15.839
24158DPPC   C2B 6718   7.849   4.021  16.179
24158DPPC   C3B 6719   7.579   4.021  16.569
24158DPPC   C4B 6720   7.339   3.951  16.959
24159DPPC   NC3 6721   8.379   5.003  14.909
24159DPPC   PO4 6722   8.329   4.723  14.639
24159DPPC   GL1 6723   8.019   4.493  14.859
24159DPPC   GL2 6724   8.119   4.653  15.069
24159DPPC   C1A 6725   7.649   4.393  14.919
24159DPPC   C2A 6726   7.369   4.423  15.269
24159DPPC   C3A 6727   7.089   4.443  15.659
24159DPPC   C4A 6728   6.789   4.363  16.039
24159DPPC   C1B 6729   7.829   4.623  15.249
24159DPPC   C2B 6730   7.629   4.723  15.599
24159DPPC   C3B 6731   7.359   4.713  15.969
24159DPPC   C4B 6732   7.089   4.673  16.359
24160DPPC   NC3 6733   8.379   2.371  14.399
24160DPPC   PO4 6734   8.069   2.151  14.449
24160DPPC   GL1 6735   7.819   2.251  14.679
24160DPPC   GL2 6736   8.019   2.421  14.879
24160DPPC   C1A 6737   7.549   2.051  14.859
24160DPPC   C2A 6738   7.309   2.031  15.189
24160DPPC   C3A 6739   7.059   2.061  15.589
24160DPPC   C4A 6740   6.729   2.091  15.979
24160DPPC   C1B 6741   7.879   2.411  15.209
24160DPPC   C2B 6742   7.619   2.351  15.479
24160DPPC   C3B 6743   7.269   2.441  15.869
24160DPPC   C4B 6744   6.969   2.421  16.289
24161DPPC   NC3 6745   6.789   4.131  12.579
24161DPPC   PO4 6746   6.719   3.851  12.869
24161DPPC   GL1 6747   6.489   4.111  13.119
24161DPPC   GL2 6748   6.479   3.901  13.349
24161DPPC   C1A 6749   6.249   4.303  13.279
24161DPPC   C2A 6750   5.999   4.323  13.599
24161DPPC   C3A 6751   5.659   4.293  13.919
24161DPPC   C4A 6752   5.379   4.231  14.359
24161DPPC   C1B 6753   6.189   3.881  13.569
24161DPPC   C2B 6754   5.889   3.831  13.899
24161DPPC   C3B 6755   5.599   3.791  14.299
24161DPPC   C4B 6756   5.289   3.841  14.689
24162DPPC   NC3 6757   9.869   3.071  16.319
24162DPPC   PO4 6758  10.069   2.741  16.429
24162DPPC   GL1 6759   9.609   2.571  16.619
24162DPPC   GL2 6760   9.509   2.831  16.409
24162DPPC   C1A 6761   9.599   2.601  17.009
24162DPPC   C2A 6762   9.549   2.671  17.409
24162DPPC   C3A 6763   9.219   2.771  17.739
24162DPPC   C4A 6764   8.879   2.791  18.069
24162DPPC   C1B 6765   9.169   2.741  16.489
24162DPPC   C2B 6766   8.809   2.591  16.659
24162DPPC   C3B 6767   8.579   2.621  17.069
24162DPPC   C4B 6768   8.269   2.571  17.439
24163DPPC   NC3 6769  10.289   4.823  16.789
24163DPPC   PO4 6770  10.269   4.773  17.169
24163DPPC   GL1 6771  10.019   4.673  17.379
24163DPPC   GL2 6772   9.979   4.423  17.409
24163DPPC   C1A 6773   9.889   4.823  17.639
24163DPPC   C2A 6774   9.679   4.913  17.959
24163DPPC   C3A 6775   9.359   4.903  18.339
24163DPPC   C4A 6776   9.179   4.913  18.779
24163DPPC   C1B 6777   9.789   4.363  17.769
24163DPPC   C2B 6778   9.609   4.383  18.139
24163DPPC   C3B 6779   9.329   4.423  18.609
24163DPPC   C4B 6780   9.039   4.433  18.929
24164DPPC   NC3 6781   9.489   3.801  16.269
24164DPPC   PO4 6782   9.629   3.841  16.619
24164DPPC   GL1 6783   9.629   3.731  16.979
24164DPPC   GL2 6784   9.909   3.651  17.139
24164DPPC   C1A 6785   9.349   3.841  17.189
24164DPPC   C2A 6786   9.049   3.771  17.489
24164DPPC   C3A 6787   8.789   3.851  17.909
24164DPPC   C4A 6788   8.549   3.811  18.339
24164DPPC   C1B 6789   9.709   3.531  17.409
24164DPPC   C2B 6790   9.479   3.601  17.729
24164DPPC   C3B 6791   9.239   3.621  18.179
24164DPPC   C4B 6792   8.969   3.571  18.579
24165DPPC   NC3 6793   7.439   3.471  13.979
24165DPPC   PO4 6794   7.809   3.571  14.099
24165DPPC   GL1 6795   7.609   3.731  14.499
24165DPPC   GL2 6796   7.669   3.471  14.479
24165DPPC   C1A 6797   7.429   3.701  14.819
24165DPPC   C2A 6798   7.109   3.641  15.099
24165DPPC   C3A 6799   6.799   3.571  15.489
24165DPPC   C4A 6800   6.499   3.581  15.829
24165DPPC   C1B 6801   7.269   3.341  14.559
24165DPPC   C2B 6802   6.979   3.301  14.779
24165DPPC   C3B 6803   6.679   3.281  15.119
24165DPPC   C4B 6804   6.359   3.261  15.439
24166DPPC   NC3 6805   7.149   3.801  13.159
24166DPPC   PO4 6806   7.079   3.451  13.019
24166DPPC   GL1 6807   6.869   3.241  13.209
24166DPPC   GL2 6808   7.009   3.051  13.369
24166DPPC   C1A 6809   6.519   3.331  13.279
24166DPPC   C2A 6810   6.219   3.361  13.589
24166DPPC   C3A 6811   5.959   3.351  13.959
24166DPPC   C4A 6812   5.679   3.261  14.349
24166DPPC   C1B 6813   6.829   2.931  13.579
24166DPPC   C2B 6814   6.709   2.741  13.939
24166DPPC   C3B 6815   6.379   2.661  14.259
24166DPPC   C4B 6816   6.129   2.601  14.639
24167DPPC   NC3 6817   8.989   1.131  15.229
24167DPPC   PO4 6818   8.719   1.391  15.219
24167DPPC   GL1 6819   8.689   1.611  15.579
24167DPPC   GL2 6820   8.509   1.401  15.609
24167DPPC   C1A 6821   8.509   1.841  15.799
24167DPPC   C2A 6822   8.329   1.911  16.139
24167DPPC   C3A 6823   8.019   2.011  16.429
24167DPPC   C4A 6824   7.809   2.011  16.829
24167DPPC   C1B 6825   8.419   1.321  15.969
24167DPPC   C2B 6826   8.279   1.381  16.319
24167DPPC   C3B 6827   8.019   1.451  16.719
24167DPPC   C4B 6828   7.719   1.471  17.079
24168DPPC   NC3 6829   7.659   0.191  13.159
24168DPPC   PO4 6830   7.329   0.251  12.939
24168DPPC   GL1 6831   6.859   0.351  13.059
24168DPPC   GL2 6832   6.959   0.291  13.349
24168DPPC   C1A 6833   6.589   0.481  13.189
24168DPPC   C2A 6834   6.259   0.551  13.459
24168DPPC   C3A 6835   5.939   0.501  13.799
24168DPPC   C4A 6836   5.709   0.511  14.179
24168DPPC   C1B 6837   6.719   0.361  13.629
24168DPPC   C2B 6838   6.469   0.351  13.939
24168DPPC   C3B 6839   6.149   0.341  14.259
24168DPPC   C4B 6840   5.759   0.351  14.639
24169DPPC   NC3 6841   7.379   6.543  13.759
24169DPPC   PO4 6842   7.419   0.301  13.559
24169DPPC   GL1 6843   7.089   0.551  13.709
24169DPPC   GL2 6844   7.249   0.751  13.819
24169DPPC   C1A 6845   6.839   0.641  13.999
24169DPPC   C2A 6846   6.599   0.661  14.309
24169DPPC   C3A 6847   6.349   0.661  14.709
24169DPPC   C4A 6848   5.959   0.581  15.049
24169DPPC   C1B 6849   7.199   0.791  14.189
24169DPPC   C2B 6850   7.019   0.891  14.549
24169DPPC   C3B 6851   6.699   0.961  14.919
24169DPPC   C4B 6852   6.369   0.931  15.269
24170DPPC   NC3 6853   7.789   5.053  13.949
24170DPPC   PO4 6854   8.059   4.843  14.189
24170DPPC   GL1 6855   7.799   4.843  14.619
24170DPPC   GL2 6856   7.569   4.973  14.379
24170DPPC   C1A 6857   7.649   4.833  14.879
24170DPPC   C2A 6858   7.449   4.953  15.199
24170DPPC   C3A 6859   7.109   4.953  15.559
24170DPPC   C4A 6860   6.769   4.923  15.959
24170DPPC   C1B 6861   7.299   5.143  14.549
24170DPPC   C2B 6862   7.049   5.133  14.899
24170DPPC   C3B 6863   6.739   5.103  15.269
24170DPPC   C4B 6864   6.459   5.173  15.659
24171DPPC   NC3 6865  10.299   2.661  17.009
24171DPPC   PO4 6866  10.479   3.001  17.129
24171DPPC   GL1 6867  10.339   3.221  17.459
24171DPPC   GL2 6868  10.139   3.331  17.449
24171DPPC   C1A 6869  10.379   3.241  17.819
24171DPPC   C2A 6870  10.269   3.161  18.179
24171DPPC   C3A 6871  10.019   3.271  18.559
24171DPPC   C4A 6872   9.789   3.311  18.949
24171DPPC   C1B 6873   9.969   3.461  17.759
24171DPPC   C2B 6874   9.769   3.421  18.139
24171DPPC   C3B 6875   9.499   3.391  18.579
24171DPPC   C4B 6876   9.259   3.411  18.989
24172DPPC   NC3 6877   9.669   4.863  16.409
24172DPPC   PO4 6878   9.949   5.153  16.519
24172DPPC   GL1 6879   9.959   5.173  16.889
24172DPPC   GL2 6880  10.159   5.253  17.099
24172DPPC   C1A 6881   9.689   5.043  17.099
24172DPPC   C2A 6882   9.439   5.073  17.399
24172DPPC   C3A 6883   9.219   5.113  17.819
24172DPPC   C4A 6884   8.899   5.063  18.229
24172DPPC   C1B 6885   9.979   5.263  17.389
24172DPPC   C2B 6886   9.759   5.333  17.699
24172DPPC   C3B 6887   9.499   5.423  18.129
24172DPPC   C4B 6888   9.189   5.483  18.489
24173DPPC   NC3 6889   9.839   3.461  15.919
24173DPPC   PO4 6890   9.909   3.561  16.279
24173DPPC   GL1 6891   9.639   3.341  16.559
24173DPPC   GL2 6892   9.809   3.411  16.789
24173DPPC   C1A 6893   9.309   3.401  16.629
24173DPPC   C2A 6894   9.089   3.491  16.969
24173DPPC   C3A 6895   8.719   3.421  17.309
24173DPPC   C4A 6896   8.519   3.441  17.729
24173DPPC   C1B 6897   9.539   3.321  16.999
24173DPPC   C2B 6898   9.279   3.211  17.329
24173DPPC   C3B 6899   9.029   3.291  17.749
24173DPPC   C4B 6900   8.759   3.311  18.209
24174DPPS   CNO 6901  10.129   5.913  15.989
24174DPPS   PO4 6902   9.939   5.833  16.319
24174DPPS   GL1 6903   9.499   6.013  16.479
24174DPPS   GL2 6904   9.359   5.793  16.439
24174DPPS   C1A 6905   9.299   6.173  16.689
24174DPPS   C2A 6906   9.069   6.203  16.999
24174DPPS   C3A 6907   8.779   6.223  17.359
24174DPPS   C4A 6908   8.479   6.193  17.819
24174DPPS   C1B 6909   9.279   5.733  16.839
24174DPPS   C2B 6910   9.039   5.673  17.169
24174DPPS   C3B 6911   8.759   5.743  17.509
24174DPPS   C4B 6912   8.469   5.703  17.889
24175DPPS   CNO 6913   9.759   4.583  15.579
24175DPPS   PO4 6914   9.479   4.663  15.779
24175DPPS   GL1 6915   9.279   4.543  16.139
24175DPPS   GL2 6916   9.319   4.333  16.119
24175DPPS   C1A 6917   9.129   4.573  16.479
24175DPPS   C2A 6918   8.959   4.453  16.839
24175DPPS   C3A 6919   8.659   4.423  17.209
24175DPPS   C4A 6920   8.409   4.413  17.599
24175DPPS   C1B 6921   9.179   4.091  16.359
24175DPPS   C2B 6922   9.029   3.861  16.689
24175DPPS   C3B 6923   8.799   3.951  17.089
24175DPPS   C4B 6924   8.559   3.911  17.479
24176DPPS   CNO 6925   8.979   4.101  15.029
24176DPPS   PO4 6926   8.939   4.393  15.289
24176DPPS   GL1 6927   8.649   4.413  15.579
24176DPPS   GL2 6928   8.439   4.463  15.409
24176DPPS   C1A 6929   8.499   4.323  15.879
24176DPPS   C2A 6930   8.299   4.221  16.249
24176DPPS   C3A 6931   8.049   4.273  16.679
24176DPPS   C4A 6932   7.749   4.313  17.079
24176DPPS   C1B 6933   8.139   4.553  15.579
24176DPPS   C2B 6934   7.919   4.503  15.899
24176DPPS   C3B 6935   7.669   4.463  16.309
24176DPPS   C4B 6936   7.389   4.433  16.719
24177DPPS   CNO 6937   9.809   2.901  15.469
24177DPPS   PO4 6938   9.639   2.941  15.809
24177DPPS   GL1 6939   9.209   2.981  15.899
24177DPPS   GL2 6940   9.089   2.721  15.839
24177DPPS   C1A 6941   9.009   3.071  16.189
24177DPPS   C2A 6942   8.769   3.101  16.509
24177DPPS   C3A 6943   8.569   3.081  16.899
24177DPPS   C4A 6944   8.299   3.091  17.309
24177DPPS   C1B 6945   8.789   2.491  16.009
24177DPPS   C2B 6946   8.619   2.271  16.289
24177DPPS   C3B 6947   8.409   2.271  16.789
24177DPPS   C4B 6948   8.059   2.261  17.149
24178DPPS   CNO 6949   7.919   6.113  13.579
24178DPPS   PO4 6950   7.629   6.083  13.839
24178DPPS   GL1 6951   7.639   6.093  14.199
24178DPPS   GL2 6952   7.769   6.173  14.379
24178DPPS   C1A 6953   7.279   6.133  14.319
24178DPPS   C2A 6954   7.039   6.193  14.679
24178DPPS   C3A 6955   6.739   6.113  15.059
24178DPPS   C4A 6956   6.479   6.063  15.439
24178DPPS   C1B 6957   7.589   6.023  14.669
24178DPPS   C2B 6958   7.399   5.893  15.029
24178DPPS   C3B 6959   7.089   5.863  15.399
24178DPPS   C4B 6960   6.739   5.873  15.829
24179DPPS   CNO 6961   7.939   5.253  14.429
24179DPPS   PO4 6962   8.149   5.503  14.649
24179DPPS   GL1 6963   7.829   5.623  14.809
24179DPPS   GL2 6964   7.629   5.433  14.679
24179DPPS   C1A 6965   7.779   5.673  15.139
24179DPPS   C2A 6966   7.549   5.763  15.489
24179DPPS   C3A 6967   7.259   5.723  15.859
24179DPPS   C4A 6968   7.059   5.713  16.319
24179DPPS   C1B 6969   7.429   5.403  14.959
24179DPPS   C2B 6970   7.209   5.383  15.309
24179DPPS   C3B 6971   6.939   5.393  15.709
24179DPPS   C4B 6972   6.639   5.433  16.069
24180DPPS   CNO 6973   8.829   3.631  14.859
24180DPPS   PO4 6974   8.659   3.491  15.129
24180DPPS   GL1 6975   8.479   3.601  15.479
24180DPPS   GL2 6976   8.739   3.561  15.589
24180DPPS   C1A 6977   8.169   3.591  15.729
24180DPPS   C2A 6978   8.029   3.521  16.109
24180DPPS   C3A 6979   7.689   3.541  16.509
24180DPPS   C4A 6980   7.479   3.471  16.909
24180DPPS   C1B 6981   8.739   3.411  15.919
24180DPPS   C2B 6982   8.459   3.251  16.119
24180DPPS   C3B 6983   8.229   3.241  16.549
24180DPPS   C4B 6984   7.949   3.241  16.969
24181DPPS   CNO 6985  10.349   3.421  16.539
24181DPPS   PO4 6986  10.309   3.091  16.689
24181DPPS   GL1 6987   9.989   3.041  16.759
24181DPPS   GL2 6988  10.009   3.071  17.089
24181DPPS   C1A 6989   9.629   2.951  16.819
24181DPPS   C2A 6990   9.229   2.871  16.939
24181DPPS   C3A 6991   8.899   2.921  17.309
24181DPPS   C4A 6992   8.629   2.921  17.679
24181DPPS   C1B 6993   9.749   3.081  17.289
24181DPPS   C2B 6994   9.639   3.091  17.719
24181DPPS   C3B 6995   9.359   3.141  18.109
24181DPPS   C4B 6996   9.099   3.121  18.509
24182DPPS   CNO 6997   9.959   4.121  16.349
24182DPPS   PO4 6998  10.059   4.433  16.609
24182DPPS   GL1 6999   9.849   4.753  16.799
24182DPPS   GL2 7000   9.899   4.553  16.979
24182DPPS   C1A 7001   9.469   4.693  16.819
24182DPPS   C2A 7002   9.169   4.813  17.099
24182DPPS   C3A 7003   8.939   4.763  17.479
24182DPPS   C4A 7004   8.659   4.743  17.859
24182DPPS   C1B 7005   9.599   4.463  17.229
24182DPPS   C2B 7006   9.419   4.593  17.589
24182DPPS   C3B 7007   9.179   4.593  18.009
24182DPPS   C4B 7008   8.939   4.583  18.439
24183DPPS   CNO 7009   8.219   4.273  13.849
24183DPPS   PO4 7010   8.019   4.061  14.049
24183DPPS   GL1 7011   7.639   4.101  14.249
24183DPPS   GL2 7012   7.509   3.941  14.059
24183DPPS   C1A 7013   7.389   4.101  14.569
24183DPPS   C2A 7014   7.249   4.121  14.949
24183DPPS   C3A 7015   6.939   4.171  15.289
24183DPPS   C4A 7016   6.589   4.091  15.679
24183DPPS   C1B 7017   7.219   3.791  14.259
24183DPPS   C2B 7018   7.039   3.811  14.569
24183DPPS   C3B 7019   6.689   3.751  14.839
24183DPPS   C4B 7020   6.379   3.761  15.199
24184DPPS   CNO 7021   8.089   5.863  14.279
24184DPPS   PO4 7022   7.829   5.653  14.149
24184DPPS   GL1 7023   7.499   5.613  14.269
24184DPPS   GL2 7024   7.519   5.363  14.149
24184DPPS   C1A 7025   7.259   5.663  14.579
24184DPPS   C2A 7026   6.959   5.663  14.909
24184DPPS   C3A 7027   6.639   5.613  15.309
24184DPPS   C4A 7028   6.329   5.613  15.659
24184DPPS   C1B 7029   7.129   5.353  14.159
24184DPPS   C2B 7030   6.919   5.373  14.479
24184DPPS   C3B 7031   6.589   5.273  14.839
24184DPPS   C4B 7032   6.189   5.273  15.189
24185DPPS   CNO 7033   9.299   5.973  15.669
24185DPPS   PO4 7034   9.069   6.173  15.449
24185DPPS   GL1 7035   8.819   6.393  15.719
24185DPPS   GL2 7036   8.809   6.143  15.829
24185DPPS   C1A 7037   8.519   6.593  15.729
24185DPPS   C2A 7038   8.289   0.211  15.909
24185DPPS   C3A 7039   7.999   0.261  16.319
24185DPPS   C4A 7040   7.709   0.151  16.669
24185DPPS   C1B 7041   8.599   6.113  16.149
24185DPPS   C2B 7042   8.419   6.033  16.509
24185DPPS   C3B 7043   8.179   6.023  16.909
24185DPPS   C4B 7044   7.909   6.133  17.289
24186DPPS   CNO 7045  10.839   3.671  17.219
24186DPPS   PO4 7046  10.759   3.411  17.479
24186DPPS   GL1 7047  10.609   3.581  17.749
24186DPPS   GL2 7048  10.799   3.431  17.979
24186DPPS   C1A 7049  10.319   3.661  17.929
24186DPPS   C2A 7050  10.199   3.711  18.319
24186DPPS   C3A 7051   9.849   3.721  18.659
24186DPPS   C4A 7052   9.659   3.751  19.109
24186DPPS   C1B 7053  10.609   3.431  18.269
24186DPPS   C2B 7054  10.479   3.511  18.649
24186DPPS   C3B 7055  10.159   3.611  18.999
24186DPPS   C4B 7056   9.929   3.631  19.459
24187DPPS   CNO 7057   7.759   1.651  12.829
24187DPPS   PO4 7058   7.379   1.601  12.889
24187DPPS   GL1 7059   7.079   1.511  13.279
24187DPPS   GL2 7060   7.289   1.611  13.409
24187DPPS   C1A 7061   6.749   1.361  13.459
24187DPPS   C2A 7062   6.499   1.351  13.769
24187DPPS   C3A 7063   6.219   1.301  14.099
24187DPPS   C4A 7064   5.879   1.291  14.429
24187DPPS   C1B 7065   7.029   1.691  13.689
24187DPPS   C2B 7066   6.779   1.711  13.999
24187DPPS   C3B 7067   6.469   1.671  14.399
24187DPPS   C4B 7068   6.189   1.581  14.769
24188DPPS   CNO 7069   9.649   4.191  15.899
24188DPPS   PO4 7070   9.379   3.911  15.809
24188DPPS   GL1 7071   9.039   3.851  16.009
24188DPPS   GL2 7072   8.839   4.121  16.029
24188DPPS   C1A 7073   8.989   3.591  16.269
24188DPPS   C2A 7074   8.609   3.581  16.489
24188DPPS   C3A 7075   8.419   3.601  16.949
24188DPPS   C4A 7076   8.159   3.601  17.389
24188DPPS   C1B 7077   8.719   4.111  16.359
24188DPPS   C2B 7078   8.499   4.041  16.679
24188DPPS   C3B 7079   8.269   4.121  17.129
24188DPPS   C4B 7080   8.039   4.051  17.539
24189DPPS   CNO 7081   9.169   5.383  15.549
24189DPPS   PO4 7082   8.869   5.193  15.709
24189DPPS   GL1 7083   8.879   5.303  16.109
24189DPPS   GL2 7084   8.769   5.063  16.289
24189DPPS   C1A 7085   8.899   5.403  16.499
24189DPPS   C2A 7086   8.729   5.383  16.859
24189DPPS   C3A 7087   8.479   5.353  17.259
24189DPPS   C4A 7088   8.159   5.433  17.589
24189DPPS   C1B 7089   8.529   5.113  16.569
24189DPPS   C2B 7090   8.269   5.063  16.859
24189DPPS   C3B 7091   7.979   5.143  17.189
24189DPPS   C4B 7092   7.779   5.113  17.659
24190DPPS   CNO 7093   7.699   3.791  13.649
24190DPPS   PO4 7094   7.319   3.851  13.639
24190DPPS   GL1 7095   7.139   4.061  13.899
24190DPPS   GL2 7096   7.189   4.343  13.819
24190DPPS   C1A 7097   6.819   4.041  14.079
24190DPPS   C2A 7098   6.539   3.991  14.429
24190DPPS   C3A 7099   6.259   3.971  14.769
24190DPPS   C4A 7100   5.929   3.971  15.149
24190DPPS   C1B 7101   6.939   4.523  13.999
24190DPPS   C2B 7102   6.579   4.513  14.209
24190DPPS   C3B 7103   6.239   4.473  14.599
24190DPPS   C4B 7104   6.019   4.453  15.039
24191DPPS   CNO 7105   8.419   1.431  14.139
24191DPPS   PO4 7106   8.059   1.281  14.179
24191DPPS   GL1 7107   7.929   1.291  14.549
24191DPPS   GL2 7108   8.049   1.101  14.729
24191DPPS   C1A 7109   7.559   1.421  14.619
24191DPPS   C2A 7110   7.259   1.211  14.869
24191DPPS   C3A 7111   6.999   1.221  15.229
24191DPPS   C4A 7112   6.679   1.251  15.589
24191DPPS   C1B 7113   7.789   1.081  15.019
24191DPPS   C2B 7114   7.509   1.041  15.329
24191DPPS   C3B 7115   7.179   1.081  15.689
24191DPPS   C4B 7116   6.849   1.021  16.069
24192DPPS   CNO 7117  10.949   2.201  16.869
24192DPPS   PO4 7118  10.559   2.201  16.909
24192DPPS   GL1 7119  10.289   2.051  17.229
24192DPPS   GL2 7120  10.059   2.111  17.079
24192DPPS   C1A 7121  10.029   2.041  17.539
24192DPPS   C2A 7122   9.719   2.081  17.779
24192DPPS   C3A 7123   9.489   2.051  18.179
24192DPPS   C4A 7124   9.199   2.141  18.539
24192DPPS   C1B 7125   9.839   1.781  17.099
24192DPPS   C2B 7126   9.539   1.801  17.399
24192DPPS   C3B 7127   9.289   1.711  17.759
24192DPPS   C4B 7128   9.049   1.671  18.159
24193DPPS   CNO 7129   8.009   1.391  13.639
24193DPPS   PO4 7130   7.789   1.731  13.609
24193DPPS   GL1 7131   7.449   1.801  13.799
24193DPPS   GL2 7132   7.269   2.011  13.609
24193DPPS   C1A 7133   7.219   1.841  14.069
24193DPPS   C2A 7134   6.969   1.941  14.389
24193DPPS   C3A 7135   6.679   1.921  14.729
24193DPPS   C4A 7136   6.359   1.901  15.149
24193DPPS   C1B 7137   7.169   2.261  13.849
24193DPPS   C2B 7138   6.749   2.201  13.959
24193DPPS   C3B 7139   6.429   2.121  14.289
24193DPPS   C4B 7140   6.189   2.061  14.719
24194DPPS   CNO 7141  10.899   0.681  16.669
24194DPPS   PO4 7142  10.879   0.721  17.029
24194DPPS   GL1 7143  10.459   0.841  17.169
24194DPPS   GL2 7144  10.579   0.821  17.439
24194DPPS   C1A 7145  10.089   0.851  17.179
24194DPPS   C2A 7146   9.719   0.791  17.409
24194DPPS   C3A 7147   9.419   0.811  17.769
24194DPPS   C4A 7148   9.109   0.811  18.189
24194DPPS   C1B 7149  10.299   0.741  17.609
24194DPPS   C2B 7150   9.939   0.721  17.819
24194DPPS   C3B 7151   9.669   0.691  18.209
24194DPPS   C4B 7152   9.369   0.571  18.539
24195DPPS   CNO 7153   7.509   6.313  13.359
24195DPPS   PO4 7154   7.179   6.453  13.289
24195DPPS   GL1 7155   6.879   6.523  13.539
24195DPPS   GL2 7156   6.829   6.253  13.469
24195DPPS   C1A 7157   6.619   6.563  13.769
24195DPPS   C2A 7158   6.349   6.483  14.109
24195DPPS   C3A 7159   6.119   6.493  14.509
24195DPPS   C4A 7160   5.739   6.433  14.819
24195DPPS   C1B 7161   6.639   6.093  13.729
24195DPPS   C2B 7162   6.539   6.013  14.049
24195DPPS   C3B 7163   6.279   5.843  14.349
24195DPPS   C4B 7164   5.949   6.003  14.649
24196DPPS   CNO 7165  10.439   5.373  16.759
24196DPPS   PO4 7166  10.139   5.623  16.759
24196DPPS   GL1 7167   9.849   5.673  17.149
24196DPPS   GL2 7168  10.019   5.853  17.259
24196DPPS   C1A 7169   9.549   5.563  17.309
24196DPPS   C2A 7170   9.299   5.543  17.599
24196DPPS   C3A 7171   8.989   5.573  17.979
24196DPPS   C4A 7172   8.709   5.633  18.349
24196DPPS   C1B 7173   9.839   5.863  17.589
24196DPPS   C2B 7174   9.509   5.903  17.879
24196DPPS   C3B 7175   9.239   5.963  18.299
24196DPPS   C4B 7176   8.929   5.993  18.699
24197DPPS   CNO 7177   7.639   4.913  13.299
24197DPPS   PO4 7178   7.439   4.763  13.559
24197DPPS   GL1 7179   7.339   4.943  13.879
24197DPPS   GL2 7180   7.319   4.813  14.109
24197DPPS   C1A 7181   6.959   5.023  13.929
24197DPPS   C2A 7182   6.619   5.023  14.119
24197DPPS   C3A 7183   6.269   4.953  14.509
24197DPPS   C4A 7184   5.929   4.913  14.879
24197DPPS   C1B 7185   7.059   4.793  14.379
24197DPPS   C2B 7186   6.739   4.753  14.629
24197DPPS   C3B 7187   6.379   4.793  14.939
24197DPPS   C4B 7188   6.069   4.853  15.349
24198DPPS   CNO 7189   7.349   4.293  13.319
24198DPPS   PO4 7190   7.029   4.263  13.099
24198DPPS   GL1 7191   6.899   4.171  13.479
24198DPPS   GL2 7192   6.889   3.861  13.519
24198DPPS   C1A 7193   6.619   4.221  13.689
24198DPPS   C2A 7194   6.289   4.171  13.979
24198DPPS   C3A 7195   5.969   4.131  14.329
24198DPPS   C4A 7196   5.729   4.141  14.739
24198DPPS   C1B 7197   6.599   3.781  13.729
24198DPPS   C2B 7198   6.379   3.681  14.029
24198DPPS   C3B 7199   6.089   3.611  14.389
24198DPPS   C4B 7200   5.739   3.621  14.749
35998DPPC   NC3 7201  15.129   2.441  20.539
35998DPPC   PO4 7202  15.419   2.611  20.329
35998DPPC   GL1 7203  15.239   2.711  19.959
35998DPPC   GL2 7204  15.409   2.501  19.799
35998DPPC   C1A 7205  15.239   2.931  19.649
35998DPPC   C2A 7206  14.999   3.031  19.379
35998DPPC   C3A 7207  14.679   3.231  19.079
35998DPPC   C4A 7208  14.419   3.641  18.889
35998DPPC   C1B 7209  15.219   2.561  19.459
35998DPPC   C2B 7210  14.929   2.601  19.119
35998DPPC   C3B 7211  14.559   2.701  18.799
35998DPPC   C4B 7212  14.389   3.181  18.689
35999DPPC   NC3 7213  17.179   2.161  18.659
35999DPPC   PO4 7214  17.019   1.991  18.959
35999DPPC   GL1 7215  16.539   1.971  18.889
35999DPPC   GL2 7216  16.699   1.881  18.709
35999DPPC   C1A 7217  16.249   2.001  18.669
35999DPPC   C2A 7218  16.039   2.121  18.329
35999DPPC   C3A 7219  15.729   2.041  17.939
35999DPPC   C4A 7220  15.379   2.081  17.579
35999DPPC   C1B 7221  16.579   1.961  18.439
35999DPPC   C2B 7222  16.429   1.921  18.039
35999DPPC   C3B 7223  16.109   1.861  17.629
35999DPPC   C4B 7224  15.699   1.831  17.339
36000DPPC   NC3 7225  16.529   2.381  19.589
36000DPPC   PO4 7226  16.499   2.011  19.349
36000DPPC   GL1 7227  16.269   1.751  19.369
36000DPPC   GL2 7228  16.489   1.551  19.229
36000DPPC   C1A 7229  16.049   1.731  19.049
36000DPPC   C2A 7230  15.819   1.731  18.669
36000DPPC   C3A 7231  15.539   1.691  18.309
36000DPPC   C4A 7232  15.209   1.771  17.969
36000DPPC   C1B 7233  16.429   1.561  18.819
36000DPPC   C2B 7234  16.239   1.501  18.419
36000DPPC   C3B 7235  15.969   1.591  18.069
36000DPPC   C4B 7236  15.649   1.571  17.719
36001DPPC   NC3 7237  14.239   4.353  21.089
36001DPPC   PO4 7238  13.909   4.273  20.869
36001DPPC   GL1 7239  13.839   4.151  20.449
36001DPPC   GL2 7240  13.989   3.921  20.439
36001DPPC   C1A 7241  13.729   4.273  20.119
36001DPPC   C2A 7242  13.419   4.273  19.829
36001DPPC   C3A 7243  13.129   4.263  19.469
36001DPPC   C4A 7244  12.829   4.191  19.019
36001DPPC   C1B 7245  13.809   3.801  20.079
36001DPPC   C2B 7246  13.509   3.721  19.799
36001DPPC   C3B 7247  13.199   3.761  19.419
36001DPPC   C4B 7248  12.869   3.671  19.009
36002DPPC   NC3 7249  13.389   4.943  20.479
36002DPPC   PO4 7250  13.109   5.113  20.719
36002DPPC   GL1 7251  13.009   5.453  20.489
36002DPPC   GL2 7252  13.159   5.373  20.339
36002DPPC   C1A 7253  12.629   5.513  20.559
36002DPPC   C2A 7254  12.359   5.733  20.779
36002DPPC   C3A 7255  11.879   5.833  20.819
36002DPPC   C4A 7256  11.589   6.223  20.929
36002DPPC   C1B 7257  13.159   5.563  20.029
36002DPPC   C2B 7258  12.959   5.663  19.649
36002DPPC   C3B 7259  12.689   5.683  19.259
36002DPPC   C4B 7260  12.379   5.613  18.879
36003DPPC   NC3 7261  11.989   0.281  21.689
36003DPPC   PO4 7262  11.959   0.621  21.499
36003DPPC   GL1 7263  11.829   0.371  21.179
36003DPPC   GL2 7264  11.629   0.701  21.129
36003DPPC   C1A 7265  11.799   0.081  20.989
36003DPPC   C2A 7266  11.799   6.543  20.619
36003DPPC   C3A 7267  11.819   6.163  20.369
36003DPPC   C4A 7268  12.199   5.923  20.269
36003DPPC   C1B 7269  11.589   0.991  20.899
36003DPPC   C2B 7270  11.809   1.191  20.609
36003DPPC   C3B 7271  11.979   1.571  20.369
36003DPPC   C4B 7272  12.039   1.731  19.839
36004DPPC   NC3 7273   9.699   0.191  21.779
36004DPPC   PO4 7274   9.959   6.553  21.629
36004DPPC   GL1 7275   9.709   6.343  21.529
36004DPPC   GL2 7276   9.599   6.573  21.329
36004DPPC   C1A 7277   9.729   6.113  21.299
36004DPPC   C2A 7278   9.749   5.893  20.959
36004DPPC   C3A 7279   9.989   5.773  20.539
36004DPPC   C4A 7280  10.279   5.753  20.169
36004DPPC   C1B 7281   9.699   6.563  20.999
36004DPPC   C2B 7282   9.909   0.001  20.679
36004DPPC   C3B 7283  10.069   0.121  20.229
36004DPPC   C4B 7284  10.259   0.121  19.789
36005DPPC   NC3 7285  17.219   3.381  18.369
36005DPPC   PO4 7286  16.999   3.591  18.659
36005DPPC   GL1 7287  16.719   3.601  18.439
36005DPPC   GL2 7288  16.699   3.941  18.329
36005DPPC   C1A 7289  16.459   3.361  18.309
36005DPPC   C2A 7290  16.129   3.401  18.069
36005DPPC   C3A 7291  15.799   3.341  17.719
36005DPPC   C4A 7292  15.439   3.321  17.329
36005DPPC   C1B 7293  16.409   4.031  18.049
36005DPPC   C2B 7294  16.209   4.171  17.769
36005DPPC   C3B 7295  15.909   4.141  17.399
36005DPPC   C4B 7296  15.639   4.191  17.029
36006DPPC   NC3 7297  13.429   0.461  20.919
36006DPPC   PO4 7298  13.379   0.101  20.749
36006DPPC   GL1 7299  13.199   6.483  20.349
36006DPPC   GL2 7300  13.179   0.161  20.389
36006DPPC   C1A 7301  13.049   6.533  20.049
36006DPPC   C2A 7302  12.859   6.563  19.659
36006DPPC   C3A 7303  12.619   0.081  19.319
36006DPPC   C4A 7304  12.339   0.271  18.949
36006DPPC   C1B 7305  12.969   0.411  20.229
36006DPPC   C2B 7306  12.829   0.531  19.829
36006DPPC   C3B 7307  12.569   0.621  19.409
36006DPPC   C4B 7308  12.199   0.731  19.089
36007DPPC   NC3 7309  17.479   5.603  18.149
36007DPPC   PO4 7310  17.309   5.933  17.959
36007DPPC   GL1 7311  16.979   5.993  17.729
36007DPPC   GL2 7312  17.139   5.943  17.469
36007DPPC   C1A 7313  16.649   6.003  17.599
36007DPPC   C2A 7314  16.289   5.993  17.399
36007DPPC   C3A 7315  15.939   5.933  17.069
36007DPPC   C4A 7316  15.569   5.953  16.819
36007DPPC   C1B 7317  16.909   5.793  17.249
36007DPPC   C2B 7318  16.629   5.763  16.999
36007DPPC   C3B 7319  16.249   5.783  16.679
36007DPPC   C4B 7320  15.909   5.863  16.389
36008DPPC   NC3 7321  16.129   4.833  19.429
36008DPPC   PO4 7322  16.289   5.163  19.249
36008DPPC   GL1 7323  16.079   5.513  19.099
36008DPPC   GL2 7324  16.279   5.613  18.919
36008DPPC   C1A 7325  15.839   5.353  18.869
36008DPPC   C2A 7326  15.689   5.223  18.559
36008DPPC   C3A 7327  15.379   5.113  18.219
36008DPPC   C4A 7328  15.019   4.973  17.909
36008DPPC   C1B 7329  16.099   5.703  18.589
36008DPPC   C2B 7330  15.879   5.813  18.279
36008DPPC   C3B 7331  15.579   5.913  17.899
36008DPPC   C4B 7332  15.199   5.913  17.609
36009DPPC   NC3 7333  17.219   4.623  18.659
36009DPPC   PO4 7334  16.879   4.573  18.479
36009DPPC   GL1 7335  16.719   4.353  18.139
36009DPPC   GL2 7336  16.419   4.503  18.279
36009DPPC   C1A 7337  16.639   4.353  17.789
36009DPPC   C2A 7338  16.469   4.463  17.459
36009DPPC   C3A 7339  16.219   4.453  17.089
36009DPPC   C4A 7340  15.989   4.453  16.709
36009DPPC   C1B 7341  16.089   4.473  18.139
36009DPPC   C2B 7342  15.729   4.423  17.979
36009DPPC   C3B 7343  15.469   4.313  17.559
36009DPPC   C4B 7344  15.159   4.323  17.129
36010DPPC   NC3 7345  17.479   2.381  18.179
36010DPPC   PO4 7346  17.439   1.991  18.269
36010DPPC   GL1 7347  17.379   1.531  18.019
36010DPPC   GL2 7348  17.129   1.801  17.969
36010DPPC   C1A 7349  17.179   1.511  17.699
36010DPPC   C2A 7350  17.049   1.441  17.309
36010DPPC   C3A 7351  16.729   1.471  16.949
36010DPPC   C4A 7352  16.399   1.451  16.609
36010DPPC   C1B 7353  16.799   1.761  17.779
36010DPPC   C2B 7354  16.559   1.751  17.459
36010DPPC   C3B 7355  16.189   1.701  17.159
36010DPPC   C4B 7356  15.919   1.641  16.849
36011DPPC   NC3 7357  17.499   5.223  17.339
36011DPPC   PO4 7358  17.579   5.613  17.399
36011DPPC   GL1 7359  17.389   5.823  17.069
36011DPPC   GL2 7360  17.389   5.533  16.939
36011DPPC   C1A 7361  17.089   5.943  16.879
36011DPPC   C2A 7362  16.769   6.083  16.619
36011DPPC   C3A 7363  16.399   6.083  16.299
36011DPPC   C4A 7364  16.089   6.173  15.919
36011DPPC   C1B 7365  17.089   5.513  16.749
36011DPPC   C2B 7366  16.799   5.583  16.539
36011DPPC   C3B 7367  16.409   5.583  16.249
36011DPPC   C4B 7368  16.029   5.653  15.959
36012DPPC   NC3 7369  13.449   4.121  20.769
36012DPPC   PO4 7370  13.139   4.273  21.029
36012DPPC   GL1 7371  13.099   4.403  20.669
36012DPPC   GL2 7372  13.079   4.653  20.659
36012DPPC   C1A 7373  12.739   4.363  20.519
36012DPPC   C2A 7374  12.449   4.413  20.219
36012DPPC   C3A 7375  12.199   4.463  19.829
36012DPPC   C4A 7376  12.079   4.563  19.439
36012DPPC   C1B 7377  12.969   4.833  20.299
36012DPPC   C2B 7378  12.679   4.863  19.959
36012DPPC   C3B 7379  12.509   4.863  19.519
36012DPPC   C4B 7380  12.249   4.883  19.099
36013DPPC   NC3 7381  14.209   0.191  21.099
36013DPPC   PO4 7382  13.859   0.181  20.839
36013DPPC   GL1 7383  13.829   0.271  20.479
36013DPPC   GL2 7384  13.629   0.091  20.349
36013DPPC   C1A 7385  14.119   0.271  20.229
36013DPPC   C2A 7386  14.419   0.191  19.939
36013DPPC   C3A 7387  14.399   0.501  19.559
36013DPPC   C4A 7388  14.419   0.691  19.109
36013DPPC   C1B 7389  13.459   0.131  19.989
36013DPPC   C2B 7390  13.289   0.341  19.669
36013DPPC   C3B 7391  13.049   0.361  19.249
36013DPPC   C4B 7392  12.839   0.341  18.829
36014DPPC   NC3 7393  16.379   3.251  19.489
36014DPPC   PO4 7394  16.529   3.011  19.199
36014DPPC   GL1 7395  16.279   2.811  18.929
36014DPPC   GL2 7396  16.019   2.741  19.059
36014DPPC   C1A 7397  16.329   2.921  18.549
36014DPPC   C2A 7398  16.289   2.931  18.069
36014DPPC   C3A 7399  15.959   2.841  17.699
36014DPPC   C4A 7400  15.579   2.781  17.359
36014DPPC   C1B 7401  15.759   2.861  18.839
36014DPPC   C2B 7402  15.539   2.791  18.509
36014DPPC   C3B 7403  15.189   2.741  18.209
36014DPPC   C4B 7404  14.919   2.821  17.799
36015DPPC   NC3 7405   8.239   0.901  21.309
36015DPPC   PO4 7406   8.599   0.901  21.119
36015DPPC   GL1 7407   8.909   0.801  20.869
36015DPPC   GL2 7408   8.719   0.731  20.679
36015DPPC   C1A 7409   9.179   0.931  20.659
36015DPPC   C2A 7410   9.419   0.851  20.329
36015DPPC   C3A 7411   9.539   0.701  19.879
36015DPPC   C4A 7412   9.849   0.741  19.539
36015DPPC   C1B 7413   8.899   0.631  20.389
36015DPPC   C2B 7414   9.119   0.541  20.039
36015DPPC   C3B 7415   9.229   0.481  19.569
36015DPPC   C4B 7416   9.569   0.481  19.169
36016DPPC   NC3 7417  17.759   4.853  18.019
36016DPPC   PO4 7418  17.509   5.143  17.829
36016DPPC   GL1 7419  17.059   5.063  17.709
36016DPPC   GL2 7420  17.219   4.893  17.639
36016DPPC   C1A 7421  16.989   5.283  17.389
36016DPPC   C2A 7422  16.759   5.273  17.059
36016DPPC   C3A 7423  16.409   5.243  16.699
36016DPPC   C4A 7424  16.019   5.303  16.429
36016DPPC   C1B 7425  17.109   4.853  17.279
36016DPPC   C2B 7426  16.739   4.783  17.029
36016DPPC   C3B 7427  16.419   4.713  16.679
36016DPPC   C4B 7428  15.999   4.813  16.369
36017DPPC   NC3 7429  16.449   1.971  20.319
36017DPPC   PO4 7430  16.079   1.891  20.249
36017DPPC   GL1 7431  15.869   1.851  19.919
36017DPPC   GL2 7432  16.059   1.641  19.749
36017DPPC   C1A 7433  15.579   1.941  19.769
36017DPPC   C2A 7434  15.339   2.111  19.459
36017DPPC   C3A 7435  15.019   2.131  19.179
36017DPPC   C4A 7436  14.659   2.231  18.839
36017DPPC   C1B 7437  15.899   1.441  19.449
36017DPPC   C2B 7438  15.669   1.451  19.099
36017DPPC   C3B 7439  15.399   1.471  18.719
36017DPPC   C4B 7440  15.029   1.461  18.319
36018DPPC   NC3 7441  11.799   5.863  21.769
36018DPPC   PO4 7442  12.049   6.073  21.579
36018DPPC   GL1 7443  11.929   6.033  21.249
36018DPPC   GL2 7444  11.739   5.833  21.279
36018DPPC   C1A 7445  12.059   6.243  21.009
36018DPPC   C2A 7446  12.249   6.393  20.679
36018DPPC   C3A 7447  12.189   6.493  20.259
36018DPPC   C4A 7448  11.949   0.051  19.839
36018DPPC   C1B 7449  11.769   5.453  21.159
36018DPPC   C2B 7450  11.809   5.073  20.999
36018DPPC   C3B 7451  11.719   4.613  20.849
36018DPPC   C4B 7452  11.729   4.121  20.649
36019DPPC   NC3 7453  17.669   3.241  17.639
36019DPPC   PO4 7454  17.809   2.931  17.869
36019DPPC   GL1 7455  17.549   2.651  17.659
36019DPPC   GL2 7456  17.349   2.731  17.789
36019DPPC   C1A 7457  17.339   2.611  17.289
36019DPPC   C2A 7458  17.269   2.341  16.989
36019DPPC   C3A 7459  16.929   2.311  16.719
36019DPPC   C4A 7460  16.649   2.191  16.299
36019DPPC   C1B 7461  17.029   2.621  17.639
36019DPPC   C2B 7462  16.799   2.431  17.279
36019DPPC   C3B 7463  16.479   2.521  16.919
36019DPPC   C4B 7464  16.229   2.371  16.539
36020DPPC   NC3 7465  15.639   5.703  19.819
36020DPPC   PO4 7466  15.539   5.283  19.889
36020DPPC   GL1 7467  15.369   5.433  19.509
36020DPPC   GL2 7468  15.559   5.583  19.339
36020DPPC   C1A 7469  15.229   5.173  19.349
36020DPPC   C2A 7470  15.019   4.803  19.369
36020DPPC   C3A 7471  14.629   4.573  19.529
36020DPPC   C4A 7472  14.439   4.161  19.769
36020DPPC   C1B 7473  15.459   5.553  18.969
36020DPPC   C2B 7474  15.379   5.643  18.569
36020DPPC   C3B 7475  15.219   5.633  18.119
36020DPPC   C4B 7476  14.889   5.493  17.729
36021DPPC   NC3 7477   9.229   2.941  21.609
36021DPPC   PO4 7478   9.529   2.641  21.609
36021DPPC   GL1 7479   9.609   2.801  21.249
36021DPPC   GL2 7480   9.819   2.571  21.309
36021DPPC   C1A 7481   9.599   2.681  20.919
36021DPPC   C2A 7482   9.649   2.661  20.499
36021DPPC   C3A 7483   9.649   2.641  20.059
36021DPPC   C4A 7484   9.489   2.311  19.749
36021DPPC   C1B 7485   9.839   2.271  21.069
36021DPPC   C2B 7486   9.709   1.921  20.809
36021DPPC   C3B 7487   9.699   1.621  20.509
36021DPPC   C4B 7488   9.949   1.531  20.079
36022DPPC   NC3 7489   9.839   3.341  22.009
36022DPPC   PO4 7490   9.489   3.271  21.879
36022DPPC   GL1 7491   9.579   3.181  21.449
36022DPPC   GL2 7492   9.779   3.401  21.419
36022DPPC   C1A 7493   9.549   3.161  21.109
36022DPPC   C2A 7494   9.689   3.131  20.719
36022DPPC   C3A 7495   9.939   3.251  20.299
36022DPPC   C4A 7496  10.159   3.691  20.259
36022DPPC   C1B 7497   9.969   3.231  21.169
36022DPPC   C2B 7498  10.199   3.191  20.829
36022DPPC   C3B 7499  10.459   3.271  20.399
36022DPPC   C4B 7500  10.939   3.551  20.339
36023DPPC   NC3 7501  17.149   6.433  17.929
36023DPPC   PO4 7502  17.239   0.211  17.999
36023DPPC   GL1 7503  17.219   0.251  17.569
36023DPPC   GL2 7504  16.949   0.171  17.689
36023DPPC   C1A 7505  17.119   0.501  17.379
36023DPPC   C2A 7506  16.969   0.411  17.029
36023DPPC   C3A 7507  16.589   0.471  16.739
36023DPPC   C4A 7508  16.229   0.451  16.419
36023DPPC   C1B 7509  16.709   0.201  17.389
36023DPPC   C2B 7510  16.479   0.141  17.089
36023DPPC   C3B 7511  16.049   0.241  16.859
36023DPPC   C4B 7512  15.729   0.211  16.489
36024DPPC   NC3 7513  16.659   3.291  18.809
36024DPPC   PO4 7514  16.879   3.101  18.539
36024DPPC   GL1 7515  16.899   3.151  18.099
36024DPPC   GL2 7516  16.839   3.411  18.109
36024DPPC   C1A 7517  16.699   3.081  17.829
36024DPPC   C2A 7518  16.359   3.151  17.579
36024DPPC   C3A 7519  15.939   3.131  17.289
36024DPPC   C4A 7520  15.639   3.171  16.869
36024DPPC   C1B 7521  16.509   3.581  17.949
36024DPPC   C2B 7522  16.209   3.661  17.619
36024DPPC   C3B 7523  15.869   3.591  17.259
36024DPPC   C4B 7524  15.549   3.661  16.859
36025DPPC   NC3 7525  18.249   2.241  17.189
36025DPPC   PO4 7526  18.149   2.521  17.449
36025DPPC   GL1 7527  17.749   2.351  17.379
36025DPPC   GL2 7528  17.819   2.401  17.119
36025DPPC   C1A 7529  17.389   2.221  17.409
36025DPPC   C2A 7530  17.019   1.921  17.369
36025DPPC   C3A 7531  16.679   1.991  17.009
36025DPPC   C4A 7532  16.329   1.921  16.669
36025DPPC   C1B 7533  17.669   2.171  16.879
36025DPPC   C2B 7534  17.419   2.051  16.579
36025DPPC   C3B 7535  17.089   2.031  16.229
36025DPPC   C4B 7536  16.729   2.011  15.869
36026DPPC   NC3 7537  16.209   3.881  19.509
36026DPPC   PO4 7538  15.979   3.541  19.549
36026DPPC   GL1 7539  15.929   3.301  19.219
36026DPPC   GL2 7540  15.949   3.061  19.409
36026DPPC   C1A 7541  15.639   3.331  18.969
36026DPPC   C2A 7542  15.429   3.251  18.589
36026DPPC   C3A 7543  15.119   3.331  18.219
36026DPPC   C4A 7544  14.759   3.281  17.799
36026DPPC   C1B 7545  15.569   2.961  19.349
36026DPPC   C2B 7546  15.349   2.931  19.029
36026DPPC   C3B 7547  14.999   2.871  18.669
36026DPPC   C4B 7548  14.699   2.881  18.229
36027DPPC   NC3 7549  10.719   2.611  22.119
36027DPPC   PO4 7550  10.909   2.311  21.919
36027DPPC   GL1 7551  10.679   2.271  21.629
36027DPPC   GL2 7552  10.499   2.021  21.629
36027DPPC   C1A 7553  10.729   2.161  21.259
36027DPPC   C2A 7554  10.659   2.071  20.869
36027DPPC   C3A 7555  10.669   2.251  20.389
36027DPPC   C4A 7556  10.879   2.251  19.989
36027DPPC   C1B 7557  10.489   1.771  21.359
36027DPPC   C2B 7558  10.549   1.571  20.989
36027DPPC   C3B 7559  10.719   1.241  20.659
36027DPPC   C4B 7560  10.799   1.181  20.219
36028DPPC   NC3 7561   9.969   5.103  22.159
36028DPPC   PO4 7562  10.229   4.913  21.919
36028DPPC   GL1 7563  10.119   4.903  21.519
36028DPPC   GL2 7564  10.309   5.013  21.429
36028DPPC   C1A 7565   9.839   5.053  21.289
36028DPPC   C2A 7566   9.629   5.013  20.919
36028DPPC   C3A 7567   9.689   4.953  20.449
36028DPPC   C4A 7568   9.889   4.843  20.039
36028DPPC   C1B 7569  10.159   4.933  21.079
36028DPPC   C2B 7570   9.979   4.703  20.739
36028DPPC   C3B 7571   9.859   4.443  20.299
36028DPPC   C4B 7572  10.009   4.081  19.979
36029DPPC   NC3 7573  12.069   2.611  21.819
36029DPPC   PO4 7574  11.709   2.571  21.589
36029DPPC   GL1 7575  11.759   2.781  21.269
36029DPPC   GL2 7576  11.469   2.751  21.279
36029DPPC   C1A 7577  11.919   2.771  20.989
36029DPPC   C2A 7578  12.019   2.891  20.609
36029DPPC   C3A 7579  12.119   3.101  20.229
36029DPPC   C4A 7580  11.919   3.341  19.799
36029DPPC   C1B 7581  11.129   2.631  21.109
36029DPPC   C2B 7582  11.059   2.411  20.789
36029DPPC   C3B 7583  11.129   1.991  20.499
36029DPPC   C4B 7584  10.989   1.731  20.119
36030DPPC   NC3 7585  12.269   1.741  21.279
36030DPPC   PO4 7586  12.049   1.921  21.009
36030DPPC   GL1 7587  11.799   1.881  20.629
36030DPPC   GL2 7588  11.759   1.641  20.719
36030DPPC   C1A 7589  11.659   2.001  20.329
36030DPPC   C2A 7590  11.359   2.071  19.989
36030DPPC   C3A 7591  11.259   2.061  19.509
36030DPPC   C4A 7592  11.409   2.071  18.989
36030DPPC   C1B 7593  11.419   1.541  20.719
36030DPPC   C2B 7594  11.249   1.181  20.569
36030DPPC   C3B 7595  11.029   0.771  20.599
36030DPPC   C4B 7596  10.659   0.621  20.919
36031DPPC   NC3 7597  16.869   1.491  18.979
36031DPPC   PO4 7598  17.049   1.221  18.769
36031DPPC   GL1 7599  16.829   1.141  18.409
36031DPPC   GL2 7600  16.749   1.481  18.529
36031DPPC   C1A 7601  16.639   1.071  18.149
36031DPPC   C2A 7602  16.429   0.901  17.829
36031DPPC   C3A 7603  16.109   0.921  17.449
36031DPPC   C4A 7604  15.729   0.891  17.159
36031DPPC   C1B 7605  16.669   1.551  18.199
36031DPPC   C2B 7606  16.439   1.421  17.889
36031DPPC   C3B 7607  16.129   1.341  17.649
36031DPPC   C4B 7608  15.789   1.361  17.259
36032DPPC   NC3 7609  10.949   1.791  21.599
36032DPPC   PO4 7610  11.179   1.451  21.499
36032DPPC   GL1 7611  11.199   1.551  21.149
36032DPPC   GL2 7612  11.189   1.861  21.199
36032DPPC   C1A 7613  10.979   1.621  20.819
36032DPPC   C2A 7614  10.639   1.701  20.489
36032DPPC   C3A 7615  10.159   1.811  20.399
36032DPPC   C4A 7616   9.779   2.101  20.389
36032DPPC   C1B 7617  11.339   2.011  20.879
36032DPPC   C2B 7618  11.529   2.311  20.659
36032DPPC   C3B 7619  11.449   2.821  20.769
36032DPPC   C4B 7620  11.369   3.291  20.669
36033DPPC   NC3 7621  18.219   2.031  17.759
36033DPPC   PO4 7622  17.839   2.001  17.909
36033DPPC   GL1 7623  17.429   2.051  17.789
36033DPPC   GL2 7624  17.439   1.811  17.629
36033DPPC   C1A 7625  17.129   2.231  17.769
36033DPPC   C2A 7626  16.699   2.161  17.689
36033DPPC   C3A 7627  16.329   2.201  17.349
36033DPPC   C4A 7628  16.019   2.251  16.919
36033DPPC   C1B 7629  17.439   1.821  17.219
36033DPPC   C2B 7630  17.149   1.821  16.909
36033DPPC   C3B 7631  16.839   1.731  16.509
36033DPPC   C4B 7632  16.499   1.671  16.159
36034DPPC   NC3 7633  15.329   2.001  20.799
36034DPPC   PO4 7634  14.969   1.961  20.529
36034DPPC   GL1 7635  14.839   1.721  20.199
36034DPPC   GL2 7636  15.099   1.601  20.119
36034DPPC   C1A 7637  14.639   1.971  20.019
36034DPPC   C2A 7638  14.389   1.901  19.739
36034DPPC   C3A 7639  14.419   1.571  19.349
36034DPPC   C4A 7640  14.439   1.201  19.039
36034DPPC   C1B 7641  15.119   1.241  19.989
36034DPPC   C2B 7642  15.159   0.901  19.839
36034DPPC   C3B 7643  14.939   0.481  19.699
36034DPPC   C4B 7644  14.729   0.081  19.499
36035DPPC   NC3 7645   9.509   5.753  22.139
36035DPPC   PO4 7646   9.689   5.453  21.899
36035DPPC   GL1 7647   9.639   5.453  21.419
36035DPPC   GL2 7648   9.919   5.743  21.509
36035DPPC   C1A 7649   9.569   5.483  21.109
36035DPPC   C2A 7650   9.599   5.463  20.719
36035DPPC   C3A 7651   9.699   5.453  20.269
36035DPPC   C4A 7652   9.939   5.353  19.879
36035DPPC   C1B 7653  10.119   5.843  21.289
36035DPPC   C2B 7654  10.229   6.053  20.899
36035DPPC   C3B 7655  10.159   6.223  20.429
36035DPPC   C4B 7656  10.329   6.233  19.979
36036DPPC   NC3 7657   8.839   4.643  21.489
36036DPPC   PO4 7658   8.939   5.013  21.449
36036DPPC   GL1 7659   9.239   5.063  21.149
36036DPPC   GL2 7660   9.259   4.753  21.279
36036DPPC   C1A 7661   9.129   5.083  20.749
36036DPPC   C2A 7662   9.249   5.123  20.339
36036DPPC   C3A 7663   9.489   5.143  19.949
36036DPPC   C4A 7664   9.639   5.123  19.469
36036DPPC   C1B 7665   9.319   4.673  20.929
36036DPPC   C2B 7666   9.279   4.623  20.539
36036DPPC   C3B 7667   9.419   4.653  20.069
36036DPPC   C4B 7668   9.549   4.673  19.659
36037DPPC   NC3 7669  17.199   4.243  18.079
36037DPPC   PO4 7670  17.129   3.871  18.159
36037DPPC   GL1 7671  16.839   3.981  17.839
36037DPPC   GL2 7672  17.059   4.021  17.639
36037DPPC   C1A 7673  16.569   3.941  17.599
36037DPPC   C2A 7674  16.349   4.011  17.259
36037DPPC   C3A 7675  16.089   3.941  16.889
36037DPPC   C4A 7676  15.809   3.951  16.519
36037DPPC   C1B 7677  16.879   4.181  17.389
36037DPPC   C2B 7678  16.769   4.283  17.009
36037DPPC   C3B 7679  16.469   4.221  16.689
36037DPPC   C4B 7680  16.159   4.181  16.319
36038DPPC   NC3 7681  15.949   0.991  20.309
36038DPPC   PO4 7682  15.889   1.371  20.359
36038DPPC   GL1 7683  15.769   1.311  20.019
36038DPPC   GL2 7684  16.029   1.191  19.879
36038DPPC   C1A 7685  15.569   1.511  19.759
36038DPPC   C2A 7686  15.349   1.611  19.449
36038DPPC   C3A 7687  15.019   1.641  19.139
36038DPPC   C4A 7688  14.739   1.581  18.719
36038DPPC   C1B 7689  15.949   1.031  19.569
36038DPPC   C2B 7690  15.769   0.961  19.209
36038DPPC   C3B 7691  15.549   0.941  18.789
36038DPPC   C4B 7692  15.229   0.971  18.509
36039DPPC   NC3 7693  10.059   2.491  22.379
36039DPPC   PO4 7694  10.149   2.771  22.099
36039DPPC   GL1 7695  10.349   2.731  21.709
36039DPPC   GL2 7696  10.239   3.061  21.619
36039DPPC   C1A 7697  10.299   2.431  21.609
36039DPPC   C2A 7698  10.309   2.281  21.229
36039DPPC   C3A 7699  10.249   2.281  20.719
36039DPPC   C4A 7700  10.239   2.361  20.209
36039DPPC   C1B 7701  10.289   2.891  21.259
36039DPPC   C2B 7702  10.129   2.721  20.939
36039DPPC   C3B 7703  10.099   2.741  20.469
36039DPPC   C4B 7704  10.249   2.891  20.029
36040DPPC   NC3 7705  17.049   5.313  18.149
36040DPPC   PO4 7706  16.979   5.033  18.389
36040DPPC   GL1 7707  16.759   4.843  18.029
36040DPPC   GL2 7708  16.669   5.073  17.969
36040DPPC   C1A 7709  16.449   4.753  17.899
36040DPPC   C2A 7710  16.069   4.673  17.619
36040DPPC   C3A 7711  15.779   4.703  17.209
36040DPPC   C4A 7712  15.419   4.703  16.829
36040DPPC   C1B 7713  16.349   5.253  17.929
36040DPPC   C2B 7714  16.049   5.163  17.639
36040DPPC   C3B 7715  15.639   5.243  17.299
36040DPPC   C4B 7716  15.389   5.233  16.909
36041DPPC   NC3 7717  12.149   4.843  21.789
36041DPPC   PO4 7718  12.279   4.583  21.539
36041DPPC   GL1 7719  12.219   4.603  21.109
36041DPPC   GL2 7720  12.009   4.313  21.209
36041DPPC   C1A 7721  12.239   4.793  20.849
36041DPPC   C2A 7722  12.019   5.003  20.559
36041DPPC   C3A 7723  11.719   5.143  20.139
36041DPPC   C4A 7724  11.509   5.293  19.749
36041DPPC   C1B 7725  12.139   4.151  20.919
36041DPPC   C2B 7726  12.189   3.981  20.579
36041DPPC   C3B 7727  12.089   3.701  20.159
36041DPPC   C4B 7728  11.859   3.861  19.729
36042DPPC   NC3 7729   8.569   0.351  20.889
36042DPPC   PO4 7730   8.919   0.401  21.089
36042DPPC   GL1 7731   9.089   0.231  20.739
36042DPPC   GL2 7732   9.079   6.593  20.809
36042DPPC   C1A 7733   9.389   0.371  20.519
36042DPPC   C2A 7734   9.579   0.371  20.199
36042DPPC   C3A 7735   9.819   0.261  19.739
36042DPPC   C4A 7736   9.989   0.241  19.339
36042DPPC   C1B 7737   9.409   6.503  20.679
36042DPPC   C2B 7738   9.639   6.423  20.309
36042DPPC   C3B 7739   9.879   6.393  19.929
36042DPPC   C4B 7740  10.059   6.323  19.519
36043DPPC   NC3 7741  15.629   3.871  20.079
36043DPPC   PO4 7742  15.799   4.011  19.749
36043DPPC   GL1 7743  15.779   3.941  19.339
36043DPPC   GL2 7744  15.649   3.711  19.259
36043DPPC   C1A 7745  15.819   4.041  18.989
36043DPPC   C2A 7746  15.679   4.041  18.589
36043DPPC   C3A 7747  15.459   4.051  18.169
36043DPPC   C4A 7748  15.159   4.011  17.789
36043DPPC   C1B 7749  15.479   3.751  18.919
36043DPPC   C2B 7750  15.259   3.801  18.539
36043DPPC   C3B 7751  14.909   3.831  18.229
36043DPPC   C4B 7752  14.749   3.741  17.759
36044DPPC   NC3 7753  16.759   3.881  18.959
36044DPPC   PO4 7754  16.599   3.571  19.149
36044DPPC   GL1 7755  16.269   3.381  19.069
36044DPPC   GL2 7756  16.119   3.681  19.109
36044DPPC   C1A 7757  16.079   3.211  18.829
36044DPPC   C2A 7758  15.909   3.091  18.479
36044DPPC   C3A 7759  15.699   3.081  18.139
36044DPPC   C4A 7760  15.369   3.071  17.759
36044DPPC   C1B 7761  15.899   3.681  18.839
36044DPPC   C2B 7762  15.809   3.601  18.429
36044DPPC   C3B 7763  15.549   3.541  18.079
36044DPPC   C4B 7764  15.189   3.521  17.759
36045DPPC   NC3 7765  12.899   0.991  21.219
36045DPPC   PO4 7766  13.149   0.811  21.009
36045DPPC   GL1 7767  13.049   0.841  20.599
36045DPPC   GL2 7768  13.139   0.601  20.539
36045DPPC   C1A 7769  12.799   1.021  20.409
36045DPPC   C2A 7770  12.619   1.281  20.179
36045DPPC   C3A 7771  12.429   1.721  20.159
36045DPPC   C4A 7772  12.319   2.171  20.009
36045DPPC   C1B 7773  13.419   0.541  20.309
36045DPPC   C2B 7774  13.749   0.511  20.089
36045DPPC   C3B 7775  14.109   0.781  19.919
36045DPPC   C4B 7776  14.309   1.051  19.519
36046DPPC   NC3 7777  15.959   2.791  20.199
36046DPPC   PO4 7778  16.129   2.601  19.959
36046DPPC   GL1 7779  16.049   2.381  19.609
36046DPPC   GL2 7780  16.069   2.121  19.589
36046DPPC   C1A 7781  15.789   2.481  19.369
36046DPPC   C2A 7782  15.509   2.471  19.049
36046DPPC   C3A 7783  15.169   2.431  18.629
36046DPPC   C4A 7784  14.769   2.411  18.359
36046DPPC   C1B 7785  15.769   2.021  19.339
36046DPPC   C2B 7786  15.479   1.981  18.999
36046DPPC   C3B 7787  15.159   1.941  18.649
36046DPPC   C4B 7788  14.789   1.911  18.309
36047DPPC   NC3 7789  15.409   3.111  20.129
36047DPPC   PO4 7790  15.699   3.371  20.099
36047DPPC   GL1 7791  15.529   3.421  19.709
36047DPPC   GL2 7792  15.319   3.621  19.799
36047DPPC   C1A 7793  15.369   3.331  19.359
36047DPPC   C2A 7794  15.169   3.381  19.019
36047DPPC   C3A 7795  14.869   3.391  18.639
36047DPPC   C4A 7796  14.529   3.411  18.249
36047DPPC   C1B 7797  15.179   3.761  19.459
36047DPPC   C2B 7798  15.009   3.901  19.119
36047DPPC   C3B 7799  14.749   3.981  18.679
36047DPPC   C4B 7800  14.409   3.981  18.359
36048DPPC   NC3 7801  16.719   0.711  20.089
36048DPPC   PO4 7802  16.359   0.891  19.989
36048DPPC   GL1 7803  16.339   0.921  19.509
36048DPPC   GL2 7804  16.169   0.651  19.529
36048DPPC   C1A 7805  16.199   1.181  19.239
36048DPPC   C2A 7806  16.109   1.251  18.849
36048DPPC   C3A 7807  15.789   1.261  18.469
36048DPPC   C4A 7808  15.449   1.231  18.069
36048DPPC   C1B 7809  15.829   0.571  19.439
36048DPPC   C2B 7810  15.669   0.471  19.009
36048DPPC   C3B 7811  15.349   0.481  18.619
36048DPPC   C4B 7812  15.039   0.481  18.259
36049DPPC   NC3 7813  12.679   3.811  21.649
36049DPPC   PO4 7814  12.909   3.891  21.289
36049DPPC   GL1 7815  12.579   3.891  20.999
36049DPPC   GL2 7816  12.619   4.211  20.949
36049DPPC   C1A 7817  12.509   3.691  20.679
36049DPPC   C2A 7818  12.559   3.281  20.519
36049DPPC   C3A 7819  12.659   2.801  20.449
36049DPPC   C4A 7820  12.679   2.271  20.489
36049DPPC   C1B 7821  12.379   4.413  20.729
36049DPPC   C2B 7822  12.079   4.503  20.499
36049DPPC   C3B 7823  11.839   4.663  20.139
36049DPPC   C4B 7824  11.569   4.793  19.729
36050DPPC   NC3 7825  16.809   5.653  18.979
36050DPPC   PO4 7826  16.639   5.313  18.869
36050DPPC   GL1 7827  16.289   5.313  18.609
36050DPPC   GL2 7828  16.249   5.123  18.759
36050DPPC   C1A 7829  16.049   5.343  18.329
36050DPPC   C2A 7830  15.789   5.363  17.999
36050DPPC   C3A 7831  15.409   5.403  17.709
36050DPPC   C4A 7832  15.049   5.453  17.299
36050DPPC   C1B 7833  16.059   4.873  18.549
36050DPPC   C2B 7834  15.879   4.943  18.149
36050DPPC   C3B 7835  15.599   4.893  17.809
36050DPPC   C4B 7836  15.299   4.853  17.469
36051DPPC   NC3 7837  16.469   4.723  18.809
36051DPPC   PO4 7838  16.229   4.613  19.059
36051DPPC   GL1 7839  15.989   4.433  18.829
36051DPPC   GL2 7840  16.069   4.433  18.529
36051DPPC   C1A 7841  15.689   4.563  18.699
36051DPPC   C2A 7842  15.519   4.653  18.379
36051DPPC   C3A 7843  15.259   4.553  17.979
36051DPPC   C4A 7844  14.939   4.573  17.529
36051DPPC   C1B 7845  16.129   4.111  18.349
36051DPPC   C2B 7846  15.959   3.871  18.059
36051DPPC   C3B 7847  15.599   3.841  17.669
36051DPPC   C4B 7848  15.279   3.821  17.319
36052DPPC   NC3 7849  15.359   6.393  20.309
36052DPPC   PO4 7850  15.589   6.133  20.089
36052DPPC   GL1 7851  15.549   6.253  19.759
36052DPPC   GL2 7852  15.869   6.263  19.639
36052DPPC   C1A 7853  15.199   6.073  19.599
36052DPPC   C2A 7854  14.889   6.233  19.339
36052DPPC   C3A 7855  14.679   6.443  19.029
36052DPPC   C4A 7856  14.879   0.101  18.649
36052DPPC   C1B 7857  15.939   6.423  19.319
36052DPPC   C2B 7858  15.789   6.593  18.989
36052DPPC   C3B 7859  15.489   0.011  18.619
36052DPPC   C4B 7860  15.109   6.523  18.259
36053DPPC   NC3 7861  16.609   6.483  19.229
36053DPPC   PO4 7862  16.569   6.103  19.049
36053DPPC   GL1 7863  16.419   5.983  18.759
36053DPPC   GL2 7864  16.599   5.903  18.639
36053DPPC   C1A 7865  16.169   6.153  18.589
36053DPPC   C2A 7866  15.909   6.313  18.379
36053DPPC   C3A 7867  15.569   6.393  18.059
36053DPPC   C4A 7868  15.279   6.413  17.729
36053DPPC   C1B 7869  16.449   5.823  18.309
36053DPPC   C2B 7870  16.219   5.723  17.959
36053DPPC   C3B 7871  15.909   5.663  17.599
36053DPPC   C4B 7872  15.499   5.703  17.249
36054DPPC   NC3 7873  14.779   4.863  20.359
36054DPPC   PO4 7874  14.449   4.713  20.189
36054DPPC   GL1 7875  14.109   4.523  19.939
36054DPPC   GL2 7876  14.159   4.293  20.159
36054DPPC   C1A 7877  13.799   4.563  19.779
36054DPPC   C2A 7878  13.609   4.543  19.449
36054DPPC   C3A 7879  13.229   4.483  19.049
36054DPPC   C4A 7880  12.989   4.453  18.639
36054DPPC   C1B 7881  14.249   3.941  20.069
36054DPPC   C2B 7882  14.199   3.531  20.179
36054DPPC   C3B 7883  14.209   3.031  20.059
36054DPPC   C4B 7884  14.449   2.551  19.889
36055DPPC   NC3 7885  16.739   2.751  18.839
36055DPPC   PO4 7886  16.629   2.511  19.089
36055DPPC   GL1 7887  16.269   2.371  18.949
36055DPPC   GL2 7888  16.129   2.221  19.149
36055DPPC   C1A 7889  16.179   2.461  18.669
36055DPPC   C2A 7890  15.969   2.611  18.399
36055DPPC   C3A 7891  15.689   2.541  18.039
36055DPPC   C4A 7892  15.329   2.531  17.759
36055DPPC   C1B 7893  15.899   2.151  18.879
36055DPPC   C2B 7894  15.619   2.301  18.579
36055DPPC   C3B 7895  15.359   2.201  18.169
36055DPPC   C4B 7896  14.959   2.241  17.889
36056DPPC   NC3 7897   8.379   2.121  21.169
36056DPPC   PO4 7898   8.329   1.711  21.039
36056DPPC   GL1 7899   8.569   1.331  20.929
36056DPPC   GL2 7900   8.789   1.601  20.929
36056DPPC   C1A 7901   8.759   1.201  20.649
36056DPPC   C2A 7902   8.929   1.091  20.289
36056DPPC   C3A 7903   9.109   0.941  19.819
36056DPPC   C4A 7904   9.349   0.941  19.419
36056DPPC   C1B 7905   8.729   1.671  20.549
36056DPPC   C2B 7906   8.879   1.561  20.129
36056DPPC   C3B 7907   9.159   1.491  19.709
36056DPPC   C4B 7908   9.349   1.411  19.259
36057DPPC   NC3 7909   9.369   1.901  22.179
36057DPPC   PO4 7910   9.439   2.151  21.849
36057DPPC   GL1 7911   9.549   1.941  21.509
36057DPPC   GL2 7912   9.519   2.251  21.339
36057DPPC   C1A 7913   9.669   1.701  21.229
36057DPPC   C2A 7914   9.749   1.341  21.069
36057DPPC   C3A 7915  10.039   1.041  20.809
36057DPPC   C4A 7916  10.419   0.831  20.529
36057DPPC   C1B 7917   9.389   2.201  21.019
36057DPPC   C2B 7918   9.329   2.351  20.629
36057DPPC   C3B 7919   9.209   2.591  20.199
36057DPPC   C4B 7920   9.349   2.851  19.749
36058DPPC   NC3 7921  10.409   1.011  21.689
36058DPPC   PO4 7922  10.209   0.711  21.519
36058DPPC   GL1 7923  10.429   0.361  21.389
36058DPPC   GL2 7924  10.409   0.161  21.569
36058DPPC   C1A 7925  10.449   0.181  21.099
36058DPPC   C2A 7926  10.579   6.443  20.909
36058DPPC   C3A 7927  10.689   6.083  20.549
36058DPPC   C4A 7928  10.839   5.703  20.259
36058DPPC   C1B 7929  10.469   6.443  21.379
36058DPPC   C2B 7930  10.569   6.073  21.249
36058DPPC   C3B 7931  10.789   5.773  20.899
36058DPPC   C4B 7932  11.009   5.413  20.689
36059DPPC   NC3 7933  13.279   6.013  21.169
36059DPPC   PO4 7934  13.009   6.323  21.089
36059DPPC   GL1 7935  12.579   6.253  20.939
36059DPPC   GL2 7936  12.519   6.573  20.969
36059DPPC   C1A 7937  12.679   6.183  20.569
36059DPPC   C2A 7938  12.729   5.913  20.259
36059DPPC   C3A 7939  12.509   5.833  19.839
36059DPPC   C4A 7940  12.189   5.873  19.519
36059DPPC   C1B 7941  12.439   0.201  20.679
36059DPPC   C2B 7942  12.269   0.391  20.389
36059DPPC   C3B 7943  11.929   0.601  20.069
36059DPPC   C4B 7944  11.529   0.731  19.839
36060DPPC   NC3 7945  11.479   0.521  21.519
36060DPPC   PO4 7946  11.479   0.151  21.449
36060DPPC   GL1 7947  11.339   0.311  21.049
36060DPPC   GL2 7948  11.379   0.001  21.009
36060DPPC   C1A 7949  11.359   0.301  20.689
36060DPPC   C2A 7950  11.209   0.271  20.349
36060DPPC   C3A 7951  11.349   0.271  19.899
36060DPPC   C4A 7952  11.629   0.281  19.539
36060DPPC   C1B 7953  11.359   6.463  20.649
36060DPPC   C2B 7954  11.499   6.473  20.229
36060DPPC   C3B 7955  11.499   6.343  19.749
36060DPPC   C4B 7956  11.429   5.843  19.689
36061DPPC   NC3 7957  14.749   6.033  20.829
36061DPPC   PO4 7958  14.489   6.143  20.609
36061DPPC   GL1 7959  14.299   6.313  20.249
36061DPPC   GL2 7960  14.309   6.083  20.109
36061DPPC   C1A 7961  14.039   6.403  19.969
36061DPPC   C2A 7962  13.879   6.343  19.599
36061DPPC   C3A 7963  13.679   6.223  19.169
36061DPPC   C4A 7964  13.339   6.303  18.799
36061DPPC   C1B 7965  14.299   6.123  19.749
36061DPPC   C2B 7966  14.339   6.023  19.369
36061DPPC   C3B 7967  14.609   5.933  18.919
36061DPPC   C4B 7968  14.899   5.743  18.599
36062DPPC   NC3 7969  17.769   6.363  16.839
36062DPPC   PO4 7970  17.829   6.593  17.139
36062DPPC   GL1 7971  17.419   0.141  17.219
36062DPPC   GL2 7972  17.489   0.331  16.989
36062DPPC   C1A 7973  17.109   0.051  17.189
36062DPPC   C2A 7974  16.859   6.513  16.869
36062DPPC   C3A 7975  16.499   0.001  16.529
36062DPPC   C4A 7976  16.119   0.031  16.159
36062DPPC   C1B 7977  17.329   0.301  16.659
36062DPPC   C2B 7978  17.009   0.251  16.439
36062DPPC   C3B 7979  16.669   0.291  16.109
36062DPPC   C4B 7980  16.329   0.281  15.789
36063DPPC   NC3 7981  16.429   0.401  19.799
36063DPPC   PO4 7982  16.579   0.341  19.449
36063DPPC   GL1 7983  16.429   0.321  19.149
36063DPPC   GL2 7984  16.559   0.321  18.909
36063DPPC   C1A 7985  16.049   0.281  19.239
36063DPPC   C2A 7986  15.669   0.161  19.459
36063DPPC   C3A 7987  15.239   0.041  19.689
36063DPPC   C4A 7988  14.899   0.071  20.059
36063DPPC   C1B 7989  16.409   0.451  18.559
36063DPPC   C2B 7990  16.209   0.501  18.199
36063DPPC   C3B 7991  15.899   0.551  17.879
36063DPPC   C4B 7992  15.499   0.581  17.559
36064DPPC   NC3 7993  17.859   0.521  17.199
36064DPPC   PO4 7994  18.039   0.841  17.129
36064DPPC   GL1 7995  17.819   1.051  16.799
36064DPPC   GL2 7996  17.869   1.251  17.049
36064DPPC   C1A 7997  17.519   0.981  16.549
36064DPPC   C2A 7998  17.249   1.051  16.279
36064DPPC   C3A 7999  16.989   1.021  15.869
36064DPPC   C4A 8000  16.569   0.961  15.669
36064DPPC   C1B 8001  17.509   1.231  17.089
36064DPPC   C2B 8002  17.169   1.211  16.849
36064DPPC   C3B 8003  16.829   1.181  16.509
36064DPPC   C4B 8004  16.539   1.161  16.149
36065DPPC   NC3 8005  17.029   0.611  18.279
36065DPPC   PO4 8006  16.949   0.331  18.539
36065DPPC   GL1 8007  16.749   0.041  18.409
36065DPPC   GL2 8008  16.799   0.071  18.159
36065DPPC   C1A 8009  16.369   0.031  18.259
36065DPPC   C2A 8010  16.059   0.021  18.019
36065DPPC   C3A 8011  15.729   0.071  17.679
36065DPPC   C4A 8012  15.369   0.131  17.359
36065DPPC   C1B 8013  16.599   0.201  17.949
36065DPPC   C2B 8014  16.349   0.341  17.659
36065DPPC   C3B 8015  15.939   0.421  17.349
36065DPPC   C4B 8016  15.609   0.431  17.009
36066DPPC   NC3 8017  10.539   3.671  21.639
36066DPPC   PO4 8018  10.219   3.501  21.699
36066DPPC   GL1 8019  10.129   3.701  21.329
36066DPPC   GL2 8020  10.319   3.441  21.249
36066DPPC   C1A 8021   9.759   3.831  21.359
36066DPPC   C2A 8022   9.399   3.981  21.219
36066DPPC   C3A 8023   9.119   4.323  21.059
36066DPPC   C4A 8024   8.879   4.663  20.889
36066DPPC   C1B 8025  10.639   3.541  21.089
36066DPPC   C2B 8026  10.999   3.691  20.889
36066DPPC   C3B 8027  11.339   3.801  20.579
36066DPPC   C4B 8028  11.569   3.871  20.159
36067DPPC   NC3 8029  16.979   6.103  18.729
36067DPPC   PO4 8030  16.879   6.473  18.819
36067DPPC   GL1 8031  16.499   6.453  18.729
36067DPPC   GL2 8032  16.549   6.263  18.439
36067DPPC   C1A 8033  16.219   0.111  18.649
36067DPPC   C2A 8034  15.869   0.231  18.469
36067DPPC   C3A 8035  15.559   0.261  18.109
36067DPPC   C4A 8036  15.149   0.331  17.819
36067DPPC   C1B 8037  16.279   6.243  18.129
36067DPPC   C2B 8038  15.979   6.173  17.909
36067DPPC   C3B 8039  15.699   6.173  17.519
36067DPPC   C4B 8040  15.359   6.243  17.239
36068DPPC   NC3 8041   8.459   3.141  21.519
36068DPPC   PO4 8042   8.759   3.301  21.719
36068DPPC   GL1 8043   9.079   3.441  21.529
36068DPPC   GL2 8044   8.939   3.711  21.459
36068DPPC   C1A 8045   9.319   3.521  21.239
36068DPPC   C2A 8046   9.619   3.631  20.979
36068DPPC   C3A 8047  10.079   3.651  20.879
36068DPPC   C4A 8048  10.559   3.731  20.669
36068DPPC   C1B 8049   8.989   3.871  21.069
36068DPPC   C2B 8050   9.189   3.941  20.719
36068DPPC   C3B 8051   9.349   4.151  20.349
36068DPPC   C4B 8052   9.529   4.191  19.909
36069DPPC   NC3 8053  17.729   0.241  17.999
36069DPPC   PO4 8054  17.629   6.563  17.669
36069DPPC   GL1 8055  17.299   6.353  17.489
36069DPPC   GL2 8056  17.479   6.263  17.229
36069DPPC   C1A 8057  16.939   6.363  17.509
36069DPPC   C2A 8058  16.629   6.243  17.239
36069DPPC   C3A 8059  16.289   6.293  16.899
36069DPPC   C4A 8060  15.919   6.333  16.679
36069DPPC   C1B 8061  17.319   6.383  16.909
36069DPPC   C2B 8062  17.179   6.353  16.489
36069DPPC   C3B 8063  16.889   6.333  16.179
36069DPPC   C4B 8064  16.479   6.413  15.909
36070DPPC   NC3 8065  12.639   4.883  21.399
36070DPPC   PO4 8066  12.749   5.183  21.119
36070DPPC   GL1 8067  12.559   5.133  20.799
36070DPPC   GL2 8068  12.279   5.293  20.899
36070DPPC   C1A 8069  12.509   5.073  20.429
36070DPPC   C2A 8070  12.249   4.943  20.149
36070DPPC   C3A 8071  12.039   4.993  19.719
36070DPPC   C4A 8072  11.729   5.043  19.329
36070DPPC   C1B 8073  11.989   5.403  20.749
36070DPPC   C2B 8074  11.579   5.463  20.699
36070DPPC   C3B 8075  11.359   5.633  21.069
36070DPPC   C4B 8076  11.109   5.913  21.409
36071DPPC   NC3 8077  12.859   0.121  21.319
36071DPPC   PO4 8078  12.789   0.511  21.219
36071DPPC   GL1 8079  12.829   0.481  20.819
36071DPPC   GL2 8080  12.999   0.251  20.869
36071DPPC   C1A 8081  12.669   0.591  20.499
36071DPPC   C2A 8082  12.519   0.731  20.149
36071DPPC   C3A 8083  12.289   0.741  19.759
36071DPPC   C4A 8084  11.959   0.901  19.499
36071DPPC   C1B 8085  12.789   0.041  20.549
36071DPPC   C2B 8086  12.649   0.081  20.179
36071DPPC   C3B 8087  12.469   0.251  19.789
36071DPPC   C4B 8088  12.089   0.421  19.459
36072DPPC   NC3 8089  15.589   4.863  20.129
36072DPPC   PO4 8090  15.409   4.553  19.989
36072DPPC   GL1 8091  15.399   4.493  19.529
36072DPPC   GL2 8092  15.419   4.191  19.559
36072DPPC   C1A 8093  15.369   4.603  19.179
36072DPPC   C2A 8094  15.329   4.903  18.919
36072DPPC   C3A 8095  15.109   5.213  18.649
36072DPPC   C4A 8096  14.839   5.253  18.249
36072DPPC   C1B 8097  15.419   4.171  19.189
36072DPPC   C2B 8098  15.279   4.273  18.799
36072DPPC   C3B 8099  15.069   4.323  18.389
36072DPPC   C4B 8100  14.719   4.243  18.009
36073DPPS   CNO 8101  13.759   1.261  21.009
36073DPPS   PO4 8102  13.509   1.101  20.749
36073DPPS   GL1 8103  13.479   1.011  20.349
36073DPPS   GL2 8104  13.279   1.241  20.299
36073DPPS   C1A 8105  13.699   1.051  20.019
36073DPPS   C2A 8106  13.779   1.101  19.629
36073DPPS   C3A 8107  13.969   1.321  19.269
36073DPPS   C4A 8108  13.979   1.721  19.149
36073DPPS   C1B 8109  13.069   1.181  20.049
36073DPPS   C2B 8110  12.739   1.051  19.789
36073DPPS   C3B 8111  12.469   1.101  19.409
36073DPPS   C4B 8112  12.179   1.231  18.979
36074DPPS   CNO 8113   9.229   6.253  21.599
36074DPPS   PO4 8114   9.029   5.943  21.479
36074DPPS   GL1 8115   9.349   5.793  21.239
36074DPPS   GL2 8116   9.219   5.463  21.299
36074DPPS   C1A 8117   9.339   5.853  20.849
36074DPPS   C2A 8118   9.539   5.983  20.549
36074DPPS   C3A 8119   9.749   5.973  20.099
36074DPPS   C4A 8120  10.029   5.853  19.739
36074DPPS   C1B 8121   9.159   5.483  20.939
36074DPPS   C2B 8122   8.959   5.493  20.579
36074DPPS   C3B 8123   9.249   5.663  20.199
36074DPPS   C4B 8124   9.549   5.643  19.799
36075DPPS   CNO 8125   8.699   0.001  21.339
36075DPPS   PO4 8126   8.419   6.503  21.059
36075DPPS   GL1 8127   8.679   6.433  20.729
36075DPPS   GL2 8128   8.529   6.283  20.589
36075DPPS   C1A 8129   8.779   0.001  20.469
36075DPPS   C2A 8130   9.129   0.031  20.219
36075DPPS   C3A 8131   9.429   0.041  19.879
36075DPPS   C4A 8132   9.569   0.031  19.399
36075DPPS   C1B 8133   8.619   5.903  20.449
36075DPPS   C2B 8134   8.769   5.833  20.079
36075DPPS   C3B 8135   9.079   5.793  19.689
36075DPPS   C4B 8136   9.329   5.823  19.279
36076DPPS   CNO 8137  12.419   4.121  21.349
36076DPPS   PO4 8138  12.129   3.951  21.549
36076DPPS   GL1 8139  11.939   3.841  21.209
36076DPPS   GL2 8140  11.609   3.781  21.319
36076DPPS   C1A 8141  12.089   3.711  20.929
36076DPPS   C2A 8142  11.989   3.461  20.609
36076DPPS   C3A 8143  11.739   3.381  20.249
36076DPPS   C4A 8144  11.269   3.451  19.989
36076DPPS   C1B 8145  11.439   3.911  21.009
36076DPPS   C2B 8146  11.149   4.151  20.879
36076DPPS   C3B 8147  11.069   4.423  20.489
36076DPPS   C4B 8148  10.869   4.513  20.049
36077DPPS   CNO 8149  15.879   0.711  20.739
36077DPPS   PO4 8150  15.569   0.711  20.499
36077DPPS   GL1 8151  15.569   0.741  20.129
36077DPPS   GL2 8152  15.599   0.941  19.929
36077DPPS   C1A 8153  15.509   0.531  19.829
36077DPPS   C2A 8154  15.329   0.561  19.439
36077DPPS   C3A 8155  15.199   0.701  19.029
36077DPPS   C4A 8156  14.879   0.701  18.699
36077DPPS   C1B 8157  15.489   1.101  19.639
36077DPPS   C2B 8158  15.329   1.121  19.279
36077DPPS   C3B 8159  14.929   1.181  18.969
36077DPPS   C4B 8160  14.629   1.111  18.579
36078DPPS   CNO 8161  11.789   4.703  21.419
36078DPPS   PO4 8162  11.689   4.983  21.649
36078DPPS   GL1 8163  11.289   4.993  21.479
36078DPPS   GL2 8164  11.389   5.193  21.299
36078DPPS   C1A 8165  11.049   4.843  21.259
36078DPPS   C2A 8166  10.619   4.773  21.209
36078DPPS   C3A 8167  10.189   4.483  21.259
36078DPPS   C4A 8168   9.749   4.603  21.209
36078DPPS   C1B 8169  11.339   5.063  20.929
36078DPPS   C2B 8170  11.369   4.983  20.529
36078DPPS   C3B 8171  11.299   4.713  20.129
36078DPPS   C4B 8172  11.189   4.493  19.669
36079DPPS   CNO 8173  15.259   5.233  20.319
36079DPPS   PO4 8174  14.939   5.313  20.429
36079DPPS   GL1 8175  14.799   5.363  20.079
36079DPPS   GL2 8176  14.599   5.153  20.049
36079DPPS   C1A 8177  14.909   5.443  19.759
36079DPPS   C2A 8178  15.009   5.673  19.409
36079DPPS   C3A 8179  15.179   5.913  18.999
36079DPPS   C4A 8180  15.119   6.273  18.789
36079DPPS   C1B 8181  14.569   5.083  19.709
36079DPPS   C2B 8182  14.529   5.003  19.299
36079DPPS   C3B 8183  14.689   4.983  18.769
36079DPPS   C4B 8184  14.969   4.803  18.429
36080DPPS   CNO 8185  17.739   3.281  18.469
36080DPPS   PO4 8186  17.669   3.441  18.109
36080DPPS   GL1 8187  17.329   3.231  17.929
36080DPPS   GL2 8188  17.239   3.501  17.909
36080DPPS   C1A 8189  17.139   3.071  17.689
36080DPPS   C2A 8190  16.899   2.971  17.389
36080DPPS   C3A 8191  16.489   2.961  17.129
36080DPPS   C4A 8192  16.149   2.961  16.779
36080DPPS   C1B 8193  16.939   3.511  17.699
36080DPPS   C2B 8194  16.679   3.541  17.369
36080DPPS   C3B 8195  16.299   3.501  17.089
36080DPPS   C4B 8196  15.939   3.491  16.729
36081DPPS   CNO 8197  17.729   0.851  18.319
36081DPPS   PO4 8198  17.509   0.691  18.049
36081DPPS   GL1 8199  17.109   0.941  17.899
36081DPPS   GL2 8200  17.169   0.671  17.819
36081DPPS   C1A 8201  16.899   1.201  17.719
36081DPPS   C2A 8202  16.619   1.201  17.439
36081DPPS   C3A 8203  16.299   1.211  17.109
36081DPPS   C4A 8204  15.939   1.131  16.749
36081DPPS   C1B 8205  16.819   0.631  17.629
36081DPPS   C2B 8206  16.539   0.621  17.299
36081DPPS   C3B 8207  16.159   0.701  17.009
36081DPPS   C4B 8208  15.859   0.701  16.569
36082DPPS   CNO 8209  11.259   4.111  21.899
36082DPPS   PO4 8210  11.049   3.811  21.849
36082DPPS   GL1 8211  11.059   3.911  21.489
36082DPPS   GL2 8212  11.009   3.611  21.339
36082DPPS   C1A 8213  10.809   4.031  21.269
36082DPPS   C2A 8214  10.409   3.991  21.149
36082DPPS   C3A 8215   9.939   4.081  21.079
36082DPPS   C4A 8216   9.599   4.313  20.789
36082DPPS   C1B 8217  11.329   3.501  21.129
36082DPPS   C2B 8218  11.689   3.341  21.079
36082DPPS   C3B 8219  12.159   3.211  21.009
36082DPPS   C4B 8220  12.609   3.041  20.979
36083DPPS   CNO 8221  13.659   6.343  20.999
36083DPPS   PO4 8222  13.709   6.003  20.839
36083DPPS   GL1 8223  13.509   5.863  20.379
36083DPPS   GL2 8224  13.759   5.973  20.269
36083DPPS   C1A 8225  13.259   5.943  20.199
36083DPPS   C2A 8226  13.039   6.113  19.899
36083DPPS   C3A 8227  12.749   6.133  19.509
36083DPPS   C4A 8228  12.479   6.103  19.069
36083DPPS   C1B 8229  13.849   5.913  19.959
36083DPPS   C2B 8230  13.979   5.773  19.559
36083DPPS   C3B 8231  14.409   5.473  19.399
36083DPPS   C4B 8232  14.809   5.373  19.059
36084DPPS   CNO 8233  11.029   6.383  22.069
36084DPPS   PO4 8234  11.009   0.141  21.949
36084DPPS   GL1 8235  10.919   0.141  21.519
36084DPPS   GL2 8236  10.779   6.473  21.629
36084DPPS   C1A 8237  10.859   0.211  21.189
36084DPPS   C2A 8238  10.919   0.191  20.759
36084DPPS   C3A 8239  10.709   0.441  20.349
36084DPPS   C4A 8240  10.509   0.811  20.059
36084DPPS   C1B 8241  10.969   6.323  21.339
36084DPPS   C2B 8242  11.049   6.203  20.949
36084DPPS   C3B 8243  11.219   5.923  20.639
36084DPPS   C4B 8244  11.259   6.013  20.139
36085DPPS   CNO 8245  10.359   1.921  22.479
36085DPPS   PO4 8246  10.159   1.651  22.209
36085DPPS   GL1 8247   9.879   1.661  21.879
36085DPPS   GL2 8248   9.979   1.941  21.769
36085DPPS   C1A 8249   9.949   1.511  21.509
36085DPPS   C2A 8250  10.189   1.281  21.249
36085DPPS   C3A 8251  10.619   1.091  21.169
36085DPPS   C4A 8252  11.079   0.931  21.089
36085DPPS   C1B 8253   9.989   1.901  21.439
36085DPPS   C2B 8254  10.129   1.751  21.089
36085DPPS   C3B 8255  10.129   1.491  20.729
36085DPPS   C4B 8256  10.329   1.291  20.319
36086DPPS   CNO 8257  15.239   3.561  20.269
36086DPPS   PO4 8258  14.869   3.521  20.199
36086DPPS   GL1 8259  14.829   3.841  19.819
36086DPPS   GL2 8260  14.549   3.671  19.829
36086DPPS   C1A 8261  14.909   4.041  19.579
36086DPPS   C2A 8262  15.019   4.333  19.359
36086DPPS   C3A 8263  14.909   4.503  18.979
36086DPPS   C4A 8264  14.659   4.483  18.539
36086DPPS   C1B 8265  14.499   3.311  19.829
36086DPPS   C2B 8266  14.469   2.951  19.569
36086DPPS   C3B 8267  14.479   2.491  19.319
36086DPPS   C4B 8268  14.479   2.041  19.249
36087DPPS   CNO 8269  14.109   2.141  20.719
36087DPPS   PO4 8270  13.889   2.451  20.609
36087DPPS   GL1 8271  13.819   2.471  20.219
36087DPPS   GL2 8272  13.569   2.301  20.259
36087DPPS   C1A 8273  13.709   2.671  19.899
36087DPPS   C2A 8274  13.509   2.751  19.569
36087DPPS   C3A 8275  13.189   2.681  19.229
36087DPPS   C4A 8276  12.949   2.711  18.859
36087DPPS   C1B 8277  13.279   2.271  19.959
36087DPPS   C2B 8278  13.089   2.331  19.599
36087DPPS   C3B 8279  12.739   2.391  19.289
36087DPPS   C4B 8280  12.519   2.421  18.849
36088DPPS   CNO 8281  11.359   5.543  22.109
36088DPPS   PO4 8282  11.009   5.493  22.189
36088DPPS   GL1 8283  10.889   5.593  21.849
36088DPPS   GL2 8284  11.109   5.513  21.649
36088DPPS   C1A 8285  10.639   5.443  21.589
36088DPPS   C2A 8286  10.359   5.453  21.259
36088DPPS   C3A 8287  10.109   5.403  20.859
36088DPPS   C4A 8288  10.489   5.513  20.599
36088DPPS   C1B 8289  10.969   5.403  21.319
36088DPPS   C2B 8290  10.729   5.193  21.039
36088DPPS   C3B 8291  10.389   5.003  20.719
36088DPPS   C4B 8292  10.139   5.193  20.329
36089DPPS   CNO 8293  16.009   5.483  20.049
36089DPPS   PO4 8294  16.149   5.723  19.809
36089DPPS   GL1 8295  15.949   5.823  19.509
36089DPPS   GL2 8296  16.129   6.023  19.379
36089DPPS   C1A 8297  15.679   5.973  19.319
36089DPPS   C2A 8298  15.469   6.303  19.239
36089DPPS   C3A 8299  15.139   0.031  19.109
36089DPPS   C4A 8300  14.829   0.431  19.109
36089DPPS   C1B 8301  15.999   5.973  19.029
36089DPPS   C2B 8302  15.709   5.953  18.719
36089DPPS   C3B 8303  15.409   6.113  18.439
36089DPPS   C4B 8304  15.069   6.093  18.069
36090DPPS   CNO 8305  17.159   1.221  19.489
36090DPPS   PO4 8306  16.799   1.271  19.379
36090DPPS   GL1 8307  16.579   0.961  19.159
36090DPPS   GL2 8308  16.569   1.191  18.919
36090DPPS   C1A 8309  16.289   0.801  18.999
36090DPPS   C2A 8310  16.009   0.701  18.719
36090DPPS   C3A 8311  15.729   0.771  18.339
36090DPPS   C4A 8312  15.389   0.761  17.959
36090DPPS   C1B 8313  16.429   1.081  18.599
36090DPPS   C2B 8314  16.169   1.031  18.249
36090DPPS   C3B 8315  15.869   1.061  17.869
36090DPPS   C4B 8316  15.529   1.091  17.599
36091DPPS   CNO 8317  10.569   3.301  22.539
36091DPPS   PO4 8318  10.739   3.051  22.289
36091DPPS   GL1 8319  10.649   3.021  21.899
36091DPPS   GL2 8320  10.609   3.251  21.809
36091DPPS   C1A 8321  10.729   2.841  21.629
36091DPPS   C2A 8322  10.669   2.651  21.309
36091DPPS   C3A 8323  10.669   2.711  20.809
36091DPPS   C4A 8324  10.619   2.721  20.279
36091DPPS   C1B 8325  10.739   3.281  21.449
36091DPPS   C2B 8326  10.809   3.141  21.079
36091DPPS   C3B 8327  10.929   3.091  20.589
36091DPPS   C4B 8328  11.189   2.991  20.249
36092DPPS   CNO 8329  17.099   5.353  18.729
36092DPPS   PO4 8330  17.149   5.693  18.509
36092DPPS   GL1 8331  16.849   5.813  18.289
36092DPPS   GL2 8332  16.949   6.093  18.259
36092DPPS   C1A 8333  16.679   5.683  17.939
36092DPPS   C2A 8334  16.469   5.533  17.559
36092DPPS   C3A 8335  16.209   5.443  17.149
36092DPPS   C4A 8336  15.809   5.513  16.889
36092DPPS   C1B 8337  16.709   6.263  17.989
36092DPPS   C2B 8338  16.459   6.423  17.679
36092DPPS   C3B 8339  16.109   6.513  17.399
36092DPPS   C4B 8340  15.729   6.523  17.129
36093DPPS   CNO 8341  15.139   0.461  20.789
36093DPPS   PO4 8342  15.259   0.141  20.669
36093DPPS   GL1 8343  14.869   0.061  20.469
36093DPPS   GL2 8344  14.919   6.353  20.489
36093DPPS   C1A 8345  14.599   0.331  20.399
36093DPPS   C2A 8346  14.489   0.661  20.289
36093DPPS   C3A 8347  14.599   0.861  19.869
36093DPPS   C4A 8348  14.839   0.831  19.379
36093DPPS   C1B 8349  14.889   6.233  20.189
36093DPPS   C2B 8350  14.749   6.023  19.859
36093DPPS   C3B 8351  14.379   5.653  19.899
36093DPPS   C4B 8352  14.139   5.283  19.789
36094DPPS   CNO 8353   9.109   1.811  21.729
36094DPPS   PO4 8354   9.419   1.581  21.729
36094DPPS   GL1 8355   9.329   1.481  21.339
36094DPPS   GL2 8356   9.409   1.191  21.379
36094DPPS   C1A 8357   9.269   1.571  21.009
36094DPPS   C2A 8358   9.149   1.471  20.629
36094DPPS   C3A 8359   9.389   1.351  20.219
36094DPPS   C4A 8360   9.609   1.221  19.779
36094DPPS   C1B 8361   9.379   1.111  21.019
36094DPPS   C2B 8362   9.609   1.151  20.649
36094DPPS   C3B 8363   9.859   1.031  20.289
36094DPPS   C4B 8364  10.119   1.071  19.879
36095DPPS   CNO 8365  17.859   4.231  17.559
36095DPPS   PO4 8366  17.639   4.353  17.819
36095DPPS   GL1 8367  17.259   4.473  17.659
36095DPPS   GL2 8368  17.369   4.313  17.399
36095DPPS   C1A 8369  16.959   4.593  17.669
36095DPPS   C2A 8370  16.689   4.903  17.509
36095DPPS   C3A 8371  16.299   4.943  17.259
36095DPPS   C4A 8372  15.949   5.013  16.879
36095DPPS   C1B 8373  17.219   4.191  17.079
36095DPPS   C2B 8374  17.069   4.051  16.729
36095DPPS   C3B 8375  16.819   4.061  16.329
36095DPPS   C4B 8376  16.489   4.101  15.949
36096DPPS   CNO 8377  17.329   2.881  18.719
36096DPPS   PO4 8378  17.139   2.611  18.519
36096DPPS   GL1 8379  16.869   2.721  18.179
36096DPPS   GL2 8380  16.629   2.651  18.369
36096DPPS   C1A 8381  16.659   2.661  17.919
36096DPPS   C2A 8382  16.439   2.681  17.539
36096DPPS   C3A 8383  16.109   2.661  17.209
36096DPPS   C4A 8384  15.719   2.681  16.879
36096DPPS   C1B 8385  16.369   2.441  18.309
36096DPPS   C2B 8386  16.179   2.451  17.969
36096DPPS   C3B 8387  15.869   2.391  17.599
36096DPPS   C4B 8388  15.589   2.311  17.179
36097DPPS   CNO 8389  15.089   3.151  20.539
36097DPPS   PO4 8390  14.949   2.891  20.299
36097DPPS   GL1 8391  14.839   2.951  19.899
36097DPPS   GL2 8392  15.019   3.231  19.879
36097DPPS   C1A 8393  14.819   2.681  19.649
36097DPPS   C2A 8394  14.779   2.261  19.619
36097DPPS   C3A 8395  14.889   1.801  19.659
36097DPPS   C4A 8396  14.929   1.311  19.499
36097DPPS   C1B 8397  14.839   3.381  19.579
36097DPPS   C2B 8398  14.629   3.691  19.379
36097DPPS   C3B 8399  14.539   4.131  19.249
36097DPPS   C4B 8400  14.409   4.603  19.069
36098DPPC   NC3 8401  12.079   5.263  18.589
36098DPPC   PO4 8402  11.849   4.943  18.479
36098DPPC   GL1 8403  11.649   4.903  18.869
36098DPPC   GL2 8404  11.749   5.183  18.879
36098DPPC   C1A 8405  11.359   4.923  19.129
36098DPPC   C2A 8406  11.149   4.973  19.469
36098DPPC   C3A 8407  10.959   5.033  19.909
36098DPPC   C4A 8408  10.709   5.153  20.359
36098DPPC   C1B 8409  11.999   5.313  19.109
36098DPPC   C2B 8410  12.299   5.363  19.359
36098DPPC   C3B 8411  12.519   5.293  19.749
36098DPPC   C4B 8412  12.739   5.433  20.099
36099DPPC   NC3 8413  12.569   1.721  17.879
36099DPPC   PO4 8414  12.459   1.971  17.589
36099DPPC   GL1 8415  12.899   2.051  17.679
36099DPPC   GL2 8416  12.829   2.121  17.989
36099DPPC   C1A 8417  13.259   1.921  17.759
36099DPPC   C2A 8418  13.529   1.831  18.089
36099DPPC   C3A 8419  13.939   1.861  18.469
36099DPPC   C4A 8420  14.289   1.851  18.839
36099DPPC   C1B 8421  13.109   2.101  18.269
36099DPPC   C2B 8422  13.369   2.011  18.559
36099DPPC   C3B 8423  13.719   2.131  18.909
36099DPPC   C4B 8424  13.979   2.141  19.369
36100DPPC   NC3 8425  12.939   4.983  16.359
36100DPPC   PO4 8426  12.959   4.683  16.599
36100DPPC   GL1 8427  13.209   4.463  16.749
36100DPPC   GL2 8428  13.449   4.633  16.659
36100DPPC   C1A 8429  13.399   4.443  17.099
36100DPPC   C2A 8430  13.699   4.453  17.409
36100DPPC   C3A 8431  14.029   4.513  17.739
36100DPPC   C4A 8432  14.279   4.453  18.149
36100DPPC   C1B 8433  13.699   4.753  16.929
36100DPPC   C2B 8434  14.009   4.763  17.179
36100DPPC   C3B 8435  14.349   4.803  17.489
36100DPPC   C4B 8436  14.539   4.763  17.899
36101DPPC   NC3 8437  14.469   6.353  14.349
36101DPPC   PO4 8438  14.199   6.303  14.579
36101DPPC   GL1 8439  14.439   6.563  14.809
36101DPPC   GL2 8440  14.439   6.473  15.049
36101DPPC   C1A 8441  14.799   6.543  14.779
36101DPPC   C2A 8442  15.119   0.021  15.089
36101DPPC   C3A 8443  15.419   0.011  15.469
36101DPPC   C4A 8444  15.809   0.011  15.769
36101DPPC   C1B 8445  14.699   6.303  15.269
36101DPPC   C2B 8446  15.019   6.363  15.529
36101DPPC   C3B 8447  15.269   6.333  15.859
36101DPPC   C4B 8448  15.649   6.373  16.229
36102DPPC   NC3 8449  14.289   3.201  14.699
36102DPPC   PO4 8450  14.289   2.801  14.549
36102DPPC   GL1 8451  14.719   2.731  14.659
36102DPPC   GL2 8452  14.729   3.071  14.699
36102DPPC   C1A 8453  14.939   2.661  14.959
36102DPPC   C2A 8454  15.279   2.721  15.209
36102DPPC   C3A 8455  15.699   2.771  15.499
36102DPPC   C4A 8456  16.079   2.741  15.829
36102DPPC   C1B 8457  14.889   3.121  15.039
36102DPPC   C2B 8458  15.169   3.241  15.299
36102DPPC   C3B 8459  15.599   3.261  15.539
36102DPPC   C4B 8460  15.959   3.211  15.889
36103DPPC   NC3 8461  13.719   3.681  15.109
36103DPPC   PO4 8462  13.889   3.341  15.039
36103DPPC   GL1 8463  14.199   3.301  15.339
36103DPPC   GL2 8464  14.429   3.351  15.139
36103DPPC   C1A 8465  14.319   3.161  15.619
36103DPPC   C2A 8466  14.689   3.111  15.819
36103DPPC   C3A 8467  15.009   3.171  16.149
36103DPPC   C4A 8468  15.329   3.151  16.439
36103DPPC   C1B 8469  14.729   3.331  15.389
36103DPPC   C2B 8470  14.979   3.481  15.649
36103DPPC   C3B 8471  15.389   3.481  15.929
36103DPPC   C4B 8472  15.759   3.501  16.269
36104DPPC   NC3 8473  13.499   1.831  15.229
36104DPPC   PO4 8474  13.899   1.981  15.239
36104DPPC   GL1 8475  14.249   1.781  15.309
36104DPPC   GL2 8476  14.219   1.731  15.669
36104DPPC   C1A 8477  14.559   1.691  15.429
36104DPPC   C2A 8478  14.789   1.631  15.739
36104DPPC   C3A 8479  15.159   1.621  15.999
36104DPPC   C4A 8480  15.499   1.661  16.349
36104DPPC   C1B 8481  14.459   1.891  15.949
36104DPPC   C2B 8482  14.719   1.891  16.269
36104DPPC   C3B 8483  15.139   1.911  16.559
36104DPPC   C4B 8484  15.509   1.911  16.849
36105DPPC   NC3 8485  10.859   5.063  17.549
36105DPPC   PO4 8486  10.759   4.683  17.519
36105DPPC   GL1 8487  10.589   4.533  17.829
36105DPPC   GL2 8488  10.319   4.673  17.719
36105DPPC   C1A 8489  10.519   4.503  18.159
36105DPPC   C2A 8490  10.319   4.553  18.519
36105DPPC   C3A 8491  10.129   4.563  18.909
36105DPPC   C4A 8492   9.879   4.643  19.289
36105DPPC   C1B 8493  10.059   4.673  18.019
36105DPPC   C2B 8494   9.889   4.753  18.349
36105DPPC   C3B 8495   9.649   4.763  18.799
36105DPPC   C4B 8496   9.349   4.743  19.179
36106DPPC   NC3 8497  11.339   3.831  18.289
36106DPPC   PO4 8498  11.659   4.051  18.469
36106DPPC   GL1 8499  11.759   3.851  18.889
36106DPPC   GL2 8500  11.819   4.121  19.009
36106DPPC   C1A 8501  11.569   3.711  19.189
36106DPPC   C2A 8502  11.429   3.421  19.529
36106DPPC   C3A 8503  11.499   3.031  19.859
36106DPPC   C4A 8504  11.649   2.871  20.269
36106DPPC   C1B 8505  11.689   4.111  19.329
36106DPPC   C2B 8506  11.359   4.001  19.569
36106DPPC   C3B 8507  11.119   4.101  19.979
36106DPPC   C4B 8508  10.779   4.051  20.329
36107DPPC   NC3 8509  12.089   3.651  18.549
36107DPPC   PO4 8510  12.499   3.721  18.419
36107DPPC   GL1 8511  12.799   3.781  18.489
36107DPPC   GL2 8512  13.069   3.541  18.509
36107DPPC   C1A 8513  13.029   4.011  18.669
36107DPPC   C2A 8514  13.269   4.011  18.989
36107DPPC   C3A 8515  13.629   4.021  19.359
36107DPPC   C4A 8516  13.959   4.071  19.729
36107DPPC   C1B 8517  13.279   3.571  18.759
36107DPPC   C2B 8518  13.519   3.541  19.079
36107DPPC   C3B 8519  13.779   3.531  19.409
36107DPPC   C4B 8520  14.109   3.621  19.709
36108DPPC   NC3 8521  11.729   5.153  17.899
36108DPPC   PO4 8522  11.709   5.373  18.269
36108DPPC   GL1 8523  11.479   5.253  18.579
36108DPPC   GL2 8524  11.269   5.153  18.449
36108DPPC   C1A 8525  11.399   5.373  18.919
36108DPPC   C2A 8526  11.279   5.423  19.299
36108DPPC   C3A 8527  11.069   5.503  19.739
36108DPPC   C4A 8528  11.209   5.363  20.249
36108DPPC   C1B 8529  11.109   5.063  18.769
36108DPPC   C2B 8530  10.879   5.093  19.089
36108DPPC   C3B 8531  10.709   5.213  19.499
36108DPPC   C4B 8532  10.619   5.443  19.929
36109DPPC   NC3 8533  12.689   0.371  17.549
36109DPPC   PO4 8534  12.869   0.151  17.309
36109DPPC   GL1 8535  13.179   0.201  17.659
36109DPPC   GL2 8536  13.039   0.261  17.889
36109DPPC   C1A 8537  13.499   0.211  17.769
36109DPPC   C2A 8538  13.739   0.281  18.029
36109DPPC   C3A 8539  14.029   0.311  18.399
36109DPPC   C4A 8540  14.369   0.311  18.799
36109DPPC   C1B 8541  13.229   0.361  18.199
36109DPPC   C2B 8542  13.509   0.491  18.479
36109DPPC   C3B 8543  13.819   0.481  18.819
36109DPPC   C4B 8544  14.029   0.391  19.239
36110DPPC   NC3 8545  12.729   2.351  16.829
36110DPPC   PO4 8546  12.639   2.031  17.039
36110DPPC   GL1 8547  13.039   1.881  17.279
36110DPPC   GL2 8548  13.079   2.181  17.269
36110DPPC   C1A 8549  12.969   1.661  17.609
36110DPPC   C2A 8550  13.099   1.661  18.049
36110DPPC   C3A 8551  13.329   1.541  18.449
36110DPPC   C4A 8552  13.689   1.491  18.799
36110DPPC   C1B 8553  13.399   2.221  17.459
36110DPPC   C2B 8554  13.689   2.171  17.749
36110DPPC   C3B 8555  14.019   2.171  18.089
36110DPPC   C4B 8556  14.329   2.181  18.429
36111DPPC   NC3 8557  11.009   1.721  16.869
36111DPPC   PO4 8558  11.079   1.631  17.259
36111DPPC   GL1 8559  10.879   1.681  17.669
36111DPPC   GL2 8560  10.729   1.491  17.539
36111DPPC   C1A 8561  10.679   1.741  18.009
36111DPPC   C2A 8562  10.569   1.821  18.399
36111DPPC   C3A 8563  10.239   1.871  18.719
36111DPPC   C4A 8564   9.919   1.801  19.069
36111DPPC   C1B 8565  10.529   1.291  17.729
36111DPPC   C2B 8566  10.309   1.451  18.059
36111DPPC   C3B 8567  10.019   1.481  18.439
36111DPPC   C4B 8568   9.649   1.421  18.789
36112DPPC   NC3 8569  11.789   4.533  18.229
36112DPPC   PO4 8570  11.469   4.733  18.119
36112DPPC   GL1 8571  11.269   4.713  18.509
36112DPPC   GL2 8572  11.479   4.473  18.579
36112DPPC   C1A 8573  11.059   4.623  18.769
36112DPPC   C2A 8574  10.919   4.633  19.229
36112DPPC   C3A 8575  10.659   4.733  19.609
36112DPPC   C4A 8576  10.449   4.933  19.999
36112DPPC   C1B 8577  11.499   4.503  18.949
36112DPPC   C2B 8578  11.569   4.533  19.319
36112DPPC   C3B 8579  11.709   4.343  19.739
36112DPPC   C4B 8580  11.989   4.181  20.129
36113DPPC   NC3 8581  10.939   3.001  17.259
36113DPPC   PO4 8582  11.149   3.081  17.589
36113DPPC   GL1 8583  11.029   3.031  17.939
36113DPPC   GL2 8584  11.269   2.841  18.029
36113DPPC   C1A 8585  10.789   3.021  18.229
36113DPPC   C2A 8586  10.559   3.001  18.609
36113DPPC   C3A 8587  10.289   3.071  19.009
36113DPPC   C4A 8588  10.019   3.131  19.399
36113DPPC   C1B 8589  11.259   2.921  18.369
36113DPPC   C2B 8590  11.019   2.891  18.689
36113DPPC   C3B 8591  10.819   2.851  19.129
36113DPPC   C4B 8592  10.539   2.921  19.559
36114DPPC   NC3 8593  13.439   4.913  15.479
36114DPPC   PO4 8594  13.499   4.643  15.219
36114DPPC   GL1 8595  13.829   4.553  15.429
36114DPPC   GL2 8596  13.809   4.733  15.649
36114DPPC   C1A 8597  14.189   4.493  15.459
36114DPPC   C2A 8598  14.489   4.603  15.729
36114DPPC   C3A 8599  14.819   4.613  16.089
36114DPPC   C4A 8600  15.099   4.713  16.429
36114DPPC   C1B 8601  14.079   4.763  15.879
36114DPPC   C2B 8602  14.349   4.843  16.209
36114DPPC   C3B 8603  14.659   4.863  16.579
36114DPPC   C4B 8604  14.979   4.863  16.989
36115DPPC   NC3 8605  12.969   3.741  17.749
36115DPPC   PO4 8606  12.759   3.571  18.029
36115DPPC   GL1 8607  12.969   3.221  18.189
36115DPPC   GL2 8608  13.179   3.351  18.029
36115DPPC   C1A 8609  13.129   3.091  18.509
36115DPPC   C2A 8610  13.369   2.991  18.849
36115DPPC   C3A 8611  13.639   3.111  19.209
36115DPPC   C4A 8612  13.919   3.061  19.659
36115DPPC   C1B 8613  13.419   3.341  18.309
36115DPPC   C2B 8614  13.679   3.341  18.589
36115DPPC   C3B 8615  13.969   3.381  18.939
36115DPPC   C4B 8616  14.249   3.341  19.319
36116DPPC   NC3 8617  11.899   0.961  17.959
36116DPPC   PO4 8618  11.969   1.121  18.299
36116DPPC   GL1 8619  11.609   1.261  18.589
36116DPPC   GL2 8620  11.789   1.471  18.709
36116DPPC   C1A 8621  11.279   1.181  18.659
36116DPPC   C2A 8622  11.079   1.311  19.029
36116DPPC   C3A 8623  10.889   1.531  19.479
36116DPPC   C4A 8624  10.639   1.451  19.869
36116DPPC   C1B 8625  11.789   1.691  19.049
36116DPPC   C2B 8626  11.689   1.971  19.359
36116DPPC   C3B 8627  11.819   2.231  19.779
36116DPPC   C4B 8628  11.809   2.411  20.179
36117DPPC   NC3 8629  13.299   0.391  16.289
36117DPPC   PO4 8630  13.249   0.601  16.579
36117DPPC   GL1 8631  13.429   0.781  17.039
36117DPPC   GL2 8632  13.599   0.911  16.799
36117DPPC   C1A 8633  13.599   0.641  17.319
36117DPPC   C2A 8634  13.819   0.601  17.679
36117DPPC   C3A 8635  14.199   0.581  18.009
36117DPPC   C4A 8636  14.559   0.691  18.319
36117DPPC   C1B 8637  13.919   0.931  17.049
36117DPPC   C2B 8638  14.159   0.941  17.409
36117DPPC   C3B 8639  14.559   0.961  17.649
36117DPPC   C4B 8640  14.969   0.981  18.049
36118DPPC   NC3 8641  12.449   6.523  17.299
36118DPPC   PO4 8642  12.699   6.223  17.249
36118DPPC   GL1 8643  12.979   5.983  17.539
36118DPPC   GL2 8644  12.829   5.883  17.679
36118DPPC   C1A 8645  13.259   6.163  17.689
36118DPPC   C2A 8646  13.629   6.373  17.819
36118DPPC   C3A 8647  13.959   6.383  18.239
36118DPPC   C4A 8648  14.279   6.393  18.579
36118DPPC   C1B 8649  13.029   5.843  17.979
36118DPPC   C2B 8650  13.129   5.723  18.349
36118DPPC   C3B 8651  13.429   5.743  18.769
36118DPPC   C4B 8652  13.749   5.763  19.109
36119DPPC   NC3 8653  11.529   3.131  17.899
36119DPPC   PO4 8654  11.319   3.451  17.969
36119DPPC   GL1 8655  11.329   3.371  18.419
36119DPPC   GL2 8656  11.009   3.391  18.359
36119DPPC   C1A 8657  11.429   3.171  18.739
36119DPPC   C2A 8658  11.219   3.251  19.069
36119DPPC   C3A 8659  10.999   3.211  19.499
36119DPPC   C4A 8660  10.769   3.221  19.949
36119DPPC   C1B 8661  10.999   3.341  18.709
36119DPPC   C2B 8662  10.729   3.371  19.029
36119DPPC   C3B 8663  10.529   3.421  19.469
36119DPPC   C4B 8664  10.199   3.361  19.849
36120DPPC   NC3 8665  13.989   6.113  14.079
36120DPPC   PO4 8666  14.339   5.923  14.129
36120DPPC   GL1 8667  14.769   5.963  14.269
36120DPPC   GL2 8668  14.829   5.703  14.199
36120DPPC   C1A 8669  14.989   6.093  14.489
36120DPPC   C2A 8670  15.049   6.143  14.899
36120DPPC   C3A 8671  15.369   6.173  15.249
36120DPPC   C4A 8672  15.749   6.153  15.579
36120DPPC   C1B 8673  15.189   5.793  14.299
36120DPPC   C2B 8674  15.439   5.923  14.589
36120DPPC   C3B 8675  15.809   5.943  14.999
36120DPPC   C4B 8676  16.149   5.943  15.369
36121DPPC   NC3 8677  12.729   5.723  17.259
36121DPPC   PO4 8678  12.829   5.423  17.519
36121DPPC   GL1 8679  13.039   5.423  17.829
36121DPPC   GL2 8680  12.889   5.243  18.009
36121DPPC   C1A 8681  13.359   5.473  17.959
36121DPPC   C2A 8682  13.649   5.603  18.239
36121DPPC   C3A 8683  13.909   5.583  18.659
36121DPPC   C4A 8684  14.209   5.603  18.969
36121DPPC   C1B 8685  13.139   5.203  18.289
36121DPPC   C2B 8686  13.369   5.233  18.589
36121DPPC   C3B 8687  13.669   5.283  18.979
36121DPPC   C4B 8688  13.949   5.303  19.339
36122DPPC   NC3 8689  13.229   6.173  16.589
36122DPPC   PO4 8690  13.369   6.463  16.389
36122DPPC   GL1 8691  13.449   0.081  16.569
36122DPPC   GL2 8692  13.459   0.271  16.829
36122DPPC   C1A 8693  13.849   0.201  16.569
36122DPPC   C2A 8694  14.149   0.251  16.819
36122DPPC   C3A 8695  14.519   0.301  17.089
36122DPPC   C4A 8696  14.879   0.251  17.409
36122DPPC   C1B 8697  13.749   0.431  16.929
36122DPPC   C2B 8698  14.039   0.461  17.229
36122DPPC   C3B 8699  14.409   0.471  17.519
36122DPPC   C4B 8700  14.689   0.441  17.879
36123DPPC   NC3 8701  13.589   1.211  15.949
36123DPPC   PO4 8702  13.419   1.591  16.049
36123DPPC   GL1 8703  13.869   1.781  16.079
36123DPPC   GL2 8704  13.669   1.851  16.269
36123DPPC   C1A 8705  14.129   1.521  16.059
36123DPPC   C2A 8706  14.059   1.101  15.889
36123DPPC   C3A 8707  14.199   0.641  15.889
36123DPPC   C4A 8708  14.129   0.161  15.799
36123DPPC   C1B 8709  13.769   2.171  16.429
36123DPPC   C2B 8710  13.889   2.311  16.829
36123DPPC   C3B 8711  14.239   2.251  17.189
36123DPPC   C4B 8712  14.639   2.231  17.529
36124DPPC   NC3 8713  12.869   6.423  17.659
36124DPPC   PO4 8714  12.679   0.001  17.919
36124DPPC   GL1 8715  12.949   6.573  18.299
36124DPPC   GL2 8716  13.159   6.433  18.029
36124DPPC   C1A 8717  13.219   0.121  18.569
36124DPPC   C2A 8718  13.419   0.201  18.959
36124DPPC   C3A 8719  13.649   0.111  19.399
36124DPPC   C4A 8720  13.939   0.161  19.759
36124DPPC   C1B 8721  13.489   6.563  18.199
36124DPPC   C2B 8722  13.699   0.021  18.579
36124DPPC   C3B 8723  13.919   6.543  18.949
36124DPPC   C4B 8724  14.279   6.593  19.299
36125DPPC   NC3 8725  13.749   0.881  14.789
36125DPPC   PO4 8726  13.839   0.581  15.059
36125DPPC   GL1 8727  14.119   0.631  15.329
36125DPPC   GL2 8728  14.129   0.851  15.469
36125DPPC   C1A 8729  14.379   0.451  15.519
36125DPPC   C2A 8730  14.589   0.371  15.909
36125DPPC   C3A 8731  14.939   0.251  16.219
36125DPPC   C4A 8732  15.239   0.341  16.589
36125DPPC   C1B 8733  14.429   0.921  15.659
36125DPPC   C2B 8734  14.599   0.911  16.019
36125DPPC   C3B 8735  14.869   0.761  16.359
36125DPPC   C4B 8736  15.289   0.821  16.719
36126DPPC   NC3 8737  13.009   0.271  16.839
36126DPPC   PO4 8738  13.149   6.513  16.909
36126DPPC   GL1 8739  13.559   6.293  16.839
36126DPPC   GL2 8740  13.549   6.133  17.099
36126DPPC   C1A 8741  13.879   6.443  16.909
36126DPPC   C2A 8742  14.119   6.513  17.169
36126DPPC   C3A 8743  14.479   6.523  17.469
36126DPPC   C4A 8744  14.759   6.433  17.919
36126DPPC   C1B 8745  13.829   6.263  17.349
36126DPPC   C2B 8746  14.099   6.233  17.639
36126DPPC   C3B 8747  14.379   6.183  18.069
36126DPPC   C4B 8748  14.699   6.293  18.429
36127DPPC   NC3 8749  12.749   4.543  17.539
36127DPPC   PO4 8750  12.749   4.181  17.709
36127DPPC   GL1 8751  13.149   4.141  17.929
36127DPPC   GL2 8752  12.909   3.971  18.139
36127DPPC   C1A 8753  13.249   4.343  18.199
36127DPPC   C2A 8754  13.429   4.283  18.589
36127DPPC   C3A 8755  13.719   4.313  18.989
36127DPPC   C4A 8756  14.069   4.363  19.309
36127DPPC   C1B 8757  13.229   3.881  18.299
36127DPPC   C2B 8758  13.549   3.811  18.499
36127DPPC   C3B 8759  13.819   3.861  18.859
36127DPPC   C4B 8760  14.129   3.881  19.239
36128DPPC   NC3 8761  14.169   1.961  14.839
36128DPPC   PO4 8762  14.319   1.591  14.829
36128DPPC   GL1 8763  14.799   1.591  14.769
36128DPPC   GL2 8764  14.789   1.371  14.929
36128DPPC   C1A 8765  15.109   1.701  14.869
36128DPPC   C2A 8766  15.419   1.791  15.179
36128DPPC   C3A 8767  15.749   1.771  15.509
36128DPPC   C4A 8768  16.089   1.851  15.819
36128DPPC   C1B 8769  15.089   1.431  15.219
36128DPPC   C2B 8770  15.369   1.471  15.529
36128DPPC   C3B 8771  15.659   1.411  15.949
36128DPPC   C4B 8772  16.019   1.491  16.319
36129DPPC   NC3 8773  11.909   4.463  18.719
36129DPPC   PO4 8774  12.109   4.171  18.619
36129DPPC   GL1 8775  12.229   3.961  18.929
36129DPPC   GL2 8776  12.199   4.283  19.069
36129DPPC   C1A 8777  12.459   3.891  19.159
36129DPPC   C2A 8778  12.699   3.921  19.449
36129DPPC   C3A 8779  12.969   4.001  19.879
36129DPPC   C4A 8780  13.219   3.971  20.289
36129DPPC   C1B 8781  12.499   4.343  19.339
36129DPPC   C2B 8782  12.679   4.383  19.729
36129DPPC   C3B 8783  12.989   4.453  20.079
36129DPPC   C4B 8784  13.399   4.423  20.349
36130DPPC   NC3 8785  12.639   1.591  17.219
36130DPPC   PO4 8786  12.399   1.501  17.509
36130DPPC   GL1 8787  12.729   1.351  17.659
36130DPPC   GL2 8788  12.859   1.271  17.459
36130DPPC   C1A 8789  12.839   1.271  18.029
36130DPPC   C2A 8790  12.929   1.241  18.419
36130DPPC   C3A 8791  13.149   1.251  18.869
36130DPPC   C4A 8792  13.419   1.141  19.259
36130DPPC   C1B 8793  13.149   1.261  17.669
36130DPPC   C2B 8794  13.409   1.291  18.009
36130DPPC   C3B 8795  13.799   1.341  18.249
36130DPPC   C4B 8796  14.169   1.311  18.589
36131DPPC   NC3 8797  12.399   3.991  16.899
36131DPPC   PO4 8798  12.709   3.691  16.869
36131DPPC   GL1 8799  13.029   3.491  17.149
36131DPPC   GL2 8800  13.179   3.731  17.189
36131DPPC   C1A 8801  13.149   3.191  17.339
36131DPPC   C2A 8802  13.329   3.081  17.659
36131DPPC   C3A 8803  13.689   3.171  17.939
36131DPPC   C4A 8804  14.089   3.191  18.289
36131DPPC   C1B 8805  13.359   3.581  17.479
36131DPPC   C2B 8806  13.499   3.651  17.839
36131DPPC   C3B 8807  13.819   3.631  18.129
36131DPPC   C4B 8808  14.109   3.631  18.499
36132DPPC   NC3 8809  13.249   2.961  15.819
36132DPPC   PO4 8810  13.349   2.711  16.119
36132DPPC   GL1 8811  13.769   2.811  16.169
36132DPPC   GL2 8812  13.789   2.481  16.199
36132DPPC   C1A 8813  14.019   2.901  16.419
36132DPPC   C2A 8814  14.309   3.051  16.639
36132DPPC   C3A 8815  14.629   3.081  17.019
36132DPPC   C4A 8816  14.929   3.051  17.389
36132DPPC   C1B 8817  14.149   2.521  16.379
36132DPPC   C2B 8818  14.409   2.571  16.649
36132DPPC   C3B 8819  14.769   2.611  17.019
36132DPPC   C4B 8820  15.079   2.531  17.339
36133DPPC   NC3 8821  11.619   0.491  17.439
36133DPPC   PO4 8822  11.559   0.831  17.629
36133DPPC   GL1 8823  11.239   0.721  17.929
36133DPPC   GL2 8824  11.119   0.571  17.699
36133DPPC   C1A 8825  11.029   0.881  18.189
36133DPPC   C2A 8826  10.879   0.961  18.579
36133DPPC   C3A 8827  10.639   1.081  18.979
36133DPPC   C4A 8828  10.379   1.091  19.429
36133DPPC   C1B 8829  10.829   0.551  17.969
36133DPPC   C2B 8830  10.599   0.651  18.309
36133DPPC   C3B 8831  10.339   0.781  18.709
36133DPPC   C4B 8832  10.109   0.781  19.119
36134DPPC   NC3 8833  12.859   2.701  16.159
36134DPPC   PO4 8834  12.989   2.431  16.409
36134DPPC   GL1 8835  13.349   2.371  16.579
36134DPPC   GL2 8836  13.219   2.221  16.799
36134DPPC   C1A 8837  13.599   2.621  16.609
36134DPPC   C2A 8838  13.859   2.821  16.809
36134DPPC   C3A 8839  14.219   2.761  17.109
36134DPPC   C4A 8840  14.569   2.701  17.479
36134DPPC   C1B 8841  13.429   2.011  17.049
36134DPPC   C2B 8842  13.769   1.951  17.279
36134DPPC   C3B 8843  14.139   1.961  17.549
36134DPPC   C4B 8844  14.479   1.911  17.839
36135DPPC   NC3 8845  13.839   2.881  15.329
36135DPPC   PO4 8846  14.119   2.861  15.019
36135DPPC   GL1 8847  14.529   2.801  15.039
36135DPPC   GL2 8848  14.539   2.961  15.319
36135DPPC   C1A 8849  14.749   2.561  15.279
36135DPPC   C2A 8850  15.029   2.411  15.539
36135DPPC   C3A 8851  15.409   2.401  15.849
36135DPPC   C4A 8852  15.789   2.501  16.169
36135DPPC   C1B 8853  14.889   2.931  15.479
36135DPPC   C2B 8854  15.239   2.931  15.679
36135DPPC   C3B 8855  15.519   2.891  16.029
36135DPPC   C4B 8856  15.779   3.001  16.419
36136DPPC   NC3 8857  10.699   5.893  16.849
36136DPPC   PO4 8858  10.879   6.033  17.169
36136DPPC   GL1 8859  10.669   6.173  17.539
36136DPPC   GL2 8860  10.579   5.913  17.599
36136DPPC   C1A 8861  10.839   6.283  17.889
36136DPPC   C2A 8862  10.759   6.303  18.299
36136DPPC   C3A 8863  10.559   6.393  18.679
36136DPPC   C4A 8864  10.299   6.383  19.079
36136DPPC   C1B 8865  10.499   5.953  17.989
36136DPPC   C2B 8866  10.289   6.103  18.289
36136DPPC   C3B 8867  10.049   6.083  18.719
36136DPPC   C4B 8868   9.759   6.133  19.119
36137DPPC   NC3 8869  14.119   0.671  14.349
36137DPPC   PO4 8870  14.319   0.331  14.469
36137DPPC   GL1 8871  14.609   0.351  14.769
36137DPPC   GL2 8872  14.609   0.711  14.719
36137DPPC   C1A 8873  14.849   0.371  14.999
36137DPPC   C2A 8874  15.169   0.471  15.249
36137DPPC   C3A 8875  15.489   0.501  15.659
36137DPPC   C4A 8876  15.839   0.481  16.029
36137DPPC   C1B 8877  14.779   0.911  14.909
36137DPPC   C2B 8878  15.029   0.951  15.169
36137DPPC   C3B 8879  15.369   1.001  15.479
36137DPPC   C4B 8880  15.679   0.931  15.919
36138DPPC   NC3 8881  12.329   2.381  18.349
36138DPPC   PO4 8882  11.919   2.331  18.329
36138DPPC   GL1 8883  11.989   2.491  18.759
36138DPPC   GL2 8884  11.979   2.151  18.719
36138DPPC   C1A 8885  11.749   2.441  18.979
36138DPPC   C2A 8886  11.599   2.461  19.389
36138DPPC   C3A 8887  11.439   2.541  19.859
36138DPPC   C4A 8888  11.269   2.511  20.289
36138DPPC   C1B 8889  12.139   2.181  19.059
36138DPPC   C2B 8890  12.249   2.051  19.459
36138DPPC   C3B 8891  12.699   2.051  19.689
36138DPPC   C4B 8892  12.849   1.991  20.129
36139DPPC   NC3 8893  12.459   0.431  17.999
36139DPPC   PO4 8894  12.239   0.711  18.219
36139DPPC   GL1 8895  12.259   0.621  18.679
36139DPPC   GL2 8896  12.019   0.811  18.629
36139DPPC   C1A 8897  12.569   0.821  18.839
36139DPPC   C2A 8898  12.849   0.911  19.119
36139DPPC   C3A 8899  13.099   0.791  19.439
36139DPPC   C4A 8900  13.219   0.761  19.959
36139DPPC   C1B 8901  11.799   0.901  18.869
36139DPPC   C2B 8902  11.659   1.211  19.089
36139DPPC   C3B 8903  11.969   1.421  19.419
36139DPPC   C4B 8904  12.279   1.261  19.779
36140DPPC   NC3 8905  12.219   2.761  17.549
36140DPPC   PO4 8906  12.619   2.861  17.519
36140DPPC   GL1 8907  12.969   2.791  17.869
36140DPPC   GL2 8908  12.999   2.521  17.719
36140DPPC   C1A 8909  13.179   2.831  18.149
36140DPPC   C2A 8910  13.539   2.871  18.409
36140DPPC   C3A 8911  13.839   2.841  18.769
36140DPPC   C4A 8912  14.199   2.881  19.119
36140DPPC   C1B 8913  13.219   2.311  17.899
36140DPPC   C2B 8914  13.499   2.351  18.179
36140DPPC   C3B 8915  13.839   2.371  18.519
36140DPPC   C4B 8916  14.179   2.371  18.909
36141DPPC   NC3 8917  11.729   3.081  18.349
36141DPPC   PO4 8918  11.749   3.471  18.239
36141DPPC   GL1 8919  11.619   3.591  18.609
36141DPPC   GL2 8920  11.829   3.381  18.799
36141DPPC   C1A 8921  11.309   3.681  18.809
36141DPPC   C2A 8922  11.109   3.711  19.209
36141DPPC   C3A 8923  10.919   3.721  19.699
36141DPPC   C4A 8924  10.589   3.641  20.019
36141DPPC   C1B 8925  11.699   3.251  19.139
36141DPPC   C2B 8926  11.769   3.001  19.439
36141DPPC   C3B 8927  11.989   2.761  19.809
36141DPPC   C4B 8928  12.269   2.651  20.249
36142DPPC   NC3 8929  13.119   1.411  16.439
36142DPPC   PO4 8930  13.409   1.131  16.439
36142DPPC   GL1 8931  13.809   1.141  16.479
36142DPPC   GL2 8932  13.869   1.411  16.339
36142DPPC   C1A 8933  14.119   1.181  16.739
36142DPPC   C2A 8934  14.369   1.211  17.039
36142DPPC   C3A 8935  14.789   1.341  17.309
36142DPPC   C4A 8936  15.109   1.331  17.679
36142DPPC   C1B 8937  14.109   1.611  16.529
36142DPPC   C2B 8938  14.509   1.571  16.689
36142DPPC   C3B 8939  14.919   1.681  16.909
36142DPPC   C4B 8940  15.249   1.671  17.249
36143DPPC   NC3 8941  13.819   1.551  15.649
36143DPPC   PO4 8942  13.669   1.891  15.689
36143DPPC   GL1 8943  13.849   2.181  15.869
36143DPPC   GL2 8944  13.999   2.321  15.689
36143DPPC   C1A 8945  14.069   2.131  16.139
36143DPPC   C2A 8946  14.299   2.071  16.479
36143DPPC   C3A 8947  14.579   2.151  16.889
36143DPPC   C4A 8948  14.979   2.101  17.129
36143DPPC   C1B 8949  14.199   2.491  15.909
36143DPPC   C2B 8950  14.529   2.411  16.159
36143DPPC   C3B 8951  14.909   2.351  16.509
36143DPPC   C4B 8952  15.259   2.391  16.819
36144DPPC   NC3 8953  13.409   2.171  16.109
36144DPPC   PO4 8954  13.199   1.911  16.349
36144DPPC   GL1 8955  13.449   1.821  16.659
36144DPPC   GL2 8956  13.519   1.581  16.559
36144DPPC   C1A 8957  13.789   1.881  16.749
36144DPPC   C2A 8958  14.159   1.871  16.909
36144DPPC   C3A 8959  14.489   1.751  17.249
36144DPPC   C4A 8960  14.869   1.811  17.609
36144DPPC   C1B 8961  13.729   1.461  16.809
36144DPPC   C2B 8962  13.959   1.481  17.169
36144DPPC   C3B 8963  14.209   1.411  17.609
36144DPPC   C4B 8964  14.669   1.381  17.849
36145DPPC   NC3 8965  13.119   1.011  16.769
36145DPPC   PO4 8966  12.829   1.271  16.909
36145DPPC   GL1 8967  13.159   1.491  17.129
36145DPPC   GL2 8968  13.319   1.391  16.889
36145DPPC   C1A 8969  13.339   1.571  17.439
36145DPPC   C2A 8970  13.679   1.601  17.659
36145DPPC   C3A 8971  14.019   1.691  17.959
36145DPPC   C4A 8972  14.399   1.641  18.309
36145DPPC   C1B 8973  13.439   1.211  17.169
36145DPPC   C2B 8974  13.619   1.161  17.529
36145DPPC   C3B 8975  13.949   1.071  17.859
36145DPPC   C4B 8976  14.379   1.071  18.069
36146DPPC   NC3 8977  12.209   0.251  18.349
36146DPPC   PO4 8978  12.459   0.001  18.369
36146DPPC   GL1 8979  12.679   6.503  18.629
36146DPPC   GL2 8980  12.669   6.223  18.589
36146DPPC   C1A 8981  12.929   6.523  18.899
36146DPPC   C2A 8982  13.089   6.443  19.249
36146DPPC   C3A 8983  13.319   6.463  19.639
36146DPPC   C4A 8984  13.559   6.273  20.009
36146DPPC   C1B 8985  13.019   6.153  18.409
36146DPPC   C2B 8986  13.399   6.113  18.279
36146DPPC   C3B 8987  13.739   6.133  18.579
36146DPPC   C4B 8988  14.089   6.083  18.899
36147DPPC   NC3 8989  13.309   6.573  15.569
36147DPPC   PO4 8990  13.389   0.261  15.839
36147DPPC   GL1 8991  13.719   0.141  16.139
36147DPPC   GL2 8992  13.769   0.361  16.069
36147DPPC   C1A 8993  14.049   6.523  16.229
36147DPPC   C2A 8994  14.409   0.011  16.279
36147DPPC   C3A 8995  14.679   0.071  16.649
36147DPPC   C4A 8996  15.039   0.111  17.009
36147DPPC   C1B 8997  14.089   0.401  16.249
36147DPPC   C2B 8998  14.449   0.471  16.489
36147DPPC   C3B 8999  14.869   0.561  16.799
36147DPPC   C4B 9000  15.179   0.581  17.169
36148DPPC   NC3 9001  13.329   0.811  15.649
36148DPPC   PO4 9002  13.489   0.761  15.989
36148DPPC   GL1 9003  13.879   0.791  16.189
36148DPPC   GL2 9004  13.759   0.681  16.429
36148DPPC   C1A 9005  14.219   0.951  16.299
36148DPPC   C2A 9006  14.519   1.051  16.529
36148DPPC   C3A 9007  14.889   1.131  16.859
36148DPPC   C4A 9008  15.239   1.101  17.179
36148DPPC   C1B 9009  14.069   0.681  16.659
36148DPPC   C2B 9010  14.439   0.761  16.899
36148DPPC   C3B 9011  14.719   0.761  17.199
36148DPPC   C4B 9012  15.049   0.791  17.549
36149DPPC   NC3 9013  13.989   4.913  15.189
36149DPPC   PO4 9014  14.159   4.873  14.829
36149DPPC   GL1 9015  14.439   4.673  14.979
36149DPPC   GL2 9016  14.439   4.443  15.049
36149DPPC   C1A 9017  14.789   4.713  14.969
36149DPPC   C2A 9018  15.119   4.713  15.179
36149DPPC   C3A 9019  15.429   4.773  15.569
36149DPPC   C4A 9020  15.699   4.753  16.029
36149DPPC   C1B 9021  14.649   4.333  15.339
36149DPPC   C2B 9022  14.939   4.403  15.629
36149DPPC   C3B 9023  15.279   4.413  16.009
36149DPPC   C4B 9024  15.629   4.423  16.399
36150DPPC   NC3 9025  12.349   1.251  17.939
36150DPPC   PO4 9026  12.539   0.911  17.819
36150DPPC   GL1 9027  12.739   0.811  18.179
36150DPPC   GL2 9028  12.919   0.691  17.979
36150DPPC   C1A 9029  12.909   0.801  18.499
36150DPPC   C2A 9030  13.179   0.681  18.789
36150DPPC   C3A 9031  13.539   0.611  19.189
36150DPPC   C4A 9032  13.769   0.621  19.589
36150DPPC   C1B 9033  13.119   0.961  18.109
36150DPPC   C2B 9034  13.359   1.021  18.449
36150DPPC   C3B 9035  13.679   0.951  18.819
36150DPPC   C4B 9036  13.959   0.861  19.159
36151DPPC   NC3 9037  13.069   5.063  16.879
36151DPPC   PO4 9038  12.989   5.403  17.059
36151DPPC   GL1 9039  13.249   5.373  17.369
36151DPPC   GL2 9040  13.209   5.663  17.429
36151DPPC   C1A 9041  13.599   5.383  17.519
36151DPPC   C2A 9042  13.879   5.433  17.849
36151DPPC   C3A 9043  14.129   5.483  18.249
36151DPPC   C4A 9044  14.539   5.453  18.599
36151DPPC   C1B 9045  13.489   5.853  17.429
36151DPPC   C2B 9046  13.609   5.873  17.829
36151DPPC   C3B 9047  13.939   5.913  18.169
36151DPPC   C4B 9048  14.339   5.923  18.489
36152DPPC   NC3 9049  11.239   2.351  17.969
36152DPPC   PO4 9050  11.029   2.581  17.729
36152DPPC   GL1 9051  10.689   2.651  18.049
36152DPPC   GL2 9052  10.889   2.611  18.239
36152DPPC   C1A 9053  10.379   2.731  18.269
36152DPPC   C2A 9054  10.139   2.761  18.609
36152DPPC   C3A 9055   9.869   2.721  18.959
36152DPPC   C4A 9056   9.639   2.761  19.379
36152DPPC   C1B 9057  10.709   2.591  18.539
36152DPPC   C2B 9058  10.519   2.551  18.909
36152DPPC   C3B 9059  10.229   2.531  19.279
36152DPPC   C4B 9060   9.989   2.671  19.729
36153DPPC   NC3 9061  14.549   1.171  14.589
36153DPPC   PO4 9062  14.199   1.031  14.739
36153DPPC   GL1 9063  14.239   0.651  14.909
36153DPPC   GL2 9064  14.359   0.861  15.059
36153DPPC   C1A 9065  14.429   0.421  15.119
36153DPPC   C2A 9066  14.689   0.141  15.369
36153DPPC   C3A 9067  15.039   0.221  15.709
36153DPPC   C4A 9068  15.389   0.211  16.069
36153DPPC   C1B 9069  14.599   0.771  15.249
36153DPPC   C2B 9070  14.819   0.681  15.599
36153DPPC   C3B 9071  15.109   0.631  15.969
36153DPPC   C4B 9072  15.459   0.691  16.269
36154DPPC   NC3 9073  11.649   1.891  18.439
36154DPPC   PO4 9074  11.619   1.561  18.239
36154DPPC   GL1 9075  11.319   1.601  18.529
36154DPPC   GL2 9076  11.169   1.431  18.309
36154DPPC   C1A 9077  11.389   1.591  18.889
36154DPPC   C2A 9078  11.379   1.611  19.309
36154DPPC   C3A 9079  11.549   1.631  19.739
36154DPPC   C4A 9080  11.479   1.581  20.219
36154DPPC   C1B 9081  10.899   1.481  18.589
36154DPPC   C2B 9082  10.649   1.571  18.869
36154DPPC   C3B 9083  10.409   1.581  19.289
36154DPPC   C4B 9084  10.209   1.481  19.669
36155DPPC   NC3 9085  13.129   5.803  15.769
36155DPPC   PO4 9086  13.519   5.813  15.699
36155DPPC   GL1 9087  13.669   5.583  16.009
36155DPPC   GL2 9088  13.909   5.563  15.759
36155DPPC   C1A 9089  13.719   5.513  16.339
36155DPPC   C2A 9090  13.919   5.453  16.709
36155DPPC   C3A 9091  14.209   5.493  17.029
36155DPPC   C4A 9092  14.499   5.523  17.379
36155DPPC   C1B 9093  14.289   5.563  15.809
36155DPPC   C2B 9094  14.549   5.663  16.119
36155DPPC   C3B 9095  14.899   5.713  16.459
36155DPPC   C4B 9096  15.159   5.693  16.839
36156DPPC   NC3 9097  11.529   4.813  17.309
36156DPPC   PO4 9098  11.299   4.773  17.619
36156DPPC   GL1 9099  10.979   4.803  17.899
36156DPPC   GL2 9100  11.029   4.653  18.109
36156DPPC   C1A 9101  10.679   4.953  17.999
36156DPPC   C2A 9102  10.379   4.933  18.219
36156DPPC   C3A 9103  10.189   5.033  18.649
36156DPPC   C4A 9104   9.949   5.063  19.079
36156DPPC   C1B 9105  10.829   4.803  18.399
36156DPPC   C2B 9106  10.629   4.813  18.779
36156DPPC   C3B 9107  10.399   4.923  19.159
36156DPPC   C4B 9108  10.129   4.993  19.579
36157DPPC   NC3 9109  12.819   4.211  16.879
36157DPPC   PO4 9110  12.849   4.041  17.229
36157DPPC   GL1 9111  13.129   4.333  17.399
36157DPPC   GL2 9112  13.199   4.131  17.429
36157DPPC   C1A 9113  13.219   4.593  17.679
36157DPPC   C2A 9114  13.529   4.593  17.929
36157DPPC   C3A 9115  13.789   4.613  18.319
36157DPPC   C4A 9116  14.129   4.603  18.659
36157DPPC   C1B 9117  13.489   4.151  17.679
36157DPPC   C2B 9118  13.699   4.141  18.069
36157DPPC   C3B 9119  13.939   4.121  18.439
36157DPPC   C4B 9120  14.309   4.151  18.809
36158DPPC   NC3 9121  12.389   5.173  17.729
36158DPPC   PO4 9122  12.609   4.863  17.919
36158DPPC   GL1 9123  12.949   4.853  18.219
36158DPPC   GL2 9124  13.169   4.823  18.139
36158DPPC   C1A 9125  12.909   5.023  18.559
36158DPPC   C2A 9126  13.109   4.953  18.909
36158DPPC   C3A 9127  13.379   4.973  19.259
36158DPPC   C4A 9128  13.659   5.013  19.649
36158DPPC   C1B 9129  13.349   4.753  18.429
36158DPPC   C2B 9130  13.529   4.823  18.779
36158DPPC   C3B 9131  13.849   4.783  19.109
36158DPPC   C4B 9132  14.129   4.803  19.529
36159DPPC   NC3 9133  12.549   3.111  18.029
36159DPPC   PO4 9134  12.629   2.851  18.329
36159DPPC   GL1 9135  12.919   2.531  18.299
36159DPPC   GL2 9136  12.779   2.311  18.439
36159DPPC   C1A 9137  13.229   2.531  18.469
36159DPPC   C2A 9138  13.469   2.511  18.799
36159DPPC   C3A 9139  13.799   2.561  19.169
36159DPPC   C4A 9140  14.059   2.611  19.579
36159DPPC   C1B 9141  13.019   2.191  18.709
36159DPPC   C2B 9142  13.219   2.201  19.059
36159DPPC   C3B 9143  13.539   2.231  19.519
36159DPPC   C4B 9144  13.879   2.201  19.869
36160DPPC   NC3 9145  11.009   4.343  17.759
36160DPPC   PO4 9146  10.749   4.091  17.559
36160DPPC   GL1 9147  10.659   3.931  17.979
36160DPPC   GL2 9148  10.969   3.851  17.969
36160DPPC   C1A 9149  10.529   4.031  18.309
36160DPPC   C2A 9150  10.309   4.041  18.679
36160DPPC   C3A 9151  10.089   4.081  19.069
36160DPPC   C4A 9152   9.829   4.201  19.489
36160DPPC   C1B 9153  10.889   3.821  18.299
36160DPPC   C2B 9154  10.769   3.911  18.709
36160DPPC   C3B 9155  10.559   3.901  19.109
36160DPPC   C4B 9156  10.299   3.921  19.529
36161DPPC   NC3 9157  13.589   2.311  15.449
36161DPPC   PO4 9158  13.639   2.611  15.739
36161DPPC   GL1 9159  13.979   2.931  15.809
36161DPPC   GL2 9160  13.679   3.091  15.879
36161DPPC   C1A 9161  14.259   2.941  16.039
36161DPPC   C2A 9162  14.579   2.861  16.309
36161DPPC   C3A 9163  14.929   2.941  16.639
36161DPPC   C4A 9164  15.259   2.881  16.979
36161DPPC   C1B 9165  13.819   3.231  16.149
36161DPPC   C2B 9166  13.749   3.271  16.629
36161DPPC   C3B 9167  14.029   3.291  17.059
36161DPPC   C4B 9168  14.389   3.221  17.419
36162DPPC   NC3 9169  13.689   5.573  14.789
36162DPPC   PO4 9170  13.959   5.333  14.879
36162DPPC   GL1 9171  14.389   5.343  14.929
36162DPPC   GL2 9172  14.419   5.143  15.119
36162DPPC   C1A 9173  14.599   5.603  15.099
36162DPPC   C2A 9174  14.889   5.823  15.319
36162DPPC   C3A 9175  15.299   5.853  15.629
36162DPPC   C4A 9176  15.579   5.803  15.999
36162DPPC   C1B 9177  14.609   5.003  15.369
36162DPPC   C2B 9178  14.919   4.933  15.649
36162DPPC   C3B 9179  15.199   5.013  15.999
36162DPPC   C4B 9180  15.539   5.013  16.409
36163DPPC   NC3 9181  13.289   4.201  15.419
36163DPPC   PO4 9182  13.579   4.131  15.159
36163DPPC   GL1 9183  13.889   4.121  15.389
36163DPPC   GL2 9184  14.099   4.071  15.319
36163DPPC   C1A 9185  13.899   4.263  15.729
36163DPPC   C2A 9186  14.179   4.363  16.009
36163DPPC   C3A 9187  14.539   4.373  16.409
36163DPPC   C4A 9188  14.879   4.393  16.739
36163DPPC   C1B 9189  14.329   4.131  15.609
36163DPPC   C2B 9190  14.659   4.081  15.919
36163DPPC   C3B 9191  14.999   4.111  16.289
36163DPPC   C4B 9192  15.339   4.141  16.669
36164DPPC   NC3 9193  12.229   3.501  18.059
36164DPPC   PO4 9194  12.229   3.241  18.379
36164DPPC   GL1 9195  12.389   3.291  18.679
36164DPPC   GL2 9196  12.689   3.261  18.599
36164DPPC   C1A 9197  12.349   3.441  19.009
36164DPPC   C2A 9198  12.609   3.371  19.299
36164DPPC   C3A 9199  12.879   3.431  19.659
36164DPPC   C4A 9200  13.159   3.541  20.069
36164DPPC   C1B 9201  12.879   3.261  18.929
36164DPPC   C2B 9202  13.109   3.221  19.249
36164DPPC   C3B 9203  13.349   3.261  19.659
36164DPPC   C4B 9204  13.739   3.371  20.009
36165DPPC   NC3 9205  11.229   1.641  17.899
36165DPPC   PO4 9206  11.179   1.931  18.159
36165DPPC   GL1 9207  11.179   2.021  18.479
36165DPPC   GL2 9208  10.869   2.221  18.429
36165DPPC   C1A 9209  11.029   1.871  18.769
36165DPPC   C2A 9210  10.939   1.901  19.169
36165DPPC   C3A 9211  10.729   1.941  19.589
36165DPPC   C4A 9212  10.499   1.961  20.009
36165DPPC   C1B 9213  10.709   2.151  18.749
36165DPPC   C2B 9214  10.499   2.101  19.139
36165DPPC   C3B 9215  10.259   2.031  19.539
36165DPPC   C4B 9216   9.969   2.131  19.859
36166DPPC   NC3 9217  12.799   3.271  16.599
36166DPPC   PO4 9218  12.759   2.881  16.719
36166DPPC   GL1 9219  13.079   2.641  16.919
36166DPPC   GL2 9220  13.019   2.681  17.149
36166DPPC   C1A 9221  13.429   2.521  16.989
36166DPPC   C2A 9222  13.779   2.551  17.249
36166DPPC   C3A 9223  14.059   2.491  17.609
36166DPPC   C4A 9224  14.439   2.411  17.939
36166DPPC   C1B 9225  13.269   2.631  17.409
36166DPPC   C2B 9226  13.559   2.631  17.709
36166DPPC   C3B 9227  13.909   2.651  18.049
36166DPPC   C4B 9228  14.249   2.681  18.429
36167DPPC   NC3 9229  11.749   6.523  17.679
36167DPPC   PO4 9230  11.519   6.583  17.359
36167DPPC   GL1 9231  11.299   0.201  17.579
36167DPPC   GL2 9232  11.479   0.361  17.819
36167DPPC   C1A 9233  11.029   0.151  17.819
36167DPPC   C2A 9234  10.769   0.171  18.149
36167DPPC   C3A 9235  10.559   0.261  18.559
36167DPPC   C4A 9236  10.339   0.301  18.979
36167DPPC   C1B 9237  11.279   0.351  18.129
36167DPPC   C2B 9238  11.029   0.501  18.459
36167DPPC   C3B 9239  10.789   0.531  18.879
36167DPPC   C4B 9240  10.659   0.661  19.279
36168DPPC   NC3 9241  11.639   5.823  18.049
36168DPPC   PO4 9242  11.679   6.193  18.099
36168DPPC   GL1 9243  11.569   6.253  18.529
36168DPPC   GL2 9244  11.749   6.113  18.569
36168DPPC   C1A 9245  11.399   6.423  18.789
36168DPPC   C2A 9246  11.399   6.533  19.179
36168DPPC   C3A 9247  11.049   6.533  19.549
36168DPPC   C4A 9248  10.779   0.141  19.919
36168DPPC   C1B 9249  11.809   6.123  18.969
36168DPPC   C2B 9250  11.779   6.063  19.359
36168DPPC   C3B 9251  11.899   6.053  19.849
36168DPPC   C4B 9252  11.689   5.673  20.159
36169DPPC   NC3 9253  12.169   6.063  18.099
36169DPPC   PO4 9254  11.989   5.813  18.319
36169DPPC   GL1 9255  11.559   5.733  18.529
36169DPPC   GL2 9256  11.749   5.583  18.669
36169DPPC   C1A 9257  11.379   5.933  18.799
36169DPPC   C2A 9258  11.219   5.883  19.169
36169DPPC   C3A 9259  10.959   5.983  19.629
36169DPPC   C4A 9260  10.809   6.173  19.989
36169DPPC   C1B 9261  11.709   5.633  19.019
36169DPPC   C2B 9262  11.789   5.543  19.439
36169DPPC   C3B 9263  12.039   5.473  19.859
36169DPPC   C4B 9264  12.239   5.433  20.299
36170DPPC   NC3 9265  13.989   4.453  15.009
36170DPPC   PO4 9266  13.999   4.071  14.879
36170DPPC   GL1 9267  14.189   3.721  15.029
36170DPPC   GL2 9268  14.409   3.631  14.769
36170DPPC   C1A 9269  14.319   3.711  15.379
36170DPPC   C2A 9270  14.539   3.601  15.719
36170DPPC   C3A 9271  14.849   3.611  16.129
36170DPPC   C4A 9272  15.249   3.671  16.419
36170DPPC   C1B 9273  14.729   3.491  14.879
36170DPPC   C2B 9274  15.009   3.651  15.119
36170DPPC   C3B 9275  15.359   3.741  15.359
36170DPPC   C4B 9276  15.709   3.771  15.699
36171DPPC   NC3 9277  13.789   6.063  15.359
36171DPPC   PO4 9278  13.769   5.683  15.299
36171DPPC   GL1 9279  14.169   5.593  15.269
36171DPPC   GL2 9280  14.199   5.923  15.169
36171DPPC   C1A 9281  14.499   5.393  15.479
36171DPPC   C2A 9282  14.819   5.543  15.669
36171DPPC   C3A 9283  15.159   5.543  16.019
36171DPPC   C4A 9284  15.419   5.503  16.469
36171DPPC   C1B 9285  14.449   5.943  15.339
36171DPPC   C2B 9286  14.649   6.073  15.659
36171DPPC   C3B 9287  14.989   5.993  15.999
36171DPPC   C4B 9288  15.279   5.983  16.369
36172DPPC   NC3 9289  13.049   3.761  16.099
36172DPPC   PO4 9290  13.249   3.951  15.889
36172DPPC   GL1 9291  13.649   3.951  15.949
36172DPPC   GL2 9292  13.729   3.661  15.959
36172DPPC   C1A 9293  13.899   4.121  16.239
36172DPPC   C2A 9294  14.149   4.061  16.589
36172DPPC   C3A 9295  14.489   4.071  16.949
36172DPPC   C4A 9296  14.809   4.061  17.359
36172DPPC   C1B 9297  13.939   3.641  16.319
36172DPPC   C2B 9298  14.199   3.561  16.639
36172DPPC   C3B 9299  14.449   3.591  16.979
36172DPPC   C4B 9300  14.849   3.551  17.279
36173DPPS   CNO 9301  12.999   6.133  16.069
36173DPPS   PO4 9302  13.329   6.233  15.909
36173DPPS   GL1 9303  13.729   6.283  16.129
36173DPPS   GL2 9304  13.779   6.103  15.989
36173DPPS   C1A 9305  13.959   6.123  16.409
36173DPPS   C2A 9306  14.259   6.303  16.649
36173DPPS   C3A 9307  14.619   6.313  16.989
36173DPPS   C4A 9308  14.899   6.353  17.439
36173DPPS   C1B 9309  14.039   5.813  16.089
36173DPPS   C2B 9310  14.279   5.793  16.469
36173DPPS   C3B 9311  14.619   5.853  16.779
36173DPPS   C4B 9312  14.849   5.923  17.219
36174DPPS   CNO 9313  12.929   4.703  15.989
36174DPPS   PO4 9314  13.199   4.943  15.929
36174DPPS   GL1 9315  13.579   4.973  16.199
36174DPPS   GL2 9316  13.369   5.093  16.429
36174DPPS   C1A 9317  13.889   4.973  16.379
36174DPPS   C2A 9318  14.119   5.003  16.719
36174DPPS   C3A 9319  14.459   5.053  17.059
36174DPPS   C4A 9320  14.779   5.063  17.419
36174DPPS   C1B 9321  13.519   5.143  16.749
36174DPPS   C2B 9322  13.679   5.173  17.119
36174DPPS   C3B 9323  14.109   5.223  17.369
36174DPPS   C4B 9324  14.399   5.223  17.789
36175DPPS   CNO 9325  12.419   5.303  17.249
36175DPPS   PO4 9326  12.659   5.013  17.289
36175DPPS   GL1 9327  13.089   5.003  17.339
36175DPPS   GL2 9328  12.989   4.983  17.629
36175DPPS   C1A 9329  13.399   4.893  17.419
36175DPPS   C2A 9330  13.719   4.963  17.649
36175DPPS   C3A 9331  14.059   4.973  17.989
36175DPPS   C4A 9332  14.389   4.903  18.399
36175DPPS   C1B 9333  13.329   5.023  17.819
36175DPPS   C2B 9334  13.549   5.063  18.139
36175DPPS   C3B 9335  13.869   5.103  18.489
36175DPPS   C4B 9336  14.119   5.123  18.879
36176DPPS   CNO 9337  12.649   3.431  16.079
36176DPPS   PO4 9338  12.939   3.171  16.129
36176DPPS   GL1 9339  13.229   3.281  16.379
36176DPPS   GL2 9340  13.199   2.951  16.469
36176DPPS   C1A 9341  13.439   3.601  16.349
36176DPPS   C2A 9342  13.639   3.781  16.679
36176DPPS   C3A 9343  14.009   3.861  17.029
36176DPPS   C4A 9344  14.309   3.811  17.399
36176DPPS   C1B 9345  13.359   2.941  16.819
36176DPPS   C2B 9346  13.569   2.991  17.199
36176DPPS   C3B 9347  13.909   2.961  17.529
36176DPPS   C4B 9348  14.309   2.911  17.889
36177DPPS   CNO 9349  12.159   0.581  17.629
36177DPPS   PO4 9350  11.949   0.401  17.909
36177DPPS   GL1 9351  11.869   0.501  18.299
36177DPPS   GL2 9352  11.629   0.631  18.169
36177DPPS   C1A 9353  11.859   0.401  18.629
36177DPPS   C2A 9354  11.809   0.421  19.049
36177DPPS   C3A 9355  11.589   0.741  19.269
36177DPPS   C4A 9356  11.539   1.181  19.539
36177DPPS   C1B 9357  11.419   0.711  18.489
36177DPPS   C2B 9358  11.269   0.801  18.869
36177DPPS   C3B 9359  11.109   0.941  19.319
36177DPPS   C4B 9360  10.809   1.021  19.729
36178DPPS   CNO 9361  12.029   5.573  17.749
36178DPPS   PO4 9362  12.399   5.703  17.759
36178DPPS   GL1 9363  12.649   5.603  18.049
36178DPPS   GL2 9364  12.479   5.743  18.259
36178DPPS   C1A 9365  12.759   5.423  18.419
36178DPPS   C2A 9366  12.969   5.473  18.729
36178DPPS   C3A 9367  13.159   5.433  19.119
36178DPPS   C4A 9368  13.389   5.463  19.549
36178DPPS   C1B 9369  12.709   5.843  18.529
36178DPPS   C2B 9370  12.929   5.953  18.879
36178DPPS   C3B 9371  13.199   5.963  19.219
36178DPPS   C4B 9372  13.499   5.973  19.569
36179DPPS   CNO 9373  12.299   3.741  16.419
36179DPPS   PO4 9374  12.669   3.771  16.399
36179DPPS   GL1 9375  13.089   3.881  16.689
36179DPPS   GL2 9376  13.089   3.611  16.609
36179DPPS   C1A 9377  13.339   4.001  16.939
36179DPPS   C2A 9378  13.579   3.991  17.239
36179DPPS   C3A 9379  13.899   4.021  17.639
36179DPPS   C4A 9380  14.249   3.971  17.909
36179DPPS   C1B 9381  13.329   3.441  16.849
36179DPPS   C2B 9382  13.589   3.491  17.159
36179DPPS   C3B 9383  13.939   3.501  17.519
36179DPPS   C4B 9384  14.289   3.491  17.819
36180DPPS   CNO 9385  13.239   3.421  15.239
36180DPPS   PO4 9386  13.519   3.241  15.439
36180DPPS   GL1 9387  13.849   3.451  15.569
36180DPPS   GL2 9388  13.919   3.631  15.459
36180DPPS   C1A 9389  14.109   3.461  15.869
36180DPPS   C2A 9390  14.359   3.351  16.239
36180DPPS   C3A 9391  14.679   3.371  16.559
36180DPPS   C4A 9392  15.059   3.411  16.839
36180DPPS   C1B 9393  14.029   3.861  15.739
36180DPPS   C2B 9394  14.249   3.881  16.089
36180DPPS   C3B 9395  14.589   3.871  16.439
36180DPPS   C4B 9396  14.949   3.881  16.779
36181DPPS   CNO 9397  13.219   5.673  15.289
36181DPPS   PO4 9398  13.239   5.393  15.559
36181DPPS   GL1 9399  13.589   5.253  15.759
36181DPPS   GL2 9400  13.769   5.213  15.529
36181DPPS   C1A 9401  13.849   5.233  16.039
36181DPPS   C2A 9402  14.159   5.333  16.239
36181DPPS   C3A 9403  14.469   5.323  16.569
36181DPPS   C4A 9404  14.799   5.353  16.899
36181DPPS   C1B 9405  14.099   5.213  15.599
36181DPPS   C2B 9406  14.449   5.103  15.799
36181DPPS   C3B 9407  14.699   5.183  16.139
36181DPPS   C4B 9408  15.039   5.213  16.449
36182DPPS   CNO 9409  12.119   2.311  17.819
36182DPPS   PO4 9410  12.159   1.981  18.049
36182DPPS   GL1 9411  12.419   1.921  18.369
36182DPPS   GL2 9412  12.719   1.791  18.299
36182DPPS   C1A 9413  12.559   2.001  18.699
36182DPPS   C2A 9414  12.689   1.911  19.099
36182DPPS   C3A 9415  13.029   1.781  19.349
36182DPPS   C4A 9416  13.209   1.831  19.749
36182DPPS   C1B 9417  12.949   1.721  18.589
36182DPPS   C2B 9418  13.159   1.721  18.909
36182DPPS   C3B 9419  13.489   1.741  19.259
36182DPPS   C4B 9420  13.809   1.731  19.619
36183DPPS   CNO 9421  12.379   4.443  17.889
36183DPPS   PO4 9422  12.299   4.453  18.259
36183DPPS   GL1 9423  12.479   4.653  18.489
36183DPPS   GL2 9424  12.459   4.943  18.379
36183DPPS   C1A 9425  12.639   4.723  18.839
36183DPPS   C2A 9426  12.819   4.663  19.189
36183DPPS   C3A 9427  13.119   4.733  19.649
36183DPPS   C4A 9428  13.439   4.763  20.009
36183DPPS   C1B 9429  12.529   5.193  18.649
36183DPPS   C2B 9430  12.679   5.203  19.049
36183DPPS   C3B 9431  12.959   5.153  19.449
36183DPPS   C4B 9432  13.099   5.143  19.899
36184DPPS   CNO 9433  12.699   0.701  16.729
36184DPPS   PO4 9434  12.929   0.701  17.059
36184DPPS   GL1 9435  13.209   0.481  17.369
36184DPPS   GL2 9436  13.309   0.261  17.239
36184DPPS   C1A 9437  13.289   0.601  17.699
36184DPPS   C2A 9438  13.519   0.801  18.009
36184DPPS   C3A 9439  13.819   0.851  18.289
36184DPPS   C4A 9440  14.139   0.831  18.669
36184DPPS   C1B 9441  13.629   0.101  17.329
36184DPPS   C2B 9442  13.969   0.101  17.619
36184DPPS   C3B 9443  14.289   0.111  17.899
36184DPPS   C4B 9444  14.529   0.141  18.249
36185DPPS   CNO 9445  14.459   4.221  14.279
36185DPPS   PO4 9446  14.269   3.911  14.459
36185DPPS   GL1 9447  14.419   4.061  14.789
36185DPPS   GL2 9448  14.649   4.273  14.689
36185DPPS   C1A 9449  14.559   3.951  15.119
36185DPPS   C2A 9450  14.789   3.921  15.479
36185DPPS   C3A 9451  15.129   3.951  15.789
36185DPPS   C4A 9452  15.509   3.971  16.119
36185DPPS   C1B 9453  14.909   4.263  15.019
36185DPPS   C2B 9454  15.209   4.201  15.239
36185DPPS   C3B 9455  15.479   4.221  15.569
36185DPPS   C4B 9456  15.869   4.231  15.909
36186DPPS   CNO 9457  11.509   2.751  17.629
36186DPPS   PO4 9458  11.709   2.571  17.909
36186DPPS   GL1 9459  11.619   2.651  18.299
36186DPPS   GL2 9460  11.459   2.381  18.389
36186DPPS   C1A 9461  11.679   2.771  18.659
36186DPPS   C2A 9462  11.509   2.831  19.019
36186DPPS   C3A 9463  11.279   2.821  19.469
36186DPPS   C4A 9464  10.969   2.731  19.819
36186DPPS   C1B 9465  11.309   2.391  18.699
36186DPPS   C2B 9466  11.049   2.451  19.029
36186DPPS   C3B 9467  10.839   2.401  19.419
36186DPPS   C4B 9468  10.469   2.421  19.739
36187DPPS   CNO 9469  12.529   4.273  16.509
36187DPPS   PO4 9470  12.819   4.263  16.239
36187DPPS   GL1 9471  13.249   4.211  16.359
36187DPPS   GL2 9472  13.269   4.553  16.269
36187DPPS   C1A 9473  13.529   4.191  16.559
36187DPPS   C2A 9474  13.819   4.293  16.879
36187DPPS   C3A 9475  14.169   4.283  17.259
36187DPPS   C4A 9476  14.479   4.333  17.609
36187DPPS   C1B 9477  13.649   4.523  16.219
36187DPPS   C2B 9478  13.969   4.503  16.489
36187DPPS   C3B 9479  14.289   4.543  16.799
36187DPPS   C4B 9480  14.579   4.503  17.179
36188DPPS   CNO 9481  12.899   5.733  16.379
36188DPPS   PO4 9482  13.049   5.473  16.519
36188DPPS   GL1 9483  13.379   5.693  16.669
36188DPPS   GL2 9484  13.389   5.493  16.919
36188DPPS   C1A 9485  13.679   5.903  16.689
36188DPPS   C2A 9486  13.999   5.983  16.919
36188DPPS   C3A 9487  14.329   5.983  17.239
36188DPPS   C4A 9488  14.669   5.963  17.679
36188DPPS   C1B 9489  13.689   5.643  17.109
36188DPPS   C2B 9490  13.939   5.743  17.409
36188DPPS   C3B 9491  14.249   5.723  17.829
36188DPPS   C4B 9492  14.669   5.753  18.149
36189DPPS   CNO 9493  11.699   1.371  17.819
36189DPPS   PO4 9494  12.009   1.531  17.909
36189DPPS   GL1 9495  12.309   1.521  18.309
36189DPPS   GL2 9496  12.049   1.621  18.409
36189DPPS   C1A 9497  12.569   1.521  18.609
36189DPPS   C2A 9498  12.689   1.381  18.979
36189DPPS   C3A 9499  12.929   1.301  19.399
36189DPPS   C4A 9500  13.319   1.301  19.699
36189DPPS   C1B 9501  12.199   1.791  18.719
36189DPPS   C2B 9502  12.239   1.691  19.109
36189DPPS   C3B 9503  12.529   1.601  19.499
36189DPPS   C4B 9504  12.789   1.591  19.849
36190DPPS   CNO 9505  12.379   6.223  17.649
36190DPPS   PO4 9506  12.209   6.493  17.859
36190DPPS   GL1 9507  11.899   6.553  18.109
36190DPPS   GL2 9508  11.669   0.071  18.139
36190DPPS   C1A 9509  11.939   6.493  18.479
36190DPPS   C2A 9510  11.829   6.563  18.839
36190DPPS   C3A 9511  12.039   6.503  19.299
36190DPPS   C4A 9512  12.329   6.343  19.639
36190DPPS   C1B 9513  11.549   0.131  18.489
36190DPPS   C2B 9514  11.379   0.281  18.849
36190DPPS   C3B 9515  11.179   0.441  19.269
36190DPPS   C4B 9516  10.909   0.571  19.669
36191DPPS   CNO 9517  13.769   2.621  14.579
36191DPPS   PO4 9518  13.989   2.421  14.819
36191DPPS   GL1 9519  14.079   2.401  15.279
36191DPPS   GL2 9520  14.309   2.231  15.189
36191DPPS   C1A 9521  14.229   2.661  15.489
36191DPPS   C2A 9522  14.589   2.611  15.699
36191DPPS   C3A 9523  14.959   2.651  16.029
36191DPPS   C4A 9524  15.289   2.641  16.379
36191DPPS   C1B 9525  14.489   2.191  15.509
36191DPPS   C2B 9526  14.779   2.161  15.829
36191DPPS   C3B 9527  15.099   2.171  16.119
36191DPPS   C4B 9528  15.489   2.191  16.409
36192DPPS   CNO 9529  11.349   6.133  17.209
36192DPPS   PO4 9530  11.489   6.083  17.549
36192DPPS   GL1 9531  11.229   6.093  17.989
36192DPPS   GL2 9532  11.279   6.303  17.939
36192DPPS   C1A 9533  11.179   6.063  18.349
36192DPPS   C2A 9534  10.949   6.023  18.689
36192DPPS   C3A 9535  10.749   6.183  19.119
36192DPPS   C4A 9536  10.579   6.313  19.529
36192DPPS   C1B 9537  11.139   6.523  18.199
36192DPPS   C2B 9538  11.039   6.563  18.609
36192DPPS   C3B 9539  10.919   0.041  19.049
36192DPPS   C4B 9540  10.619   0.201  19.409
36193DPPS   CNO 9541  13.569   1.341  15.109
36193DPPS   PO4 9542  13.929   1.511  15.149
36193DPPS   GL1 9543  14.169   1.301  15.399
36193DPPS   GL2 9544  14.359   1.251  15.209
36193DPPS   C1A 9545  14.389   1.371  15.699
36193DPPS   C2A 9546  14.589   1.411  16.119
36193DPPS   C3A 9547  14.979   1.381  16.429
36193DPPS   C4A 9548  15.299   1.411  16.779
36193DPPS   C1B 9549  14.669   1.131  15.339
36193DPPS   C2B 9550  14.939   1.111  15.679
36193DPPS   C3B 9551  15.229   1.131  16.069
36193DPPS   C4B 9552  15.599   1.161  16.369
36194DPPS   CNO 9553  11.389   5.243  17.469
36194DPPS   PO4 9554  11.409   5.533  17.639
36194DPPS   GL1 9555  11.219   5.663  17.989
36194DPPS   GL2 9556  11.299   5.533  18.189
36194DPPS   C1A 9557  10.909   5.823  18.109
36194DPPS   C2A 9558  10.679   5.693  18.359
36194DPPS   C3A 9559  10.469   5.863  18.779
36194DPPS   C4A 9560  10.239   5.923  19.209
36194DPPS   C1B 9561  11.169   5.593  18.529
36194DPPS   C2B 9562  10.969   5.583  18.889
36194DPPS   C3B 9563  10.769   5.653  19.279
36194DPPS   C4B 9564  10.499   5.843  19.679
36195DPPS   CNO 9565  13.589   6.363  15.029
36195DPPS   PO4 9566  13.939   6.293  14.999
36195DPPS   GL1 9567  14.159   6.293  15.359
36195DPPS   GL2 9568  14.239   6.573  15.409
36195DPPS   C1A 9569  14.159   6.103  15.719
36195DPPS   C2A 9570  14.339   6.143  16.089
36195DPPS   C3A 9571  14.659   6.193  16.379
36195DPPS   C4A 9572  15.019   6.173  16.769
36195DPPS   C1B 9573  14.459   6.493  15.679
36195DPPS   C2B 9574  14.749   6.453  15.959
36195DPPS   C3B 9575  15.129   6.413  16.289
36195DPPS   C4B 9576  15.429   6.463  16.689
36196DPPS   CNO 9577  11.429   3.911  17.789
36196DPPS   PO4 9578  11.419   4.221  18.029
36196DPPS   GL1 9579  11.189   4.243  18.229
36196DPPS   GL2 9580  10.879   4.243  18.199
36196DPPS   C1A 9581  11.109   4.231  18.589
36196DPPS   C2A 9582  11.149   4.191  19.019
36196DPPS   C3A 9583  10.919   4.141  19.399
36196DPPS   C4A 9584  10.639   4.171  19.749
36196DPPS   C1B 9585  10.729   4.373  18.519
36196DPPS   C2B 9586  10.639   4.353  18.949
36196DPPS   C3B 9587  10.389   4.413  19.329
36196DPPS   C4B 9588  10.109   4.543  19.769
36197DPPS   CNO 9589  12.019   3.061  17.959
36197DPPS   PO4 9590  12.119   2.781  18.169
36197DPPS   GL1 9591  12.299   2.831  18.649
36197DPPS   GL2 9592  12.049   2.981  18.729
36197DPPS   C1A 9593  12.529   2.911  18.899
36197DPPS   C2A 9594  12.709   2.881  19.279
36197DPPS   C3A 9595  13.049   2.851  19.649
36197DPPS   C4A 9596  13.329   2.731  20.069
36197DPPS   C1B 9597  12.129   3.081  19.079
36197DPPS   C2B 9598  12.259   3.011  19.459
36197DPPS   C3B 9599  12.439   3.041  19.909
36197DPPS   C4B 9600  12.909   3.111  20.049
  21.13786   6.60186  45.07890
