INSANE! Membrane UpperLeaflet>M3.DPPC:M3.DPPS=75.0:25.0 LowerLeaflet>M3.DPPC:M3.DPPS=75.0:25.0
56796
    1DPPC   NC3    1  17.972   1.644  22.577 -0.0884  0.0350 -0.2735
    1DPPC   PO4    2  17.699   1.659  22.280 -0.0917  0.2554 -0.2872
    1DPPC   GL1    3  17.292   1.579  22.262  0.0864  0.2379 -0.2596
    1DPPC   GL2    4  17.241   1.417  22.490 -0.0115  0.0426 -0.1841
    1DPPC   C1A    5  17.098   1.405  22.023 -0.1516 -0.0110  0.2444
    1DPPC   C2A    6  16.719   1.408  21.843 -0.0977  0.0595 -0.0143
    1DPPC   C3A    7  16.410   1.374  21.437  0.1504 -0.1351  0.1657
    1DPPC   C4A    8  16.078   1.417  21.082 -0.3088  0.2325 -0.0260
    1DPPC   C1B    9  16.878   1.479  22.486  0.0771  0.0604  0.2320
    1DPPC   C2B   10  16.504   1.636  22.345  0.0661  0.1714  0.1965
    1DPPC   C3B   11  16.225   1.618  21.921 -0.0275  0.0062 -0.2263
    1DPPC   C4B   12  15.932   1.603  21.589 -0.0062 -0.1302  0.0372
    2DPPC   NC3   13  18.893   6.264  20.269  0.1805 -0.0918 -0.1519
    2DPPC   PO4   14  19.002   6.625  20.242 -0.2445  0.0035 -0.0107
    2DPPC   GL1   15  18.632   6.685  19.948  0.1100 -0.0719  0.0227
    2DPPC   GL2   16  18.795   6.800  19.769  0.0560  0.0793  0.0358
    2DPPC   C1A   17  18.299   6.560  19.780  0.3139 -0.1893  0.0719
    2DPPC   C2A   18  17.931   6.549  19.570  0.1402 -0.3514 -0.2577
    2DPPC   C3A   19  17.575   6.618  19.248  0.2370  0.0892 -0.2823
    2DPPC   C4A   20  17.178   6.692  18.907  0.2192  0.0435  0.2962
    2DPPC   C1B   21  18.479   6.910  19.539 -0.0109  0.2737 -0.1252
    2DPPC   C2B   22  18.166   7.002  19.306 -0.2460  0.0993 -0.2453
    2DPPC   C3B   23  17.828   6.963  18.944  0.0793 -0.0305  0.0727
    2DPPC   C4B   24  17.506   6.886  18.600  0.1107  0.2285  0.1061
    3DPPC   NC3   25  18.996   5.509  20.505  0.0633  0.1129  0.2795
    3DPPC   PO4   26  18.970   5.779  20.220  0.2839 -0.0163 -0.1927
    3DPPC   GL1   27  18.626   5.894  20.122 -0.2070  0.0344  0.0863
    3DPPC   GL2   28  18.516   6.153  19.961  0.3267 -0.3128  0.0515
    3DPPC   C1A   29  18.295   5.737  20.137  0.2851  0.0425  0.0824
    3DPPC   C2A   30  17.874   5.786  20.008 -0.1336 -0.1216 -0.0966
    3DPPC   C3A   31  17.549   5.768  19.738  0.6850  0.0048 -0.0874
    3DPPC   C4A   32  17.167   5.813  19.519  0.1373 -0.4405  0.1702
    3DPPC   C1B   33  18.252   6.060  19.739  0.1734  0.2453  0.1020
    3DPPC   C2B   34  17.885   6.084  19.528 -0.0860 -0.1199 -0.3495
    3DPPC   C3B   35  17.522   6.033  19.224  0.0222 -0.2706 -0.3323
    3DPPC   C4B   36  17.286   6.245  18.844 -0.0482  0.2703  0.3816
    4DPPC   NC3   37  16.759   4.846  23.309 -0.2778 -0.0999 -0.1514
    4DPPC   PO4   38  16.781   4.514  23.509 -0.0481  0.2171 -0.1720
    4DPPC   GL1   39  16.476   4.255  23.411  0.1780  0.1099 -0.1808
    4DPPC   GL2   40  16.349   4.511  23.282 -0.0660  0.1257  0.1855
    4DPPC   C1A   41  16.380   3.998  23.144  0.2480 -0.2182  0.0586
    4DPPC   C2A   42  16.094   3.831  22.849 -0.2872  0.1482 -0.0692
    4DPPC   C3A   43  15.744   3.784  22.496 -0.0589 -0.1275 -0.2700
    4DPPC   C4A   44  15.355   3.767  22.184 -0.1840 -0.1919 -0.0217
    4DPPC   C1B   45  16.137   4.391  23.075 -0.0350 -0.1997  0.0126
    4DPPC   C2B   46  15.900   4.319  22.782  0.3391 -0.1287 -0.0251
    4DPPC   C3B   47  15.566   4.247  22.476  0.2771  0.0227 -0.2854
    4DPPC   C4B   48  15.166   4.234  22.195 -0.1246  0.0716  0.0545
    5DPPC   NC3   49  18.138   5.385  22.605  0.0372 -0.0148 -0.0533
    5DPPC   PO4   50  17.778   5.268  22.455  0.0116  0.2044  0.1183
    5DPPC   GL1   51  17.452   5.492  22.253 -0.0691  0.1016  0.0374
    5DPPC   GL2   52  17.316   5.306  22.430  0.1976 -0.2005  0.2841
    5DPPC   C1A   53  17.258   5.623  21.933 -0.0002  0.1730 -0.0242
    5DPPC   C2A   54  16.988   5.514  21.640  0.1024 -0.0810  0.0939
    5DPPC   C3A   55  16.601   5.491  21.317  0.0560 -0.1517  0.1070
    5DPPC   C4A   56  16.286   5.464  20.911 -0.2303 -0.5335  0.0317
    5DPPC   C1B   57  16.977   5.309  22.291  0.6407  0.2348  0.4011
    5DPPC   C2B   58  16.693   5.193  21.961  0.3521  0.0816  0.1551
    5DPPC   C3B   59  16.342   5.190  21.636 -0.0101 -0.0872  0.0249
    5DPPC   C4B   60  15.998   5.140  21.311 -0.4243  0.1647 -0.2452
    6DPPC   NC3   61  17.484   6.502  22.845 -0.0153 -0.1131 -0.1278
    6DPPC   PO4   62  17.734   6.331  22.550  0.0278  0.0096  0.3279
    6DPPC   GL1   63  17.594   6.249  22.131 -0.0439  0.0797 -0.0661
    6DPPC   GL2   64  17.524   5.988  22.225 -0.1321 -0.1093  0.4015
    6DPPC   C1A   65  17.529   6.352  21.752 -0.4559  0.2289  0.5489
    6DPPC   C2A   66  17.253   6.323  21.435  0.1016  0.1764 -0.1002
    6DPPC   C3A   67  16.922   6.333  21.052  0.1111 -0.1371 -0.4098
    6DPPC   C4A   68  16.620   6.339  20.707  0.2083  0.2088 -0.1057
    6DPPC   C1B   69  17.197   6.059  22.040 -0.1292 -0.2128 -0.0658
    6DPPC   C2B   70  16.991   5.986  21.644  0.0959  0.1042 -0.2067
    6DPPC   C3B   71  16.610   6.030  21.380 -0.0657  0.1471 -0.3005
    6DPPC   C4B   72  16.207   6.003  21.064 -0.3592  0.0495 -0.2672
    7DPPC   NC3   73  17.725   4.867  23.214 -0.2720  0.3290  0.0995
    7DPPC   PO4   74  17.595   4.559  22.971 -0.0195  0.1668 -0.0491
    7DPPC   GL1   75  17.358   4.492  22.685  0.3061  0.2572 -0.2718
    7DPPC   GL2   76  17.219   4.216  22.735 -0.1875  0.2963 -0.1740
    7DPPC   C1A   77  17.237   4.673  22.376 -0.1389 -0.0877  0.0799
    7DPPC   C2A   78  17.024   4.801  22.075  0.1944  0.3421  0.0735
    7DPPC   C3A   79  16.631   4.736  21.831  0.0954 -0.0519 -0.0304
    7DPPC   C4A   80  16.247   4.696  21.427 -0.0491 -0.0062 -0.0885
    7DPPC   C1B   81  16.902   4.114  22.677  0.0719 -0.2110  0.2670
    7DPPC   C2B   82  16.446   4.116  22.728 -0.2057  0.2466  0.0186
    7DPPC   C3B   83  16.101   4.084  22.397 -0.2034 -0.2055 -0.2053
    7DPPC   C4B   84  15.743   4.028  22.036  0.2253 -0.1961  0.1516
    8DPPC   NC3   85  19.744   2.286  18.876  0.0774  0.3478 -0.1745
    8DPPC   PO4   86  19.430   2.025  18.806  0.0684  0.1583  0.1885
    8DPPC   GL1   87  19.281   2.308  18.455  0.0354  0.4567 -0.0191
    8DPPC   GL2   88  19.120   2.080  18.386  0.0081  0.2358 -0.1228
    8DPPC   C1A   89  18.977   2.497  18.310  0.3093 -0.0819 -0.4222
    8DPPC   C2A   90  18.738   2.493  17.968 -0.0394 -0.0953 -0.0853
    8DPPC   C3A   91  18.656   2.484  17.504 -0.0391  0.2422  0.0591
    8DPPC   C4A   92  18.423   2.511  17.087  0.0207 -0.3154  0.0373
    8DPPC   C1B   93  18.932   2.132  18.092  0.2300 -0.0436  0.0416
    8DPPC   C2B   94  18.779   2.007  17.797  0.0303  0.1000  0.0590
    8DPPC   C3B   95  18.565   2.010  17.370  0.0575  0.1603 -0.0895
    8DPPC   C4B   96  18.296   1.865  16.982 -0.3051 -0.1096  0.0248
    9DPPC   NC3   97  18.323   6.101  20.894 -0.1120  0.1166 -0.1873
    9DPPC   PO4   98  18.376   5.976  21.283 -0.2006  0.2065  0.0025
    9DPPC   GL1   99  17.971   6.005  21.250  0.0490 -0.0230  0.1497
    9DPPC   GL2  100  17.936   5.892  20.988 -0.1531  0.0724 -0.4384
    9DPPC   C1A  101  17.694   6.303  21.254 -0.0025  0.0459 -0.5000
    9DPPC   C2A  102  17.457   6.583  21.063 -0.1815 -0.2177 -0.1114
    9DPPC   C3A  103  17.149   6.597  20.688  0.0769 -0.1948  0.3347
    9DPPC   C4A  104  16.784   6.612  20.348  0.0047  0.0026 -0.3576
    9DPPC   C1B  105  17.640   5.714  20.994  0.4134  0.3234 -0.2578
    9DPPC   C2B  106  17.270   5.672  20.730 -0.2139 -0.0926  0.1827
    9DPPC   C3B  107  16.942   5.703  20.378  0.2728  0.1377  0.1325
    9DPPC   C4B  108  16.738   5.631  19.908 -0.0771 -0.0617 -0.0354
   10DPPC   NC3  109  19.148   3.973  19.996 -0.3209 -0.2077  0.0634
   10DPPC   PO4  110  19.090   4.347  19.907 -0.2080  0.0093 -0.1052
   10DPPC   GL1  111  18.934   4.487  19.620  0.4573  0.4136  0.1508
   10DPPC   GL2  112  18.758   4.652  19.771  0.0949  0.0656 -0.0833
   10DPPC   C1A  113  18.640   4.371  19.378 -0.1032  0.0448 -0.0204
   10DPPC   C2A  114  18.337   4.371  19.049  0.2229 -0.0904  0.0580
   10DPPC   C3A  115  18.021   4.321  18.642 -0.1792 -0.1691  0.0562
   10DPPC   C4A  116  17.698   4.330  18.226 -0.2110 -0.1075  0.0414
   10DPPC   C1B  117  18.565   4.809  19.534  0.2070  0.0544 -0.1662
   10DPPC   C2B  118  18.359   4.867  19.175 -0.1152 -0.1146  0.1047
   10DPPC   C3B  119  17.999   4.851  18.781 -0.0348 -0.1930  0.0787
   10DPPC   C4B  120  17.630   4.836  18.427 -0.1939 -0.0405  0.0447
   11DPPC   NC3  121  18.425   4.017  20.612  0.1895  0.1051  0.0053
   11DPPC   PO4  122  18.573   3.635  20.538 -0.1497 -0.1792 -0.1673
   11DPPC   GL1  123  18.298   3.578  20.278 -0.3750 -0.1352 -0.0593
   11DPPC   GL2  124  18.104   3.729  20.456 -0.1320 -0.3964 -0.1140
   11DPPC   C1A  125  18.174   3.591  19.973  0.1392 -0.2451  0.1363
   11DPPC   C2A  126  17.887   3.722  19.740  0.2386  0.0621 -0.0675
   11DPPC   C3A  127  17.505   3.788  19.398 -0.1385 -0.0378 -0.2189
   11DPPC   C4A  128  17.239   3.837  18.964  0.1513  0.2239 -0.2188
   11DPPC   C1B  129  17.805   3.911  20.357 -0.1491 -0.0205  0.1566
   11DPPC   C2B  130  17.507   3.915  20.056 -0.0222 -0.3672  0.0058
   11DPPC   C3B  131  17.201   4.050  19.714  0.2454  0.2554 -0.0672
   11DPPC   C4B  132  16.894   4.058  19.356  0.0533 -0.1017 -0.1859
   12DPPC   NC3  133  18.857   1.451  19.896  0.0174  0.0499  0.0191
   12DPPC   PO4  134  18.896   1.699  19.627 -0.1769 -0.1290  0.0886
   12DPPC   GL1  135  18.478   1.792  19.457 -0.3067 -0.2014 -0.1199
   12DPPC   GL2  136  18.297   1.834  19.663 -0.1328  0.5452  0.0541
   12DPPC   C1A  137  18.268   1.618  19.232  0.0367  0.0624  0.0085
   12DPPC   C2A  138  18.040   1.608  18.838  0.0437  0.3910 -0.0835
   12DPPC   C3A  139  17.716   1.527  18.499  0.1264 -0.0311 -0.1343
   12DPPC   C4A  140  17.510   1.492  18.055  0.3526 -0.0760 -0.0138
   12DPPC   C1B  141  17.976   1.723  19.498  0.2077  0.1251 -0.2321
   12DPPC   C2B  142  17.688   1.714  19.204 -0.2072 -0.0898  0.0003
   12DPPC   C3B  143  17.387   1.698  18.814  0.2123 -0.1272  0.0991
   12DPPC   C4B  144  17.157   1.733  18.445 -0.3483  0.0072  0.1684
   13DPPC   NC3  145  19.182   6.424  19.370  0.1186  0.1044  0.3481
   13DPPC   PO4  146  19.505   6.487  19.140  0.0502 -0.2027 -0.1115
   13DPPC   GL1  147  19.689   6.368  18.712  0.4272 -0.0457  0.1614
   13DPPC   GL2  148  19.445   6.295  18.675  0.2734 -0.3119 -0.0390
   13DPPC   C1A  149  19.765   6.473  18.370  0.0662  0.3079  0.1707
   13DPPC   C2A  150  19.868   6.624  18.028 -0.0903 -0.0192  0.1864
   13DPPC   C3A  151  20.017   6.885  17.667  0.0457 -0.3304 -0.2064
   13DPPC   C4A  152  20.384   7.078  17.371  0.0370 -0.3295 -0.1683
   13DPPC   C1B  153  19.236   5.982  18.587 -0.4304 -0.2322 -0.1824
   13DPPC   C2B  154  19.031   5.855  18.284 -0.0626  0.1113  0.0587
   13DPPC   C3B  155  18.740   5.713  17.866 -0.0670 -0.1795 -0.0484
   13DPPC   C4B  156  18.326   5.717  17.523 -0.3591 -0.2316  0.2119
   14DPPC   NC3  157  19.042   3.156  19.676  0.0889  0.3777  0.1124
   14DPPC   PO4  158  19.106   3.563  19.719  0.1421  0.0003 -0.1804
   14DPPC   GL1  159  18.726   3.442  19.448 -0.1647  0.0352  0.2614
   14DPPC   GL2  160  18.702   3.679  19.387  0.0227 -0.2453 -0.2500
   14DPPC   C1A  161  18.492   3.281  19.226  0.4353  0.3345 -0.3117
   14DPPC   C2A  162  18.326   3.320  18.863  0.0147 -0.1249 -0.0019
   14DPPC   C3A  163  18.052   3.345  18.505 -0.0466  0.2230  0.0684
   14DPPC   C4A  164  17.788   3.287  18.092 -0.1582  0.2255 -0.0023
   14DPPC   C1B  165  18.464   3.713  19.137 -0.1269 -0.1006  0.2349
   14DPPC   C2B  166  18.200   3.830  18.815  0.1543 -0.1913  0.0039
   14DPPC   C3B  167  17.933   3.866  18.423 -0.1994 -0.0705 -0.3210
   14DPPC   C4B  168  17.611   3.743  18.056 -0.0478 -0.0936  0.2078
   15DPPC   NC3  169  17.790   4.294  22.254  0.0479  0.0622 -0.2088
   15DPPC   PO4  170  18.017   4.600  22.192  0.4217 -0.1416 -0.0234
   15DPPC   GL1  171  17.740   4.689  21.892 -0.3631  0.2406  0.0229
   15DPPC   GL2  172  17.651   4.385  21.807 -0.2089  0.0085 -0.2646
   15DPPC   C1A  173  17.468   4.915  21.960 -0.0081  0.0070  0.0981
   15DPPC   C2A  174  17.285   5.146  21.691  0.3569 -0.0339  0.0056
   15DPPC   C3A  175  16.856   5.053  21.460 -0.0596 -0.0662  0.0201
   15DPPC   C4A  176  16.492   4.981  21.110 -0.0907  0.0325  0.0037
   15DPPC   C1B  177  17.459   4.223  21.517  0.3463  0.3528  0.1164
   15DPPC   C2B  178  17.232   4.328  21.129 -0.2629  0.1793 -0.0771
   15DPPC   C3B  179  16.882   4.327  20.795 -0.1691 -0.1728  0.2214
   15DPPC   C4B  180  16.580   4.318  20.409 -0.1025  0.1892  0.1870
   16DPPC   NC3  181  16.824   4.277  23.933  0.3672 -0.3552  0.1817
   16DPPC   PO4  182  16.548   4.546  24.001 -0.2115 -0.1128 -0.1420
   16DPPC   GL1  183  16.296   4.640  23.703  0.1706  0.0090 -0.1848
   16DPPC   GL2  184  16.076   4.503  23.798  0.0461 -0.3874 -0.2118
   16DPPC   C1A  185  16.237   4.871  23.415  0.0308 -0.0841 -0.0146
   16DPPC   C2A  186  16.050   4.803  23.035 -0.2029 -0.0390 -0.0692
   16DPPC   C3A  187  15.724   4.831  22.719  0.2600 -0.0581 -0.0871
   16DPPC   C4A  188  15.360   4.722  22.380  0.0152  0.0475 -0.3756
   16DPPC   C1B  189  15.863   4.466  23.492  0.0938 -0.2212 -0.0547
   16DPPC   C2B  190  15.648   4.505  23.183 -0.2835  0.3180  0.0937
   16DPPC   C3B  191  15.330   4.516  22.931  0.0727  0.1314 -0.3426
   16DPPC   C4B  192  15.009   4.403  22.581 -0.0199  0.0991  0.1276
   17DPPC   NC3  193  18.899   1.146  20.940 -0.0690 -0.1419  0.1478
   17DPPC   PO4  194  18.965   1.135  20.543  0.1127  0.0678 -0.2361
   17DPPC   GL1  195  18.627   1.358  20.299 -0.1005  0.2660 -0.2090
   17DPPC   GL2  196  18.499   1.492  20.505  0.3304  0.1550 -0.0027
   17DPPC   C1A  197  18.475   1.270  19.996  0.1079  0.1958  0.6041
   17DPPC   C2A  198  18.235   1.390  19.661  0.0143 -0.0623  0.1290
   17DPPC   C3A  199  17.936   1.271  19.268 -0.2723 -0.1554 -0.2705
   17DPPC   C4A  200  17.611   1.275  18.912  0.0709  0.1078  0.1947
   17DPPC   C1B  201  18.205   1.506  20.288  0.1289 -0.0347  0.1920
   17DPPC   C2B  202  17.891   1.498  20.004  0.0655 -0.0577 -0.0188
   17DPPC   C3B  203  17.626   1.457  19.609 -0.1241  0.1378 -0.5620
   17DPPC   C4B  204  17.265   1.476  19.282  0.1606 -0.0703 -0.2599
   18DPPC   NC3  205  18.700   6.398  21.309  0.1486  0.1548 -0.1405
   18DPPC   PO4  206  18.302   6.490  21.309  0.1390 -0.4477 -0.2841
   18DPPC   GL1  207  18.059   6.487  20.968  0.0378 -0.1605 -0.1657
   18DPPC   GL2  208  18.223   6.731  20.897 -0.2719 -0.0640  0.0941
   18DPPC   C1A  209  17.786   6.247  20.831 -0.2100  0.1245  0.4017
   18DPPC   C2A  210  17.431   6.116  20.834  0.1971 -0.1364  0.0743
   18DPPC   C3A  211  17.051   6.151  20.543  0.0556  0.3622 -0.0211
   18DPPC   C4A  212  16.638   6.119  20.205 -0.0222  0.0491 -0.0539
   18DPPC   C1B  213  18.113   6.847  20.532 -0.2074 -0.1262  0.2354
   18DPPC   C2B  214  18.193   7.077  20.152  0.3113 -0.1657  0.2295
   18DPPC   C3B  215  17.994   7.057  19.757 -0.1603  0.1371  0.2715
   18DPPC   C4B  216  17.683   7.105  19.452 -0.0682 -0.0882 -0.0821
   19DPPC   NC3  217  19.116   4.853  19.948  0.1302  0.3320  0.2453
   19DPPC   PO4  218  19.261   5.056  19.628  0.0703  0.1214  0.2640
   19DPPC   GL1  219  18.934   5.023  19.353 -0.2546 -0.0219  0.2591
   19DPPC   GL2  220  18.907   4.762  19.265 -0.0343  0.2577 -0.2317
   19DPPC   C1A  221  18.746   5.159  19.083 -0.0371 -0.1247 -0.0167
   19DPPC   C2A  222  18.475   5.197  18.762 -0.0034  0.0675  0.1469
   19DPPC   C3A  223  18.152   5.210  18.395 -0.1554 -0.0811 -0.0772
   19DPPC   C4A  224  17.905   5.121  18.020  0.1106  0.2029  0.1869
   19DPPC   C1B  225  18.758   4.746  18.942 -0.0679  0.1127  0.1815
   19DPPC   C2B  226  18.460   4.651  18.651 -0.0333  0.3525 -0.0383
   19DPPC   C3B  227  18.159   4.714  18.285  0.2301  0.2202 -0.0098
   19DPPC   C4B  228  17.994   4.607  17.913 -0.1085  0.1417  0.0453
   20DPPC   NC3  229  18.385   2.261  22.149  0.2097 -0.0317  0.4664
   20DPPC   PO4  230  18.103   2.190  21.892  0.1033 -0.3151 -0.0204
   20DPPC   GL1  231  17.811   2.477  21.744  0.5188 -0.1793  0.2519
   20DPPC   GL2  232  17.823   2.497  21.501  0.0162  0.1233 -0.2041
   20DPPC   C1A  233  17.487   2.268  21.708  0.2340 -0.1237 -0.0808
   20DPPC   C2A  234  17.111   2.137  21.671 -0.1328  0.2987  0.2179
   20DPPC   C3A  235  16.714   2.137  21.363  0.0120 -0.0078  0.2092
   20DPPC   C4A  236  16.384   2.278  20.970  0.1960 -0.2840  0.1909
   20DPPC   C1B  237  17.633   2.417  21.189  0.0652 -0.1687 -0.0424
   20DPPC   C2B  238  17.333   2.298  20.858  0.0564 -0.1804  0.1458
   20DPPC   C3B  239  16.998   2.365  20.482  0.0611 -0.0156  0.0711
   20DPPC   C4B  240  16.641   2.326  20.091 -0.0678  0.0002  0.2730
   21DPPC   NC3  241  17.211   0.519  23.256  0.0518 -0.4237  0.0741
   21DPPC   PO4  242  17.110   0.147  23.091 -0.2358 -0.0682 -0.0503
   21DPPC   GL1  243  17.017   0.104  22.665 -0.0110 -0.0239 -0.3035
   21DPPC   GL2  244  16.983  -0.174  22.804 -0.1956  0.1034 -0.0529
   21DPPC   C1A  245  16.845   0.078  22.384 -0.1210  0.2476 -0.1754
   21DPPC   C2A  246  16.568   0.097  22.009 -0.2952  0.0571 -0.1134
   21DPPC   C3A  247  16.168   0.110  21.671 -0.0329  0.1122  0.1416
   21DPPC   C4A  248  15.805   0.072  21.327  0.1176  0.1685 -0.0106
   21DPPC   C1B  249  16.637  -0.277  22.711 -0.0010  0.1800 -0.0068
   21DPPC   C2B  250  16.349  -0.223  22.442  0.0749  0.2738  0.0321
   21DPPC   C3B  251  16.030  -0.192  22.064 -0.0779 -0.1509  0.1157
   21DPPC   C4B  252  15.711  -0.258  21.736  0.0854 -0.1090  0.2935
   22DPPC   NC3  253  19.224   2.998  19.014 -0.3501  0.0374 -0.3314
   22DPPC   PO4  254  19.096   3.318  19.207 -0.1506 -0.2226 -0.1706
   22DPPC   GL1  255  18.799   3.459  18.921 -0.1382 -0.2757  0.0124
   22DPPC   GL2  256  18.778   3.241  18.918  0.0403  0.2336 -0.1535
   22DPPC   C1A  257  18.764   3.691  18.642  0.2014 -0.3341 -0.0570
   22DPPC   C2A  258  18.461   3.682  18.418 -0.0061  0.0021 -0.0984
   22DPPC   C3A  259  18.147   3.655  18.022  0.1372 -0.0981  0.1883
   22DPPC   C4A  260  17.839   3.688  17.562 -0.0694 -0.1353  0.3804
   22DPPC   C1B  261  18.701   3.240  18.530 -0.0232 -0.1379 -0.1763
   22DPPC   C2B  262  18.424   3.100  18.290 -0.2057 -0.1422 -0.0679
   22DPPC   C3B  263  18.250   3.166  17.869  0.0928  0.1138 -0.0070
   22DPPC   C4B  264  17.904   3.150  17.484  0.2391  0.2825 -0.1596
   23DPPC   NC3  265  17.360   4.941  22.854  0.0620 -0.0627  0.2318
   23DPPC   PO4  266  17.022   4.752  22.899 -0.0870 -0.0377 -0.0276
   23DPPC   GL1  267  16.744   4.497  22.670  0.4764  0.0211 -0.2369
   23DPPC   GL2  268  16.527   4.700  22.742 -0.3543  0.3856 -0.1957
   23DPPC   C1A  269  16.564   4.447  22.403  0.1926 -0.2578 -0.2944
   23DPPC   C2A  270  16.307   4.446  22.128 -0.0894 -0.2101  0.0824
   23DPPC   C3A  271  16.003   4.386  21.749  0.0786 -0.1189  0.1859
   23DPPC   C4A  272  15.842   4.354  21.318 -0.2283  0.1304 -0.0914
   23DPPC   C1B  273  16.170   4.641  22.592  0.1773  0.2472  0.2048
   23DPPC   C2B  274  15.871   4.612  22.291  0.0410  0.1302 -0.0835
   23DPPC   C3B  275  15.494   4.509  21.926  0.2172  0.2570 -0.0256
   23DPPC   C4B  276  15.487   4.113  21.571  0.3055 -0.1686  0.3467
   24DPPC   NC3  277  16.010   2.223  24.945  0.1189  0.3382  0.1808
   24DPPC   PO4  278  16.013   2.252  24.543  0.2090  0.1171 -0.0994
   24DPPC   GL1  279  15.693   1.995  24.621  0.0104 -0.0084  0.2142
   24DPPC   GL2  280  15.624   2.139  24.318 -0.1521  0.2872  0.4811
   24DPPC   C1A  281  15.496   1.705  24.461 -0.4443  0.0695  0.2070
   24DPPC   C2A  282  15.329   1.542  24.142 -0.0289  0.0864  0.0130
   24DPPC   C3A  283  14.895   1.543  23.839 -0.0252  0.1393  0.3771
   24DPPC   C4A  284  14.572   1.542  23.460 -0.0918  0.0610 -0.0553
   24DPPC   C1B  285  15.298   2.076  24.165 -0.3219  0.0508  0.0688
   24DPPC   C2B  286  14.962   2.045  23.919  0.2760  0.1988  0.3082
   24DPPC   C3B  287  14.669   2.060  23.620 -0.1490  0.2537  0.1704
   24DPPC   C4B  288  14.358   2.023  23.227  0.2096  0.1141  0.0924
   25DPPC   NC3  289  17.404   5.823  23.081  0.3084 -0.0820  0.0464
   25DPPC   PO4  290  17.250   6.206  23.178  0.0173 -0.2383 -0.0186
   25DPPC   GL1  291  16.810   6.123  23.051 -0.1995 -0.1654  0.0804
   25DPPC   GL2  292  16.845   6.374  23.238 -0.2051 -0.0663  0.4007
   25DPPC   C1A  293  16.431   6.074  23.033  0.0866  0.1798  0.0461
   25DPPC   C2A  294  16.114   6.108  22.741  0.1767 -0.0105 -0.0959
   25DPPC   C3A  295  15.782   6.073  22.403 -0.0877  0.0904 -0.3622
   25DPPC   C4A  296  15.503   5.973  22.043  0.4113  0.0009  0.0459
   25DPPC   C1B  297  16.496   6.465  23.139 -0.0633 -0.0873 -0.2053
   25DPPC   C2B  298  16.194   6.551  22.900 -0.2241  0.1211  0.0144
   25DPPC   C3B  299  15.878   6.599  22.542  0.0808 -0.1771 -0.1392
   25DPPC   C4B  300  15.533   6.586  22.156 -0.2362  0.1325  0.0552
   26DPPC   NC3  301  19.800   3.349  18.666 -0.0080 -0.0405  0.0515
   26DPPC   PO4  302  20.016   3.553  18.936  0.1722  0.1320  0.0844
   26DPPC   GL1  303  20.441   3.429  18.810  0.2529  0.0674 -0.3038
   26DPPC   GL2  304  20.259   3.330  18.599 -0.2476  0.0566 -0.0918
   26DPPC   C1A  305  20.695   3.417  18.538  0.1741  0.2281 -0.0511
   26DPPC   C2A  306  20.927   3.381  18.210  0.2593 -0.0503 -0.3037
   26DPPC   C3A  307  21.157   3.368  17.774  0.2103 -0.3049 -0.6476
   26DPPC   C4A  308  21.487   3.330  17.456  0.1763  0.0378  0.1662
   26DPPC   C1B  309  20.237   3.651  18.431  0.2937  0.2256  0.1049
   26DPPC   C2B  310  20.328   4.050  18.326 -0.1201 -0.0322  0.1128
   26DPPC   C3B  311  20.397   4.483  18.181  0.3386 -0.0871 -0.1468
   26DPPC   C4B  312  20.168   4.945  17.998 -0.0396  0.1528 -0.0851
   27DPPC   NC3  313  19.215   0.591  19.706 -0.2140  0.1177  0.2970
   27DPPC   PO4  314  19.329   0.798  19.362 -0.1903 -0.0863  0.0441
   27DPPC   GL1  315  18.997   0.829  19.084  0.1598 -0.1475  0.3604
   27DPPC   GL2  316  18.877   0.706  19.309 -0.0489  0.2417  0.4195
   27DPPC   C1A  317  18.695   0.836  18.813 -0.3220 -0.0217  0.3572
   27DPPC   C2A  318  18.441   0.886  18.469 -0.0028  0.1759  0.0365
   27DPPC   C3A  319  18.139   0.919  18.045  0.3166  0.0857 -0.1147
   27DPPC   C4A  320  17.936   0.845  17.630 -0.3210  0.0722 -0.0700
   27DPPC   C1B  321  18.573   0.551  19.099  0.3544  0.1935 -0.0514
   27DPPC   C2B  322  18.274   0.576  18.827 -0.1443  0.0417 -0.0907
   27DPPC   C3B  323  17.969   0.612  18.442  0.0343 -0.0462 -0.1281
   27DPPC   C4B  324  17.625   0.611  18.115 -0.2371  0.0913 -0.0990
   28DPPC   NC3  325  19.572   5.201  18.799  0.2069  0.0955  0.2617
   28DPPC   PO4  326  19.884   5.213  18.993  0.3246 -0.0386 -0.3289
   28DPPC   GL1  327  20.302   5.248  18.911 -0.0866 -0.2858  0.0395
   28DPPC   GL2  328  20.326   5.490  19.026  0.1636  0.4075 -0.0325
   28DPPC   C1A  329  20.422   5.312  18.571  0.0412  0.0110 -0.5305
   28DPPC   C2A  330  20.439   5.295  18.168 -0.0107  0.0165  0.0187
   28DPPC   C3A  331  20.481   5.412  17.725  0.4028  0.1235  0.1066
   28DPPC   C4A  332  20.613   5.518  17.234 -0.0611 -0.1530 -0.0740
   28DPPC   C1B  333  20.605   5.654  18.824  0.2013  0.2843 -0.1332
   28DPPC   C2B  334  20.765   5.596  18.482  0.1131  0.2567  0.2676
   28DPPC   C3B  335  20.885   5.533  18.036 -0.2164 -0.1161  0.2681
   28DPPC   C4B  336  21.041   5.351  17.650  0.1688 -0.0646  0.0637
   29DPPC   NC3  337  18.405   4.088  21.545  0.1895  0.3494 -0.1147
   29DPPC   PO4  338  18.376   4.317  21.235 -0.1132 -0.0285  0.0119
   29DPPC   GL1  339  18.089   4.697  21.174  0.4132  0.6427 -0.3429
   29DPPC   GL2  340  18.135   4.856  21.245 -0.1390  0.0994 -0.1796
   29DPPC   C1A  341  17.856   4.551  20.947  0.0169  0.0500 -0.0656
   29DPPC   C2A  342  17.495   4.624  20.735 -0.0823  0.0526  0.0269
   29DPPC   C3A  343  17.141   4.690  20.407 -0.2846  0.5659  0.2408
   29DPPC   C4A  344  16.815   4.750  20.028 -0.2600  0.1091  0.0520
   29DPPC   C1B  345  17.824   5.057  21.100 -0.1186 -0.3559  0.0942
   29DPPC   C2B  346  17.524   5.235  20.952  0.0591  0.1664  0.0987
   29DPPC   C3B  347  17.211   5.184  20.572  0.1037  0.0026 -0.2726
   29DPPC   C4B  348  16.952   5.241  20.206 -0.3928 -0.1293  0.2416
   30DPPC   NC3  349  16.898   3.530  23.646  0.0239 -0.0669 -0.2807
   30DPPC   PO4  350  16.559   3.721  23.556  0.0717  0.2032  0.1286
   30DPPC   GL1  351  16.194   3.728  23.784  0.1727 -0.1933  0.4063
   30DPPC   GL2  352  16.185   3.439  23.830  0.1650 -0.4270 -0.2363
   30DPPC   C1A  353  15.834   3.775  23.689 -0.1075 -0.0422 -0.0161
   30DPPC   C2A  354  15.516   3.700  23.430  0.0188  0.1756 -0.0294
   30DPPC   C3A  355  15.158   3.647  23.066  0.2767  0.2037  0.4604
   30DPPC   C4A  356  14.764   3.651  22.747 -0.0821  0.0653 -0.1476
   30DPPC   C1B  357  15.879   3.295  23.686  0.2141  0.0185 -0.0715
   30DPPC   C2B  358  15.527   3.206  23.420  0.1587  0.0671 -0.1852
   30DPPC   C3B  359  15.225   3.147  23.104  0.1441  0.1269  0.1852
   30DPPC   C4B  360  14.906   3.138  22.643 -0.2151  0.0002 -0.0037
   31DPPC   NC3  361  17.993   0.467  22.108  0.0180 -0.1702  0.2621
   31DPPC   PO4  362  17.929   0.782  21.825 -0.1277  0.0167  0.1433
   31DPPC   GL1  363  17.683   0.736  21.475 -0.1840 -0.0252  0.0566
   31DPPC   GL2  364  17.634   0.510  21.337 -0.0712 -0.1850  0.0349
   31DPPC   C1A  365  17.438   0.895  21.261 -0.1463  0.3300 -0.0823
   31DPPC   C2A  366  17.141   0.956  20.956 -0.2782 -0.2609  0.0606
   31DPPC   C3A  367  16.748   1.015  20.590  0.1989 -0.0297 -0.1886
   31DPPC   C4A  368  16.426   0.938  20.211 -0.0586  0.0307 -0.0327
   31DPPC   C1B  369  17.345   0.495  21.077 -0.1228 -0.1340  0.3227
   31DPPC   C2B  370  17.117   0.499  20.759 -0.0384 -0.1040 -0.1026
   31DPPC   C3B  371  16.735   0.533  20.437 -0.2622 -0.2005  0.1003
   31DPPC   C4B  372  16.491   0.471  20.036  0.0504  0.3461  0.0099
   32DPPC   NC3  373  17.775   1.616  21.800 -0.2029  0.0975 -0.1396
   32DPPC   PO4  374  18.101   1.620  21.607  0.1806 -0.1082  0.1921
   32DPPC   GL1  375  17.944   1.602  21.229  0.3840 -0.0899  0.1186
   32DPPC   GL2  376  18.008   1.357  21.172  0.2335 -0.1156  0.0760
   32DPPC   C1A  377  17.640   1.687  20.985  0.1649 -0.5844  0.2192
   32DPPC   C2A  378  17.353   1.800  20.733  0.1885  0.0514 -0.0272
   32DPPC   C3A  379  17.009   1.859  20.383  0.0846 -0.0098 -0.0653
   32DPPC   C4A  380  16.746   1.828  19.977 -0.2880 -0.0958  0.2057
   32DPPC   C1B  381  17.698   1.310  20.900  0.1077  0.0041  0.2837
   32DPPC   C2B  382  17.402   1.320  20.665  0.1441  0.3878  0.2455
   32DPPC   C3B  383  17.060   1.329  20.322 -0.4075 -0.0564  0.1818
   32DPPC   C4B  384  16.765   1.322  19.981  0.1184 -0.0903  0.6114
   33DPPC   NC3  385  17.030   5.274  24.034  0.2916  0.2277 -0.2552
   33DPPC   PO4  386  16.785   5.509  23.875 -0.0194 -0.0471  0.1904
   33DPPC   GL1  387  16.360   5.439  23.698  0.2830  0.4197 -0.1208
   33DPPC   GL2  388  16.313   5.720  23.634 -0.3101 -0.1904 -0.2759
   33DPPC   C1A  389  16.157   5.349  23.380 -0.0318 -0.1161  0.2084
   33DPPC   C2A  390  15.874   5.255  23.063  0.2799 -0.0781 -0.0232
   33DPPC   C3A  391  15.496   5.295  22.697 -0.0674  0.2082  0.1545
   33DPPC   C4A  392  15.219   5.202  22.352  0.0161 -0.1516 -0.0378
   33DPPC   C1B  393  16.104   5.755  23.365  0.1085  0.1753  0.0916
   33DPPC   C2B  394  15.823   5.741  23.042 -0.2756  0.1141 -0.0594
   33DPPC   C3B  395  15.434   5.753  22.721 -0.0058 -0.1081  0.1563
   33DPPC   C4B  396  15.153   5.682  22.335 -0.1374  0.0941  0.0744
   34DPPC   NC3  397  19.115   6.056  19.872 -0.0932 -0.0804 -0.1058
   34DPPC   PO4  398  18.967   6.396  19.777  0.0406  0.1160 -0.3096
   34DPPC   GL1  399  18.679   6.353  19.455  0.0852  0.0032 -0.2205
   34DPPC   GL2  400  18.757   6.554  19.277  0.3987 -0.0568  0.3094
   34DPPC   C1A  401  18.301   6.368  19.416 -0.0646  0.4996 -0.0277
   34DPPC   C2A  402  18.052   6.470  19.137  0.0079  0.1462 -0.2305
   34DPPC   C3A  403  17.736   6.437  18.740  0.1814 -0.1639  0.1351
   34DPPC   C4A  404  17.457   6.371  18.364  0.0713 -0.0384 -0.0726
   34DPPC   C1B  405  18.494   6.667  18.993  0.0449 -0.1371 -0.0895
   34DPPC   C2B  406  18.205   6.699  18.699  0.0154  0.1211 -0.3007
   34DPPC   C3B  407  17.903   6.669  18.353 -0.0138  0.0010 -0.0339
   34DPPC   C4B  408  17.581   6.664  17.968  0.0020  0.3018  0.1853
   35DPPC   NC3  409  17.990   2.150  22.819 -0.0830 -0.0916  0.1152
   35DPPC   PO4  410  17.930   2.093  22.441 -0.1838 -0.2640 -0.0004
   35DPPC   GL1  411  17.481   2.095  22.338  0.1970 -0.0860  0.2043
   35DPPC   GL2  412  17.621   2.055  22.030  0.3031  0.2868 -0.2011
   35DPPC   C1A  413  17.218   2.261  22.158  0.0968 -0.2129 -0.0521
   35DPPC   C2A  414  16.802   2.357  22.179  0.0989 -0.1831 -0.1218
   35DPPC   C3A  415  16.505   2.419  21.842 -0.1627 -0.0251  0.1809
   35DPPC   C4A  416  16.241   2.443  21.482  0.3243  0.0311  0.0883
   35DPPC   C1B  417  17.351   1.827  21.892 -0.2270 -0.1908  0.3681
   35DPPC   C2B  418  17.100   1.639  21.603 -0.0158 -0.0544  0.0142
   35DPPC   C3B  419  16.730   1.651  21.263  0.1550 -0.0445 -0.0290
   35DPPC   C4B  420  16.440   1.731  20.891 -0.2097 -0.0636 -0.1479
   36DPPC   NC3  421  19.795   0.534  19.056 -0.1548 -0.1929  0.2193
   36DPPC   PO4  422  19.831   0.775  18.747  0.2211 -0.2683  0.3954
   36DPPC   GL1  423  20.198   0.630  18.616  0.2906 -0.2399 -0.1320
   36DPPC   GL2  424  20.264   0.427  18.752  0.1399  0.0538 -0.1178
   36DPPC   C1A  425  20.229   0.725  18.252  0.2100 -0.0446  0.1200
   36DPPC   C2A  426  20.184   0.945  17.922 -0.3172 -0.0732 -0.1175
   36DPPC   C3A  427  20.122   0.907  17.437 -0.0491 -0.2316  0.1279
   36DPPC   C4A  428  20.086   1.030  16.940  0.1376 -0.2987 -0.1806
   36DPPC   C1B  429  20.608   0.468  18.543 -0.1218 -0.1581  0.5042
   36DPPC   C2B  430  20.785   0.667  18.216  0.2381 -0.0079  0.2145
   36DPPC   C3B  431  21.043   0.656  17.852  0.1089  0.1811  0.2826
   36DPPC   C4B  432  21.385   0.554  17.449 -0.0890 -0.0013  0.4235
   37DPPC   NC3  433  17.358   3.791  22.880 -0.1645  0.0757 -0.0580
   37DPPC   PO4  434  17.545   3.970  22.583 -0.0984 -0.1032  0.0809
   37DPPC   GL1  435  17.322   4.276  22.315 -0.2254  0.1161 -0.3897
   37DPPC   GL2  436  17.109   4.048  22.339  0.2872  0.0894  0.3459
   37DPPC   C1A  437  17.268   4.437  21.953  0.4484 -0.1795 -0.1923
   37DPPC   C2A  438  17.076   4.493  21.637 -0.1023 -0.1582  0.4205
   37DPPC   C3A  439  16.737   4.483  21.268 -0.0080  0.2117 -0.5369
   37DPPC   C4A  440  16.341   4.503  20.876  0.0520  0.1718 -0.1976
   37DPPC   C1B  441  16.880   4.120  22.037  0.1510 -0.1156  0.0032
   37DPPC   C2B  442  16.616   4.214  21.713  0.0278 -0.4792 -0.1385
   37DPPC   C3B  443  16.361   4.199  21.254  0.0308  0.2326 -0.1728
   37DPPC   C4B  444  15.935   4.190  20.880 -0.0790 -0.1372  0.1639
   38DPPC   NC3  445  16.156   2.730  24.448 -0.1890 -0.1172  0.0122
   38DPPC   PO4  446  16.379   2.476  24.194  0.1263  0.1291 -0.1711
   38DPPC   GL1  447  16.011   2.479  23.963  0.4799  0.1466 -0.2021
   38DPPC   GL2  448  16.030   2.153  24.064 -0.0879  0.1645 -0.0464
   38DPPC   C1A  449  15.775   2.589  23.703  0.1009  0.1815 -0.5579
   38DPPC   C2A  450  15.546   2.616  23.380  0.1120  0.0505  0.0641
   38DPPC   C3A  451  15.261   2.676  23.020  0.1408 -0.0256 -0.0965
   38DPPC   C4A  452  14.951   2.664  22.650  0.0146 -0.2627  0.3058
   38DPPC   C1B  453  15.811   2.133  23.770  0.3919 -0.0503  0.1996
   38DPPC   C2B  454  15.654   2.126  23.426 -0.2206 -0.0415 -0.0955
   38DPPC   C3B  455  15.343   2.152  23.020 -0.0279  0.0805 -0.0866
   38DPPC   C4B  456  15.039   2.189  22.656 -0.1277  0.0633 -0.2373
   39DPPC   NC3  457  18.239   2.610  21.614 -0.2503 -0.1909 -0.0848
   39DPPC   PO4  458  18.302   2.295  21.426  0.3927  0.0017 -0.1571
   39DPPC   GL1  459  17.943   2.022  21.364  0.2224  0.6317 -0.2184
   39DPPC   GL2  460  17.805   2.011  21.526  0.0586  0.0750 -0.1151
   39DPPC   C1A  461  17.928   1.960  20.992 -0.0520 -0.1104  0.3118
   39DPPC   C2A  462  17.775   2.086  20.627 -0.5253 -0.2766  0.0015
   39DPPC   C3A  463  17.507   2.200  20.307 -0.1017  0.0075 -0.0985
   39DPPC   C4A  464  17.136   2.165  19.953  0.0315  0.1738 -0.3344
   39DPPC   C1B  465  17.477   1.830  21.451 -0.0118 -0.4053 -0.0334
   39DPPC   C2B  466  17.196   1.957  21.190  0.2631  0.0350  0.0758
   39DPPC   C3B  467  16.871   2.062  20.895 -0.0921  0.0741 -0.0771
   39DPPC   C4B  468  16.562   2.114  20.533  0.0016 -0.1809  0.0370
   40DPPC   NC3  469  20.227   4.290  19.392 -0.0432 -0.0609 -0.0714
   40DPPC   PO4  470  20.147   4.361  19.004 -0.1811 -0.2228  0.1978
   40DPPC   GL1  471  20.344   4.383  18.663 -0.2790 -0.3129  0.2426
   40DPPC   GL2  472  20.057   4.480  18.548  0.0699  0.1856 -0.1758
   40DPPC   C1A  473  20.660   4.352  18.465 -0.1473 -0.2820 -0.1466
   40DPPC   C2A  474  20.872   4.317  18.080  0.1292 -0.2045 -0.0946
   40DPPC   C3A  475  21.107   4.344  17.741 -0.1781 -0.3511 -0.2081
   40DPPC   C4A  476  21.284   4.479  17.247  0.2892 -0.0954 -0.0150
   40DPPC   C1B  477  19.947   4.624  18.263  0.1129 -0.0634 -0.1137
   40DPPC   C2B  478  19.657   4.661  18.001 -0.2761 -0.0788 -0.0674
   40DPPC   C3B  479  19.380   4.675  17.576 -0.0718 -0.1425  0.0582
   40DPPC   C4B  480  19.091   4.741  17.201 -0.1063 -0.0887  0.0276
   41DPPC   NC3  481  19.136   2.885  20.502  0.0454  0.2064  0.1873
   41DPPC   PO4  482  18.864   2.591  20.629 -0.0110 -0.1925 -0.1410
   41DPPC   GL1  483  18.443   2.808  20.566 -0.0332  0.2746  0.0473
   41DPPC   GL2  484  18.373   2.512  20.586  0.1844  0.2324  0.0194
   41DPPC   C1A  485  18.119   2.860  20.426  0.1131 -0.2114  0.0560
   41DPPC   C2A  486  17.797   2.897  20.152 -0.0084 -0.0111  0.4197
   41DPPC   C3A  487  17.408   2.967  19.809 -0.0638  0.1416 -0.0958
   41DPPC   C4A  488  17.074   2.971  19.440 -0.1242  0.0400 -0.2148
   41DPPC   C1B  489  18.114   2.352  20.340  0.3753  0.1879 -0.7027
   41DPPC   C2B  490  17.884   2.352  20.041 -0.2731 -0.0050 -0.2660
   41DPPC   C3B  491  17.549   2.421  19.741  0.0881  0.2969 -0.1430
   41DPPC   C4B  492  17.181   2.448  19.422 -0.1206  0.1145  0.0096
   42DPPC   NC3  493  16.294   1.033  24.487  0.0114  0.3980  0.1100
   42DPPC   PO4  494  16.293   1.434  24.364 -0.0020  0.4533 -0.2530
   42DPPC   GL1  495  15.854   1.459  24.484  0.0409 -0.1509 -0.0024
   42DPPC   GL2  496  15.856   1.669  24.290 -0.1744 -0.1068  0.0143
   42DPPC   C1A  497  15.648   1.153  24.422  0.1745 -0.6027 -0.1335
   42DPPC   C2A  498  15.384   1.022  24.143  0.4015  0.1673  0.0768
   42DPPC   C3A  499  15.003   1.016  23.805 -0.0029  0.1672  0.1214
   42DPPC   C4A  500  14.704   0.999  23.383  0.0579 -0.2293 -0.0109
   42DPPC   C1B  501  15.655   1.756  23.994 -0.0144 -0.1703  0.1084
   42DPPC   C2B  502  15.374   1.869  23.702  0.3148 -0.1177 -0.1017
   42DPPC   C3B  503  15.027   1.847  23.397 -0.0726 -0.2998  0.2017
   42DPPC   C4B  504  14.729   1.864  22.960  0.4205  0.3901 -0.1898
   43DPPC   NC3  505  18.742   2.762  20.199 -0.0297  0.0587  0.1509
   43DPPC   PO4  506  18.901   2.739  19.853 -0.0840  0.1755  0.0454
   43DPPC   GL1  507  18.587   2.747  19.540  0.1131  0.1892  0.1244
   43DPPC   GL2  508  18.683   2.959  19.416  0.5046  0.0336 -0.0323
   43DPPC   C1A  509  18.285   2.565  19.376 -0.4198  0.1054  0.1132
   43DPPC   C2A  510  17.982   2.557  19.085 -0.0213  0.0259 -0.0447
   43DPPC   C3A  511  17.727   2.575  18.716  0.3928  0.0433 -0.2051
   43DPPC   C4A  512  17.456   2.557  18.270 -0.1949 -0.2696 -0.3794
   43DPPC   C1B  513  18.493   2.887  19.100 -0.0470 -0.0948  0.0955
   43DPPC   C2B  514  18.274   2.843  18.811  0.2341 -0.1352 -0.0600
   43DPPC   C3B  515  17.989   2.863  18.380 -0.1388  0.0668  0.0802
   43DPPC   C4B  516  17.802   2.790  17.895  0.2281 -0.2850 -0.2930
   44DPPC   NC3  517  16.721   5.979  23.511 -0.0405  0.2523  0.0885
   44DPPC   PO4  518  17.072   5.807  23.462  0.1347  0.1599 -0.1869
   44DPPC   GL1  519  16.918   5.690  23.133  0.0187 -0.3286 -0.5236
   44DPPC   GL2  520  16.991   5.637  22.923  0.1044 -0.1403 -0.0422
   44DPPC   C1A  521  16.596   5.693  23.102  0.0868 -0.0602 -0.1442
   44DPPC   C2A  522  16.293   5.591  22.890  0.0418 -0.2243  0.1534
   44DPPC   C3A  523  15.989   5.608  22.545  0.1970 -0.2758  0.0839
   44DPPC   C4A  524  15.625   5.526  22.218 -0.2442 -0.3358 -0.0871
   44DPPC   C1B  525  16.778   5.525  22.674  0.1137  0.2210 -0.1112
   44DPPC   C2B  526  16.516   5.451  22.386  0.0398 -0.0021 -0.4137
   44DPPC   C3B  527  16.152   5.410  22.096  0.1254  0.1215  0.2837
   44DPPC   C4B  528  15.828   5.348  21.758 -0.1396  0.1435 -0.2965
   45DPPC   NC3  529  18.222   0.447  21.325  0.3783  0.1809  0.0971
   45DPPC   PO4  530  18.043   0.296  21.657  0.0194  0.2247  0.0922
   45DPPC   GL1  531  17.674   0.114  21.536 -0.1372  0.0004  0.1590
   45DPPC   GL2  532  17.890   0.126  21.359 -0.3579  0.0165  0.1874
   45DPPC   C1A  533  17.302   0.136  21.546 -0.0281 -0.2582 -0.2283
   45DPPC   C2A  534  17.038   0.194  21.257 -0.1033  0.2422 -0.3134
   45DPPC   C3A  535  16.736   0.217  20.904  0.0189  0.0450  0.2320
   45DPPC   C4A  536  16.355   0.227  20.606 -0.1464  0.2144 -0.1969
   45DPPC   C1B  537  17.823   0.260  20.962 -0.1474  0.0749  0.1990
   45DPPC   C2B  538  17.578   0.303  20.668 -0.1139  0.0290 -0.1891
   45DPPC   C3B  539  17.316   0.304  20.279  0.1760  0.1055  0.0847
   45DPPC   C4B  540  16.981   0.317  20.004 -0.0286  0.2198  0.0241
   46DPPC   NC3  541  18.444   1.374  21.374  0.0019  0.0369  0.0280
   46DPPC   PO4  542  18.461   1.360  20.981 -0.2422 -0.0638  0.0438
   46DPPC   GL1  543  18.108   1.335  20.770 -0.2091 -0.1372  0.1796
   46DPPC   GL2  544  18.074   1.601  20.736  0.1475  0.1529 -0.3077
   46DPPC   C1A  545  17.862   1.195  20.501  0.0731  0.1696  0.0960
   46DPPC   C2A  546  17.574   1.165  20.231 -0.0587 -0.1687  0.0115
   46DPPC   C3A  547  17.277   1.138  19.834 -0.0695  0.0329 -0.0760
   46DPPC   C4A  548  16.978   1.121  19.451 -0.0007 -0.0049 -0.0160
   46DPPC   C1B  549  17.788   1.654  20.546 -0.0171  0.5847  0.1547
   46DPPC   C2B  550  17.454   1.649  20.242 -0.1175 -0.2531 -0.1464
   46DPPC   C3B  551  17.181   1.610  19.854 -0.1773  0.1012 -0.1881
   46DPPC   C4B  552  16.872   1.632  19.511 -0.0408 -0.0319  0.1932
   47DPPC   NC3  553  18.585   2.610  21.056  0.0761 -0.0184  0.1608
   47DPPC   PO4  554  18.668   2.233  20.989 -0.1104 -0.0048  0.0906
   47DPPC   GL1  555  18.308   2.090  20.787 -0.0843  0.0425 -0.1394
   47DPPC   GL2  556  18.172   2.321  20.985 -0.3147 -0.0341 -0.2587
   47DPPC   C1A  557  18.222   1.942  20.479 -0.1769  0.2253 -0.1699
   47DPPC   C2A  558  18.113   1.961  20.058 -0.0770  0.1380  0.2635
   47DPPC   C3A  559  17.641   1.975  19.921 -0.0650 -0.1399  0.2113
   47DPPC   C4A  560  17.340   1.960  19.525  0.0060  0.1482  0.0703
   47DPPC   C1B  561  17.961   2.549  20.807 -0.0813 -0.1992  0.2747
   47DPPC   C2B  562  17.639   2.615  20.580 -0.0895 -0.0114  0.4131
   47DPPC   C3B  563  17.327   2.680  20.180  0.1378  0.2489  0.1355
   47DPPC   C4B  564  16.955   2.655  19.830  0.3937 -0.4227 -0.0307
   48DPPC   NC3  565  17.608   1.314  22.735 -0.0498 -0.3599 -0.0671
   48DPPC   PO4  566  17.364   1.483  23.022 -0.1085 -0.1185 -0.0957
   48DPPC   GL1  567  16.899   1.470  22.951 -0.0439 -0.2605 -0.1056
   48DPPC   GL2  568  17.069   1.761  22.798  0.2263 -0.0333  0.3547
   48DPPC   C1A  569  16.595   1.316  22.751 -0.1129  0.0243  0.1941
   48DPPC   C2A  570  16.209   1.321  22.591 -0.2318  0.0458 -0.1720
   48DPPC   C3A  571  15.839   1.289  22.216  0.2139  0.3239 -0.2076
   48DPPC   C4A  572  15.544   1.275  21.810  0.0148 -0.1173  0.0207
   48DPPC   C1B  573  17.088   1.912  22.513  0.4678  0.0598  0.0142
   48DPPC   C2B  574  16.927   1.878  22.129 -0.0032  0.0515 -0.1517
   48DPPC   C3B  575  16.560   1.886  21.727 -0.1988  0.0730 -0.0280
   48DPPC   C4B  576  16.276   1.894  21.342  0.1108  0.1670 -0.1761
   49DPPC   NC3  577  19.083   0.281  20.752 -0.0844  0.1159  0.0106
   49DPPC   PO4  578  18.784   0.018  20.790  0.0415  0.1672  0.0125
   49DPPC   GL1  579  18.471  -0.109  20.580  0.1116  0.2253  0.0786
   49DPPC   GL2  580  18.532  -0.036  20.366  0.4451  0.1800 -0.0867
   49DPPC   C1A  581  18.087  -0.165  20.504  0.0813 -0.1041 -0.2188
   49DPPC   C2A  582  17.657  -0.154  20.437  0.1273 -0.2185  0.0357
   49DPPC   C3A  583  17.257  -0.165  20.160 -0.2504  0.0126  0.1564
   49DPPC   C4A  584  16.903  -0.157  19.764 -0.0167  0.2540 -0.1792
   49DPPC   C1B  585  18.278   0.050  20.205  0.1088  0.1335 -0.0312
   49DPPC   C2B  586  17.870   0.121  20.107 -0.0148 -0.1569  0.0619
   49DPPC   C3B  587  17.509   0.205  19.834  0.1539  0.0790  0.0473
   49DPPC   C4B  588  17.166   0.189  19.470 -0.1864  0.1238 -0.2566
   50DPPC   NC3  589  18.461   0.667  21.726  0.4910  0.0952 -0.0669
   50DPPC   PO4  590  18.372   1.024  21.682 -0.1873  0.3820 -0.2901
   50DPPC   GL1  591  18.100   0.997  21.399 -0.2810  0.0422  0.0966
   50DPPC   GL2  592  17.863   1.159  21.549 -0.2437  0.0478 -0.0988
   50DPPC   C1A  593  17.874   0.909  21.104 -0.1809  0.1417 -0.1531
   50DPPC   C2A  594  17.618   0.880  20.722  0.0246  0.0640  0.0148
   50DPPC   C3A  595  17.218   0.796  20.410 -0.0170  0.4943  0.3350
   50DPPC   C4A  596  16.938   0.860  20.024  0.1833  0.1750 -0.1629
   50DPPC   C1B  597  17.616   1.376  21.332 -0.1566 -0.0679  0.5361
   50DPPC   C2B  598  17.256   1.435  21.123 -0.0145  0.3395 -0.1289
   50DPPC   C3B  599  16.921   1.523  20.766  0.3920  0.0113  0.1802
   50DPPC   C4B  600  16.565   1.541  20.424 -0.0204  0.0325 -0.0558
   51DPPC   NC3  601  18.074   6.562  22.001 -0.1625 -0.3017  0.3708
   51DPPC   PO4  602  17.750   6.656  22.144  0.3158  0.3771 -0.1974
   51DPPC   GL1  603  17.413   6.739  21.984  0.2334 -0.0716  0.1524
   51DPPC   GL2  604  17.593   7.024  21.819  0.1090 -0.0821  0.2473
   51DPPC   C1A  605  17.113   6.524  21.908 -0.0374  0.0717  0.1782
   51DPPC   C2A  606  16.796   6.487  21.594 -0.0430 -0.2802  0.0423
   51DPPC   C3A  607  16.429   6.509  21.310 -0.0788  0.2544  0.2283
   51DPPC   C4A  608  16.119   6.509  20.937  0.1277  0.4006  0.1227
   51DPPC   C1B  609  17.325   7.219  21.716 -0.1155 -0.0027 -0.0444
   51DPPC   C2B  610  17.036   7.303  21.406  0.0781 -0.0863 -0.3558
   51DPPC   C3B  611  16.689   7.328  21.058  0.0987  0.1881 -0.0731
   51DPPC   C4B  612  16.347   7.312  20.670  0.1083 -0.1142 -0.0252
   52DPPC   NC3  613  17.146   2.225  23.288  0.1996  0.2227 -0.0448
   52DPPC   PO4  614  17.055   1.836  23.240  0.0109 -0.1984  0.0048
   52DPPC   GL1  615  16.703   1.961  23.007 -0.0761  0.3473 -0.0509
   52DPPC   GL2  616  16.573   1.713  23.013  0.4173 -0.0246 -0.1625
   52DPPC   C1A  617  16.541   2.027  22.618  0.1065  0.1306  0.1487
   52DPPC   C2A  618  16.381   2.116  22.226 -0.0438 -0.0311 -0.0872
   52DPPC   C3A  619  16.055   2.100  21.858 -0.1355 -0.0698  0.2655
   52DPPC   C4A  620  15.737   2.125  21.478 -0.1773  0.0699  0.3387
   52DPPC   C1B  621  16.293   1.709  22.739  0.1728  0.0355 -0.1081
   52DPPC   C2B  622  16.024   1.757  22.414  0.1295 -0.0304  0.2268
   52DPPC   C3B  623  15.696   1.748  22.045  0.1201  0.0841 -0.5939
   52DPPC   C4B  624  15.372   1.819  21.682  0.0557  0.0105  0.2456
   53DPPC   NC3  625  18.799   3.436  20.953  0.2069 -0.1957 -0.2069
   53DPPC   PO4  626  18.724   3.148  20.701  0.1412  0.0311 -0.1617
   53DPPC   GL1  627  18.480   3.189  20.279  0.0873 -0.2101  0.2385
   53DPPC   GL2  628  18.317   3.214  20.555  0.1122 -0.1343  0.2687
   53DPPC   C1A  629  18.194   3.153  20.071  0.0230 -0.0303  0.0989
   53DPPC   C2A  630  17.916   3.243  19.781 -0.3118 -0.0836 -0.2219
   53DPPC   C3A  631  17.680   3.299  19.400 -0.2314 -0.2598 -0.0079
   53DPPC   C4A  632  17.335   3.302  18.998 -0.0964  0.3503  0.3425
   53DPPC   C1B  633  17.982   3.332  20.431  0.2741  0.0900 -0.1427
   53DPPC   C2B  634  17.721   3.456  20.125  0.2292 -0.1186  0.2012
   53DPPC   C3B  635  17.375   3.441  19.783 -0.0091 -0.0266  0.0538
   53DPPC   C4B  636  17.051   3.533  19.401 -0.3176  0.2390  0.1312
   54DPPC   NC3  637  18.670   1.972  20.509 -0.0406 -0.1033  0.0482
   54DPPC   PO4  638  18.802   2.135  20.187  0.1664 -0.3153  0.2837
   54DPPC   GL1  639  18.476   2.390  20.090  0.0275 -0.1423  0.3745
   54DPPC   GL2  640  18.552   2.301  19.804  0.1248 -0.1231 -0.0123
   54DPPC   C1A  641  18.275   2.679  20.000  0.2412 -0.1047 -0.1135
   54DPPC   C2A  642  17.951   2.692  19.673  0.0446 -0.2148 -0.1222
   54DPPC   C3A  643  17.543   2.790  19.394  0.1929  0.1610  0.0625
   54DPPC   C4A  644  17.304   2.791  18.979  0.0382  0.0102  0.0422
   54DPPC   C1B  645  18.204   2.289  19.714 -0.0098 -0.1573 -0.2567
   54DPPC   C2B  646  17.897   2.246  19.463  0.0846 -0.2000 -0.2577
   54DPPC   C3B  647  17.555   2.252  19.122  0.0957  0.0405  0.3732
   54DPPC   C4B  648  17.310   2.237  18.720 -0.0957 -0.0111  0.1167
   55DPPC   NC3  649  16.637   1.158  23.164  0.3653 -0.0709  0.1992
   55DPPC   PO4  650  16.955   0.963  23.131 -0.2756 -0.0284 -0.1670
   55DPPC   GL1  651  16.740   0.718  22.975  0.0053 -0.2266  0.0878
   55DPPC   GL2  652  16.817   0.435  22.919  0.0827 -0.1186  0.1226
   55DPPC   C1A  653  16.418   0.811  22.785  0.4477 -0.5172  0.1696
   55DPPC   C2A  654  16.189   0.837  22.458  0.3891  0.1172 -0.1371
   55DPPC   C3A  655  15.910   0.854  22.098  0.1379  0.1317  0.0086
   55DPPC   C4A  656  15.600   0.817  21.732  0.1279  0.3830  0.1265
   55DPPC   C1B  657  16.553   0.414  22.737 -0.0429 -0.0325  0.1816
   55DPPC   C2B  658  16.303   0.338  22.448 -0.1944 -0.0128 -0.1601
   55DPPC   C3B  659  16.016   0.281  22.073 -0.0233  0.0172  0.1292
   55DPPC   C4B  660  15.632   0.265  21.754  0.1424  0.0892  0.3579
   56DPPC   NC3  661  18.887   3.935  20.791 -0.1612 -0.0527  0.1037
   56DPPC   PO4  662  18.959   4.112  20.428 -0.2693  0.0219  0.1489
   56DPPC   GL1  663  18.681   3.989  20.207  0.0704 -0.3050  0.1398
   56DPPC   GL2  664  18.700   4.111  19.919  0.1265  0.0846  0.3085
   56DPPC   C1A  665  18.316   3.962  20.125  0.0014  0.2540  0.1321
   56DPPC   C2A  666  17.983   4.133  19.995 -0.0567  0.1196 -0.3186
   56DPPC   C3A  667  17.662   4.245  19.603  0.0152 -0.2485 -0.1035
   56DPPC   C4A  668  17.335   4.285  19.216  0.4584  0.0495 -0.1279
   56DPPC   C1B  669  18.448   3.977  19.693  0.1975 -0.1266 -0.0224
   56DPPC   C2B  670  18.158   3.993  19.438  0.2769 -0.1044  0.0894
   56DPPC   C3B  671  17.812   4.057  19.037 -0.1803  0.0492  0.0444
   56DPPC   C4B  672  17.539   4.042  18.673  0.2961  0.1866 -0.2139
   57DPPC   NC3  673  18.098   4.948  21.728  0.1278 -0.1937  0.0349
   57DPPC   PO4  674  18.207   4.563  21.678  0.1511  0.1490  0.3712
   57DPPC   GL1  675  17.944   4.437  21.451 -0.3335 -0.4225 -0.0834
   57DPPC   GL2  676  17.866   4.194  21.330 -0.1635 -0.0658  0.2433
   57DPPC   C1A  677  17.658   4.614  21.418 -0.4850 -0.0103 -0.2844
   57DPPC   C2A  678  17.307   4.822  21.247 -0.0893 -0.2516 -0.1297
   57DPPC   C3A  679  16.978   4.812  20.962  0.0074 -0.0355 -0.0121
   57DPPC   C4A  680  16.689   4.759  20.579 -0.0885 -0.2670 -0.0555
   57DPPC   C1B  681  17.614   4.074  21.120 -0.0667  0.0195 -0.0122
   57DPPC   C2B  682  17.274   3.865  20.995 -0.0676 -0.0002 -0.1225
   57DPPC   C3B  683  16.995   3.796  20.641  0.0463 -0.0966 -0.2888
   57DPPC   C4B  684  16.620   3.819  20.354  0.2903  0.0183  0.4053
   58DPPC   NC3  685  18.559   0.386  20.556  0.3985  0.2552 -0.1140
   58DPPC   PO4  686  18.748   0.684  20.810 -0.0830 -0.0092  0.1611
   58DPPC   GL1  687  18.501   0.982  20.778 -0.0134 -0.5919  0.1434
   58DPPC   GL2  688  18.234   0.809  20.828  0.2104  0.0230  0.1018
   58DPPC   C1A  689  18.291   1.110  20.438  0.0278  0.1408  0.0990
   58DPPC   C2A  690  18.127   1.051  20.085 -0.0762 -0.1490  0.0067
   58DPPC   C3A  691  17.772   0.953  19.829  0.1312 -0.0059  0.0616
   58DPPC   C4A  692  17.492   1.019  19.389 -0.2568  0.0047 -0.0963
   58DPPC   C1B  693  18.093   0.720  20.494 -0.0700 -0.3098 -0.2169
   58DPPC   C2B  694  17.769   0.641  20.234  0.2199 -0.1218 -0.1726
   58DPPC   C3B  695  17.395   0.662  19.896 -0.1324  0.1037 -0.1861
   58DPPC   C4B  696  17.102   0.678  19.559  0.1629 -0.2590 -0.0497
   59DPPC   NC3  697  16.319   3.073  24.849 -0.2558 -0.1823  0.1134
   59DPPC   PO4  698  16.305   3.324  24.541  0.1715 -0.0587  0.0420
   59DPPC   GL1  699  16.016   3.246  24.278  0.0733  0.1556  0.2629
   59DPPC   GL2  700  16.189   3.086  24.117  0.1208 -0.2321  0.2771
   59DPPC   C1A  701  15.736   3.360  24.065  0.0835  0.0389 -0.2081
   59DPPC   C2A  702  15.417   3.427  23.836 -0.0250  0.0408  0.0021
   59DPPC   C3A  703  15.055   3.403  23.519  0.1960  0.1560 -0.0439
   59DPPC   C4A  704  14.734   3.370  23.149 -0.2390  0.1850  0.1405
   59DPPC   C1B  705  15.841   2.910  23.954  0.0893 -0.2726  0.1446
   59DPPC   C2B  706  15.416   2.942  23.790 -0.1918  0.0835 -0.1910
   59DPPC   C3B  707  15.075   2.851  23.490  0.0145  0.0853 -0.0678
   59DPPC   C4B  708  14.798   2.869  23.072  0.0033  0.3474  0.0899
   60DPPC   NC3  709  17.005   1.051  24.007  0.0723  0.4872  0.1075
   60DPPC   PO4  710  16.814   0.930  23.651  0.2300 -0.0311  0.1603
   60DPPC   GL1  711  16.453   1.156  23.569  0.2033  0.2924  0.0812
   60DPPC   GL2  712  16.352   0.884  23.582 -0.0901 -0.1447  0.3370
   60DPPC   C1A  713  16.239   1.248  23.292  0.2546  0.2044  0.1397
   60DPPC   C2A  714  15.959   1.401  23.055 -0.2275 -0.0043  0.0134
   60DPPC   C3A  715  15.703   1.497  22.706  0.1167  0.1529  0.2387
   60DPPC   C4A  716  15.316   1.470  22.353  0.2004  0.0757  0.0411
   60DPPC   C1B  717  16.217   0.854  23.250  0.0350  0.0130 -0.1831
   60DPPC   C2B  718  15.990   0.921  22.918  0.0150  0.0542  0.0247
   60DPPC   C3B  719  15.667   0.975  22.549 -0.3199  0.1938 -0.0846
   60DPPC   C4B  720  15.335   0.983  22.163  0.0387  0.0377  0.1455
   61DPPC   NC3  721  17.967   3.262  21.247  0.1977 -0.2583 -0.1367
   61DPPC   PO4  722  18.125   3.068  21.541 -0.1313  0.1295 -0.1646
   61DPPC   GL1  723  17.720   2.920  21.540  0.2539  0.1680  0.0958
   61DPPC   GL2  724  17.565   3.148  21.530  0.0758  0.2503 -0.0521
   61DPPC   C1A  725  17.417   2.676  21.538 -0.2736  0.2909 -0.2772
   61DPPC   C2A  726  17.184   2.457  21.269  0.1127 -0.1976  0.1799
   61DPPC   C3A  727  16.834   2.530  20.921 -0.0084 -0.1386  0.0128
   61DPPC   C4A  728  16.501   2.600  20.532  0.2251 -0.0131  0.0066
   61DPPC   C1B  729  17.257   3.052  21.300 -0.0593  0.4477  0.0467
   61DPPC   C2B  730  16.955   2.982  21.141  0.2632 -0.0104  0.3187
   61DPPC   C3B  731  16.655   3.032  20.784 -0.2732 -0.0264  0.1989
   61DPPC   C4B  732  16.343   3.085  20.419 -0.2329  0.1200  0.2573
   62DPPC   NC3  733  17.549   0.654  22.220  0.0520  0.1006 -0.1272
   62DPPC   PO4  734  17.615   0.845  22.554  0.2410  0.0624 -0.2580
   62DPPC   GL1  735  17.275   0.841  22.785 -0.1944 -0.1214 -0.1500
   62DPPC   GL2  736  17.190   1.092  22.778  0.0377 -0.1944 -0.1186
   62DPPC   C1A  737  16.986   0.686  22.632 -0.0316  0.2085 -0.1848
   62DPPC   C2A  738  16.754   0.573  22.352  0.2076  0.1199 -0.1170
   62DPPC   C3A  739  16.418   0.648  22.004 -0.0091 -0.2993 -0.1908
   62DPPC   C4A  740  16.069   0.615  21.671 -0.1713  0.1810 -0.0828
   62DPPC   C1B  741  16.942   1.061  22.513 -0.0820 -0.3873  0.1323
   62DPPC   C2B  742  16.615   1.149  22.280  0.2414  0.2431 -0.2495
   62DPPC   C3B  743  16.281   1.114  21.893  0.0170  0.0422 -0.0893
   62DPPC   C4B  744  15.948   1.116  21.583 -0.0459 -0.0533  0.4506
   63DPPC   NC3  745  17.601   2.500  22.223 -0.4694  0.0630  0.0310
   63DPPC   PO4  746  17.545   2.826  22.466  0.2773  0.1179 -0.1749
   63DPPC   GL1  747  17.199   2.752  22.343  0.0754 -0.0304  0.1098
   63DPPC   GL2  748  17.091   2.543  22.505 -0.1235  0.0574 -0.1799
   63DPPC   C1A  749  16.920   2.830  22.138 -0.0514 -0.2427  0.0783
   63DPPC   C2A  750  16.610   2.971  21.945 -0.0035  0.0732 -0.1445
   63DPPC   C3A  751  16.272   2.921  21.616 -0.0359 -0.1845  0.1218
   63DPPC   C4A  752  15.915   2.904  21.274 -0.0359  0.2514  0.2590
   63DPPC   C1B  753  16.741   2.566  22.559 -0.0108 -0.0991 -0.0939
   63DPPC   C2B  754  16.414   2.671  22.364  0.1610 -0.0050 -0.3763
   63DPPC   C3B  755  16.106   2.660  22.028  0.4802 -0.4348  0.3051
   63DPPC   C4B  756  15.710   2.583  21.685  0.2873  0.0626 -0.1153
   64DPPC   NC3  757  18.128   3.276  21.959 -0.1425 -0.1059  0.0929
   64DPPC   PO4  758  17.890   3.513  21.736 -0.3566 -0.0679  0.0859
   64DPPC   GL1  759  17.598   3.793  21.683  0.1349  0.3982 -0.1317
   64DPPC   GL2  760  17.375   3.542  21.814 -0.1495 -0.2378  0.1994
   64DPPC   C1A  761  17.566   3.661  21.353  0.3171 -0.0243 -0.0837
   64DPPC   C2A  762  17.468   3.372  21.053 -0.1748 -0.0503  0.1088
   64DPPC   C3A  763  17.077   3.289  20.736 -0.3091  0.1376 -0.0544
   64DPPC   C4A  764  16.766   3.355  20.419  0.3226  0.1873 -0.0875
   64DPPC   C1B  765  17.163   3.505  21.536 -0.3656 -0.3931 -0.2396
   64DPPC   C2B  766  16.928   3.461  21.188 -0.1040  0.0685  0.2602
   64DPPC   C3B  767  16.601   3.543  20.871  0.1084  0.1753  0.1864
   64DPPC   C4B  768  16.228   3.583  20.550 -0.0633 -0.4177 -0.2595
   65DPPC   NC3  769  19.483   3.802  18.425 -0.0509  0.0787  0.1593
   65DPPC   PO4  770  19.345   4.128  18.625  0.0447  0.2002 -0.0886
   65DPPC   GL1  771  19.455   4.545  18.494 -0.2184  0.0110  0.0373
   65DPPC   GL2  772  19.614   4.354  18.374  0.0284  0.0069 -0.2600
   65DPPC   C1A  773  19.375   4.934  18.439 -0.1054  0.1531 -0.1710
   65DPPC   C2A  774  19.255   5.331  18.350 -0.1715  0.1115  0.0462
   65DPPC   C3A  775  19.368   5.585  17.923 -0.2749 -0.1755 -0.4001
   65DPPC   C4A  776  19.163   5.679  17.457 -0.1021 -0.1974 -0.0513
   65DPPC   C1B  777  19.629   4.148  18.086  0.0402 -0.3281 -0.0189
   65DPPC   C2B  778  19.498   4.236  17.726 -0.2646 -0.0258 -0.3384
   65DPPC   C3B  779  19.412   4.258  17.251  0.0174 -0.1370  0.0295
   65DPPC   C4B  780  19.326   4.452  16.870  0.1144  0.0869  0.1071
   66DPPC   NC3  781  18.631   4.746  21.142  0.0459 -0.4157  0.2102
   66DPPC   PO4  782  18.500   5.124  21.059  0.3160 -0.1268 -0.1359
   66DPPC   GL1  783  18.236   5.071  20.857 -0.0736  0.0353 -0.1106
   66DPPC   GL2  784  18.253   4.754  20.781  0.2499  0.1239 -0.0919
   66DPPC   C1A  785  17.965   5.254  20.668 -0.0633  0.1708 -0.2045
   66DPPC   C2A  786  17.672   5.487  20.577  0.3608 -0.1411 -0.1109
   66DPPC   C3A  787  17.433   5.447  20.211  0.1049  0.0457  0.0575
   66DPPC   C4A  788  17.236   5.410  19.814 -0.3430 -0.4387 -0.1104
   66DPPC   C1B  789  18.019   4.872  20.533 -0.3098 -0.1254  0.1338
   66DPPC   C2B  790  17.649   4.975  20.348  0.2106  0.0616 -0.1363
   66DPPC   C3B  791  17.366   4.944  19.961 -0.1732 -0.2112  0.1149
   66DPPC   C4B  792  17.046   5.021  19.558 -0.0481 -0.2199 -0.1112
   67DPPC   NC3  793  19.699   4.416  18.839 -0.1058  0.3146 -0.1873
   67DPPC   PO4  794  19.788   4.757  18.754  0.1520 -0.0560 -0.0454
   67DPPC   GL1  795  20.140   4.913  18.750  0.1576 -0.0553  0.1631
   67DPPC   GL2  796  20.364   4.814  18.815 -0.0004 -0.2404  0.1421
   67DPPC   C1A  797  20.060   5.054  18.419  0.2487  0.4405  0.0111
   67DPPC   C2A  798  19.724   5.112  18.216  0.1463 -0.0390 -0.1523
   67DPPC   C3A  799  19.429   5.095  17.854  0.0646 -0.0633  0.4783
   67DPPC   C4A  800  19.280   5.182  17.328  0.1710 -0.2709  0.2760
   67DPPC   C1B  801  20.451   4.826  18.476  0.3054 -0.2341 -0.1557
   67DPPC   C2B  802  20.705   4.860  18.153  0.0265 -0.3260  0.0017
   67DPPC   C3B  803  20.935   4.855  17.822 -0.1969 -0.1017  0.0217
   67DPPC   C4B  804  21.233   4.932  17.475  0.0291 -0.0659 -0.1043
   68DPPC   NC3  805  19.323   5.378  20.070 -0.1711  0.0373  0.1035
   68DPPC   PO4  806  19.305   5.566  19.699  0.0588 -0.0241 -0.0588
   68DPPC   GL1  807  18.920   5.598  19.768  0.0021  0.3878  0.2981
   68DPPC   GL2  808  18.919   5.302  19.750  0.0678 -0.0814  0.1013
   68DPPC   C1A  809  18.584   5.811  19.607 -0.5960  0.1279 -0.2118
   68DPPC   C2A  810  18.327   5.887  19.301 -0.4371  0.0937 -0.0620
   68DPPC   C3A  811  17.961   5.887  19.008 -0.1464 -0.3833  0.2073
   68DPPC   C4A  812  17.636   5.887  18.593 -0.2708  0.0447 -0.1535
   68DPPC   C1B  813  18.675   5.344  19.484  0.1607  0.1120  0.1347
   68DPPC   C2B  814  18.338   5.370  19.245 -0.0086 -0.2313  0.0640
   68DPPC   C3B  815  18.001   5.344  18.910 -0.0287 -0.1603  0.2263
   68DPPC   C4B  816  17.628   5.335  18.580 -0.2228  0.3556  0.1741
   69DPPC   NC3  817  16.600   3.463  24.118  0.1327 -0.1575  0.0437
   69DPPC   PO4  818  16.590   3.872  24.059  0.0878 -0.1255 -0.0700
   69DPPC   GL1  819  16.385   4.136  23.845  0.0051  0.2138 -0.0221
   69DPPC   GL2  820  16.156   4.186  24.045  0.0747  0.0491 -0.1426
   69DPPC   C1A  821  16.120   4.156  23.625  0.0934 -0.2711  0.1128
   69DPPC   C2A  822  15.935   4.016  23.302  0.0267  0.0766 -0.2060
   69DPPC   C3A  823  15.594   3.975  23.027  0.1666  0.0259 -0.1797
   69DPPC   C4A  824  15.189   3.976  22.694  0.0022  0.1211  0.0916
   69DPPC   C1B  825  15.794   4.188  23.937  0.0497  0.2106 -0.2338
   69DPPC   C2B  826  15.570   4.211  23.628  0.1102  0.3430  0.1735
   69DPPC   C3B  827  15.227   4.157  23.338 -0.2988  0.0130  0.0877
   69DPPC   C4B  828  14.820   4.055  23.061 -0.1026  0.1006  0.3573
   70DPPC   NC3  829  19.003   4.563  20.737  0.2905  0.4226  0.0891
   70DPPC   PO4  830  18.615   4.453  20.730  0.1121 -0.0826  0.0366
   70DPPC   GL1  831  18.308   4.443  20.410 -0.0848 -0.0196 -0.1402
   70DPPC   GL2  832  18.423   4.425  20.202  0.1687 -0.1469  0.2725
   70DPPC   C1A  833  17.939   4.437  20.389  0.2382  0.2185 -0.1851
   70DPPC   C2A  834  17.565   4.488  20.240 -0.1047 -0.2097 -0.0694
   70DPPC   C3A  835  17.231   4.484  19.926  0.2999 -0.1067  0.0019
   70DPPC   C4A  836  16.982   4.530  19.500  0.3087 -0.2503  0.2338
   70DPPC   C1B  837  18.367   4.512  19.869  0.0040  0.0660 -0.1147
   70DPPC   C2B  838  18.152   4.498  19.555 -0.2281  0.1588 -0.1271
   70DPPC   C3B  839  17.891   4.561  19.216  0.0953  0.0672  0.1410
   70DPPC   C4B  840  17.589   4.511  18.784 -0.1842  0.0312 -0.2424
   71DPPC   NC3  841  16.925   2.652  23.987 -0.1878 -0.0360 -0.0392
   71DPPC   PO4  842  16.890   3.038  23.891 -0.1502  0.0183 -0.3884
   71DPPC   GL1  843  16.494   3.084  23.772  0.2130 -0.2540  0.1307
   71DPPC   GL2  844  16.457   2.806  23.858  0.2890  0.2856  0.1298
   71DPPC   C1A  845  16.259   3.245  23.491  0.4255 -0.1961  0.0931
   71DPPC   C2A  846  15.985   3.454  23.239  0.0593 -0.0903 -0.1739
   71DPPC   C3A  847  15.634   3.458  22.936  0.0403 -0.4479 -0.1902
   71DPPC   C4A  848  15.320   3.510  22.605  0.3334  0.1362  0.0079
   71DPPC   C1B  849  16.175   2.865  23.669 -0.0467 -0.1270  0.2843
   71DPPC   C2B  850  15.951   2.950  23.321 -0.2208  0.3226  0.0479
   71DPPC   C3B  851  15.722   2.957  22.910  0.0113  0.0319 -0.2550
   71DPPC   C4B  852  15.350   2.914  22.615 -0.1319  0.0063 -0.2224
   72DPPC   NC3  853  18.734   1.488  19.217 -0.2244 -0.2058 -0.0790
   72DPPC   PO4  854  19.075   1.340  19.003  0.0137 -0.1353  0.0053
   72DPPC   GL1  855  19.087   0.984  18.698 -0.2771 -0.1827  0.0168
   72DPPC   GL2  856  19.155   1.252  18.591 -0.3154  0.3714  0.1111
   72DPPC   C1A  857  18.912   0.838  18.370 -0.1690  0.5024  0.1653
   72DPPC   C2A  858  18.745   0.668  18.051  0.1980  0.0883  0.2979
   72DPPC   C3A  859  18.454   0.622  17.665 -0.0217  0.1459 -0.1283
   72DPPC   C4A  860  18.167   0.618  17.218 -0.1534 -0.0409  0.0603
   72DPPC   C1B  861  18.883   1.252  18.347 -0.0844  0.0319  0.0398
   72DPPC   C2B  862  18.590   1.174  18.048  0.0650  0.2390  0.1696
   72DPPC   C3B  863  18.363   1.122  17.698  0.0725 -0.2217  0.0112
   72DPPC   C4B  864  18.152   1.184  17.260  0.3013 -0.2382 -0.0573
   73DPPC   NC3  865  17.253   3.056  22.849  0.0091  0.1403 -0.1354
   73DPPC   PO4  866  17.049   3.396  22.758 -0.2917 -0.0053  0.3044
   73DPPC   GL1  867  16.835   3.713  22.479 -0.3143 -0.0250  0.1798
   73DPPC   GL2  868  16.783   3.486  22.402  0.0237  0.3365  0.2331
   73DPPC   C1A  869  16.575   3.887  22.262 -0.1816  0.2419 -0.0278
   73DPPC   C2A  870  16.274   3.950  21.972  0.2995 -0.0116  0.0808
   73DPPC   C3A  871  16.014   3.842  21.552 -0.0860 -0.1176 -0.2505
   73DPPC   C4A  872  15.662   3.850  21.225 -0.0492  0.1735  0.0955
   73DPPC   C1B  873  16.555   3.419  22.133 -0.1696  0.0954 -0.3767
   73DPPC   C2B  874  16.336   3.443  21.779  0.0590 -0.1121  0.0798
   73DPPC   C3B  875  16.044   3.378  21.419  0.1918  0.3302  0.4023
   73DPPC   C4B  876  15.655   3.370  21.114 -0.1995  0.2662 -0.0516
   74DPPC   NC3  877  17.641   3.255  22.046  0.2062 -0.4429 -0.0237
   74DPPC   PO4  878  17.821   2.884  22.016  0.2785 -0.1692  0.0026
   74DPPC   GL1  879  17.449   2.838  21.932  0.5585 -0.1323  0.2889
   74DPPC   GL2  880  17.253   2.659  21.952  0.0965  0.0137  0.0380
   74DPPC   C1A  881  17.175   3.037  21.718  0.4004 -0.1619 -0.1923
   74DPPC   C2A  882  16.832   3.242  21.633 -0.1829  0.1253  0.1164
   74DPPC   C3A  883  16.478   3.219  21.212 -0.0104 -0.1618  0.0486
   74DPPC   C4A  884  16.099   3.217  20.887  0.1351 -0.0395 -0.2480
   74DPPC   C1B  885  16.973   2.653  21.734  0.1495  0.0485 -0.1453
   74DPPC   C2B  886  16.716   2.610  21.429  0.1337 -0.1616 -0.2989
   74DPPC   C3B  887  16.407   2.749  21.088 -0.1469  0.1248  0.0212
   74DPPC   C4B  888  16.067   2.765  20.744 -0.2735  0.0107 -0.0499
   75DPPC   NC3  889  18.130   1.278  21.945  0.2412 -0.1578  0.0127
   75DPPC   PO4  890  17.874   1.190  22.245 -0.2247  0.0650  0.0498
   75DPPC   GL1  891  17.501   1.128  22.162 -0.0028 -0.0973 -0.2530
   75DPPC   GL2  892  17.558   1.187  21.828 -0.2109  0.0618 -0.2745
   75DPPC   C1A  893  17.194   0.940  22.168 -0.0905 -0.1959  0.1960
   75DPPC   C2A  894  16.889   0.819  21.895 -0.1715 -0.1600 -0.1031
   75DPPC   C3A  895  16.580   0.841  21.575  0.1052  0.0039 -0.0812
   75DPPC   C4A  896  16.237   0.883  21.225  0.1984  0.1671 -0.2518
   75DPPC   C1B  897  17.224   1.119  21.699  0.1716 -0.1116 -0.1790
   75DPPC   C2B  898  16.900   1.213  21.408 -0.0744  0.2679  0.2657
   75DPPC   C3B  899  16.566   1.215  21.024 -0.2048 -0.0383 -0.0179
   75DPPC   C4B  900  16.238   1.220  20.617 -0.3670  0.2436 -0.1595
   76DPPS   CNO  901  16.628   5.449  24.543  0.1696 -0.2610 -0.0917
   76DPPS   PO4  902  16.606   5.215  24.248 -0.2687  0.1614 -0.2280
   76DPPS   GL1  903  16.329   5.212  24.035 -0.1481  0.0091  0.0709
   76DPPS   GL2  904  16.132   5.294  24.181  0.1122 -0.2839  0.0475
   76DPPS   C1A  905  16.034   5.010  23.857 -0.1111  0.0172 -0.2009
   76DPPS   C2A  906  15.773   4.981  23.535  0.3125  0.0851 -0.3059
   76DPPS   C3A  907  15.472   4.976  23.199 -0.1191  0.1300 -0.1366
   76DPPS   C4A  908  15.131   4.956  22.816 -0.0688 -0.4242  0.0518
   76DPPS   C1B  909  15.975   5.477  23.910  0.0691 -0.0624  0.0153
   76DPPS   C2B  910  15.714   5.478  23.539  0.1358 -0.2401  0.0806
   76DPPS   C3B  911  15.337   5.477  23.180 -0.1334  0.0933 -0.0498
   76DPPS   C4B  912  15.042   5.459  22.824 -0.0173 -0.2609 -0.0162
   77DPPS   CNO  913  17.123   1.617  23.909  0.2246  0.0080 -0.2504
   77DPPS   PO4  914  16.884   1.862  23.753 -0.1167 -0.0666 -0.1438
   77DPPS   GL1  915  16.495   1.949  23.635 -0.2693  0.1213 -0.2650
   77DPPS   GL2  916  16.428   2.291  23.791 -0.3557 -0.0410  0.2244
   77DPPS   C1A  917  16.181   1.708  23.626  0.5141  0.0496 -0.0870
   77DPPS   C2A  918  15.848   1.606  23.525  0.1035  0.0080 -0.1104
   77DPPS   C3A  919  15.437   1.634  23.233  0.2425  0.1692  0.1954
   77DPPS   C4A  920  15.205   1.656  22.848  0.2723 -0.2649  0.1317
   77DPPS   C1B  921  16.207   2.337  23.541 -0.2075 -0.1179 -0.1650
   77DPPS   C2B  922  16.005   2.397  23.211 -0.1171  0.3750 -0.0449
   77DPPS   C3B  923  15.716   2.491  22.841  0.1988 -0.1397  0.2195
   77DPPS   C4B  924  15.389   2.463  22.436  0.1171  0.0317  0.0679
   78DPPS   CNO  925  16.723   0.675  24.160  0.0336  0.0243 -0.0156
   78DPPS   PO4  926  16.489   0.947  24.023 -0.2149  0.0269 -0.0529
   78DPPS   GL1  927  16.136   1.112  23.901 -0.1786  0.1576 -0.0551
   78DPPS   GL2  928  15.985   1.146  24.182 -0.0420 -0.1027 -0.0582
   78DPPS   C1A  929  15.907   1.176  23.587  0.3117  0.3744 -0.2890
   78DPPS   C2A  930  15.658   1.099  23.254  0.1040 -0.1695 -0.0258
   78DPPS   C3A  931  15.370   1.176  22.874  0.0606 -0.1158  0.2560
   78DPPS   C4A  932  14.983   1.183  22.592 -0.0150 -0.3195 -0.0061
   78DPPS   C1B  933  15.690   1.315  24.023 -0.0269  0.2064 -0.0658
   78DPPS   C2B  934  15.467   1.334  23.679  0.3020 -0.0274 -0.1166
   78DPPS   C3B  935  15.078   1.326  23.375 -0.2066  0.1992  0.0594
   78DPPS   C4B  936  14.705   1.381  23.059 -0.0137  0.2770  0.2660
   79DPPS   CNO  937  16.671   6.560  24.498  0.4344 -0.2774 -0.0900
   79DPPS   PO4  938  16.398   6.323  24.407  0.0082 -0.1493 -0.1286
   79DPPS   GL1  939  16.053   6.474  24.208 -0.0249 -0.2728 -0.3298
   79DPPS   GL2  940  16.207   6.638  24.092 -0.0190  0.3686  0.0760
   79DPPS   C1A  941  15.829   6.389  23.954  0.1011 -0.1265  0.0738
   79DPPS   C2A  942  15.580   6.424  23.572 -0.0454  0.2251 -0.0281
   79DPPS   C3A  943  15.207   6.495  23.266  0.2477 -0.0940  0.0356
   79DPPS   C4A  944  14.978   6.455  22.892  0.0796  0.2368  0.3902
   79DPPS   C1B  945  16.098   6.667  23.755  0.0550  0.2492 -0.3139
   79DPPS   C2B  946  15.957   6.670  23.388  0.1291 -0.0489 -0.1201
   79DPPS   C3B  947  15.714   6.739  22.996  0.1797  0.1113  0.0495
   79DPPS   C4B  948  15.348   6.747  22.628 -0.0749  0.1818  0.3004
   80DPPS   CNO  949  18.844   6.142  20.925  0.1938  0.0698  0.2370
   80DPPS   PO4  950  19.089   5.981  20.701  0.0916 -0.0206  0.3348
   80DPPS   GL1  951  18.634   6.000  20.562 -0.1650 -0.0530  0.0221
   80DPPS   GL2  952  18.583   5.704  20.627  0.0296 -0.2618  0.4489
   80DPPS   C1A  953  18.353   6.160  20.345  0.0877 -0.1843  0.0432
   80DPPS   C2A  954  18.077   6.255  20.095 -0.2560 -0.1608  0.0705
   80DPPS   C3A  955  17.621   6.203  19.956 -0.0652  0.0274  0.0640
   80DPPS   C4A  956  17.359   6.347  19.637 -0.0528  0.0394 -0.2329
   80DPPS   C1B  957  18.202   5.727  20.588 -0.0746 -0.3086 -0.0254
   80DPPS   C2B  958  17.833   5.920  20.498 -0.2781 -0.0424 -0.0552
   80DPPS   C3B  959  17.433   5.919  20.343  0.0672  0.0059  0.0652
   80DPPS   C4B  960  17.088   5.995  20.001  0.2529 -0.2933 -0.1536
   81DPPS   CNO  961  17.485   2.429  22.749  0.1926 -0.0699 -0.0298
   81DPPS   PO4  962  17.338   2.628  23.044 -0.1426  0.4077 -0.1123
   81DPPS   GL1  963  16.976   2.628  22.995  0.2323  0.1831  0.1901
   81DPPS   GL2  964  16.759   2.497  23.081 -0.2374 -0.0195 -0.2062
   81DPPS   C1A  965  16.777   2.911  22.838  0.0313 -0.3263 -0.1000
   81DPPS   C2A  966  16.521   3.084  22.595 -0.0686  0.2584  0.1028
   81DPPS   C3A  967  16.155   3.152  22.261 -0.1946  0.0525  0.2882
   81DPPS   C4A  968  15.894   3.079  21.840 -0.1850  0.1240  0.0634
   81DPPS   C1B  969  16.494   2.337  22.883 -0.0129  0.1022  0.0265
   81DPPS   C2B  970  16.116   2.269  22.704 -0.0188 -0.0483 -0.1350
   81DPPS   C3B  971  15.827   2.235  22.324  0.3059 -0.0460 -0.0162
   81DPPS   C4B  972  15.504   2.227  21.971 -0.1264  0.2085  0.0493
   82DPPS   CNO  973  18.357   5.348  21.879  0.0751  0.0032 -0.3047
   82DPPS   PO4  974  18.111   5.606  21.762  0.0440 -0.1117  0.0031
   82DPPS   GL1  975  17.868   5.664  21.406 -0.0006 -0.0926 -0.1169
   82DPPS   GL2  976  17.719   5.416  21.487 -0.0003 -0.0068 -0.0285
   82DPPS   C1A  977  17.537   5.889  21.357 -0.1510  0.0418  0.1158
   82DPPS   C2A  978  17.139   5.824  21.188  0.0426  0.2667 -0.1895
   82DPPS   C3A  979  16.766   5.801  20.920 -0.0489 -0.1995 -0.1501
   82DPPS   C4A  980  16.402   5.858  20.545  0.0164  0.2554 -0.2420
   82DPPS   C1B  981  17.378   5.490  21.309  0.0973  0.1459  0.0561
   82DPPS   C2B  982  17.071   5.353  21.064 -0.0635  0.0649  0.0686
   82DPPS   C3B  983  16.738   5.343  20.794 -0.0075  0.0771 -0.0868
   82DPPS   C4B  984  16.486   5.381  20.360 -0.1117 -0.2236  0.2615
   83DPPS   CNO  985  19.524   3.738  18.937 -0.3084  0.1988  0.4255
   83DPPS   PO4  986  19.325   3.437  18.796  0.0552 -0.1378  0.1248
   83DPPS   GL1  987  19.300   3.324  18.422  0.0463  0.2348  0.0908
   83DPPS   GL2  988  19.118   3.508  18.389  0.2884 -0.0581  0.3029
   83DPPS   C1A  989  19.220   3.187  18.068 -0.3984 -0.2228 -0.3759
   83DPPS   C2A  990  19.139   3.257  17.648 -0.1164  0.0773  0.2391
   83DPPS   C3A  991  18.849   3.344  17.245 -0.0416  0.4599 -0.0420
   83DPPS   C4A  992  18.458   3.466  16.987 -0.0462  0.0030 -0.2423
   83DPPS   C1B  993  18.809   3.485  18.186  0.1094  0.3940  0.2532
   83DPPS   C2B  994  18.640   3.483  17.816  0.4470 -0.3245 -0.0359
   83DPPS   C3B  995  18.302   3.450  17.453 -0.0355  0.1190  0.0948
   83DPPS   C4B  996  17.990   3.478  17.057  0.0172 -0.1545 -0.2140
   84DPPS   CNO  997  19.326   0.537  18.893  0.0612 -0.1949  0.2292
   84DPPS   PO4  998  19.504   0.243  18.760  0.2295 -0.3908  0.1521
   84DPPS   GL1  999  19.518   0.246  18.439  0.0552 -0.0023  0.4430
   84DPPS   GL2 1000  19.841   0.288  18.456  0.2058  0.0769 -0.1111
   84DPPS   C1A 1001  19.431   0.035  18.142  0.2210  0.4195 -0.2365
   84DPPS   C2A 1002  19.149  -0.043  17.899  0.2350  0.1218  0.2122
   84DPPS   C3A 1003  18.864  -0.035  17.472 -0.0367  0.2230  0.0161
   84DPPS   C4A 1004  18.504  -0.137  17.074 -0.2124  0.0652  0.0488
   84DPPS   C1B 1005  20.146   0.255  18.307 -0.1214  0.1944  0.1366
   84DPPS   C2B 1006  20.437   0.332  18.023 -0.5277 -0.3814 -0.2353
   84DPPS   C3B 1007  20.777   0.293  17.694 -0.0126 -0.1163  0.0642
   84DPPS   C4B 1008  20.983   0.264  17.285  0.1150 -0.0020 -0.2715
   85DPPS   CNO 1009  18.434   3.376  21.287 -0.0541  0.2028 -0.0438
   85DPPS   PO4 1010  18.580   3.026  21.278 -0.2001 -0.0978  0.2995
   85DPPS   GL1 1011  18.292   2.983  21.025 -0.3770  0.0092  0.1575
   85DPPS   GL2 1012  18.164   2.763  21.167 -0.4436 -0.1884 -0.0960
   85DPPS   C1A 1013  17.962   3.089  20.816  0.0136 -0.0996 -0.1076
   85DPPS   C2A 1014  17.611   3.138  20.614 -0.0882  0.1417  0.0829
   85DPPS   C3A 1015  17.273   3.183  20.278 -0.0815  0.0819  0.1283
   85DPPS   C4A 1016  16.939   3.216  19.922  0.0524  0.0872 -0.2282
   85DPPS   C1B 1017  17.823   2.809  21.157 -0.3483 -0.0188  0.0322
   85DPPS   C2B 1018  17.487   2.811  20.989 -0.0570  0.0926  0.2233
   85DPPS   C3B 1019  17.154   2.804  20.681 -0.1921  0.0303 -0.1232
   85DPPS   C4B 1020  16.861   2.885  20.278  0.0548 -0.1866 -0.3203
   86DPPS   CNO 1021  18.753   3.754  21.364  0.0804 -0.2126 -0.0600
   86DPPS   PO4 1022  18.507   3.815  21.062 -0.0305 -0.0234  0.1165
   86DPPS   GL1 1023  18.131   3.976  20.928 -0.2267  0.2736 -0.3322
   86DPPS   GL2 1024  18.110   4.243  20.828 -0.2055 -0.1875 -0.1819
   86DPPS   C1A 1025  17.815   3.763  20.805  0.0159 -0.0064 -0.0077
   86DPPS   C2A 1026  17.472   3.637  20.529  0.0063 -0.0061  0.2141
   86DPPS   C3A 1027  17.101   3.670  20.171 -0.1247  0.0357 -0.1217
   86DPPS   C4A 1028  16.768   3.726  19.765  0.3552  0.2435  0.2576
   86DPPS   C1B 1029  17.776   4.188  20.671  0.1995 -0.1602 -0.0155
   86DPPS   C2B 1030  17.363   4.122  20.555 -0.3809 -0.0826  0.1482
   86DPPS   C3B 1031  17.007   4.160  20.261 -0.0604  0.0498 -0.1697
   86DPPS   C4B 1032  16.765   4.256  19.833  0.1414 -0.1871 -0.0299
   87DPPS   CNO 1033  17.118   5.269  23.543 -0.0574  0.0424  0.3502
   87DPPS   PO4 1034  17.116   5.265  23.167  0.0597  0.1555 -0.2838
   87DPPS   GL1 1035  16.726   5.162  22.948 -0.2972 -0.0042  0.0692
   87DPPS   GL2 1036  16.832   5.074  22.669 -0.3545  0.0055  0.0928
   87DPPS   C1A 1037  16.427   5.105  22.956  0.4001  0.2456 -0.0907
   87DPPS   C2A 1038  16.164   5.138  22.666  0.4004 -0.3096 -0.0832
   87DPPS   C3A 1039  15.785   5.082  22.322  0.4289 -0.0088  0.0434
   87DPPS   C4A 1040  15.475   5.058  21.960  0.2453  0.0444  0.0864
   87DPPS   C1B 1041  16.625   4.992  22.375  0.1398  0.1039 -0.0173
   87DPPS   C2B 1042  16.260   4.956  22.197  0.2360 -0.0358 -0.3304
   87DPPS   C3B 1043  15.946   4.897  21.841 -0.0117  0.0570 -0.0651
   87DPPS   C4B 1044  15.630   4.876  21.527 -0.0606  0.2042 -0.1365
   88DPPS   CNO 1045  17.024   0.187  23.610  0.1521 -0.2063 -0.0281
   88DPPS   PO4 1046  16.938  -0.174  23.697  0.0961  0.2966  0.4362
   88DPPS   GL1 1047  16.538  -0.194  23.583  0.0408  0.0063  0.0780
   88DPPS   GL2 1048  16.579   0.076  23.556  0.0299 -0.2218 -0.0715
   88DPPS   C1A 1049  16.242  -0.376  23.434 -0.2903 -0.0812 -0.0368
   88DPPS   C2A 1050  15.931  -0.416  23.205  0.0453  0.1367  0.0993
   88DPPS   C3A 1051  15.578  -0.360  22.924 -0.1102  0.0684  0.0111
   88DPPS   C4A 1052  15.279  -0.397  22.544 -0.4865 -0.0113 -0.0594
   88DPPS   C1B 1053  16.388   0.235  23.274 -0.0258 -0.0867  0.0547
   88DPPS   C2B 1054  16.159   0.456  23.001  0.0841 -0.0906 -0.0498
   88DPPS   C3B 1055  15.831   0.481  22.620 -0.1815  0.0279 -0.0259
   88DPPS   C4B 1056  15.584   0.522  22.201 -0.0161  0.5495  0.1120
   89DPPS   CNO 1057  18.128   3.995  22.333 -0.0929 -0.0822 -0.4101
   89DPPS   PO4 1058  17.900   3.736  22.199  0.0248  0.0969 -0.1152
   89DPPS   GL1 1059  17.513   3.937  22.107 -0.3083  0.1052  0.1903
   89DPPS   GL2 1060  17.351   3.684  22.294  0.1467  0.4113 -0.1317
   89DPPS   C1A 1061  17.268   4.016  21.824 -0.8281 -0.1621  0.2075
   89DPPS   C2A 1062  17.037   3.982  21.525  0.0756 -0.3625  0.0366
   89DPPS   C3A 1063  16.793   3.935  21.131 -0.0304  0.0074  0.0402
   89DPPS   C4A 1064  16.425   4.013  20.752 -0.0344  0.0879  0.2337
   89DPPS   C1B 1065  17.063   3.742  22.096 -0.0250 -0.0021 -0.1959
   89DPPS   C2B 1066  16.756   3.720  21.843  0.1027  0.3796  0.0619
   89DPPS   C3B 1067  16.493   3.704  21.398 -0.3459 -0.3623  0.0842
   89DPPS   C4B 1068  16.099   3.717  21.056  0.3760 -0.1583 -0.0058
   90DPPS   CNO 1069  16.604   5.652  25.001  0.0390  0.2029 -0.1258
   90DPPS   PO4 1070  16.223   5.562  24.902  0.2483  0.2245 -0.0434
   90DPPS   GL1 1071  15.960   5.574  24.604 -0.0871  0.2630 -0.1048
   90DPPS   GL2 1072  15.738   5.605  24.826 -0.0118  0.0031  0.5274
   90DPPS   C1A 1073  15.775   5.503  24.307 -0.0397 -0.0255  0.2230
   90DPPS   C2A 1074  15.492   5.617  23.959  0.1752  0.2105 -0.0732
   90DPPS   C3A 1075  15.191   5.679  23.628 -0.1048  0.0063  0.0190
   90DPPS   C4A 1076  14.837   5.612  23.263 -0.1205  0.1444  0.0268
   90DPPS   C1B 1077  15.445   5.792  24.715  0.3414  0.5560 -0.1776
   90DPPS   C2B 1078  15.176   5.807  24.395  0.1220 -0.0754 -0.2832
   90DPPS   C3B 1079  14.914   5.835  24.022  0.0327 -0.0653  0.0565
   90DPPS   C4B 1080  14.604   5.882  23.627  0.2290 -0.2584 -0.0860
   91DPPS   CNO 1081  17.943   5.742  22.982  0.1182  0.0934 -0.2014
   91DPPS   PO4 1082  17.787   5.804  22.636 -0.1329 -0.1266  0.0557
   91DPPS   GL1 1083  17.383   5.788  22.605 -0.3291 -0.0186 -0.2055
   91DPPS   GL2 1084  17.295   6.073  22.708 -0.0579 -0.2818  0.1403
   91DPPS   C1A 1085  17.096   5.697  22.404 -0.0199 -0.1213 -0.0536
   91DPPS   C2A 1086  16.824   5.691  22.061  0.0030 -0.2884  0.2622
   91DPPS   C3A 1087  16.484   5.693  21.748  0.1810 -0.1176  0.0603
   91DPPS   C4A 1088  16.067   5.669  21.410  0.2520  0.3587 -0.2120
   91DPPS   C1B 1089  16.920   6.021  22.647 -0.1864 -0.0313  0.0257
   91DPPS   C2B 1090  16.531   5.900  22.568 -0.0983 -0.0134  0.1561
   91DPPS   C3B 1091  16.270   5.900  22.192  0.0174  0.4202 -0.2436
   91DPPS   C4B 1092  15.969   5.862  21.865 -0.2313 -0.0053  0.0339
   92DPPS   CNO 1093  19.420   5.177  20.585 -0.1907  0.1944  0.0717
   92DPPS   PO4 1094  19.099   5.048  20.411 -0.1382  0.0833  0.0297
   92DPPS   GL1 1095  18.856   5.169  20.175 -0.1021 -0.0466  0.0111
   92DPPS   GL2 1096  18.703   5.416  20.184  0.2287  0.0272 -0.4455
   92DPPS   C1A 1097  18.636   5.019  19.957 -0.0686 -0.2936  0.0769
   92DPPS   C2A 1098  18.269   5.094  19.686  0.2737  0.2992  0.2120
   92DPPS   C3A 1099  17.905   5.039  19.374 -0.2128 -0.2554  0.0349
   92DPPS   C4A 1100  17.561   5.008  18.982 -0.0529  0.2032 -0.2812
   92DPPS   C1B 1101  18.519   5.468  19.895  0.3499  0.3184 -0.0649
   92DPPS   C2B 1102  18.224   5.579  19.716 -0.0337 -0.1701  0.1167
   92DPPS   C3B 1103  17.869   5.590  19.376  0.0831  0.0267  0.2963
   92DPPS   C4B 1104  17.514   5.585  19.014 -0.2093 -0.0341  0.1676
   93DPPS   CNO 1105  18.957   5.094  21.272  0.0897 -0.1433 -0.2620
   93DPPS   PO4 1106  18.992   5.181  20.910 -0.0615 -0.1784  0.2108
   93DPPS   GL1 1107  18.710   5.198  20.603 -0.5579  0.1151  0.1700
   93DPPS   GL2 1108  18.656   4.928  20.691  0.1495 -0.2236 -0.2018
   93DPPS   C1A 1109  18.388   5.316  20.485 -0.3330 -0.0414 -0.2912
   93DPPS   C2A 1110  18.098   5.315  20.200  0.0692  0.2870 -0.1540
   93DPPS   C3A 1111  17.803   5.271  19.800  0.1572  0.1313 -0.0541
   93DPPS   C4A 1112  17.476   5.251  19.429  0.1370 -0.0716 -0.1379
   93DPPS   C1B 1113  18.444   4.852  20.413  0.0440  0.1136  0.3415
   93DPPS   C2B 1114  18.156   4.817  20.114  0.1468  0.2190 -0.3314
   93DPPS   C3B 1115  17.780   4.733  19.758 -0.1001 -0.0502 -0.1445
   93DPPS   C4B 1116  17.420   4.730  19.448  0.0751 -0.1368  0.0848
   94DPPS   CNO 1117  16.378   0.593  24.754  0.1649  0.0152 -0.0433
   94DPPS   PO4 1118  16.363   0.381  24.447 -0.1647 -0.0560  0.3170
   94DPPS   GL1 1119  16.183   0.625  24.202 -0.0633  0.1916 -0.1975
   94DPPS   GL2 1120  16.336   0.519  23.893  0.0971  0.1701 -0.2632
   94DPPS   C1A 1121  15.893   0.739  24.003 -0.5047 -0.1172  0.0328
   94DPPS   C2A 1122  15.565   0.874  23.729  0.1909  0.2426 -0.2709
   94DPPS   C3A 1123  15.199   0.852  23.356  0.1206  0.0640 -0.0444
   94DPPS   C4A 1124  14.960   0.890  22.975  0.2535  0.2140  0.2682
   94DPPS   C1B 1125  16.135   0.451  23.617 -0.0324  0.1752  0.0643
   94DPPS   C2B 1126  15.836   0.596  23.364 -0.0032  0.2707 -0.2434
   94DPPS   C3B 1127  15.562   0.637  22.994  0.2134  0.2693  0.0374
   94DPPS   C4B 1128  15.260   0.659  22.595  0.0217 -0.0322  0.2016
   95DPPS   CNO 1129  19.019   3.604  20.333  0.4063 -0.1343 -0.1429
   95DPPS   PO4 1130  18.949   3.249  20.193  0.0264  0.2867 -0.1825
   95DPPS   GL1 1131  18.606   3.221  19.858  0.1518  0.0115  0.2709
   95DPPS   GL2 1132  18.534   2.977  19.870 -0.0133 -0.0510  0.2022
   95DPPS   C1A 1133  18.331   3.409  19.652 -0.1273 -0.0721  0.0197
   95DPPS   C2A 1134  18.107   3.503  19.304  0.1139 -0.0024  0.1378
   95DPPS   C3A 1135  17.820   3.536  18.963  0.5674  0.0039  0.0896
   95DPPS   C4A 1136  17.565   3.546  18.542  0.0914  0.1372 -0.2526
   95DPPS   C1B 1137  18.267   2.986  19.566 -0.0480 -0.1664 -0.1468
   95DPPS   C2B 1138  18.075   3.011  19.232 -0.1678  0.0148  0.0911
   95DPPS   C3B 1139  17.822   3.044  18.828  0.1501 -0.3378 -0.1557
   95DPPS   C4B 1140  17.446   3.033  18.543 -0.0191  0.1574 -0.2457
   96DPPS   CNO 1141  17.752   0.336  22.582 -0.1334  0.1462  0.2538
   96DPPS   PO4 1142  17.468   0.422  22.826 -0.3593  0.0237 -0.0502
   96DPPS   GL1 1143  17.331   0.286  22.456 -0.1320  0.1221  0.1545
   96DPPS   GL2 1144  17.370   0.058  22.443 -0.0802  0.0425 -0.2091
   96DPPS   C1A 1145  17.160   0.383  22.152  0.0732  0.5472  0.0362
   96DPPS   C2A 1146  16.993   0.338  21.801 -0.0640  0.5046  0.1459
   96DPPS   C3A 1147  16.660   0.406  21.475 -0.2240  0.3918  0.2594
   96DPPS   C4A 1148  16.276   0.355  21.182  0.1749 -0.0497 -0.0119
   96DPPS   C1B 1149  17.188  -0.242  22.413  0.0347  0.3457 -0.3260
   96DPPS   C2B 1150  16.807  -0.416  22.227  0.0586 -0.1305 -0.0478
   96DPPS   C3B 1151  16.481  -0.385  21.904 -0.2747 -0.2365 -0.0533
   96DPPS   C4B 1152  16.153  -0.451  21.528  0.2011 -0.1597  0.0214
   97DPPS   CNO 1153  17.358   3.769  23.421  0.0716  0.2282 -0.0835
   97DPPS   PO4 1154  17.161   3.466  23.230 -0.1651 -0.5448  0.1294
   97DPPS   GL1 1155  16.731   3.429  23.100 -0.1353  0.3097  0.0233
   97DPPS   GL2 1156  16.742   3.705  23.012  0.1901 -0.1615  0.3002
   97DPPS   C1A 1157  16.418   3.254  23.034  0.0996 -0.0210  0.2870
   97DPPS   C2A 1158  16.117   3.267  22.789  0.2305  0.2884  0.1390
   97DPPS   C3A 1159  15.720   3.254  22.501 -0.0461  0.0158 -0.0024
   97DPPS   C4A 1160  15.370   3.238  22.176  0.0391  0.1148 -0.1192
   97DPPS   C1B 1161  16.501   3.605  22.738  0.2377 -0.0555 -0.2671
   97DPPS   C2B 1162  16.225   3.617  22.392  0.2108 -0.0025 -0.0459
   97DPPS   C3B 1163  15.845   3.541  22.013 -0.0068  0.1095 -0.2164
   97DPPS   C4B 1164  15.503   3.512  21.707  0.3684  0.0960 -0.0208
   98DPPS   CNO 1165  20.209   2.057  18.958  0.1805 -0.0583 -0.1845
   98DPPS   PO4 1166  20.329   2.192  19.329 -0.2071  0.1350 -0.0935
   98DPPS   GL1 1167  20.652   2.222  19.106 -0.1150  0.1645  0.1798
   98DPPS   GL2 1168  20.824   2.217  19.282  0.3105 -0.4911 -0.6963
   98DPPS   C1A 1169  20.804   2.373  18.786  0.0326 -0.0760 -0.1901
   98DPPS   C2A 1170  21.020   2.376  18.401  0.2967  0.2592  0.1410
   98DPPS   C3A 1171  21.289   2.411  18.038  0.4420  0.0846 -0.1427
   98DPPS   C4A 1172  21.528   2.426  17.635 -0.0589 -0.2784  0.2545
   98DPPS   C1B 1173  21.064   2.108  19.079  0.1457 -0.0430  0.0867
   98DPPS   C2B 1174  21.292   2.164  18.822  0.1461  0.1066 -0.0671
   98DPPS   C3B 1175  21.579   2.163  18.435  0.4165  0.1357  0.0602
   98DPPS   C4B 1176  21.864   2.146  18.112 -0.1909  0.0859 -0.0711
   99DPPS   CNO 1177  18.972   0.589  20.396 -0.0099  0.0885 -0.0837
   99DPPS   PO4 1178  18.912   0.486  20.055 -0.1769 -0.0698 -0.3670
   99DPPS   GL1 1179  18.716   0.685  19.812 -0.0534  0.0956  0.3258
   99DPPS   GL2 1180  18.733   0.937  19.677  0.2563 -0.2025  0.2243
   99DPPS   C1A 1181  18.346   0.754  19.795 -0.2069  0.1549  0.1940
   99DPPS   C2A 1182  18.124   0.859  19.496 -0.1113 -0.3527  0.0402
   99DPPS   C3A 1183  17.805   0.830  19.067 -0.2828 -0.0113  0.0933
   99DPPS   C4A 1184  17.573   0.783  18.653  0.1297 -0.0608  0.1267
   99DPPS   C1B 1185  18.522   0.993  19.327  0.3715 -0.0905 -0.2171
   99DPPS   C2B 1186  18.316   1.036  18.978 -0.1411  0.0380  0.2688
   99DPPS   C3B 1187  18.032   1.071  18.630  0.3120  0.0245  0.3193
   99DPPS   C4B 1188  17.717   1.075  18.267 -0.1882 -0.0424  0.2824
  100DPPS   CNO 1189  16.934   3.058  23.331 -0.1716 -0.2497 -0.0114
  100DPPS   PO4 1190  17.042   2.756  23.471 -0.3102  0.0785 -0.0492
  100DPPS   GL1 1191  16.647   2.667  23.540 -0.1764  0.0999  0.1966
  100DPPS   GL2 1192  16.787   2.325  23.504 -0.2380 -0.4841 -0.0716
  100DPPS   C1A 1193  16.346   2.694  23.265 -0.0838 -0.2855 -0.0807
  100DPPS   C2A 1194  16.259   2.755  22.859 -0.0017  0.0079 -0.3958
  100DPPS   C3A 1195  15.961   2.731  22.515 -0.0608  0.1110 -0.0585
  100DPPS   C4A 1196  15.664   2.795  22.142 -0.1804 -0.0596  0.2975
  100DPPS   C1B 1197  16.540   2.178  23.321 -0.0444 -0.0645  0.1823
  100DPPS   C2B 1198  16.215   1.971  23.191  0.0916 -0.0302 -0.2000
  100DPPS   C3B 1199  15.788   1.923  22.983 -0.0113  0.1392  0.2243
  100DPPS   C4B 1200  15.493   1.979  22.591  0.0427 -0.1532 -0.0761
  101DPPC   NC3 1201  14.624   0.743  19.415 -0.2097  0.1317  0.0992
  101DPPC   PO4 1202  14.379   0.939  19.680 -0.1669 -0.0185 -0.1292
  101DPPC   GL1 1203  14.478   1.148  19.963  0.2188 -0.1284 -0.1031
  101DPPC   GL2 1204  14.690   1.253  19.742 -0.0939 -0.2676  0.0560
  101DPPC   C1A 1205  14.730   1.128  20.269 -0.0345  0.1449  0.1550
  101DPPC   C2A 1206  14.930   1.122  20.620 -0.2122 -0.2817 -0.4131
  101DPPC   C3A 1207  15.286   1.142  20.862 -0.0086 -0.1744  0.0702
  101DPPC   C4A 1208  15.603   1.187  21.187 -0.0225 -0.0486 -0.2560
  101DPPC   C1B 1209  14.906   0.974  19.820  0.0660 -0.0597  0.0755
  101DPPC   C2B 1210  15.170   1.008  20.162  0.1571  0.0898  0.1816
  101DPPC   C3B 1211  15.549   0.945  20.465 -0.1306  0.1246  0.1490
  101DPPC   C4B 1212  15.882   0.915  20.815  0.1426  0.0304 -0.1241
  102DPPC   NC3 1213  14.086   0.578  19.147  0.1066 -0.2545 -0.3763
  102DPPC   PO4 1214  14.451   0.371  19.063 -0.1053  0.0973  0.0567
  102DPPC   GL1 1215  14.633   0.247  19.379  0.0292  0.0031 -0.0211
  102DPPC   GL2 1216  14.531   0.055  19.482  0.3178 -0.1593 -0.1262
  102DPPC   C1A 1217  15.012   0.366  19.427 -0.0566  0.1635  0.1923
  102DPPC   C2A 1218  15.355   0.199  19.512 -0.0461 -0.0404 -0.0483
  102DPPC   C3A 1219  15.712   0.163  19.802  0.1935 -0.2086  0.0263
  102DPPC   C4A 1220  16.050   0.266  20.172  0.1278  0.0189  0.1926
  102DPPC   C1B 1221  14.612   0.038  19.821  0.0632  0.0480  0.0203
  102DPPC   C2B 1222  14.792   0.058  20.200  0.0168 -0.1217 -0.1787
  102DPPC   C3B 1223  15.176   0.044  20.495 -0.0360 -0.1314 -0.5331
  102DPPC   C4B 1224  15.473   0.117  20.902 -0.0254 -0.0198  0.0818
  103DPPC   NC3 1225  14.895   3.523  18.700 -0.1090  0.2777  0.0009
  103DPPC   PO4 1226  15.158   3.466  18.393  0.3082 -0.2220  0.1097
  103DPPC   GL1 1227  15.469   3.260  18.572  0.1535 -0.2769 -0.0367
  103DPPC   GL2 1228  15.500   3.032  18.529 -0.0183  0.0680 -0.1387
  103DPPC   C1A 1229  15.526   3.331  18.936 -0.0559  0.1702  0.1018
  103DPPC   C2A 1230  15.770   3.389  19.288  0.0196 -0.1464 -0.0921
  103DPPC   C3A 1231  16.113   3.423  19.638 -0.2301 -0.0541 -0.1237
  103DPPC   C4A 1232  16.450   3.380  20.013  0.1450  0.4841  0.3202
  103DPPC   C1B 1233  15.697   2.828  18.753  0.2951 -0.1359 -0.1023
  103DPPC   C2B 1234  15.872   2.858  19.122 -0.2115  0.1078  0.0229
  103DPPC   C3B 1235  16.174   2.882  19.504 -0.1681 -0.1471 -0.0374
  103DPPC   C4B 1236  16.523   2.896  19.858  0.0151 -0.3272  0.1229
  104DPPC   NC3 1237  20.488   0.360  15.706 -0.0352  0.1534  0.2168
  104DPPC   PO4 1238  20.819   0.116  15.631  0.1779  0.1642  0.0674
  104DPPC   GL1 1239  21.069   0.014  16.007 -0.1630 -0.2156  0.0780
  104DPPC   GL2 1240  20.861   0.141  16.171 -0.1742  0.0790 -0.0110
  104DPPC   C1A 1241  20.933  -0.338  16.066  0.1966 -0.1985  0.0644
  104DPPC   C2A 1242  20.903  -0.673  16.206 -0.1036 -0.0677  0.0881
  104DPPC   C3A 1243  21.031  -1.138  16.310 -0.0425 -0.1254  0.0534
  104DPPC   C4A 1244  21.025  -1.581  16.384 -0.0166  0.1183  0.3822
  104DPPC   C1B 1245  20.731  -0.094  16.450 -0.0193  0.0679 -0.1438
  104DPPC   C2B 1246  20.610  -0.405  16.715  0.2279  0.0759 -0.1891
  104DPPC   C3B 1247  20.739  -0.850  16.699  0.1032  0.0715  0.1204
  104DPPC   C4B 1248  20.768  -1.313  16.697  0.2246 -0.0336 -0.0004
  105DPPC   NC3 1249   0.554   5.112  15.645 -0.0562  0.0920  0.2164
  105DPPC   PO4 1250   0.193   5.267  15.615 -0.0914  0.1463  0.0998
  105DPPC   GL1 1251   0.297   5.410  16.057  0.0295 -0.1994  0.2257
  105DPPC   GL2 1252   0.588   5.444  16.016 -0.0776  0.0170  0.0524
  105DPPC   C1A 1253   0.266   5.187  16.425  0.0809 -0.0555  0.2659
  105DPPC   C2A 1254   0.154   5.126  16.811  0.0276  0.0908  0.0074
  105DPPC   C3A 1255  -0.246   4.989  17.089 -0.1800  0.2368 -0.2491
  105DPPC   C4A 1256  -0.589   5.050  17.409  0.1355 -0.0937 -0.1165
  105DPPC   C1B 1257   0.570   5.461  16.386  0.2040 -0.1585  0.1026
  105DPPC   C2B 1258   0.662   5.475  16.756  0.1512 -0.0157  0.0190
  105DPPC   C3B 1259   0.710   5.427  17.245 -0.1289 -0.1372  0.0049
  105DPPC   C4B 1260   0.781   5.465  17.720  0.0347  0.1972 -0.2208
  106DPPC   NC3 1261   1.181   5.574  15.456 -0.0231  0.1961 -0.1614
  106DPPC   PO4 1262   0.951   5.384  15.739  0.1880  0.2126  0.0661
  106DPPC   GL1 1263   0.964   5.290  16.159 -0.0655  0.0374 -0.1962
  106DPPC   GL2 1264   1.084   5.028  16.138  0.2497 -0.2687 -0.2065
  106DPPC   C1A 1265   1.089   5.477  16.461  0.1509  0.1721  0.2320
  106DPPC   C2A 1266   1.156   5.555  16.828  0.0193  0.1132  0.2045
  106DPPC   C3A 1267   1.359   5.555  17.276  0.0034  0.1813 -0.1192
  106DPPC   C4A 1268   1.660   5.764  17.565  0.0651 -0.2121 -0.2111
  106DPPC   C1B 1269   1.294   5.020  16.435  0.2875  0.0297 -0.0359
  106DPPC   C2B 1270   1.463   4.988  16.806 -0.1910 -0.1407  0.0601
  106DPPC   C3B 1271   1.423   5.054  17.307 -0.0081 -0.0078 -0.0728
  106DPPC   C4B 1272   1.367   5.279  17.791  0.3007  0.1927  0.2245
  107DPPC   NC3 1273  15.774   6.419  16.982 -0.2650  0.0207  0.0396
  107DPPC   PO4 1274  15.902   6.738  17.166  0.0516 -0.1285  0.0782
  107DPPC   GL1 1275  16.184   6.957  17.346  0.1080  0.1912 -0.1944
  107DPPC   GL2 1276  16.251   6.777  17.524  0.1231 -0.0055  0.1342
  107DPPC   C1A 1277  16.398   7.241  17.283 -0.0797 -0.1189 -0.1086
  107DPPC   C2A 1278  16.542   7.622  17.362  0.2285  0.1471  0.3392
  107DPPC   C3A 1279  16.783   7.922  17.648  0.0346  0.3290  0.1439
  107DPPC   C4A 1280  16.873   8.253  18.001  0.0493 -0.4215  0.1641
  107DPPC   C1B 1281  16.090   6.664  17.843 -0.2631 -0.2263 -0.0653
  107DPPC   C2B 1282  16.267   6.624  18.182  0.1929 -0.1300  0.2195
  107DPPC   C3B 1283  16.404   6.724  18.589 -0.0085 -0.0821 -0.0261
  107DPPC   C4B 1284  16.655   6.810  18.903  0.2885  0.1150 -0.2246
  108DPPC   NC3 1285  12.333   3.669  21.335  0.1294 -0.0045  0.0722
  108DPPC   PO4 1286  12.630   3.566  21.571  0.3150  0.1543 -0.0939
  108DPPC   GL1 1287  13.069   3.452  21.613  0.0507 -0.1320 -0.3588
  108DPPC   GL2 1288  12.877   3.395  21.922  0.0370 -0.1639 -0.0167
  108DPPC   C1A 1289  13.417   3.409  21.777 -0.0662 -0.1062  0.4899
  108DPPC   C2A 1290  13.637   3.390  22.118 -0.0730  0.2595 -0.1479
  108DPPC   C3A 1291  13.943   3.430  22.464 -0.3155  0.0368  0.1748
  108DPPC   C4A 1292  14.385   3.386  22.754 -0.1014 -0.2401 -0.3327
  108DPPC   C1B 1293  13.158   3.431  22.139 -0.2380  0.0213  0.5499
  108DPPC   C2B 1294  13.350   3.537  22.484  0.1992  0.0270  0.1368
  108DPPC   C3B 1295  13.673   3.521  22.869  0.3562  0.3726 -0.1634
  108DPPC   C4B 1296  14.004   3.457  23.173 -0.0873 -0.0251 -0.1720
  109DPPC   NC3 1297  13.796   4.403  20.290  0.0888 -0.1055 -0.2560
  109DPPC   PO4 1298  13.868   4.808  20.367 -0.0909  0.2247  0.0416
  109DPPC   GL1 1299  14.119   5.044  20.151 -0.3080 -0.3318  0.0216
  109DPPC   GL2 1300  14.157   4.704  20.103  0.6250 -0.1683 -0.1162
  109DPPC   C1A 1301  14.358   5.118  20.445 -0.1393 -0.1031  0.3077
  109DPPC   C2A 1302  14.586   5.085  20.787  0.1539 -0.2449 -0.0881
  109DPPC   C3A 1303  14.862   5.088  21.198  0.0343 -0.2059 -0.1758
  109DPPC   C4A 1304  15.181   5.095  21.562 -0.2315 -0.1090  0.1029
  109DPPC   C1B 1305  14.379   4.627  20.416 -0.0065 -0.0830  0.2670
  109DPPC   C2B 1306  14.639   4.619  20.747  0.1688 -0.2227  0.0690
  109DPPC   C3B 1307  14.904   4.591  21.153 -0.2679 -0.0007 -0.0015
  109DPPC   C4B 1308  15.208   4.527  21.524  0.0499  0.5975 -0.2112
  110DPPC   NC3 1309  14.363   1.966  19.327 -0.1587 -0.1086  0.1369
  110DPPC   PO4 1310  14.335   2.371  19.304  0.0364 -0.1213 -0.4406
  110DPPC   GL1 1311  14.642   2.602  19.501 -0.3138  0.1261 -0.2863
  110DPPC   GL2 1312  14.579   2.656  19.779 -0.1866 -0.2574  0.3246
  110DPPC   C1A 1313  14.876   2.348  19.644 -0.1877 -0.4309  0.5196
  110DPPC   C2A 1314  15.260   2.274  19.756  0.0637 -0.0992  0.3318
  110DPPC   C3A 1315  15.618   2.281  20.103 -0.2316 -0.0194  0.0869
  110DPPC   C4A 1316  15.998   2.244  20.523  0.0748  0.2342  0.2887
  110DPPC   C1B 1317  14.826   2.594  20.060  0.0470  0.0568 -0.1130
  110DPPC   C2B 1318  15.161   2.482  20.339  0.0974 -0.1593  0.1541
  110DPPC   C3B 1319  15.544   2.416  20.604  0.0419 -0.1195 -0.1741
  110DPPC   C4B 1320  15.826   2.386  20.986  0.1675 -0.1250 -0.0334
  111DPPC   NC3 1321  13.510   5.022  20.641 -0.2178 -0.2175 -0.3271
  111DPPC   PO4 1322  13.429   4.611  20.712  0.3139 -0.0109  0.0248
  111DPPC   GL1 1323  13.736   4.572  20.956 -0.0166  0.0419 -0.1609
  111DPPC   GL2 1324  13.906   4.758  20.811 -0.0473  0.2773 -0.0465
  111DPPC   C1A 1325  13.835   4.259  21.183 -0.3050 -0.2196  0.2041
  111DPPC   C2A 1326  14.089   4.097  21.480  0.0603  0.1730 -0.1235
  111DPPC   C3A 1327  14.417   3.997  21.776  0.0835  0.1919 -0.1230
  111DPPC   C4A 1328  14.737   3.942  22.186 -0.1016 -0.2732 -0.1648
  111DPPC   C1B 1329  14.166   4.737  21.029  0.0961  0.3054 -0.0609
  111DPPC   C2B 1330  14.423   4.759  21.325  0.0911  0.1378 -0.2752
  111DPPC   C3B 1331  14.764   4.775  21.634 -0.0328  0.1008 -0.1387
  111DPPC   C4B 1332  15.077   4.763  21.997 -0.2395  0.0213 -0.0476
  112DPPC   NC3 1333  14.583   4.651  19.129 -0.0994 -0.1659  0.3079
  112DPPC   PO4 1334  14.790   4.959  19.123  0.1343 -0.2623 -0.0182
  112DPPC   GL1 1335  15.060   4.850  19.370  0.0470 -0.0212  0.0557
  112DPPC   GL2 1336  14.918   4.662  19.576 -0.0573 -0.0246  0.0858
  112DPPC   C1A 1337  15.274   5.023  19.589  0.0225 -0.3257 -0.3442
  112DPPC   C2A 1338  15.540   5.087  19.940 -0.3636  0.0095  0.0350
  112DPPC   C3A 1339  15.832   5.096  20.276  0.0276  0.1778 -0.1009
  112DPPC   C4A 1340  16.215   5.023  20.592  0.0742 -0.2501  0.3998
  112DPPC   C1B 1341  15.003   4.688  19.928  0.3756 -0.1667 -0.0202
  112DPPC   C2B 1342  15.266   4.777  20.225  0.0909 -0.1338 -0.2620
  112DPPC   C3B 1343  15.559   4.714  20.615 -0.0825 -0.0213  0.0974
  112DPPC   C4B 1344  15.942   4.751  20.975 -0.0261 -0.2923  0.1356
  113DPPC   NC3 1345  15.164   6.067  18.771  0.0555 -0.0453  0.1232
  113DPPC   PO4 1346  14.998   6.407  18.735  0.0124 -0.1003  0.2350
  113DPPC   GL1 1347  14.930   6.640  19.089  0.0854  0.2125 -0.1015
  113DPPC   GL2 1348  15.080   6.915  19.035  0.1721  0.1616  0.1032
  113DPPC   C1A 1349  14.967   6.523  19.486  0.0944 -0.2691  0.2081
  113DPPC   C2A 1350  15.144   6.477  19.837 -0.2036 -0.1565 -0.0031
  113DPPC   C3A 1351  15.490   6.497  20.163  0.4693 -0.2531  0.0168
  113DPPC   C4A 1352  15.856   6.548  20.540 -0.2299  0.2584 -0.1297
  113DPPC   C1B 1353  15.388   6.761  18.994 -0.0719  0.5620  0.1402
  113DPPC   C2B 1354  15.710   6.603  19.167  0.0395 -0.0436 -0.1595
  113DPPC   C3B 1355  16.056   6.672  19.440  0.0532  0.1430 -0.0849
  113DPPC   C4B 1356  16.354   6.599  19.885  0.1420 -0.2951  0.2920
  114DPPC   NC3 1357  12.775   0.464  21.560  0.1171  0.2192  0.3466
  114DPPC   PO4 1358  13.080   0.723  21.546  0.3293  0.2670  0.1193
  114DPPC   GL1 1359  13.293   0.613  21.889 -0.4829  0.0793  0.2119
  114DPPC   GL2 1360  13.095   0.476  22.001  0.3444  0.1060 -0.1675
  114DPPC   C1A 1361  13.570   0.577  22.106  0.0387  0.1296  0.0702
  114DPPC   C2A 1362  13.871   0.591  22.437 -0.0422  0.2171  0.3558
  114DPPC   C3A 1363  14.264   0.544  22.727 -0.0139  0.2176  0.1155
  114DPPC   C4A 1364  14.564   0.530  23.099 -0.3193  0.0722  0.0391
  114DPPC   C1B 1365  13.215   0.326  22.248  0.0135 -0.0616 -0.1856
  114DPPC   C2B 1366  13.436   0.318  22.523  0.1580  0.2635  0.1628
  114DPPC   C3B 1367  13.776   0.271  22.853  0.1628  0.2757 -0.0844
  114DPPC   C4B 1368  14.155   0.254  23.219  0.0593  0.1556  0.0035
  115DPPC   NC3 1369  13.961   5.835  19.930  0.0078 -0.0435 -0.2147
  115DPPC   PO4 1370  13.974   5.465  20.065  0.2298 -0.1029 -0.1948
  115DPPC   GL1 1371  14.135   5.450  20.505  0.2197  0.1271  0.2944
  115DPPC   GL2 1372  13.867   5.338  20.644 -0.2228 -0.1375  0.4197
  115DPPC   C1A 1373  14.470   5.505  20.730 -0.4516 -0.0841  0.5724
  115DPPC   C2A 1374  14.776   5.555  21.035 -0.0985 -0.0707 -0.4233
  115DPPC   C3A 1375  15.097   5.589  21.357 -0.0899 -0.4951  0.0217
  115DPPC   C4A 1376  15.308   5.549  21.761 -0.0651  0.1591  0.1479
  115DPPC   C1B 1377  14.118   5.277  20.921 -0.1104  0.1745 -0.1866
  115DPPC   C2B 1378  14.384   5.250  21.225  0.1086 -0.1636 -0.1203
  115DPPC   C3B 1379  14.651   5.292  21.616 -0.0006 -0.1771 -0.2174
  115DPPC   C4B 1380  14.939   5.278  21.962  0.2280 -0.0156  0.1126
  116DPPC   NC3 1381  13.321   0.828  21.161  0.1816  0.1442  0.3334
  116DPPC   PO4 1382  13.212   1.204  21.281 -0.0976 -0.0321  0.1362
  116DPPC   GL1 1383  13.531   1.510  21.269 -0.2371 -0.0101 -0.0074
  116DPPC   GL2 1384  13.654   1.469  20.998 -0.1322 -0.0403 -0.1704
  116DPPC   C1A 1385  13.856   1.596  21.457 -0.0131 -0.2062 -0.3365
  116DPPC   C2A 1386  14.208   1.667  21.736 -0.0332 -0.2155 -0.1734
  116DPPC   C3A 1387  14.586   1.660  22.086  0.1493  0.0025  0.1673
  116DPPC   C4A 1388  14.844   1.607  22.448  0.1384 -0.1685  0.0129
  116DPPC   C1B 1389  14.032   1.386  21.016 -0.1436  0.5353  0.2086
  116DPPC   C2B 1390  14.315   1.525  21.284 -0.0311 -0.1595 -0.0920
  116DPPC   C3B 1391  14.688   1.557  21.618 -0.0647 -0.0252  0.0210
  116DPPC   C4B 1392  15.029   1.482  21.910  0.1919 -0.0479 -0.1217
  117DPPC   NC3 1393  17.392   6.249  16.566  0.0806  0.0456  0.0325
  117DPPC   PO4 1394  17.812   6.273  16.646 -0.0455 -0.1087  0.0532
  117DPPC   GL1 1395  17.882   6.422  17.041 -0.0598  0.1732 -0.2460
  117DPPC   GL2 1396  18.021   6.218  17.079  0.1603 -0.3153  0.1151
  117DPPC   C1A 1397  18.134   6.582  17.248  0.1008 -0.2597 -0.0932
  117DPPC   C2A 1398  18.407   6.695  17.561 -0.0736  0.1838 -0.1024
  117DPPC   C3A 1399  18.696   6.797  17.964 -0.2413 -0.4132 -0.0038
  117DPPC   C4A 1400  19.015   6.903  18.293 -0.2730 -0.1408 -0.0185
  117DPPC   C1B 1401  18.153   6.135  17.399  0.0782  0.2987  0.2407
  117DPPC   C2B 1402  18.462   6.202  17.716 -0.0160  0.2834 -0.1207
  117DPPC   C3B 1403  18.815   6.260  18.088 -0.2561  0.0791 -0.1411
  117DPPC   C4B 1404  19.133   6.411  18.439  0.0319 -0.1920  0.1215
  118DPPC   NC3 1405  14.259   1.385  18.676 -0.0441 -0.2654 -0.0520
  118DPPC   PO4 1406  14.355   1.665  18.956 -0.0480  0.0352  0.0972
  118DPPC   GL1 1407  14.768   1.689  19.190 -0.1127 -0.0258 -0.3324
  118DPPC   GL2 1408  14.917   1.799  18.999  0.0148 -0.1075  0.0753
  118DPPC   C1A 1409  14.928   1.531  19.509 -0.0630 -0.1903  0.0035
  118DPPC   C2A 1410  15.095   1.461  19.942  0.1611 -0.1577  0.2924
  118DPPC   C3A 1411  15.307   1.478  20.346  0.1518 -0.0942 -0.0995
  118DPPC   C4A 1412  15.669   1.403  20.648  0.3214 -0.0442  0.1061
  118DPPC   C1B 1413  15.200   1.544  19.073 -0.3271  0.0622 -0.0001
  118DPPC   C2B 1414  15.592   1.546  19.227 -0.1475 -0.0515 -0.0815
  118DPPC   C3B 1415  15.882   1.529  19.634 -0.0364  0.2177  0.0449
  118DPPC   C4B 1416  16.204   1.507  19.975  0.0618  0.2194 -0.0655
  119DPPC   NC3 1417  13.755   0.115  20.540  0.0777 -0.1711 -0.1042
  119DPPC   PO4 1418  13.563  -0.225  20.538  0.0401  0.1388 -0.0444
  119DPPC   GL1 1419  13.885  -0.439  20.749 -0.2787 -0.2469  0.1286
  119DPPC   GL2 1420  14.068  -0.227  20.618  0.0072  0.0914 -0.0655
  119DPPC   C1A 1421  14.134  -0.377  21.053 -0.0150 -0.0786 -0.0180
  119DPPC   C2A 1422  14.397  -0.370  21.410  0.0460  0.1149  0.0511
  119DPPC   C3A 1423  14.698  -0.373  21.765 -0.3009 -0.3011  0.0640
  119DPPC   C4A 1424  15.020  -0.394  22.145 -0.1747  0.2494 -0.1411
  119DPPC   C1B 1425  14.262  -0.037  20.809  0.0198  0.2785  0.2953
  119DPPC   C2B 1426  14.567   0.015  21.032  0.0665  0.2013  0.1116
  119DPPC   C3B 1427  14.878  -0.002  21.349  0.1054 -0.0448 -0.2122
  119DPPC   C4B 1428  15.179  -0.042  21.740 -0.0932 -0.0629  0.1332
  120DPPC   NC3 1429  15.396   4.815  17.665  0.0360 -0.0763 -0.1716
  120DPPC   PO4 1430  15.325   5.077  17.962  0.1961  0.3545  0.1511
  120DPPC   GL1 1431  15.471   5.072  18.429 -0.3454 -0.0890 -0.2412
  120DPPC   GL2 1432  15.626   5.283  18.267 -0.2065  0.0839 -0.1959
  120DPPC   C1A 1433  15.663   5.106  18.749 -0.1504  0.0403  0.1863
  120DPPC   C2A 1434  15.997   5.122  19.029 -0.0500  0.0358  0.1998
  120DPPC   C3A 1435  16.321   5.183  19.424  0.1719  0.1748  0.1984
  120DPPC   C4A 1436  16.585   5.183  19.818 -0.2209  0.1033 -0.0440
  120DPPC   C1B 1437  15.921   5.452  18.437  0.1968  0.0506 -0.0601
  120DPPC   C2B 1438  16.226   5.463  18.703  0.1111 -0.2232 -0.3840
  120DPPC   C3B 1439  16.561   5.440  19.057 -0.2200  0.1366  0.0456
  120DPPC   C4B 1440  16.774   5.415  19.437 -0.0554 -0.1235 -0.0064
  121DPPC   NC3 1441  14.887   4.405  18.339  0.0552  0.2204 -0.1839
  121DPPC   PO4 1442  14.838   4.569  18.708 -0.0078  0.1420  0.0728
  121DPPC   GL1 1443  15.072   4.564  19.001 -0.0605 -0.1709  0.3305
  121DPPC   GL2 1444  15.026   4.352  19.143 -0.0253  0.2354 -0.0701
  121DPPC   C1A 1445  15.380   4.814  19.143 -0.1034 -0.0257 -0.2755
  121DPPC   C2A 1446  15.710   4.799  19.384  0.0666 -0.0813  0.0379
  121DPPC   C3A 1447  15.984   4.852  19.772 -0.0663  0.2676 -0.0190
  121DPPC   C4A 1448  16.341   4.855  20.129  0.1607  0.1186 -0.3168
  121DPPC   C1B 1449  15.260   4.474  19.402 -0.1727  0.0405  0.1079
  121DPPC   C2B 1450  15.428   4.601  19.750 -0.2342  0.0420  0.0527
  121DPPC   C3B 1451  15.710   4.558  20.117 -0.0291  0.0302  0.5140
  121DPPC   C4B 1452  16.053   4.533  20.443  0.1976  0.2098 -0.0094
  122DPPC   NC3 1453  13.220   1.566  20.917  0.0786 -0.2542  0.1429
  122DPPC   PO4 1454  13.233   1.173  20.734 -0.2048  0.3166  0.2285
  122DPPC   GL1 1455  13.594   0.929  20.805 -0.4234  0.0464 -0.3607
  122DPPC   GL2 1456  13.755   0.978  20.689 -0.1485 -0.1555  0.2328
  122DPPC   C1A 1457  13.779   0.976  21.116  0.1152 -0.1311 -0.0380
  122DPPC   C2A 1458  13.973   1.111  21.438  0.1306 -0.1197 -0.1509
  122DPPC   C3A 1459  14.298   1.171  21.806  0.1420  0.0581 -0.0273
  122DPPC   C4A 1460  14.695   1.157  22.133  0.2170 -0.2500  0.1610
  122DPPC   C1B 1461  14.115   1.038  20.826  0.2321 -0.1066  0.0448
  122DPPC   C2B 1462  14.344   0.985  21.152 -0.0623 -0.0633  0.0376
  122DPPC   C3B 1463  14.663   1.003  21.509 -0.2330 -0.0573  0.2412
  122DPPC   C4B 1464  15.030   1.012  21.746 -0.3114 -0.1566 -0.0356
  123DPPC   NC3 1465  16.400   0.387  16.657  0.1550 -0.1509 -0.4014
  123DPPC   PO4 1466  16.748   0.395  16.829  0.0396 -0.4175  0.1721
  123DPPC   GL1 1467  16.913   0.486  17.155  0.1050  0.5567 -0.1715
  123DPPC   GL2 1468  16.985   0.190  17.169  0.4000 -0.0541 -0.1398
  123DPPC   C1A 1469  16.743   0.416  17.498  0.2989  0.5611  0.1678
  123DPPC   C2A 1470  16.731   0.175  17.833  0.0342  0.0048  0.0783
  123DPPC   C3A 1471  16.751  -0.027  18.245 -0.0106  0.1618 -0.0144
  123DPPC   C4A 1472  16.949  -0.433  18.441  0.0746  0.0465  0.0423
  123DPPC   C1B 1473  16.723  -0.032  17.373  0.3372 -0.1029 -0.2790
  123DPPC   C2B 1474  16.535  -0.285  17.657 -0.2099  0.0010 -0.0211
  123DPPC   C3B 1475  16.647  -0.612  18.038 -0.2076 -0.0076 -0.1079
  123DPPC   C4B 1476  16.868  -1.054  18.219 -0.0838 -0.1783 -0.1042
  124DPPC   NC3 1477  14.572   4.188  19.045 -0.5025  0.4690 -0.1681
  124DPPC   PO4 1478  14.783   4.041  18.741 -0.0277  0.3517 -0.1498
  124DPPC   GL1 1479  15.047   3.893  19.033 -0.1134  0.3708 -0.1069
  124DPPC   GL2 1480  14.803   3.808  19.245 -0.0166  0.0081 -0.0889
  124DPPC   C1A 1481  15.261   4.036  19.261  0.0748 -0.7592  0.1964
  124DPPC   C2A 1482  15.493   4.082  19.680  0.3691 -0.3548  0.1240
  124DPPC   C3A 1483  15.803   4.037  19.996 -0.1978 -0.2467 -0.2153
  124DPPC   C4A 1484  16.166   4.026  20.332  0.0809 -0.1381  0.1100
  124DPPC   C1B 1485  14.861   3.748  19.605 -0.1676 -0.0637 -0.1707
  124DPPC   C2B 1486  15.125   3.774  19.947  0.1009 -0.2990  0.0846
  124DPPC   C3B 1487  15.456   3.753  20.266  0.2510 -0.3063  0.0724
  124DPPC   C4B 1488  15.737   3.699  20.658 -0.1443 -0.0408 -0.0779
  125DPPC   NC3 1489  14.663   4.517  17.750 -0.0213  0.2729 -0.1172
  125DPPC   PO4 1490  15.069   4.491  17.874 -0.1706  0.0819  0.2348
  125DPPC   GL1 1491  15.359   4.329  18.181  0.2821  0.0403 -0.0367
  125DPPC   GL2 1492  15.434   4.640  18.155  0.1892  0.0239 -0.1909
  125DPPC   C1A 1493  15.572   4.131  18.389  0.1297 -0.3494  0.0680
  125DPPC   C2A 1494  15.807   4.153  18.729  0.1084  0.0879 -0.1577
  125DPPC   C3A 1495  16.141   4.211  19.107  0.1814  0.0197  0.0709
  125DPPC   C4A 1496  16.428   4.169  19.469 -0.2513 -0.2375  0.0104
  125DPPC   C1B 1497  15.739   4.782  18.307  0.0798 -0.0533  0.0363
  125DPPC   C2B 1498  16.090   4.947  18.522  0.1195  0.0783  0.1781
  125DPPC   C3B 1499  16.447   4.960  18.850  0.0581 -0.1994  0.2903
  125DPPC   C4B 1500  16.715   4.959  19.202 -0.0958  0.0743  0.0479
  126DPPC   NC3 1501  16.779   1.922  16.770  0.0949 -0.1546 -0.0666
  126DPPC   PO4 1502  17.172   1.869  16.688  0.0759  0.0930 -0.3276
  126DPPC   GL1 1503  17.397   1.656  17.014  0.1629 -0.1376  0.2070
  126DPPC   GL2 1504  17.107   1.417  17.020  0.0104  0.0416 -0.1435
  126DPPC   C1A 1505  17.486   1.820  17.316 -0.3002  0.0568 -0.0478
  126DPPC   C2A 1506  17.760   1.785  17.663  0.2455 -0.1232  0.2362
  126DPPC   C3A 1507  17.933   1.822  18.134 -0.0800 -0.1448  0.2876
  126DPPC   C4A 1508  18.230   1.859  18.495 -0.0154  0.1711 -0.2320
  126DPPC   C1B 1509  17.086   1.177  17.261  0.0188  0.0418  0.0809
  126DPPC   C2B 1510  17.072   0.865  17.537 -0.0048  0.0805  0.2246
  126DPPC   C3B 1511  17.121   0.487  17.820 -0.0503 -0.2702  0.1885
  126DPPC   C4B 1512  17.188   0.214  18.187  0.1892 -0.0343  0.1661
  127DPPC   NC3 1513  14.100   4.930  19.704 -0.0235  0.0383 -0.3976
  127DPPC   PO4 1514  14.154   5.339  19.598  0.2864 -0.0854 -0.0555
  127DPPC   GL1 1515  14.487   5.306  19.753  0.2082  0.2405 -0.0711
  127DPPC   GL2 1516  14.715   5.523  19.710  0.2524 -0.3463  0.2384
  127DPPC   C1A 1517  14.510   5.023  20.018  0.2424 -0.1712  0.0352
  127DPPC   C2A 1518  14.814   4.951  20.294 -0.3929  0.0990  0.0705
  127DPPC   C3A 1519  15.024   4.926  20.738 -0.1992 -0.0205  0.0840
  127DPPC   C4A 1520  15.338   4.929  21.102 -0.1055 -0.2813  0.2570
  127DPPC   C1B 1521  14.925   5.741  19.933 -0.0949 -0.2985  0.1147
  127DPPC   C2B 1522  15.223   5.694  20.237 -0.3126  0.0473  0.5152
  127DPPC   C3B 1523  15.555   5.688  20.575 -0.2119  0.0752 -0.0157
  127DPPC   C4B 1524  15.827   5.641  20.982 -0.0983 -0.0726 -0.0241
  128DPPC   NC3 1525  18.143   5.567  16.022  0.1052  0.0136  0.0516
  128DPPC   PO4 1526  18.498   5.420  16.182  0.2179  0.0694 -0.2570
  128DPPC   GL1 1527  18.487   5.597  16.522  0.1037 -0.1625 -0.3519
  128DPPC   GL2 1528  18.648   5.777  16.571  0.0692  0.0942  0.0995
  128DPPC   C1A 1529  18.270   5.568  16.830  0.1529  0.1555 -0.1181
  128DPPC   C2A 1530  18.025   5.677  17.123  0.1188  0.0009  0.0314
  128DPPC   C3A 1531  17.770   5.881  17.438  0.0445 -0.2180  0.0518
  128DPPC   C4A 1532  17.493   6.104  17.726 -0.0124  0.1793 -0.1753
  128DPPC   C1B 1533  19.017   5.886  16.684 -0.0264 -0.0819  0.2494
  128DPPC   C2B 1534  19.403   5.769  16.685  0.0522  0.1219 -0.0948
  128DPPC   C3B 1535  19.847   5.784  16.576  0.0045 -0.0460 -0.1112
  128DPPC   C4B 1536  20.320   5.826  16.455 -0.0689 -0.1660 -0.1115
  129DPPC   NC3 1537  15.840   5.596  17.358  0.1941 -0.0508  0.0235
  129DPPC   PO4 1538  15.854   5.197  17.426  0.0103  0.0767  0.1260
  129DPPC   GL1 1539  15.774   5.072  17.871 -0.0124 -0.1783  0.1353
  129DPPC   GL2 1540  15.832   4.780  17.872  0.4192  0.1152 -0.2277
  129DPPC   C1A 1541  16.035   5.179  18.051  0.0937 -0.2820  0.1825
  129DPPC   C2A 1542  16.422   5.223  18.203  0.2214 -0.0546 -0.0588
  129DPPC   C3A 1543  16.765   5.243  18.644  0.0538 -0.3043 -0.0708
  129DPPC   C4A 1544  17.128   5.276  19.035  0.0299 -0.0135  0.3059
  129DPPC   C1B 1545  16.119   4.715  18.002 -0.0140  0.0829  0.1894
  129DPPC   C2B 1546  16.438   4.685  18.245  0.2433 -0.3467  0.0902
  129DPPC   C3B 1547  16.848   4.714  18.615 -0.1391 -0.0611 -0.2768
  129DPPC   C4B 1548  17.078   4.727  19.037 -0.2531 -0.0497 -0.1503
  130DPPC   NC3 1549  14.744   2.070  18.557  0.1816  0.1042  0.1132
  130DPPC   PO4 1550  14.596   2.148  18.920 -0.0829  0.2091  0.1300
  130DPPC   GL1 1551  14.824   2.368  19.211 -0.1398 -0.0282  0.1137
  130DPPC   GL2 1552  14.826   2.107  19.263  0.3082  0.1840 -0.1068
  130DPPC   C1A 1553  15.150   2.522  19.298  0.1091  0.4478  0.2031
  130DPPC   C2A 1554  15.483   2.643  19.475 -0.1539  0.1486  0.0698
  130DPPC   C3A 1555  15.863   2.626  19.769  0.0918  0.2752 -0.2677
  130DPPC   C4A 1556  16.240   2.596  20.147  0.1065 -0.0180 -0.0610
  130DPPC   C1B 1557  15.134   1.879  19.382  0.1868 -0.3021 -0.1175
  130DPPC   C2B 1558  15.381   1.784  19.710  0.3448 -0.0896  0.1094
  130DPPC   C3B 1559  15.736   1.665  20.085 -0.3619 -0.4414  0.0235
  130DPPC   C4B 1560  16.046   1.730  20.447  0.0087 -0.1679 -0.2103
  131DPPC   NC3 1561  17.133   5.470  16.372  0.0585  0.0829  0.1831
  131DPPC   PO4 1562  17.142   5.508  16.777  0.0845 -0.1628  0.3185
  131DPPC   GL1 1563  17.534   5.493  17.031  0.2808 -0.1419  0.1412
  131DPPC   GL2 1564  17.656   5.361  16.942  0.3178 -0.0103 -0.3264
  131DPPC   C1A 1565  17.438   5.570  17.426  0.0747 -0.1022  0.3624
  131DPPC   C2A 1566  17.529   5.549  17.800 -0.1890  0.0935 -0.0918
  131DPPC   C3A 1567  17.387   5.247  18.182 -0.0590  0.2190  0.2339
  131DPPC   C4A 1568  17.218   5.018  18.579 -0.0387  0.0784  0.1025
  131DPPC   C1B 1569  17.724   5.189  17.258 -0.1956  0.0203  0.0704
  131DPPC   C2B 1570  17.601   4.974  17.575 -0.2028 -0.0667 -0.2125
  131DPPC   C3B 1571  17.364   4.784  17.974 -0.3826  0.0517 -0.0019
  131DPPC   C4B 1572  17.272   4.497  18.415  0.0173 -0.0133 -0.1836
  132DPPC   NC3 1573  14.039   2.656  19.645  0.1776 -0.1889  0.0111
  132DPPC   PO4 1574  14.069   2.912  19.938 -0.1653 -0.0229  0.3915
  132DPPC   GL1 1575  14.125   3.080  20.403  0.3913  0.1821 -0.3002
  132DPPC   GL2 1576  14.351   3.207  20.209  0.2793  0.1379 -0.1105
  132DPPC   C1A 1577  14.326   2.912  20.698  0.1259  0.2337  0.0177
  132DPPC   C2A 1578  14.540   2.825  21.051  0.2088 -0.1830  0.1195
  132DPPC   C3A 1579  14.913   2.756  21.357  0.0636 -0.0590 -0.1195
  132DPPC   C4A 1580  15.183   2.743  21.746  0.0495  0.0676 -0.0870
  132DPPC   C1B 1581  14.610   3.178  20.399  0.3091  0.2466  0.0369
  132DPPC   C2B 1582  14.852   3.168  20.721 -0.3776 -0.0470 -0.4001
  132DPPC   C3B 1583  15.165   3.147  21.127 -0.3238 -0.1650 -0.0097
  132DPPC   C4B 1584  15.509   3.080  21.519 -0.0396  0.0897  0.1048
  133DPPC   NC3 1585  14.553   6.423  18.961  0.2046 -0.0382 -0.2768
  133DPPC   PO4 1586  14.662   6.059  18.905 -0.1890 -0.0768  0.0491
  133DPPC   GL1 1587  14.895   5.919  19.229 -0.1565 -0.0413  0.2242
  133DPPC   GL2 1588  14.987   6.197  19.204 -0.1044 -0.1113  0.3121
  133DPPC   C1A 1589  15.047   6.000  19.569  0.4698 -0.1302 -0.0243
  133DPPC   C2A 1590  15.333   6.019  19.884  0.0557 -0.3488 -0.0169
  133DPPC   C3A 1591  15.664   6.059  20.183  0.0006 -0.1801  0.1423
  133DPPC   C4A 1592  15.967   6.079  20.584  0.4519  0.4559 -0.0234
  133DPPC   C1B 1593  15.341   6.271  19.294 -0.1000  0.2283 -0.0740
  133DPPC   C2B 1594  15.644   6.295  19.615 -0.1367 -0.0816  0.3261
  133DPPC   C3B 1595  15.939   6.401  19.976 -0.2074  0.2072 -0.2457
  133DPPC   C4B 1596  16.269   6.352  20.363 -0.1427  0.1857  0.0378
  134DPPC   NC3 1597  14.550   1.883  17.989 -0.0535 -0.0967  0.1956
  134DPPC   PO4 1598  14.656   1.622  18.304 -0.0102  0.3764 -0.2002
  134DPPC   GL1 1599  15.068   1.418  18.465 -0.3679  0.0417 -0.1984
  134DPPC   GL2 1600  15.080   1.702  18.584  0.3612  0.0709  0.2506
  134DPPC   C1A 1601  15.136   1.185  18.666 -0.0903  0.2162  0.1586
  134DPPC   C2A 1602  15.391   1.150  18.979  0.1290  0.0747 -0.3220
  134DPPC   C3A 1603  15.684   1.045  19.376 -0.3348 -0.1823 -0.1691
  134DPPC   C4A 1604  16.046   0.963  19.757 -0.0096 -0.0500 -0.3089
  134DPPC   C1B 1605  15.365   1.833  18.754  0.1462 -0.4101  0.1612
  134DPPC   C2B 1606  15.727   1.951  18.905  0.0232  0.0302  0.0348
  134DPPC   C3B 1607  16.043   1.913  19.244  0.1656  0.3295  0.2011
  134DPPC   C4B 1608  16.384   1.867  19.597  0.0194  0.2989 -0.0600
  135DPPC   NC3 1609   0.848   0.816  16.067  0.1388 -0.1090  0.1087
  135DPPC   PO4 1610   0.542   0.889  15.830  0.2882 -0.1017  0.2156
  135DPPC   GL1 1611   0.221   0.853  16.080 -0.0550 -0.0512 -0.1244
  135DPPC   GL2 1612   0.324   0.596  16.213  0.1176 -0.3096 -0.2807
  135DPPC   C1A 1613   0.077   0.900  16.400  0.1678 -0.0204 -0.1832
  135DPPC   C2A 1614  -0.105   1.130  16.707 -0.3181 -0.0934 -0.3353
  135DPPC   C3A 1615  -0.370   1.415  17.056 -0.0723  0.0792  0.0913
  135DPPC   C4A 1616  -0.618   1.686  17.390  0.2304 -0.3454 -0.0059
  135DPPC   C1B 1617   0.243   0.535  16.627 -0.1260 -0.0328  0.2605
  135DPPC   C2B 1618   0.049   0.610  16.979  0.2623 -0.0309  0.0248
  135DPPC   C3B 1619  -0.198   0.724  17.378 -0.0737 -0.0218  0.1443
  135DPPC   C4B 1620  -0.565   0.760  17.715  0.3471 -0.0757 -0.3892
  136DPPC   NC3 1621  13.456   5.888  20.704 -0.3208  0.1332  0.1802
  136DPPC   PO4 1622  13.397   6.148  20.988  0.1903  0.0447 -0.1634
  136DPPC   GL1 1623  13.636   6.166  21.307 -0.0246 -0.2634  0.1187
  136DPPC   GL2 1624  13.550   6.434  21.398 -0.4203 -0.2673  0.1021
  136DPPC   C1A 1625  13.945   6.046  21.541 -0.0292  0.0394 -0.1569
  136DPPC   C2A 1626  14.231   5.993  21.844  0.1025 -0.0340  0.0332
  136DPPC   C3A 1627  14.543   5.976  22.266 -0.0073  0.0725  0.0418
  136DPPC   C4A 1628  14.843   5.984  22.673 -0.2756  0.2356 -0.0871
  136DPPC   C1B 1629  13.605   6.326  21.741  0.0815  0.1640 -0.2117
  136DPPC   C2B 1630  13.677   6.167  22.077 -0.1604 -0.4669 -0.4004
  136DPPC   C3B 1631  14.008   6.136  22.451  0.4038 -0.1972 -0.1393
  136DPPC   C4B 1632  14.308   6.120  22.803  0.3981 -0.1433  0.1098
  137DPPC   NC3 1633  15.095   0.476  18.018  0.1591 -0.2266  0.0044
  137DPPC   PO4 1634  15.406   0.697  17.901 -0.1600  0.1670 -0.1086
  137DPPC   GL1 1635  15.687   0.680  18.127  0.0474  0.0498 -0.0910
  137DPPC   GL2 1636  15.528   0.506  18.360  0.0205  0.3843 -0.3756
  137DPPC   C1A 1637  16.022   0.818  18.095  0.0789 -0.2451  0.2934
  137DPPC   C2A 1638  16.396   0.874  18.242  0.0247 -0.1934 -0.0291
  137DPPC   C3A 1639  16.752   0.987  18.525 -0.3443  0.2320  0.0673
  137DPPC   C4A 1640  17.104   0.948  18.934  0.0337  0.0833 -0.1344
  137DPPC   C1B 1641  15.742   0.492  18.646  0.0990  0.1218  0.0219
  137DPPC   C2B 1642  15.968   0.447  18.971  0.0373 -0.0506 -0.0874
  137DPPC   C3B 1643  16.344   0.411  19.238 -0.0472 -0.0886 -0.0389
  137DPPC   C4B 1644  16.694   0.317  19.509 -0.1590  0.2839 -0.2072
  138DPPC   NC3 1645   1.165   5.809  16.034  0.0956 -0.1270 -0.0487
  138DPPC   PO4 1646   1.286   6.021  16.350 -0.1107 -0.0539 -0.0263
  138DPPC   GL1 1647   1.198   6.100  16.731 -0.1869 -0.3105 -0.4154
  138DPPC   GL2 1648   1.439   5.923  16.846  0.0872 -0.2396 -0.3212
  138DPPC   C1A 1649   0.930   5.976  16.931 -0.3068  0.1010 -0.1155
  138DPPC   C2A 1650   0.963   5.881  17.342 -0.1192  0.1547  0.1196
  138DPPC   C3A 1651   1.223   5.758  17.740 -0.1908  0.2381 -0.0699
  138DPPC   C4A 1652   1.067   5.631  18.203  0.1319 -0.1762 -0.0213
  138DPPC   C1B 1653   1.436   6.056  17.195  0.2021 -0.2819  0.1542
  138DPPC   C2B 1654   1.370   6.269  17.525 -0.0544  0.1010  0.1245
  138DPPC   C3B 1655   1.148   6.185  17.959 -0.2023  0.1920  0.0450
  138DPPC   C4B 1656   0.821   6.272  18.244  0.1398  0.0543  0.1980
  139DPPC   NC3 1657  12.689   4.578  21.626  0.0080 -0.2880  0.1415
  139DPPC   PO4 1658  12.743   4.889  21.379 -0.4396  0.3751 -0.0662
  139DPPC   GL1 1659  13.131   4.902  21.414  0.0609  0.1786  0.1564
  139DPPC   GL2 1660  13.164   4.662  21.627 -0.1079  0.0227 -0.0919
  139DPPC   C1A 1661  13.405   4.988  21.701  0.1802  0.4022  0.0537
  139DPPC   C2A 1662  13.687   5.157  21.886 -0.1069 -0.0518 -0.1353
  139DPPC   C3A 1663  14.041   5.115  22.192 -0.1568 -0.1794  0.2467
  139DPPC   C4A 1664  14.338   5.125  22.590  0.2697  0.0464 -0.1395
  139DPPC   C1B 1665  13.532   4.544  21.753  0.0692  0.1573  0.2086
  139DPPC   C2B 1666  13.813   4.658  22.029 -0.3306 -0.0613 -0.1229
  139DPPC   C3B 1667  14.204   4.667  22.291 -0.4295 -0.1601  0.2141
  139DPPC   C4B 1668  14.457   4.669  22.759  0.0650  0.2888 -0.0288
  140DPPC   NC3 1669   2.144   6.420  16.774 -0.2894  0.1908 -0.0158
  140DPPC   PO4 1670   2.368   6.608  17.051  0.0538 -0.2118  0.1123
  140DPPC   GL1 1671   2.100   6.800  17.248 -0.5138  0.0117  0.0791
  140DPPC   GL2 1672   2.348   6.732  17.445 -0.1786  0.0234 -0.1839
  140DPPC   C1A 1673   1.790   6.800  17.511  0.1664  0.2231 -0.3170
  140DPPC   C2A 1674   1.551   6.668  17.894  0.0391 -0.1412 -0.1982
  140DPPC   C3A 1675   1.277   6.674  18.308 -0.3459 -0.1791  0.1920
  140DPPC   C4A 1676   0.973   6.607  18.676 -0.2011  0.1341 -0.3235
  140DPPC   C1B 1677   2.165   6.669  17.754  0.1277  0.1828 -0.0882
  140DPPC   C2B 1678   2.141   6.362  18.029  0.3983  0.0153  0.0972
  140DPPC   C3B 1679   1.850   6.473  18.385 -0.0514 -0.3281  0.0302
  140DPPC   C4B 1680   1.475   6.410  18.693 -0.0522  0.1768  0.1870
  141DPPC   NC3 1681  13.136   6.510  21.277  0.1152 -0.0523  0.0017
  141DPPC   PO4 1682  13.157   6.787  21.539 -0.1233 -0.1225  0.2058
  141DPPC   GL1 1683  13.467   7.042  21.433  0.0829 -0.2788  0.3428
  141DPPC   GL2 1684  13.602   6.905  21.502 -0.1885 -0.2588 -0.1613
  141DPPC   C1A 1685  13.669   7.343  21.558  0.0918  0.0256 -0.4929
  141DPPC   C2A 1686  13.895   7.441  21.900 -0.0076 -0.0538  0.2518
  141DPPC   C3A 1687  14.275   7.429  22.216  0.0563 -0.4423 -0.5946
  141DPPC   C4A 1688  14.572   7.470  22.636  0.0814 -0.1800  0.3287
  141DPPC   C1B 1689  13.862   6.934  21.766 -0.0673 -0.1642 -0.0065
  141DPPC   C2B 1690  14.153   6.985  22.016  0.0839  0.1923  0.1300
  141DPPC   C3B 1691  14.474   6.979  22.312 -0.1760  0.2504  0.0704
  141DPPC   C4B 1692  14.767   7.008  22.683 -0.1411 -0.0427 -0.1057
  142DPPC   NC3 1693  12.971   3.959  20.704  0.3036 -0.2543 -0.3134
  142DPPC   PO4 1694  13.222   4.095  20.941 -0.3155  0.0420  0.2185
  142DPPC   GL1 1695  13.532   4.041  20.950  0.0406  0.1521  0.0553
  142DPPC   GL2 1696  13.719   4.139  20.738  0.1367 -0.0773 -0.1291
  142DPPC   C1A 1697  13.649   3.836  21.234  0.1375 -0.1141  0.0850
  142DPPC   C2A 1698  13.742   3.725  21.594  0.1992  0.0941  0.1592
  142DPPC   C3A 1699  14.032   3.628  21.970 -0.2148 -0.2791  0.2755
  142DPPC   C4A 1700  14.384   3.651  22.327 -0.1089 -0.1008 -0.1151
  142DPPC   C1B 1701  14.038   4.254  20.785  0.0776  0.1237  0.0016
  142DPPC   C2B 1702  14.295   4.326  21.047  0.0197  0.1537 -0.0495
  142DPPC   C3B 1703  14.591   4.292  21.359  0.0281  0.0887 -0.1908
  142DPPC   C4B 1704  14.859   4.280  21.740 -0.3198  0.0906 -0.0520
  143DPPC   NC3 1705  14.658   1.178  18.429 -0.1537 -0.1727  0.0056
  143DPPC   PO4 1706  14.756   0.807  18.506  0.0770 -0.2950  0.0191
  143DPPC   GL1 1707  14.927   0.900  18.928 -0.1818 -0.1952 -0.1788
  143DPPC   GL2 1708  14.864   0.693  19.045  0.3203 -0.2359 -0.1250
  143DPPC   C1A 1709  14.979   1.166  19.200 -0.4103 -0.0500 -0.0085
  143DPPC   C2A 1710  15.219   1.185  19.524 -0.1105 -0.0976  0.1303
  143DPPC   C3A 1711  15.545   1.195  19.900 -0.0899 -0.1439  0.0288
  143DPPC   C4A 1712  15.886   1.223  20.224  0.3538 -0.0262  0.1592
  143DPPC   C1B 1713  15.058   0.773  19.376 -0.0604 -0.2672 -0.0331
  143DPPC   C2B 1714  15.277   0.684  19.654 -0.2292  0.0613  0.0721
  143DPPC   C3B 1715  15.655   0.662  20.011  0.0802  0.1725  0.3172
  143DPPC   C4B 1716  15.973   0.733  20.319 -0.0428  0.0124 -0.4354
  144DPPC   NC3 1717  13.933   1.189  19.739  0.2449 -0.2937 -0.1121
  144DPPC   PO4 1718  14.194   1.497  19.663  0.1819 -0.2868  0.0401
  144DPPC   GL1 1719  14.535   1.653  19.819 -0.0586 -0.1144  0.3633
  144DPPC   GL2 1720  14.658   1.807  19.654  0.0478 -0.0840 -0.1388
  144DPPC   C1A 1721  14.597   1.531  20.121  0.2092 -0.3841 -0.0784
  144DPPC   C2A 1722  14.831   1.614  20.465 -0.0486 -0.1423  0.1317
  144DPPC   C3A 1723  15.223   1.635  20.847  0.3171 -0.2987  0.1898
  144DPPC   C4A 1724  15.506   1.729  21.226  0.0967  0.1291 -0.1433
  144DPPC   C1B 1725  14.937   1.906  19.880 -0.2119 -0.0118 -0.1103
  144DPPC   C2B 1726  15.219   1.937  20.173 -0.2106  0.2999 -0.2461
  144DPPC   C3B 1727  15.555   1.927  20.497  0.0319 -0.1297  0.1724
  144DPPC   C4B 1728  15.930   1.838  20.933 -0.1341 -0.0374  0.2196
  145DPPC   NC3 1729  18.211   2.172  15.979  0.0992 -0.2331  0.0232
  145DPPC   PO4 1730  18.420   1.918  15.828  0.0757  0.1365 -0.0933
  145DPPC   GL1 1731  18.622   1.726  16.143  0.2733  0.2991 -0.1799
  145DPPC   GL2 1732  18.492   1.986  16.338 -0.2128  0.1788 -0.4013
  145DPPC   C1A 1733  18.702   1.495  16.410  0.0043 -0.0718 -0.5802
  145DPPC   C2A 1734  18.893   1.291  16.687  0.1890 -0.0409 -0.0462
  145DPPC   C3A 1735  19.100   1.301  17.162  0.0511 -0.2502 -0.2574
  145DPPC   C4A 1736  19.336   1.360  17.633 -0.1199 -0.0473 -0.1723
  145DPPC   C1B 1737  18.601   1.884  16.661 -0.2310 -0.4732 -0.0863
  145DPPC   C2B 1738  18.890   1.815  16.957 -0.0787 -0.5097 -0.2045
  145DPPC   C3B 1739  19.122   1.858  17.370 -0.1137 -0.1600 -0.0586
  145DPPC   C4B 1740  19.388   1.851  17.804 -0.4524  0.2264  0.1067
  146DPPC   NC3 1741   2.002   3.390  16.711 -0.0823  0.0244 -0.1408
  146DPPC   PO4 1742   1.850   3.012  16.632 -0.0802  0.0573 -0.0713
  146DPPC   GL1 1743   1.443   2.939  16.774  0.0442 -0.1688  0.0944
  146DPPC   GL2 1744   1.433   2.625  16.683  0.7209 -0.0861 -0.1266
  146DPPC   C1A 1745   1.200   3.188  16.803  0.0386 -0.0428  0.0072
  146DPPC   C2A 1746   1.161   3.622  16.898 -0.0314  0.0457 -0.0167
  146DPPC   C3A 1747   0.939   4.071  16.951 -0.2375  0.0192  0.1357
  146DPPC   C4A 1748   1.226   4.522  16.904  0.0549  0.1776 -0.3886
  146DPPC   C1B 1749   1.185   2.356  16.780  0.1621 -0.0468  0.1415
  146DPPC   C2B 1750   0.912   2.084  16.953  0.2441  0.0732 -0.0466
  146DPPC   C3B 1751   0.662   1.723  17.114  0.1007  0.1899  0.0435
  146DPPC   C4B 1752   0.386   1.505  17.458 -0.4887  0.0835  0.2014
  147DPPC   NC3 1753  16.021   6.388  17.465  0.0117 -0.1694 -0.5226
  147DPPC   PO4 1754  15.762   6.118  17.421 -0.1096 -0.0130  0.0902
  147DPPC   GL1 1755  15.800   5.909  17.801  0.5391 -0.1265  0.5990
  147DPPC   GL2 1756  15.935   6.131  17.848 -0.3257 -0.0342  0.2209
  147DPPC   C1A 1757  15.903   5.749  18.102  0.5256  0.1076 -0.0542
  147DPPC   C2A 1758  16.237   5.725  18.316 -0.0301 -0.0758  0.0832
  147DPPC   C3A 1759  16.622   5.764  18.671  0.2079 -0.2833  0.0178
  147DPPC   C4A 1760  17.012   5.837  18.976 -0.0201  0.3154  0.0648
  147DPPC   C1B 1761  16.239   6.124  18.099  0.0063  0.0868  0.3785
  147DPPC   C2B 1762  16.407   6.239  18.470 -0.0178  0.0138  0.3395
  147DPPC   C3B 1763  16.733   6.288  18.848  0.2796 -0.2814  0.0618
  147DPPC   C4B 1764  17.032   6.311  19.283 -0.2319 -0.0614  0.1128
  148DPPC   NC3 1765  14.872   6.057  17.827  0.1921  0.2153  0.0508
  148DPPC   PO4 1766  15.067   5.857  18.106 -0.1954 -0.2705  0.0206
  148DPPC   GL1 1767  15.436   5.976  18.214  0.0620  0.2199 -0.1542
  148DPPC   GL2 1768  15.449   5.684  18.200  0.1898 -0.2241 -0.2728
  148DPPC   C1A 1769  15.511   6.148  18.545 -0.0247  0.1222  0.2542
  148DPPC   C2A 1770  15.676   6.103  18.912 -0.1387  0.1363  0.0770
  148DPPC   C3A 1771  15.955   6.120  19.252  0.0856 -0.0972  0.1404
  148DPPC   C4A 1772  16.217   6.167  19.629  0.1916  0.0414  0.2093
  148DPPC   C1B 1773  15.630   5.710  18.521  0.1308 -0.3814 -0.3695
  148DPPC   C2B 1774  15.690   5.537  18.831 -0.0994 -0.0025  0.1944
  148DPPC   C3B 1775  16.001   5.594  19.223 -0.0955 -0.0219  0.0689
  148DPPC   C4B 1776  16.331   5.681  19.572  0.5024 -0.1357 -0.1409
  149DPPC   NC3 1777  14.454   5.619  19.316 -0.0945  0.0784  0.2182
  149DPPC   PO4 1778  14.337   5.821  19.647  0.1289  0.0436 -0.0373
  149DPPC   GL1 1779  14.394   5.616  20.044 -0.1453  0.3049  0.1752
  149DPPC   GL2 1780  14.294   5.750  20.245 -0.2900  0.0711  0.0557
  149DPPC   C1A 1781  14.651   5.505  20.253 -0.0848  0.1428 -0.1329
  149DPPC   C2A 1782  14.918   5.404  20.533 -0.1192  0.0723  0.2304
  149DPPC   C3A 1783  15.213   5.364  20.932  0.1780 -0.2367 -0.0837
  149DPPC   C4A 1784  15.535   5.311  21.303  0.1421  0.4575  0.0428
  149DPPC   C1B 1785  14.643   5.939  20.383 -0.4011 -0.0932  0.3480
  149DPPC   C2B 1786  14.959   5.862  20.681 -0.1601  0.1094  0.1918
  149DPPC   C3B 1787  15.287   5.895  21.041  0.2147  0.0889  0.0277
  149DPPC   C4B 1788  15.604   5.882  21.472  0.0268  0.0083 -0.0924
  150DPPC   NC3 1789  15.862   0.721  17.268 -0.0620  0.1045  0.0468
  150DPPC   PO4 1790  15.717   0.495  17.543  0.0219 -0.0049 -0.2271
  150DPPC   GL1 1791  16.048   0.486  17.835  0.4367 -0.1569  0.2691
  150DPPC   GL2 1792  16.220   0.705  17.643 -0.1183  0.2020 -0.2395
  150DPPC   C1A 1793  16.373   0.381  17.990 -0.2853 -0.2150 -0.0728
  150DPPC   C2A 1794  16.725   0.491  18.285 -0.2347  0.1383  0.2463
  150DPPC   C3A 1795  17.046   0.512  18.696  0.1816 -0.2729 -0.1050
  150DPPC   C4A 1796  17.282   0.513  19.142  0.1801  0.0062  0.2175
  150DPPC   C1B 1797  16.526   0.693  17.789 -0.0658  0.0371 -0.1327
  150DPPC   C2B 1798  16.825   0.872  17.937  0.0238 -0.2524 -0.5320
  150DPPC   C3B 1799  17.052   1.244  18.128  0.0755  0.0145 -0.0054
  150DPPC   C4B 1800  17.321   1.221  18.553 -0.0702 -0.2181  0.4981
  151DPPC   NC3 1801  20.403   3.210  15.132 -0.0337  0.3618  0.5125
  151DPPC   PO4 1802  20.361   3.427  15.432 -0.1318 -0.1888  0.3716
  151DPPC   GL1 1803  20.521   3.333  15.790 -0.3232 -0.1719  0.1463
  151DPPC   GL2 1804  20.494   3.150  15.899  0.1168  0.3888 -0.0988
  151DPPC   C1A 1805  20.621   3.479  16.152 -0.0419 -0.0524 -0.0443
  151DPPC   C2A 1806  20.645   3.647  16.531  0.0802 -0.1864 -0.4175
  151DPPC   C3A 1807  20.770   3.851  16.938 -0.1670 -0.0114 -0.0354
  151DPPC   C4A 1808  20.836   4.040  17.360  0.0614  0.1689 -0.0410
  151DPPC   C1B 1809  20.251   3.157  16.186  0.1635  0.3367  0.2120
  151DPPC   C2B 1810  20.171   3.364  16.466 -0.3885  0.2128 -0.0190
  151DPPC   C3B 1811  20.119   3.752  16.686 -0.0560  0.1189 -0.0097
  151DPPC   C4B 1812  20.275   4.100  16.872  0.1379 -0.2519 -0.1361
  152DPPC   NC3 1813   0.009   0.463  15.812 -0.0475 -0.1290  0.1104
  152DPPC   PO4 1814  -0.363   0.691  15.864 -0.0446 -0.0443  0.2540
  152DPPC   GL1 1815  -0.539   0.450  16.233  0.3203 -0.1904 -0.1514
  152DPPC   GL2 1816  -0.222   0.527  16.366 -0.0885  0.0099  0.0436
  152DPPC   C1A 1817  -0.746   0.427  16.551  0.2784 -0.2327 -0.1360
  152DPPC   C2A 1818  -1.024   0.533  16.833  0.1012  0.0600  0.1449
  152DPPC   C3A 1819  -1.250   0.510  17.227 -0.3223  0.2087 -0.0160
  152DPPC   C4A 1820  -1.592   0.337  17.562 -0.0535 -0.0359 -0.1475
  152DPPC   C1B 1821  -0.348   0.859  16.497 -0.0901 -0.0496  0.0836
  152DPPC   C2B 1822  -0.604   1.130  16.698  0.0914  0.1067 -0.1150
  152DPPC   C3B 1823  -0.804   1.561  16.790  0.0369  0.1866 -0.2473
  152DPPC   C4B 1824  -1.270   1.629  16.805  0.0037 -0.4064  0.3607
  153DPPC   NC3 1825  15.149   5.370  18.389 -0.0802 -0.1196 -0.1189
  153DPPC   PO4 1826  14.856   5.607  18.575 -0.0683 -0.2985 -0.2239
  153DPPC   GL1 1827  15.012   5.595  18.875  0.2468  0.0405  0.4232
  153DPPC   GL2 1828  14.870   5.460  19.065 -0.1653 -0.0072  0.1798
  153DPPC   C1A 1829  15.303   5.660  19.004  0.2173 -0.1550 -0.2556
  153DPPC   C2A 1830  15.531   5.784  19.330 -0.2334  0.2279  0.0653
  153DPPC   C3A 1831  15.851   5.860  19.727  0.0847  0.0945 -0.1427
  153DPPC   C4A 1832  16.148   5.959  20.114  0.1509  0.1052 -0.0042
  153DPPC   C1B 1833  15.071   5.504  19.401  0.0178  0.1196  0.2180
  153DPPC   C2B 1834  15.391   5.537  19.711  0.1373  0.1243  0.1126
  153DPPC   C3B 1835  15.701   5.598  20.103 -0.0422  0.0486 -0.1604
  153DPPC   C4B 1836  16.003   5.570  20.471  0.3237  0.0389 -0.1431
  154DPPC   NC3 1837  15.187   3.754  17.936 -0.1440 -0.0386  0.2416
  154DPPC   PO4 1838  15.046   3.958  18.201 -0.1204  0.0926 -0.0913
  154DPPC   GL1 1839  15.193   3.904  18.598  0.0347 -0.1771  0.0897
  154DPPC   GL2 1840  15.181   4.221  18.670 -0.1782 -0.0843 -0.2315
  154DPPC   C1A 1841  15.411   3.727  18.833 -0.0952  0.0117  0.1259
  154DPPC   C2A 1842  15.708   3.832  19.112  0.1532  0.2088 -0.1482
  154DPPC   C3A 1843  15.969   3.876  19.511 -0.0717 -0.2759 -0.2392
  154DPPC   C4A 1844  16.322   3.826  19.867  0.0575 -0.0097 -0.2707
  154DPPC   C1B 1845  15.423   4.336  18.927 -0.1020  0.3086 -0.0918
  154DPPC   C2B 1846  15.679   4.332  19.291 -0.1271  0.1627 -0.0945
  154DPPC   C3B 1847  15.934   4.390  19.602  0.0180 -0.1787  0.1816
  154DPPC   C4B 1848  16.240   4.378  19.958  0.0653  0.0247  0.2926
  155DPPC   NC3 1849  13.414   2.256  20.886 -0.0474 -0.1369  0.2179
  155DPPC   PO4 1850  13.195   2.030  21.135  0.3581 -0.2268  0.0536
  155DPPC   GL1 1851  13.246   2.115  21.521 -0.4139 -0.0749  0.1249
  155DPPC   GL2 1852  13.242   1.821  21.599  0.1462 -0.2091 -0.1603
  155DPPC   C1A 1853  13.463   2.273  21.722 -0.2163 -0.1439 -0.1103
  155DPPC   C2A 1854  13.817   2.377  21.980  0.2038  0.1525 -0.2138
  155DPPC   C3A 1855  14.113   2.355  22.359 -0.0692  0.0989 -0.1445
  155DPPC   C4A 1856  14.398   2.341  22.747  0.2261  0.2576  0.1356
  155DPPC   C1B 1857  13.432   1.573  21.717 -0.0048  0.1827  0.0098
  155DPPC   C2B 1858  13.761   1.363  21.837  0.0609  0.1272  0.1771
  155DPPC   C3B 1859  14.092   1.329  22.208 -0.3336  0.3134 -0.2003
  155DPPC   C4B 1860  14.409   1.326  22.554  0.0096  0.2604 -0.0695
  156DPPC   NC3 1861  18.847   4.082  16.264 -0.0619 -0.1283  0.0349
  156DPPC   PO4 1862  18.848   3.714  16.264  0.0021  0.2129  0.1280
  156DPPC   GL1 1863  18.880   3.731  16.664  0.2480 -0.1301 -0.2424
  156DPPC   GL2 1864  18.654   3.929  16.725 -0.3041  0.2324 -0.1574
  156DPPC   C1A 1865  19.087   3.641  17.008 -0.2357 -0.0538  0.2111
  156DPPC   C2A 1866  19.375   3.551  17.303  0.0569  0.0419 -0.0715
  156DPPC   C3A 1867  19.627   3.687  17.705  0.1596  0.1245 -0.0093
  156DPPC   C4A 1868  19.956   3.810  18.103  0.2609  0.3150  0.2019
  156DPPC   C1B 1869  18.826   4.257  16.738  0.0058  0.3514  0.3026
  156DPPC   C2B 1870  18.768   4.686  16.801 -0.3137 -0.2426 -0.0303
  156DPPC   C3B 1871  18.853   5.110  16.929 -0.0149  0.4628 -0.2546
  156DPPC   C4B 1872  18.993   5.544  17.016  0.0690  0.0280 -0.1167
  157DPPC   NC3 1873  13.343   0.117  20.187  0.1368 -0.2710 -0.0638
  157DPPC   PO4 1874  13.578   0.355  20.045 -0.1284  0.1913 -0.1420
  157DPPC   GL1 1875  13.853   0.519  20.381  0.0634  0.2189  0.2421
  157DPPC   GL2 1876  14.083   0.340  20.209 -0.2197 -0.0385 -0.1226
  157DPPC   C1A 1877  14.159   0.698  20.500  0.1260  0.1974  0.1939
  157DPPC   C2A 1878  14.504   0.822  20.667 -0.2316  0.0571 -0.1226
  157DPPC   C3A 1879  14.855   0.871  21.027  0.1637  0.0007  0.1329
  157DPPC   C4A 1880  15.224   0.832  21.320  0.1763 -0.0580 -0.3007
  157DPPC   C1B 1881  14.418   0.247  20.412  0.0386  0.1760  0.1689
  157DPPC   C2B 1882  14.759   0.331  20.614  0.2105 -0.1324  0.1117
  157DPPC   C3B 1883  15.008   0.335  21.005 -0.4750  0.0382 -0.2669
  157DPPC   C4B 1884  15.350   0.326  21.369 -0.1056  0.1387  0.1641
  158DPPC   NC3 1885  16.675   3.626  16.706 -0.0256  0.2114  0.0001
  158DPPC   PO4 1886  16.943   3.376  16.869  0.2204  0.0397  0.0227
  158DPPC   GL1 1887  16.709   3.284  17.217 -0.1162  0.1178 -0.0309
  158DPPC   GL2 1888  16.638   3.571  17.244 -0.5493  0.3188  0.4424
  158DPPC   C1A 1889  16.634   3.022  17.462  0.0868  0.3329  0.1406
  158DPPC   C2A 1890  16.487   2.699  17.718  0.2493  0.0850  0.0648
  158DPPC   C3A 1891  16.599   2.248  17.765  0.2312  0.0578 -0.4192
  158DPPC   C4A 1892  16.583   1.790  17.639 -0.0224  0.1364 -0.4282
  158DPPC   C1B 1893  16.705   3.788  17.542  0.2590  0.1731  0.0192
  158DPPC   C2B 1894  16.751   4.140  17.727 -0.1242 -0.2397  0.2935
  158DPPC   C3B 1895  16.898   4.507  18.002  0.1828 -0.1808 -0.1650
  158DPPC   C4B 1896  16.896   4.993  18.184 -0.6098  0.2606  0.2016
  159DPPC   NC3 1897  12.898   3.407  20.797  0.0707 -0.2402  0.3002
  159DPPC   PO4 1898  12.862   3.449  21.165 -0.0609  0.0099 -0.1034
  159DPPC   GL1 1899  13.193   3.729  21.265 -0.1940  0.2169  0.1557
  159DPPC   GL2 1900  13.308   3.633  21.055 -0.0363  0.4011 -0.5159
  159DPPC   C1A 1901  13.301   3.778  21.601 -0.2221  0.0142  0.0043
  159DPPC   C2A 1902  13.447   3.834  21.960  0.2548 -0.0321 -0.1437
  159DPPC   C3A 1903  13.708   3.872  22.350 -0.0802  0.1143  0.1214
  159DPPC   C4A 1904  14.029   3.884  22.688 -0.0065  0.1299 -0.1095
  159DPPC   C1B 1905  13.519   3.396  21.326  0.0306  0.1541 -0.1274
  159DPPC   C2B 1906  13.786   3.199  21.602 -0.0113  0.1007  0.0390
  159DPPC   C3B 1907  14.173   3.194  21.931  0.2121  0.0713 -0.1209
  159DPPC   C4B 1908  14.495   3.173  22.322 -0.3195 -0.0558  0.1871
  160DPPC   NC3 1909  14.509   2.822  18.335  0.2335 -0.2942 -0.0316
  160DPPC   PO4 1910  14.696   2.592  18.609  0.0545 -0.0772 -0.1132
  160DPPC   GL1 1911  15.118   2.594  18.707  0.2234 -0.1433 -0.2515
  160DPPC   GL2 1912  15.040   2.336  18.849  0.1068 -0.0021  0.1037
  160DPPC   C1A 1913  15.260   2.813  19.006 -0.4043  0.1087  0.0854
  160DPPC   C2A 1914  15.338   3.102  19.333 -0.1073 -0.1132 -0.2333
  160DPPC   C3A 1915  15.708   3.091  19.686  0.1459 -0.1397 -0.2182
  160DPPC   C4A 1916  16.028   3.095  20.017 -0.2361 -0.1069  0.0310
  160DPPC   C1B 1917  15.293   2.214  19.054 -0.1372  0.3394 -0.0933
  160DPPC   C2B 1918  15.529   2.145  19.366 -0.1139  0.1377  0.0418
  160DPPC   C3B 1919  15.833   2.030  19.666  0.0401 -0.1103 -0.0349
  160DPPC   C4B 1920  16.132   2.009  20.008  0.1820 -0.0778  0.0944
  161DPPC   NC3 1921  14.553   2.723  19.051  0.3740  0.3555 -0.0124
  161DPPC   PO4 1922  14.210   2.850  19.226  0.0270 -0.0957  0.1779
  161DPPC   GL1 1923  14.381   3.018  19.581  0.1737  0.2728 -0.3201
  161DPPC   GL2 1924  14.568   3.175  19.354  0.2499  0.1633  0.1011
  161DPPC   C1A 1925  14.650   3.100  19.843  0.3898  0.0824  0.1681
  161DPPC   C2A 1926  14.944   2.994  20.158  0.3084 -0.0543 -0.2144
  161DPPC   C3A 1927  15.242   2.936  20.513  0.3253  0.1554 -0.3597
  161DPPC   C4A 1928  15.551   2.924  20.873  0.3912  0.4287 -0.4309
  161DPPC   C1B 1929  14.840   3.347  19.486 -0.2089  0.2694  0.0284
  161DPPC   C2B 1930  15.179   3.288  19.742  0.2089 -0.1317  0.1162
  161DPPC   C3B 1931  15.390   3.205  20.125 -0.1521 -0.0501  0.0364
  161DPPC   C4B 1932  15.798   3.172  20.484  0.0973  0.0904 -0.3609
  162DPPC   NC3 1933  13.994   0.120  19.745 -0.1778 -0.0006  0.0610
  162DPPC   PO4 1934  14.250   0.407  19.576  0.3272  0.0146 -0.2457
  162DPPC   GL1 1935  14.530   0.454  19.809 -0.1574  0.2187  0.1403
  162DPPC   GL2 1936  14.451   0.635  20.017 -0.2194 -0.2572 -0.2813
  162DPPC   C1A 1937  14.898   0.357  19.860  0.1680  0.3101  0.1744
  162DPPC   C2A 1938  15.233   0.337  20.068 -0.1028 -0.0503  0.1024
  162DPPC   C3A 1939  15.542   0.398  20.426  0.1529  0.2937  0.0419
  162DPPC   C4A 1940  15.885   0.365  20.810 -0.3289  0.2397 -0.3061
  162DPPC   C1B 1941  14.774   0.635  20.245  0.0055  0.1304  0.0773
  162DPPC   C2B 1942  15.118   0.678  20.473 -0.1566 -0.1282 -0.0240
  162DPPC   C3B 1943  15.456   0.663  20.890 -0.1682  0.1626  0.1456
  162DPPC   C4B 1944  15.730   0.637  21.296 -0.3477  0.1246  0.0722
  163DPPC   NC3 1945  12.696   2.621  21.221  0.2041  0.1572  0.0651
  163DPPC   PO4 1946  13.095   2.548  21.195 -0.0793 -0.0721 -0.3174
  163DPPC   GL1 1947  13.354   2.607  21.495  0.2008 -0.0948 -0.0196
  163DPPC   GL2 1948  13.524   2.398  21.309  0.1470  0.1433  0.2492
  163DPPC   C1A 1949  13.480   2.815  21.800 -0.1480  0.2646 -0.3241
  163DPPC   C2A 1950  13.795   2.908  22.025 -0.3479 -0.0122  0.1389
  163DPPC   C3A 1951  14.100   2.887  22.416  0.0613 -0.0433  0.0874
  163DPPC   C4A 1952  14.449   2.829  22.678  0.1979 -0.0689 -0.0375
  163DPPC   C1B 1953  13.856   2.306  21.266 -0.2603  0.2360  0.1164
  163DPPC   C2B 1954  14.056   2.143  21.593  0.0346 -0.4264 -0.1368
  163DPPC   C3B 1955  14.330   2.123  21.990  0.1963  0.1701  0.2380
  163DPPC   C4B 1956  14.658   2.070  22.297  0.0024  0.0628 -0.0677
  164DPPC   NC3 1957  15.597   4.769  17.227  0.0057 -0.3126 -0.0284
  164DPPC   PO4 1958  15.607   4.471  16.954 -0.4781 -0.0529 -0.1155
  164DPPC   GL1 1959  15.933   4.225  17.219 -0.0193 -0.0268  0.1974
  164DPPC   GL2 1960  15.846   4.422  17.476  0.3273  0.1984  0.1618
  164DPPC   C1A 1961  15.962   3.896  17.438 -0.2058  0.2323 -0.3356
  164DPPC   C2A 1962  16.208   3.865  17.786 -0.1191  0.0577  0.2784
  164DPPC   C3A 1963  16.587   3.847  18.096  0.0150  0.0105 -0.2335
  164DPPC   C4A 1964  16.920   3.736  18.510 -0.1635  0.2244 -0.0855
  164DPPC   C1B 1965  16.077   4.308  17.688  0.0206  0.3050  0.1291
  164DPPC   C2B 1966  16.331   4.302  18.046  0.1808 -0.2799  0.0651
  164DPPC   C3B 1967  16.690   4.245  18.353  0.0705  0.2229 -0.0919
  164DPPC   C4B 1968  17.000   4.262  18.752  0.0896  0.1353 -0.2108
  165DPPC   NC3 1969  19.647   1.041  16.123 -0.1575 -0.0048  0.1031
  165DPPC   PO4 1970  19.707   0.814  15.830 -0.0219  0.0268 -0.1020
  165DPPC   GL1 1971  19.835   0.644  16.135  0.1643  0.3882 -0.3129
  165DPPC   GL2 1972  20.126   0.710  16.119 -0.3346  0.0348 -0.5606
  165DPPC   C1A 1973  19.981   0.390  16.349  0.0202  0.1378 -0.2789
  165DPPC   C2A 1974  20.200   0.037  16.483  0.1829  0.0790  0.3854
  165DPPC   C3A 1975  20.040  -0.346  16.761  0.0767 -0.1419 -0.2396
  165DPPC   C4A 1976  19.836  -0.652  17.072 -0.2251  0.3505  0.2346
  165DPPC   C1B 1977  20.397   0.995  16.256  0.0017 -0.0392 -0.0343
  165DPPC   C2B 1978  20.613   1.407  16.293  0.0458  0.2913  0.1084
  165DPPC   C3B 1979  20.947   1.726  16.366 -0.0952  0.2308  0.2010
  165DPPC   C4B 1980  21.375   1.992  16.316  0.3955  0.1641  0.2736
  166DPPC   NC3 1981  18.844   6.133  15.826  0.0891 -0.0513 -0.1413
  166DPPC   PO4 1982  18.467   6.295  15.883  0.0318 -0.1422 -0.0035
  166DPPC   GL1 1983  18.382   6.499  16.294 -0.2938 -0.1185  0.1474
  166DPPC   GL2 1984  18.247   6.314  16.412 -0.0906  0.1400  0.0917
  166DPPC   C1A 1985  18.544   6.627  16.581  0.1641 -0.1418 -0.1744
  166DPPC   C2A 1986  18.837   6.772  16.858  0.0424  0.2206 -0.1633
  166DPPC   C3A 1987  19.253   7.024  16.932 -0.0482  0.3568  0.2713
  166DPPC   C4A 1988  19.666   7.287  16.821  0.2896  0.1523 -0.0682
  166DPPC   C1B 1989  18.344   6.163  16.767 -0.1145  0.1094  0.0328
  166DPPC   C2B 1990  18.502   5.944  17.106 -0.1924 -0.2044 -0.0142
  166DPPC   C3B 1991  18.829   6.009  17.413 -0.2089  0.0922  0.0413
  166DPPC   C4B 1992  19.151   6.061  17.769 -0.1108  0.0258  0.1478
  167DPPC   NC3 1993  13.455   0.947  20.298  0.0832  0.1482  0.0266
  167DPPC   PO4 1994  13.583   1.304  20.186 -0.3631  0.1130  0.1638
  167DPPC   GL1 1995  13.972   1.449  20.093 -0.1488 -0.2310 -0.1392
  167DPPC   GL2 1996  14.084   1.130  20.184 -0.1460  0.1976 -0.0507
  167DPPC   C1A 1997  14.202   1.667  20.279 -0.0872  0.2485  0.2206
  167DPPC   C2A 1998  14.389   1.863  20.558 -0.0936  0.0116 -0.2683
  167DPPC   C3A 1999  14.654   1.802  20.945  0.0918 -0.2507  0.0543
  167DPPC   C4A 2000  15.050   1.855  21.293  0.0732  0.1059 -0.0790
  167DPPC   C1B 2001  14.364   1.206  20.453  0.2230 -0.0116  0.0318
  167DPPC   C2B 2002  14.514   1.326  20.818  0.1688 -0.1211  0.1502
  167DPPC   C3B 2003  14.892   1.399  21.073 -0.2051  0.1386 -0.0610
  167DPPC   C4B 2004  15.215   1.410  21.447 -0.0503  0.1056 -0.0936
  168DPPC   NC3 2005  13.676   1.821  20.234  0.2229  0.0942 -0.0953
  168DPPC   PO4 2006  13.527   1.806  20.616  0.0545  0.0051 -0.1542
  168DPPC   GL1 2007  13.880   1.947  20.900  0.5950 -0.3513 -0.0813
  168DPPC   GL2 2008  13.647   1.928  21.125 -0.0107  0.0413  0.3515
  168DPPC   C1A 2009  14.202   1.976  21.137 -0.0454  0.1492 -0.1342
  168DPPC   C2A 2010  14.498   2.020  21.418 -0.1681 -0.0123 -0.0592
  168DPPC   C3A 2011  14.862   1.977  21.767  0.0425  0.1101 -0.1093
  168DPPC   C4A 2012  15.145   1.920  22.190 -0.2984  0.0446 -0.2935
  168DPPC   C1B 2013  13.690   1.940  21.536  0.2003  0.0139 -0.0936
  168DPPC   C2B 2014  13.782   1.844  21.884  0.0555 -0.1159  0.1553
  168DPPC   C3B 2015  14.086   1.804  22.261  0.0329 -0.1107  0.0377
  168DPPC   C4B 2016  14.369   1.809  22.663 -0.0834 -0.0221  0.3186
  169DPPC   NC3 2017  14.643   0.393  18.261 -0.1638 -0.0855  0.1914
  169DPPC   PO4 2018  14.875   0.063  18.252  0.3914  0.2614 -0.1117
  169DPPC   GL1 2019  15.186   0.186  18.471 -0.2797 -0.1271  0.2597
  169DPPC   GL2 2020  15.130   0.516  18.453  0.4232 -0.0424 -0.5285
  169DPPC   C1A 2021  15.560   0.113  18.588 -0.0487  0.1670  0.0098
  169DPPC   C2A 2022  15.916  -0.043  18.721 -0.1220 -0.0729 -0.0541
  169DPPC   C3A 2023  16.263  -0.158  18.983 -0.3277  0.1694  0.0070
  169DPPC   C4A 2024  16.582  -0.162  19.356  0.1228 -0.1012 -0.1679
  169DPPC   C1B 2025  15.237   0.560  18.726  0.1246 -0.0510 -0.1161
  169DPPC   C2B 2026  15.456   0.601  19.071  0.0138 -0.1075  0.1625
  169DPPC   C3B 2027  15.789   0.520  19.452  0.1014 -0.1090 -0.2350
  169DPPC   C4B 2028  16.120   0.482  19.716 -0.2335 -0.0122 -0.0571
  170DPPC   NC3 2029  12.999   5.066  21.759  0.2560 -0.3453 -0.1089
  170DPPC   PO4 2030  12.947   5.388  21.510  0.1339 -0.1100  0.0997
  170DPPC   GL1 2031  13.296   5.590  21.497 -0.0715 -0.1466 -0.1640
  170DPPC   GL2 2032  13.458   5.701  21.279 -0.0451  0.1889  0.2808
  170DPPC   C1A 2033  13.481   5.737  21.791 -0.2170 -0.0718  0.0635
  170DPPC   C2A 2034  13.778   5.631  22.030 -0.2131 -0.1795 -0.0436
  170DPPC   C3A 2035  14.063   5.609  22.412  0.4661  0.5837  0.2431
  170DPPC   C4A 2036  14.422   5.669  22.694  0.2563  0.1720 -0.0361
  170DPPC   C1B 2037  13.767   5.665  21.461  0.0709  0.1506 -0.3247
  170DPPC   C2B 2038  14.097   5.477  21.627  0.3962  0.1353 -0.2097
  170DPPC   C3B 2039  14.378   5.475  21.993 -0.0133  0.0506  0.0877
  170DPPC   C4B 2040  14.697   5.436  22.381 -0.3686  0.1301 -0.0296
  171DPPC   NC3 2041  13.558   6.055  19.785  0.2124  0.1343  0.4132
  171DPPC   PO4 2042  13.540   5.955  20.197 -0.1723  0.1197 -0.0123
  171DPPC   GL1 2043  13.800   5.746  20.400 -0.0227 -0.1444 -0.3669
  171DPPC   GL2 2044  14.008   5.997  20.352  0.3919 -0.1396 -0.1236
  171DPPC   C1A 2045  13.913   5.740  20.750 -0.0804 -0.1279 -0.1775
  171DPPC   C2A 2046  14.114   5.718  21.140  0.2534 -0.0466 -0.3009
  171DPPC   C3A 2047  14.473   5.730  21.465 -0.1801  0.0613 -0.2494
  171DPPC   C4A 2048  14.840   5.746  21.837 -0.1198  0.2204 -0.3695
  171DPPC   C1B 2049  14.279   5.932  20.630  0.2328  0.1077  0.0765
  171DPPC   C2B 2050  14.504   6.019  20.932  0.0330 -0.0130  0.2997
  171DPPC   C3B 2051  14.863   6.011  21.240  0.0321  0.1761 -0.1167
  171DPPC   C4B 2052  15.165   6.066  21.571  0.3040  0.3221  0.2797
  172DPPC   NC3 2053  13.570   3.551  20.065  0.3262 -0.1485  0.2374
  172DPPC   PO4 2054  13.677   3.430  19.674  0.2709 -0.1510 -0.4658
  172DPPC   GL1 2055  14.003   3.323  19.859  0.2146 -0.2621  0.0411
  172DPPC   GL2 2056  13.991   3.490  20.140  0.1135  0.0826  0.1657
  172DPPC   C1A 2057  14.354   3.418  19.827  0.0639  0.0424 -0.3040
  172DPPC   C2A 2058  14.724   3.450  20.070  0.3493 -0.2105 -0.0430
  172DPPC   C3A 2059  15.067   3.470  20.321  0.3239  0.1545  0.1131
  172DPPC   C4A 2060  15.312   3.425  20.686 -0.0104 -0.1045  0.0496
  172DPPC   C1B 2061  14.249   3.648  20.313  0.0241 -0.0903  0.1446
  172DPPC   C2B 2062  14.605   3.584  20.532  0.1962 -0.0654 -0.0818
  172DPPC   C3B 2063  14.927   3.657  20.929  0.0012  0.3324  0.2471
  172DPPC   C4B 2064  15.246   3.599  21.325 -0.0084 -0.0663 -0.1246
  173DPPC   NC3 2065   2.261   1.623  16.312 -0.0467  0.2392  0.0091
  173DPPC   PO4 2066   2.051   1.320  16.440 -0.3324 -0.4035  0.3415
  173DPPC   GL1 2067   1.771   1.352  16.708  0.1261  0.3780  0.0240
  173DPPC   GL2 2068   1.948   1.292  16.928  0.2253  0.1875  0.1540
  173DPPC   C1A 2069   1.743   1.673  16.928 -0.0450 -0.0986  0.1847
  173DPPC   C2A 2070   1.780   1.823  17.327 -0.0306  0.0673 -0.0253
  173DPPC   C3A 2071   1.526   1.961  17.708  0.0843  0.3589  0.1950
  173DPPC   C4A 2072   1.200   1.941  18.164  0.0182 -0.3134  0.1162
  173DPPC   C1B 2073   1.653   1.199  17.170  0.0904 -0.0155 -0.0997
  173DPPC   C2B 2074   1.281   1.166  17.371  0.0555  0.1852  0.1269
  173DPPC   C3B 2075   0.812   1.212  17.533  0.0434 -0.2335  0.0845
  173DPPC   C4B 2076   0.457   0.952  17.642  0.1002  0.0711 -0.2127
  174DPPC   NC3 2077   1.907   5.874  16.816 -0.1046 -0.0836 -0.1496
  174DPPC   PO4 2078   2.236   6.026  16.993 -0.0369  0.4388  0.1651
  174DPPC   GL1 2079   2.116   6.297  17.387  0.1283  0.0670  0.0228
  174DPPC   GL2 2080   2.303   6.107  17.403 -0.1230 -0.3070 -0.0896
  174DPPC   C1A 2081   1.892   6.222  17.651 -0.0376  0.3145  0.1334
  174DPPC   C2A 2082   1.650   6.076  17.956 -0.0656  0.0778 -0.4152
  174DPPC   C3A 2083   1.349   6.063  18.361 -0.1101 -0.1618 -0.1743
  174DPPC   C4A 2084   0.997   6.100  18.713 -0.1542 -0.0181  0.2162
  174DPPC   C1B 2085   2.231   5.860  17.705 -0.0197 -0.0550 -0.3405
  174DPPC   C2B 2086   1.945   5.648  17.944 -0.1640  0.1786  0.1035
  174DPPC   C3B 2087   1.567   5.618  18.205  0.1082 -0.1904  0.0086
  174DPPC   C4B 2088   1.253   5.641  18.647 -0.0107 -0.0287 -0.0292
  175DPPC   NC3 2089  18.170   4.546  16.103  0.1548  0.2633  0.1050
  175DPPC   PO4 2090  17.880   4.370  16.327 -0.2556  0.1183  0.2224
  175DPPC   GL1 2091  17.933   4.579  16.765  0.4281  0.0889  0.1345
  175DPPC   GL2 2092  18.152   4.348  16.750  0.2102 -0.1487 -0.1359
  175DPPC   C1A 2093  17.710   4.568  17.039 -0.2061  0.0638 -0.1545
  175DPPC   C2A 2094  17.530   4.484  17.401 -0.1282  0.0059 -0.0853
  175DPPC   C3A 2095  17.412   4.283  17.854  0.1521 -0.1694 -0.0417
  175DPPC   C4A 2096  17.164   4.052  18.250 -0.2780 -0.1324  0.4036
  175DPPC   C1B 2097  18.441   4.304  16.995 -0.1058 -0.4545 -0.0452
  175DPPC   C2B 2098  18.754   4.319  17.253 -0.0819 -0.3398  0.0736
  175DPPC   C3B 2099  19.025   4.299  17.671  0.1401 -0.0518 -0.1879
  175DPPC   C4B 2100  19.225   4.380  18.060 -0.2263 -0.3783  0.0818
  176DPPS   CNO 2101  15.985   1.822  17.081  0.0276 -0.0635  0.0640
  176DPPS   PO4 2102  16.307   1.769  16.890  0.0280 -0.0488  0.0926
  176DPPS   GL1 2103  16.521   1.919  17.190  0.2790  0.0986 -0.0831
  176DPPS   GL2 2104  16.748   1.747  17.178  0.0755  0.1892 -0.4720
  176DPPS   C1A 2105  16.676   2.239  17.303 -0.0276  0.1607 -0.0724
  176DPPS   C2A 2106  16.912   2.610  17.476  0.2778  0.1019  0.1630
  176DPPS   C3A 2107  17.349   2.850  17.510 -0.0461  0.0742 -0.2356
  176DPPS   C4A 2108  17.784   2.709  17.213  0.0950  0.2129  0.0837
  176DPPS   C1B 2109  17.057   1.663  17.408 -0.3807 -0.4145  0.1267
  176DPPS   C2B 2110  17.266   1.411  17.633 -0.0792 -0.1705 -0.0356
  176DPPS   C3B 2111  17.375   0.975  17.914  0.1237 -0.0893  0.1795
  176DPPS   C4B 2112  17.156   0.761  18.287 -0.2456  0.2371  0.1234
  177DPPS   CNO 2113  15.472   4.048  17.274 -0.0540 -0.0467 -0.0180
  177DPPS   PO4 2114  15.309   4.332  17.455  0.1298  0.1078  0.4647
  177DPPS   GL1 2115  15.565   4.410  17.830  0.0977  0.0492 -0.4156
  177DPPS   GL2 2116  15.466   4.084  17.831  0.1002  0.1352 -0.0112
  177DPPS   C1A 2117  15.798   4.372  18.084  0.1661 -0.2846  0.0261
  177DPPS   C2A 2118  16.040   4.452  18.387 -0.1143  0.0368 -0.1159
  177DPPS   C3A 2119  16.390   4.436  18.744  0.0361 -0.0653 -0.2534
  177DPPS   C4A 2120  16.678   4.420  19.115 -0.2403 -0.0359 -0.2334
  177DPPS   C1B 2121  15.682   3.882  18.032 -0.3876 -0.1414 -0.0662
  177DPPS   C2B 2122  15.990   3.963  18.269 -0.0462 -0.1786 -0.2782
  177DPPS   C3B 2123  16.299   3.956  18.625 -0.1090  0.1463 -0.2312
  177DPPS   C4B 2124  16.682   3.918  18.921  0.2646  0.0120 -0.1010
  178DPPS   CNO 2125  14.163   3.005  18.744  0.2502  0.2766 -0.1740
  178DPPS   PO4 2126  14.519   3.112  18.709  0.0631  0.0229  0.0621
  178DPPS   GL1 2127  14.873   3.046  18.896  0.0223  0.0926  0.0545
  178DPPS   GL2 2128  15.081   3.159  18.848  0.0973  0.0654 -0.3293
  178DPPS   C1A 2129  14.935   2.976  19.242 -0.2276 -0.0681  0.0230
  178DPPS   C2A 2130  14.999   2.816  19.656 -0.1803 -0.0456 -0.1012
  178DPPS   C3A 2131  15.396   2.706  19.967 -0.0598 -0.0038  0.2015
  178DPPS   C4A 2132  15.744   2.718  20.277 -0.0289  0.2269  0.1730
  178DPPS   C1B 2133  15.088   3.443  19.110  0.3179  0.0188 -0.0572
  178DPPS   C2B 2134  15.351   3.630  19.399  0.0900 -0.1263 -0.3462
  178DPPS   C3B 2135  15.603   3.628  19.780  0.0069 -0.0463 -0.2033
  178DPPS   C4B 2136  15.953   3.534  20.183  0.0885  0.1434 -0.0545
  179DPPS   CNO 2137  15.012   0.860  17.589 -0.0394 -0.0709 -0.2521
  179DPPS   PO4 2138  14.926   0.982  17.941 -0.2601 -0.1600 -0.0955
  179DPPS   GL1 2139  15.230   1.053  18.248  0.1563  0.0359  0.0379
  179DPPS   GL2 2140  15.240   0.877  18.375  0.0214  0.0385 -0.1107
  179DPPS   C1A 2141  15.561   1.181  18.237 -0.3112 -0.2252 -0.3563
  179DPPS   C2A 2142  15.934   1.124  18.394 -0.0681 -0.3797 -0.2029
  179DPPS   C3A 2143  16.288   1.142  18.664  0.1332  0.0261 -0.0114
  179DPPS   C4A 2144  16.583   1.121  19.103 -0.0386  0.0612  0.1468
  179DPPS   C1B 2145  15.548   0.875  18.619 -0.2749 -0.0911  0.6247
  179DPPS   C2B 2146  15.827   0.958  18.902 -0.0476  0.2857  0.1191
  179DPPS   C3B 2147  16.147   0.860  19.270 -0.1441 -0.0411 -0.0098
  179DPPS   C4B 2148  16.564   0.812  19.627 -0.0735  0.0950 -0.0212
  180DPPS   CNO 2149  14.115   4.430  18.997 -0.0154  0.2289  0.2298
  180DPPS   PO4 2150  14.149   4.606  19.302 -0.2920  0.0327  0.0295
  180DPPS   GL1 2151  14.456   4.627  19.593  0.0729 -0.0779  0.1788
  180DPPS   GL2 2152  14.534   4.921  19.561  0.0803  0.4160 -0.4311
  180DPPS   C1A 2153  14.574   4.493  19.957 -0.0775  0.2042  0.1041
  180DPPS   C2A 2154  14.764   4.396  20.266 -0.2638 -0.0545 -0.0156
  180DPPS   C3A 2155  15.146   4.417  20.585  0.1022 -0.0178 -0.0997
  180DPPS   C4A 2156  15.401   4.410  21.027 -0.0781 -0.1755  0.1371
  180DPPS   C1B 2157  14.838   5.088  19.749 -0.5226  0.1397  0.2162
  180DPPS   C2B 2158  15.115   5.264  20.028 -0.0290  0.2583 -0.2178
  180DPPS   C3B 2159  15.398   5.208  20.443 -0.0067 -0.2874 -0.1443
  180DPPS   C4B 2160  15.692   5.162  20.752 -0.2396  0.0630  0.1421
  181DPPS   CNO 2161  14.186   3.917  18.718  0.1334  0.0722 -0.3653
  181DPPS   PO4 2162  13.998   3.952  19.060  0.1689 -0.0402 -0.1035
  181DPPS   GL1 2163  14.262   4.105  19.437  0.3024  0.2053 -0.0308
  181DPPS   GL2 2164  14.337   3.773  19.392 -0.4162  0.1580  0.3078
  181DPPS   C1A 2165  14.605   4.245  19.565  0.0052  0.3171  0.2498
  181DPPS   C2A 2166  14.982   4.256  19.763 -0.1473 -0.2131  0.0231
  181DPPS   C3A 2167  15.320   4.207  20.120  0.1420 -0.1198  0.1641
  181DPPS   C4A 2168  15.627   4.199  20.498  0.0713 -0.1060  0.2964
  181DPPS   C1B 2169  14.444   3.847  19.717  0.2458 -0.1738  0.2556
  181DPPS   C2B 2170  14.611   3.932  20.085  0.1122 -0.0084  0.0245
  181DPPS   C3B 2171  14.953   3.970  20.428  0.0662 -0.1222  0.0182
  181DPPS   C4B 2172  15.315   3.949  20.799  0.3683 -0.3220 -0.0814
  182DPPS   CNO 2173  14.821   2.439  18.130 -0.0104  0.3004  0.0367
  182DPPS   PO4 2174  15.009   2.110  18.096 -0.2174  0.1512  0.0946
  182DPPS   GL1 2175  15.378   2.013  18.312  0.0220  0.1901 -0.1660
  182DPPS   GL2 2176  15.398   1.792  18.260 -0.0782 -0.0495 -0.3308
  182DPPS   C1A 2177  15.503   2.201  18.595  0.2326  0.0548  0.0588
  182DPPS   C2A 2178  15.726   2.427  18.888 -0.2935  0.0552 -0.0322
  182DPPS   C3A 2179  16.009   2.432  19.310  0.1274 -0.2834  0.1961
  182DPPS   C4A 2180  16.282   2.436  19.681  0.1724  0.0157  0.2327
  182DPPS   C1B 2181  15.643   1.558  18.425  0.3001  0.2881  0.5279
  182DPPS   C2B 2182  15.840   1.525  18.773 -0.0366 -0.0616  0.0194
  182DPPS   C3B 2183  16.075   1.341  19.213 -0.1378  0.1177 -0.1041
  182DPPS   C4B 2184  16.444   1.314  19.577  0.4049 -0.0079  0.3311
  183DPPS   CNO 2185  19.473   4.245  15.670 -0.2617  0.3596  0.1774
  183DPPS   PO4 2186  19.192   4.223  15.913 -0.0563  0.0964  0.1159
  183DPPS   GL1 2187  19.314   4.025  16.255  0.1738 -0.0508  0.0179
  183DPPS   GL2 2188  19.537   4.280  16.232  0.2010  0.2860  0.0148
  183DPPS   C1A 2189  19.295   4.044  16.605 -0.0188 -0.0936 -0.1034
  183DPPS   C2A 2190  19.526   3.894  16.902 -0.2919 -0.0320 -0.2188
  183DPPS   C3A 2191  19.850   3.923  17.212  0.3369  0.0862 -0.1644
  183DPPS   C4A 2192  20.089   3.809  17.671 -0.1850  0.1391  0.0427
  183DPPS   C1B 2193  19.638   4.356  16.554  0.3089 -0.1478  0.1318
  183DPPS   C2B 2194  19.860   4.375  16.933 -0.1804  0.1002  0.2271
  183DPPS   C3B 2195  19.895   4.467  17.469 -0.2243 -0.0383 -0.1300
  183DPPS   C4B 2196  20.029   4.322  17.884  0.3531 -0.1490  0.0565
  184DPPS   CNO 2197   2.753   0.994  16.788  0.0889 -0.0880  0.0859
  184DPPS   PO4 2198   2.523   1.282  16.845  0.0075  0.0488  0.0871
  184DPPS   GL1 2199   2.305   1.290  17.224  0.0060  0.3147  0.2078
  184DPPS   GL2 2200   2.437   1.420  17.441  0.2218 -0.2438  0.1224
  184DPPS   C1A 2201   1.982   1.443  17.318 -0.2550  0.0025 -0.0040
  184DPPS   C2A 2202   1.637   1.420  17.591  0.0032 -0.0147  0.1071
  184DPPS   C3A 2203   1.394   1.500  18.008 -0.0143 -0.1395 -0.2253
  184DPPS   C4A 2204   1.072   1.533  18.377  0.1458 -0.1111 -0.2314
  184DPPS   C1B 2205   2.260   1.300  17.706 -0.0028  0.0057  0.2215
  184DPPS   C2B 2206   2.018   1.278  18.008  0.0496  0.3306 -0.0888
  184DPPS   C3B 2207   1.717   1.338  18.377  0.0887 -0.2276  0.1020
  184DPPS   C4B 2208   1.404   1.350  18.783 -0.0749 -0.1233 -0.0418
  185DPPS   CNO 2209  14.044   1.927  19.906  0.2174  0.0589 -0.1158
  185DPPS   PO4 2210  13.906   2.268  20.049 -0.0145  0.3670 -0.0459
  185DPPS   GL1 2211  14.238   2.349  20.000 -0.2152  0.0341 -0.0431
  185DPPS   GL2 2212  14.309   2.321  19.761  0.2763  0.5689  0.0241
  185DPPS   C1A 2213  14.463   2.386  20.344 -0.1892 -0.1428 -0.0761
  185DPPS   C2A 2214  14.739   2.603  20.602 -0.1985 -0.2440  0.2878
  185DPPS   C3A 2215  15.049   2.676  20.932 -0.0207 -0.2149 -0.0408
  185DPPS   C4A 2216  15.437   2.613  21.279 -0.0631 -0.0007 -0.1971
  185DPPS   C1B 2217  14.559   2.094  19.912  0.0140  0.0407 -0.0347
  185DPPS   C2B 2218  14.765   2.096  20.276 -0.0635  0.0403  0.0535
  185DPPS   C3B 2219  15.055   2.120  20.681  0.1418 -0.2627 -0.3265
  185DPPS   C4B 2220  15.369   2.142  21.057  0.0091 -0.2622 -0.0133
  186DPPS   CNO 2221  13.476   3.943  19.672 -0.0799  0.2192 -0.1264
  186DPPS   PO4 2222  13.633   4.036  20.010 -0.1022 -0.1260  0.1223
  186DPPS   GL1 2223  13.853   3.907  20.230  0.0289 -0.0070  0.2157
  186DPPS   GL2 2224  13.793   3.784  20.441  0.4688  0.0632  0.0030
  186DPPS   C1A 2225  14.103   4.069  20.386 -0.2902 -0.0482 -0.0682
  186DPPS   C2A 2226  14.460   4.131  20.613 -0.0419 -0.1987 -0.5060
  186DPPS   C3A 2227  14.787   4.146  20.941 -0.1419  0.1243 -0.2069
  186DPPS   C4A 2228  15.112   4.066  21.246 -0.1287 -0.0323 -0.2244
  186DPPS   C1B 2229  14.006   3.792  20.707 -0.0471 -0.4235  0.1212
  186DPPS   C2B 2230  14.311   3.847  21.044 -0.1944 -0.0333 -0.0496
  186DPPS   C3B 2231  14.679   3.811  21.411 -0.0292 -0.0831 -0.1758
  186DPPS   C4B 2232  15.028   3.830  21.759  0.1382 -0.0515  0.0512
  187DPPS   CNO 2233  14.691   5.308  18.102 -0.1780 -0.2074  0.0909
  187DPPS   PO4 2234  14.729   5.115  18.498 -0.3444  0.2026  0.2893
  187DPPS   GL1 2235  15.089   5.029  18.745 -0.1637  0.3641 -0.4665
  187DPPS   GL2 2236  15.207   4.766  18.571  0.1798  0.4663  0.0350
  187DPPS   C1A 2237  15.266   5.281  18.896  0.0319  0.2246  0.1685
  187DPPS   C2A 2238  15.565   5.275  19.217 -0.2090 -0.0209  0.0084
  187DPPS   C3A 2239  15.858   5.327  19.637  0.0286  0.0223 -0.1283
  187DPPS   C4A 2240  16.141   5.339  20.002 -0.1968  0.2160  0.2011
  187DPPS   C1B 2241  15.555   4.722  18.740 -0.0025 -0.2341 -0.0502
  187DPPS   C2B 2242  15.942   4.658  18.960 -0.0414  0.1927  0.2770
  187DPPS   C3B 2243  16.267   4.686  19.274  0.4285  0.0694  0.3089
  187DPPS   C4B 2244  16.504   4.689  19.655  0.0159  0.0755 -0.2073
  188DPPS   CNO 2245  17.760   4.908  16.207  0.0259  0.1133  0.1164
  188DPPS   PO4 2246  18.113   5.080  16.163  0.1095 -0.3445  0.0597
  188DPPS   GL1 2247  18.375   5.026  16.412 -0.0769 -0.1574 -0.7367
  188DPPS   GL2 2248  18.240   4.825  16.611  0.2281  0.0014  0.1877
  188DPPS   C1A 2249  18.424   5.198  16.756  0.1096  0.0601  0.2850
  188DPPS   C2A 2250  18.442   5.288  17.166  0.0756 -0.0865  0.0409
  188DPPS   C3A 2251  18.759   5.366  17.453  0.1468 -0.2335 -0.1601
  188DPPS   C4A 2252  18.938   5.277  17.979  0.0160  0.0312 -0.3030
  188DPPS   C1B 2253  18.304   4.838  16.954  0.1333 -0.2929  0.1889
  188DPPS   C2B 2254  18.518   4.760  17.282 -0.0412 -0.0676  0.3875
  188DPPS   C3B 2255  18.831   4.856  17.648  0.1491 -0.1381 -0.0176
  188DPPS   C4B 2256  19.114   4.815  18.131  0.0010 -0.2850  0.2280
  189DPPS   CNO 2257  13.293   0.142  20.710 -0.2974 -0.1137  0.1537
  189DPPS   PO4 2258  13.487   0.122  21.032  0.0456  0.2510  0.0409
  189DPPS   GL1 2259  13.843  -0.045  21.008  0.0012  0.0296 -0.1496
  189DPPS   GL2 2260  13.941   0.151  21.091  0.0740  0.0168 -0.2623
  189DPPS   C1A 2261  13.960  -0.164  21.365  0.0501  0.4859 -0.0338
  189DPPS   C2A 2262  14.014  -0.154  21.781  0.0192  0.1516  0.0453
  189DPPS   C3A 2263  14.299  -0.135  22.151 -0.1807 -0.1488 -0.1822
  189DPPS   C4A 2264  14.719  -0.122  22.400 -0.0275  0.1091  0.1056
  189DPPS   C1B 2265  14.166   0.251  21.314  0.2843 -0.1302  0.1935
  189DPPS   C2B 2266  14.444   0.191  21.549 -0.3775 -0.1581 -0.3065
  189DPPS   C3B 2267  14.695   0.153  21.948  0.0471 -0.0832  0.0761
  189DPPS   C4B 2268  15.062   0.205  22.213 -0.0114  0.1439  0.1571
  190DPPS   CNO 2269  15.614   2.682  17.225  0.3748 -0.1269 -0.1766
  190DPPS   PO4 2270  15.565   2.406  17.459  0.0245  0.1725 -0.0028
  190DPPS   GL1 2271  15.636   2.426  17.818 -0.4423 -0.1566 -0.0229
  190DPPS   GL2 2272  15.645   2.681  17.896 -0.0404 -0.3100  0.1116
  190DPPS   C1A 2273  15.973   2.410  17.966  0.0608 -0.1498  0.2402
  190DPPS   C2A 2274  16.315   2.424  18.166 -0.3998 -0.3577  0.2426
  190DPPS   C3A 2275  16.575   2.402  18.530 -0.3323 -0.4164  0.0349
  190DPPS   C4A 2276  16.840   2.413  18.960 -0.2218  0.3127 -0.1895
  190DPPS   C1B 2277  15.831   2.698  18.222 -0.2796  0.2106  0.3113
  190DPPS   C2B 2278  16.106   2.639  18.585  0.0433  0.1607 -0.1964
  190DPPS   C3B 2279  16.355   2.659  19.021  0.2006 -0.1763  0.1387
  190DPPS   C4B 2280  16.615   2.686  19.423  0.1804  0.3010  0.0455
  191DPPS   CNO 2281  15.136   3.321  17.779 -0.1503  0.1435 -0.0302
  191DPPS   PO4 2282  15.307   3.011  17.940 -0.2123  0.1482 -0.0042
  191DPPS   GL1 2283  15.630   3.094  18.140 -0.2998 -0.0223  0.3136
  191DPPS   GL2 2284  15.534   3.410  18.053 -0.2460  0.0590 -0.3276
  191DPPS   C1A 2285  15.935   3.167  18.343  0.0472 -0.1758 -0.0942
  191DPPS   C2A 2286  16.086   3.123  18.732 -0.2297 -0.1830  0.2887
  191DPPS   C3A 2287  16.364   3.151  19.126  0.0693 -0.2389  0.1114
  191DPPS   C4A 2288  16.610   3.224  19.525  0.1506  0.0185  0.4445
  191DPPS   C1B 2289  15.675   3.571  18.339 -0.1676 -0.0767 -0.3165
  191DPPS   C2B 2290  15.881   3.591  18.691  0.0309 -0.1120 -0.2679
  191DPPS   C3B 2291  16.139   3.635  19.023 -0.1438  0.0044 -0.3264
  191DPPS   C4B 2292  16.492   3.692  19.344  0.0494  0.0030  0.1544
  192DPPS   CNO 2293  13.694   3.124  20.236  0.0388  0.1645 -0.1218
  192DPPS   PO4 2294  13.710   2.890  20.512  0.3117 -0.2314 -0.2754
  192DPPS   GL1 2295  13.934   2.971  20.874 -0.2646 -0.0488 -0.2428
  192DPPS   GL2 2296  13.807   3.138  21.022  0.1360  0.0318  0.2228
  192DPPS   C1A 2297  14.072   2.743  21.143 -0.1612  0.0855 -0.0931
  192DPPS   C2A 2298  14.364   2.499  21.371  0.0222 -0.0710 -0.1193
  192DPPS   C3A 2299  14.668   2.431  21.776  0.1158 -0.0814 -0.1702
  192DPPS   C4A 2300  15.030   2.385  22.077  0.2668 -0.2506  0.1505
  192DPPS   C1B 2301  14.042   3.188  21.239 -0.2075 -0.1310 -0.0727
  192DPPS   C2B 2302  14.358   3.015  21.482 -0.0389 -0.2010  0.0587
  192DPPS   C3B 2303  14.682   2.961  21.778  0.2805  0.0277  0.2153
  192DPPS   C4B 2304  15.025   2.910  22.181 -0.2207 -0.1983  0.1132
  193DPPS   CNO 2305  13.704   6.313  19.367 -0.1575 -0.0860  0.1457
  193DPPS   PO4 2306  13.997   6.236  19.629 -0.3129 -0.0297  0.0146
  193DPPS   GL1 2307  14.173   6.247  20.022 -0.5483  0.3310 -0.0065
  193DPPS   GL2 2308  14.428   6.190  19.865  0.0038  0.0818 -0.3033
  193DPPS   C1A 2309  14.370   6.308  20.319 -0.1144  0.0858 -0.0336
  193DPPS   C2A 2310  14.667   6.313  20.619  0.0486  0.2116  0.3094
  193DPPS   C3A 2311  15.056   6.355  20.927 -0.0344  0.1271 -0.2017
  193DPPS   C4A 2312  15.369   6.398  21.258 -0.0369 -0.2899  0.1194
  193DPPS   C1B 2313  14.763   6.236  19.970  0.0603 -0.4154 -0.1456
  193DPPS   C2B 2314  15.046   6.192  20.261 -0.1138 -0.3176 -0.0307
  193DPPS   C3B 2315  15.467   6.198  20.557  0.2889 -0.1960  0.0141
  193DPPS   C4B 2316  15.719   6.169  21.013  0.0673 -0.1151  0.1829
  194DPPS   CNO 2317   2.294   6.450  16.273  0.0292 -0.2496 -0.1938
  194DPPS   PO4 2318   1.944   6.558  16.226 -0.3379  0.2598  0.0524
  194DPPS   GL1 2319   1.671   6.734  16.420 -0.1727  0.1930  0.2229
  194DPPS   GL2 2320   1.444   6.644  16.396  0.1807  0.4368  0.1182
  194DPPS   C1A 2321   1.683   6.791  16.805 -0.3209 -0.1998  0.2423
  194DPPS   C2A 2322   1.469   6.732  17.158  0.4870 -0.0733 -0.0671
  194DPPS   C3A 2323   1.193   6.731  17.633  0.0918 -0.2894  0.2432
  194DPPS   C4A 2324   0.870   6.607  17.957 -0.2470 -0.1533  0.2974
  194DPPS   C1B 2325   1.315   6.566  16.726  0.0117 -0.1455 -0.1986
  194DPPS   C2B 2326   1.093   6.453  17.100  0.3153  0.3503 -0.3110
  194DPPS   C3B 2327   0.808   6.311  17.527 -0.0133  0.0007 -0.0822
  194DPPS   C4B 2328   0.736   5.972  17.869 -0.0212  0.1245  0.4921
  195DPPS   CNO 2329  13.152   0.664  20.663 -0.0087 -0.3829 -0.2143
  195DPPS   PO4 2330  13.474   0.553  20.581  0.2356  0.0886 -0.0228
  195DPPS   GL1 2331  13.812   0.533  20.840  0.1795 -0.1228  0.2150
  195DPPS   GL2 2332  13.714   0.554  21.074  0.5074 -0.0308  0.1562
  195DPPS   C1A 2333  14.199   0.465  20.917 -0.0060  0.0895  0.2237
  195DPPS   C2A 2334  14.507   0.484  21.144  0.0549  0.1329 -0.2610
  195DPPS   C3A 2335  14.857   0.517  21.450 -0.1811  0.2007 -0.0547
  195DPPS   C4A 2336  15.186   0.551  21.823 -0.2829  0.0974  0.1491
  195DPPS   C1B 2337  14.017   0.660  21.235  0.2099 -0.0381 -0.3470
  195DPPS   C2B 2338  14.288   0.664  21.543  0.1732 -0.1616  0.0659
  195DPPS   C3B 2339  14.603   0.668  21.899  0.0569  0.0845  0.3675
  195DPPS   C4B 2340  14.924   0.759  22.249  0.0356  0.1553  0.2779
  196DPPS   CNO 2341  19.084   5.806  15.500 -0.0584  0.0766  0.0686
  196DPPS   PO4 2342  19.165   5.787  15.845 -0.2568 -0.1253  0.1761
  196DPPS   GL1 2343  19.403   5.728  16.117  0.2942 -0.3171 -0.2170
  196DPPS   GL2 2344  19.470   5.452  16.180 -0.6215  0.1560  0.0533
  196DPPS   C1A 2345  19.560   5.997  16.282  0.1593 -0.0075  0.0754
  196DPPS   C2A 2346  19.914   6.223  16.313  0.0443 -0.2509  0.0595
  196DPPS   C3A 2347  20.353   6.196  16.151 -0.1524  0.1465 -0.0505
  196DPPS   C4A 2348  20.530   5.863  15.828 -0.3225  0.1945  0.3045
  196DPPS   C1B 2349  19.308   5.255  16.447 -0.1805 -0.1442 -0.2108
  196DPPS   C2B 2350  19.398   4.976  16.723  0.1105 -0.0620 -0.2041
  196DPPS   C3B 2351  19.699   4.897  17.070 -0.0767  0.2209  0.1006
  196DPPS   C4B 2352  19.965   5.041  17.452 -0.2215 -0.1700 -0.2642
  197DPPS   CNO 2353  13.119   5.418  20.768  0.0427 -0.1051 -0.3156
  197DPPS   PO4 2354  13.476   5.451  20.918  0.1758  0.0037 -0.2103
  197DPPS   GL1 2355  13.764   5.193  21.106  0.3341 -0.1613  0.1538
  197DPPS   GL2 2356  13.527   5.008  21.226 -0.2673  0.1808  0.1608
  197DPPS   C1A 2357  13.965   5.135  21.371  0.5463  0.3809 -0.3149
  197DPPS   C2A 2358  14.204   4.999  21.714  0.0235  0.1310 -0.2600
  197DPPS   C3A 2359  14.516   5.000  22.006 -0.0829  0.3455 -0.2186
  197DPPS   C4A 2360  14.810   4.857  22.453  0.2551  0.0731  0.0258
  197DPPS   C1B 2361  13.771   4.742  21.326  0.2922 -0.0714  0.1627
  197DPPS   C2B 2362  13.956   4.589  21.546 -0.0958 -0.2435  0.3325
  197DPPS   C3B 2363  14.287   4.467  21.813  0.2143  0.2896 -0.2433
  197DPPS   C4B 2364  14.700   4.489  22.175 -0.0135  0.1561  0.0981
  198DPPS   CNO 2365  18.591   2.396  16.198  0.0705 -0.2107 -0.0701
  198DPPS   PO4 2366  18.915   2.552  16.045 -0.0963  0.1912 -0.1626
  198DPPS   GL1 2367  19.055   2.593  16.439  0.0854 -0.0372 -0.3273
  198DPPS   GL2 2368  19.179   2.873  16.399 -0.0020  0.1185 -0.0251
  198DPPS   C1A 2369  19.182   2.579  16.774 -0.1758 -0.0642 -0.5376
  198DPPS   C2A 2370  19.425   2.699  17.100 -0.3522  0.2963 -0.0880
  198DPPS   C3A 2371  19.586   2.644  17.570 -0.1394  0.0183 -0.0563
  198DPPS   C4A 2372  19.743   2.693  18.056 -0.0250 -0.3365 -0.1621
  198DPPS   C1B 2373  19.494   2.895  16.619 -0.0161 -0.0878  0.1767
  198DPPS   C2B 2374  19.788   2.927  16.910  0.5629  0.0380  0.2520
  198DPPS   C3B 2375  20.102   2.888  17.280 -0.0114 -0.0925  0.1873
  198DPPS   C4B 2376  20.115   2.857  17.751 -0.2002  0.1532  0.1661
  199DPPS   CNO 2377  13.226   3.394  20.390  0.1399 -0.1661  0.1764
  199DPPS   PO4 2378  13.342   3.676  20.592  0.2634  0.3240 -0.0951
  199DPPS   GL1 2379  13.690   3.493  20.806  0.5231 -0.1170 -0.0371
  199DPPS   GL2 2380  13.812   3.367  20.564  0.1072 -0.0117  0.0335
  199DPPS   C1A 2381  13.924   3.540  21.104  0.4116  0.0279  0.0337
  199DPPS   C2A 2382  14.189   3.587  21.442 -0.3577 -0.2492  0.2018
  199DPPS   C3A 2383  14.526   3.511  21.802 -0.1328 -0.1792  0.0851
  199DPPS   C4A 2384  14.918   3.472  22.096 -0.1301  0.1708 -0.0109
  199DPPS   C1B 2385  14.178   3.343  20.677  0.1137  0.3880 -0.1757
  199DPPS   C2B 2386  14.407   3.321  20.996 -0.1915  0.1069 -0.0412
  199DPPS   C3B 2387  14.699   3.316  21.370  0.4312  0.0093  0.2509
  199DPPS   C4B 2388  15.088   3.275  21.677  0.3371  0.1951 -0.3625
  200DPPS   CNO 2389  13.263   2.867  20.285 -0.2460  0.3805 -0.1952
  200DPPS   PO4 2390  13.265   2.695  20.616 -0.1152 -0.1889 -0.1536
  200DPPS   GL1 2391  13.581   2.714  20.990 -0.0511  0.3447 -0.0739
  200DPPS   GL2 2392  13.714   2.551  20.792 -0.4829 -0.1218 -0.1546
  200DPPS   C1A 2393  13.673   2.836  21.314  0.1630 -0.1917  0.0093
  200DPPS   C2A 2394  13.913   2.689  21.599  0.4424 -0.3072 -0.1037
  200DPPS   C3A 2395  14.243   2.661  21.908  0.1732  0.1347  0.1766
  200DPPS   C4A 2396  14.580   2.532  22.291  0.0024  0.0983  0.2369
  200DPPS   C1B 2397  14.051   2.443  20.869 -0.0492  0.3698  0.1809
  200DPPS   C2B 2398  14.432   2.309  20.896 -0.0451  0.5788 -0.0632
  200DPPS   C3B 2399  14.807   2.315  21.159 -0.0869  0.3089 -0.0942
  200DPPS   C4B 2400  15.198   2.269  21.552 -0.1363 -0.0369  0.1395
  201W        W 2401  10.087   2.843  35.094 -0.0488 -0.0258 -0.3523
  202W        W 2402   1.577   0.621  41.611  0.0673 -0.0966  0.2507
  203W        W 2403   9.182   3.995  33.113 -0.1712  0.0593  0.1413
  204W        W 2404  11.030   4.166  11.815  0.2456  0.0258  0.3141
  205W        W 2405  12.802   3.926  21.307 -0.1831  0.2058 -0.2824
  206W        W 2406  18.480   0.141   3.536 -0.1292 -0.1552  0.1118
  207W        W 2407  17.195   2.934  11.532 -0.1742  0.0088 -0.0407
  208W        W 2408  15.399   5.157  38.239  0.1024 -0.1008 -0.0221
  209W        W 2409  17.498   1.662  15.734 -0.1202 -0.0240  0.0371
  210W        W 2410   9.786   5.029  41.631  0.3176 -0.1119 -0.3691
  211W        W 2411   7.402   2.913  41.765 -0.3273  0.5147  0.0141
  212W        W 2412  11.271   0.966  29.429  0.0675 -0.0751 -0.1368
  213W        W 2413  20.916   3.529  30.790  0.1059  0.1445 -0.2969
  214W        W 2414   8.098   6.129  23.047  0.1572 -0.2026  0.2540
  215W        W 2415   1.829   1.584  28.810  0.1312  0.0817  0.3196
  216W        W 2416  11.291   6.034  44.873  0.1802 -0.3190  0.0878
  217W        W 2417  17.277   2.480   1.478 -0.0056 -0.0779 -0.1155
  218W        W 2418  13.720   5.890   3.758 -0.2980 -0.0933  0.1276
  219W        W 2419   7.634   4.429   3.952 -0.1653  0.1471 -0.2163
  220W        W 2420   0.412   6.422  43.234 -0.1760 -0.0433  0.0385
  221W        W 2421   1.156   2.950  33.982 -0.0189  0.1321 -0.1178
  222W        W 2422   4.284   0.095  32.185  0.0722 -0.2724  0.1134
  223W        W 2423   4.382   2.238   5.220  0.1353  0.0491  0.2321
  224W        W 2424   3.007   3.046  30.481  0.1573 -0.2384  0.1644
  225W        W 2425  20.827   3.297  27.448  0.1426  0.1400 -0.0438
  226W        W 2426  15.244   0.550  35.644 -0.1868 -0.1878  0.0289
  227W        W 2427   9.956   6.045  34.220  0.0352 -0.0270 -0.2173
  228W        W 2428   8.670   0.486  11.922  0.2356 -0.0700  0.2155
  229W        W 2429  12.299   3.266  20.167 -0.1269  0.1820  0.3120
  230W        W 2430   2.177   5.751  11.148  0.0060  0.4479  0.1987
  231W        W 2431  21.064   0.749  31.672  0.0667 -0.0788 -0.0051
  232W        W 2432   8.929   0.921  11.638 -0.1442  0.1803 -0.3017
  233W        W 2433   6.425   1.254  11.270 -0.1584 -0.0149  0.1230
  234W        W 2434   0.349   2.691  27.529 -0.2179 -0.1705  0.1087
  235W        W 2435  13.938   3.809  35.919  0.4167 -0.1321  0.1967
  236W        W 2436   9.129   1.298  36.706  0.0405 -0.2452  0.2315
  237W        W 2437  12.657   1.953  18.839 -0.1567 -0.0413 -0.1187
  238W        W 2438   6.566   3.894  38.576 -0.0602 -0.0542 -0.5016
  239W        W 2439  20.790   4.849  42.364 -0.1358  0.0940 -0.1249
  240W        W 2440  10.745   3.826  30.860 -0.1520 -0.0041  0.3533
  241W        W 2441  19.322   3.135  13.265  0.1293 -0.2055 -0.1968
  242W        W 2442   2.761   2.402  34.595 -0.1891  0.0326  0.0101
  243W        W 2443   8.316   5.428  14.014 -0.0559  0.1859 -0.0074
  244W        W 2444  12.194   0.927  22.003  0.2192  0.1083 -0.0658
  245W        W 2445   0.516   5.572  36.737  0.2133 -0.2535  0.4151
  246W        W 2446  19.362   3.730  41.463  0.2687 -0.0983 -0.1534
  247W        W 2447   6.961   3.321  41.747 -0.0425  0.2216 -0.0371
  248W        W 2448  17.627   6.125  12.196  0.0876  0.0886 -0.1126
  249W        W 2449   8.869   5.838   3.584 -0.2768  0.1244  0.1274
  250W        W 2450  20.488   1.604  37.839 -0.5129 -0.0074 -0.1488
  251W        W 2451  20.617   6.287  34.633 -0.0197 -0.1234  0.2723
  252W        W 2452  20.574   2.028  44.248 -0.0187  0.0222  0.0655
  253W        W 2453  12.928   1.610  13.615 -0.0620  0.3586 -0.0036
  254W        W 2454  10.132   5.197  19.535  0.1291  0.0392 -0.0522
  255W        W 2455   1.225   2.431  13.631  0.0002  0.1874 -0.0864
  256W        W 2456   1.466   1.627   4.502 -0.3684 -0.1787 -0.1493
  257W        W 2457  17.474   5.176  14.884 -0.1000 -0.1357  0.1536
  258W        W 2458  14.234   0.287  28.617  0.0308  0.1189  0.2574
  259W        W 2459  10.424   6.412   6.057 -0.3264  0.0047  0.3965
  260W        W 2460  19.167   0.796  12.661 -0.3060  0.3294  0.4559
  261W        W 2461  17.950   2.212   4.883 -0.2278  0.0588 -0.1964
  262W        W 2462   2.631   2.498  13.198  0.0106  0.1482 -0.0325
  263W        W 2463  19.240   4.678  29.492  0.1125 -0.3688 -0.1603
  264W        W 2464   7.691   3.531   5.693 -0.0533  0.1787  0.1615
  265W        W 2465  17.972   1.685  15.663 -0.0057  0.1606  0.3354
  266W        W 2466   1.933   0.057   0.475 -0.2385 -0.0089  0.2529
  267W        W 2467  10.586   2.039   1.808 -0.0450  0.5066  0.0413
  268W        W 2468   4.941   4.342  35.502 -0.1655  0.2622  0.1314
  269W        W 2469  19.248   3.180   1.344  0.0229  0.0945 -0.3068
  270W        W 2470   5.133   3.548  41.526  0.2563  0.0358 -0.3075
  271W        W 2471   5.849   1.867   2.961 -0.1904 -0.2149  0.3602
  272W        W 2472   0.353   3.121   4.978  0.0749 -0.0791 -0.0764
  273W        W 2473  11.785   3.738  20.715 -0.1851 -0.1448  0.1117
  274W        W 2474  14.638   5.104  14.440 -0.2634 -0.0155  0.1405
  275W        W 2475   0.279   4.422  15.146  0.0607 -0.1426 -0.1091
  276W        W 2476  10.652   3.050  37.785  0.2732  0.5440 -0.2593
  277W        W 2477  19.327   1.524  14.829 -0.0260 -0.1576  0.2303
  278W        W 2478  17.941   3.238  14.683 -0.0343 -0.0843  0.1958
  279W        W 2479   1.735   4.309  24.747 -0.1074 -0.2696 -0.0234
  280W        W 2480  14.881   4.730   8.051 -0.1744 -0.1182  0.1443
  281W        W 2481   3.071   5.766   3.209 -0.0609 -0.0726 -0.1286
  282W        W 2482  17.953   2.561  23.029  0.0991  0.0819  0.0309
  283W        W 2483   1.247   1.586  23.873  0.0806  0.2589 -0.2013
  284W        W 2484  16.853   0.600  34.809  0.2849  0.0137  0.2010
  285W        W 2485   7.326   1.642  11.597 -0.0369 -0.1310  0.0328
  286W        W 2486   2.018   6.597   6.722 -0.0813  0.1582 -0.1469
  287W        W 2487   4.614   4.045   4.720 -0.1152  0.1189  0.0804
  288W        W 2488   9.637   0.821  16.943  0.1005  0.1148  0.0020
  289W        W 2489  20.068   6.307   1.834 -0.3417 -0.0876  0.0789
  290W        W 2490   2.186   0.095   5.278 -0.2977  0.0042  0.1533
  291W        W 2491   6.763   3.978  13.955  0.0317  0.3734  0.1624
  292W        W 2492  19.311   2.531  22.444 -0.1231  0.1336 -0.0711
  293W        W 2493   4.986   5.705  11.927 -0.4056 -0.0945 -0.1707
  294W        W 2494   5.114   0.206   8.000  0.2150  0.1656 -0.2342
  295W        W 2495  20.615   1.574  42.805  0.0552  0.0211 -0.0278
  296W        W 2496  12.535   0.662  17.741 -0.0767  0.0608 -0.0362
  297W        W 2497   9.732   2.564  10.714 -0.1367 -0.3743 -0.1625
  298W        W 2498  11.691   0.701  41.893  0.0922 -0.1011 -0.1291
  299W        W 2499  15.142   6.168  34.914 -0.0985 -0.1152  0.0018
  300W        W 2500   4.096   5.950  30.368  0.1197  0.0922  0.2078
  301W        W 2501  16.757   3.336  43.118 -0.2974 -0.1214  0.0462
  302W        W 2502   0.918   5.554   0.032  0.3753  0.0987 -0.1649
  303W        W 2503   9.122   3.767  31.353 -0.2134  0.3607  0.3601
  304W        W 2504   3.101   5.288   8.857  0.2249  0.1023 -0.2346
  305W        W 2505   7.928   1.601  30.581  0.0070  0.1761 -0.4219
  306W        W 2506  12.944   3.091  16.979  0.1762 -0.1796  0.0134
  307W        W 2507  12.445   1.674  11.676 -0.0321  0.2112 -0.1025
  308W        W 2508  18.109   4.557  36.212  0.2949  0.0266  0.1744
  309W        W 2509   7.703   4.538  23.393 -0.0733  0.1572 -0.1753
  310W        W 2510  17.297   0.924  28.261  0.1031  0.3003  0.1521
  311W        W 2511   2.265   0.122  40.062 -0.1354 -0.0640 -0.0672
  312W        W 2512   0.861   5.641  35.604 -0.0412 -0.1697 -0.1040
  313W        W 2513   9.781   2.858  13.040  0.1384 -0.1361  0.3147
  314W        W 2514  15.445   2.223  42.135 -0.2367  0.2453  0.1748
  315W        W 2515   8.606   3.699  42.532  0.0456 -0.2851  0.0869
  316W        W 2516   8.452   5.318  21.001 -0.2895 -0.2275 -0.0608
  317W        W 2517   8.765   0.113   9.339 -0.2506  0.0416  0.1140
  318W        W 2518  14.342   0.556  37.199 -0.1060 -0.0709 -0.3140
  319W        W 2519   9.068   5.303   9.288 -0.1568  0.2010  0.4388
  320W        W 2520   5.694   1.182  34.880  0.0057  0.1031  0.1815
  321W        W 2521   8.108   2.260  10.804  0.0780  0.0823  0.0980
  322W        W 2522   2.581   2.414  42.966  0.0975 -0.2865  0.0323
  323W        W 2523  15.929   1.396  32.933  0.0925 -0.2601  0.0384
  324W        W 2524  17.628   1.424  34.140 -0.1195  0.0326  0.2461
  325W        W 2525  13.761   0.799  42.375  0.1397 -0.0973  0.2244
  326W        W 2526   6.440   3.984  38.071  0.3988 -0.0103  0.1493
  327W        W 2527  18.622   6.506  29.658  0.2012  0.3127  0.0166
  328W        W 2528   6.505   1.757  44.542  0.0406 -0.0637 -0.0090
  329W        W 2529   5.623   2.214  36.750  0.0448  0.2441  0.0167
  330W        W 2530   0.536   0.489  15.476 -0.1299  0.1436 -0.2376
  331W        W 2531  15.740   0.387   7.855 -0.0323  0.2086 -0.1390
  332W        W 2532   5.391   1.364  15.359 -0.0462 -0.0953  0.1675
  333W        W 2533  13.171   3.399  10.166  0.1448 -0.1206  0.0136
  334W        W 2534  10.787   4.767  15.195 -0.0353  0.1611  0.5722
  335W        W 2535   0.678   5.623  23.221 -0.1946  0.0986  0.1823
  336W        W 2536   2.322   5.747   9.820 -0.0356 -0.3422 -0.0010
  337W        W 2537   8.102   6.251  22.529  0.0286 -0.1538  0.0192
  338W        W 2538  10.375   5.706  15.219 -0.2045 -0.4657  0.1760
  339W        W 2539  16.584   1.177  36.759  0.1123  0.3292 -0.2324
  340W        W 2540   0.990   4.409  13.711  0.0533 -0.1799  0.2664
  341W        W 2541  15.019   3.207  43.120 -0.3142 -0.1670 -0.1232
  342W        W 2542  15.485   3.685  37.619 -0.2883 -0.3464 -0.0635
  343W        W 2543  11.922   2.541   5.738 -0.2318 -0.3183  0.0888
  344W        W 2544  16.148   5.630  15.225  0.1032 -0.0623 -0.0638
  345W        W 2545   2.866   0.651  17.539 -0.1775  0.2487 -0.1748
  346W        W 2546   6.412   1.358  16.101  0.3298  0.1094  0.0668
  347W        W 2547  10.214   6.336  40.188 -0.1303  0.1737  0.0030
  348W        W 2548   1.629   6.544   9.118 -0.0911 -0.1900 -0.3875
  349W        W 2549  13.021   5.853  11.457  0.0288  0.1948 -0.1221
  350W        W 2550  14.822   2.701   8.451  0.1228 -0.1391  0.3599
  351W        W 2551  11.266   3.389  35.792 -0.1354  0.0702 -0.1059
  352W        W 2552   0.886   0.554  41.592 -0.3846 -0.0080  0.1138
  353W        W 2553  16.515   4.973  33.604 -0.2710  0.0781  0.1909
  354W        W 2554  12.521   2.910  10.493  0.1396 -0.1707  0.4264
  355W        W 2555   0.522   3.939   0.356 -0.0496  0.0545  0.0021
  356W        W 2556  18.268   4.455  38.766  0.1129 -0.0706 -0.2040
  357W        W 2557  16.303   0.131  11.849  0.2390  0.2498 -0.0388
  358W        W 2558   6.838   2.426  16.609 -0.0309  0.1199 -0.0002
  359W        W 2559  16.799   4.982   3.012  0.0574 -0.1312 -0.1497
  360W        W 2560  14.312   0.382  13.976 -0.0477 -0.2934  0.1833
  361W        W 2561  16.685   4.155  14.423  0.0506 -0.1295  0.0213
  362W        W 2562  21.000   4.804  27.302 -0.0137  0.0872 -0.3952
  363W        W 2563   7.310   0.260  34.517 -0.0075 -0.2298  0.2813
  364W        W 2564  20.554   0.413  25.919 -0.2508  0.0376  0.2414
  365W        W 2565   5.153   5.440  12.543  0.1332  0.5017  0.0282
  366W        W 2566  11.219   0.602  15.865 -0.0313  0.0359  0.0332
  367W        W 2567  16.284   6.204  37.673 -0.0539 -0.0365  0.1555
  368W        W 2568  12.262   5.520  20.828  0.2912  0.0023  0.3789
  369W        W 2569  20.033   1.888  35.753 -0.1230 -0.2683 -0.3135
  370W        W 2570   3.540   0.482  39.145 -0.1867  0.1668  0.1517
  371W        W 2571  15.235   0.053   1.347 -0.2628  0.0107  0.3959
  372W        W 2572  17.126   2.889  43.591  0.0138  0.0963 -0.1623
  373W        W 2573  16.498   2.689  36.410 -0.3595 -0.1527 -0.0160
  374W        W 2574  17.792   3.275  37.262 -0.2568  0.0554  0.5386
  375W        W 2575   7.081   4.254  42.506 -0.0273 -0.2647  0.0864
  376W        W 2576  20.224   0.335   6.815 -0.1331 -0.0634  0.0561
  377W        W 2577  20.302   2.096  36.359 -0.1300 -0.5062  0.1559
  378W        W 2578  20.910   6.007  11.291 -0.2604  0.0763 -0.1062
  379W        W 2579   9.142   5.416   8.384 -0.1020  0.0106 -0.0790
  380W        W 2580   6.242   5.034  13.172  0.1012  0.1344 -0.0288
  381W        W 2581  13.155   5.767  19.988  0.0462  0.2424  0.0359
  382W        W 2582   4.321   0.379   8.099  0.1053 -0.0955 -0.0206
  383W        W 2583   5.561   1.702  36.745 -0.1700  0.0807  0.2137
  384W        W 2584  17.515   1.010  12.247 -0.0188 -0.1586 -0.0210
  385W        W 2585  12.108   0.840  41.546 -0.1145 -0.2368  0.1367
  386W        W 2586   0.330   3.823   4.278  0.1611 -0.1017  0.1496
  387W        W 2587  17.255   1.153   2.531 -0.2300  0.1570 -0.0374
  388W        W 2588   2.909   2.174  30.246 -0.0406 -0.2166  0.2941
  389W        W 2589   8.427   1.998   0.132 -0.0678 -0.1355  0.1122
  390W        W 2590  15.034   4.407  13.572 -0.0916 -0.0252 -0.0929
  391W        W 2591  10.696   2.627  30.326 -0.0869 -0.2561 -0.0565
  392W        W 2592  11.461   4.674   6.221 -0.0522  0.1500 -0.1076
  393W        W 2593   8.161   1.860  10.126 -0.0056  0.0754  0.0625
  394W        W 2594   3.127   3.633  11.372 -0.1472 -0.3892 -0.0199
  395W        W 2595  11.134   6.261  41.057 -0.1623  0.0866 -0.0229
  396W        W 2596   2.685   0.513   0.197  0.0538 -0.1967 -0.0730
  397W        W 2597   1.336   3.459  33.873  0.1542 -0.0838  0.1630
  398W        W 2598  20.986   5.998  30.245  0.4383  0.0506 -0.1083
  399W        W 2599   6.251   1.724   9.895 -0.3492  0.4412  0.0841
  400W        W 2600   1.201   6.358   4.743  0.2814 -0.2262  0.0901
  401W        W 2601  14.441   2.437   8.602 -0.0121 -0.3478  0.0678
  402W        W 2602   7.205   5.299  29.722 -0.0817  0.3230 -0.1584
  403W        W 2603  19.132   3.360   9.968  0.2983  0.0177  0.2484
  404W        W 2604  17.966   5.871  29.328 -0.2415  0.1420  0.1311
  405W        W 2605   5.360   3.587  19.512 -0.1296  0.1666  0.1006
  406W        W 2606  11.688   1.519  40.431 -0.1772 -0.1852 -0.0615
  407W        W 2607  17.625   3.112  26.716 -0.0183 -0.0880 -0.1061
  408W        W 2608  18.315   6.503  23.096  0.1956  0.1387 -0.0645
  409W        W 2609  13.256   0.430  40.334 -0.0254 -0.2907  0.0438
  410W        W 2610   8.914   4.103  22.410 -0.1800 -0.1122  0.1337
  411W        W 2611  10.967   4.774  38.295  0.2299 -0.2391 -0.0911
  412W        W 2612   0.053   6.475   6.944  0.2421  0.1602  0.1847
  413W        W 2613  13.724   3.773   4.201  0.1643 -0.2456  0.2168
  414W        W 2614  12.429   5.064  41.736 -0.4105  0.0138  0.1178
  415W        W 2615  20.925   5.921  12.540 -0.3432  0.2941 -0.1747
  416W        W 2616  13.612   1.992   8.799  0.0575  0.0963  0.0734
  417W        W 2617  13.428   2.153  36.475  0.0418 -0.0982 -0.0736
  418W        W 2618   3.141   3.783  33.837 -0.1835  0.2628 -0.1015
  419W        W 2619  18.740   1.153  22.610  0.1251 -0.0716  0.0600
  420W        W 2620   2.572   2.723   0.044 -0.0848 -0.2127  0.0072
  421W        W 2621  17.444   5.559  44.831 -0.0287  0.1327  0.0084
  422W        W 2622   6.233   2.290  41.960 -0.0049 -0.1544 -0.0211
  423W        W 2623   9.347   4.688  35.068 -0.0279 -0.0045 -0.3042
  424W        W 2624   7.815   4.233   5.302 -0.0202  0.0283  0.1306
  425W        W 2625   6.712   1.687   4.552 -0.1923  0.2709  0.1895
  426W        W 2626   6.700   4.385  38.298  0.0479  0.1635  0.0200
  427W        W 2627   3.333   0.916  38.241 -0.0266  0.1787 -0.1888
  428W        W 2628  14.356   2.160  33.721  0.1202  0.2358  0.0723
  429W        W 2629   1.760   5.299  14.451  0.0666  0.2671 -0.1580
  430W        W 2630   9.578   0.947   2.723  0.0808 -0.0007  0.1185
  431W        W 2631  20.699   0.432  41.402 -0.2209 -0.1704  0.1566
  432W        W 2632  13.252   1.570  28.829  0.1490 -0.1437 -0.0974
  433W        W 2633  17.051   5.785   0.542 -0.1537 -0.1821 -0.2523
  434W        W 2634   0.312   3.583  35.894  0.0798 -0.0422  0.1819
  435W        W 2635   8.893   3.441  14.048 -0.2056  0.2490 -0.1557
  436W        W 2636   7.919   3.704  15.746  0.0192  0.0957  0.2721
  437W        W 2637  11.480   2.448   4.426  0.0065  0.2895 -0.0169
  438W        W 2638   7.017   1.868  35.826 -0.2027 -0.3191 -0.2436
  439W        W 2639   2.234   2.953   2.501 -0.2325 -0.1550  0.3938
  440W        W 2640   3.212   1.065  27.745 -0.1302  0.1433  0.2137
  441W        W 2641   2.389   4.152  44.802  0.0590  0.2668  0.1830
  442W        W 2642  11.551   5.377  34.196  0.2397  0.0158 -0.0515
  443W        W 2643  14.920   5.504   8.498  0.2375  0.0710 -0.1971
  444W        W 2644   3.657   4.935  14.239 -0.2298  0.0469  0.4498
  445W        W 2645  19.631   2.739   4.900 -0.1243  0.5247  0.1651
  446W        W 2646   2.581   0.445  28.830 -0.0482 -0.2345  0.0719
  447W        W 2647  12.986   4.690  35.665  0.0545 -0.2375  0.2367
  448W        W 2648   3.626   3.006  28.121  0.3014  0.1325  0.2078
  449W        W 2649  17.240   6.141  39.541  0.3424 -0.0312  0.3578
  450W        W 2650  17.546   5.948  23.513 -0.1743 -0.1120  0.4003
  451W        W 2651  20.346   5.702  29.387 -0.2939 -0.3521  0.0852
  452W        W 2652   9.702   0.455  11.594  0.2824 -0.2258  0.2014
  453W        W 2653   0.729   5.211   3.598  0.4672  0.1570 -0.0706
  454W        W 2654   5.557   2.118  29.259 -0.1623 -0.1981 -0.2587
  455W        W 2655  18.221   5.066  39.994 -0.2741 -0.1778  0.0039
  456W        W 2656   5.596   6.050   3.129  0.2310 -0.0352  0.3158
  457W        W 2657  18.447   5.207   9.500 -0.0850  0.0845  0.1051
  458W        W 2658  19.617   6.456   8.506  0.2073  0.2070 -0.1356
  459W        W 2659  18.314   6.297   7.911 -0.1742  0.0947 -0.0271
  460W        W 2660  19.434   2.011  38.162  0.3351  0.1198 -0.3039
  461W        W 2661  20.619   3.270  41.589  0.1912 -0.2280 -0.0724
  462W        W 2662   5.016   3.891  11.467  0.0589 -0.0729 -0.0623
  463W        W 2663   9.128   2.253  37.625  0.0590 -0.2682  0.0648
  464W        W 2664   1.643   6.278  14.440 -0.1181  0.0669 -0.4410
  465W        W 2665  20.439   2.619   2.703  0.1678  0.0534  0.2278
  466W        W 2666   3.397   1.304  38.593  0.1377 -0.2231  0.1533
  467W        W 2667  15.709   5.749   2.520  0.1609 -0.1851  0.3148
  468W        W 2668   8.261   0.868  14.000  0.0160  0.0649  0.0695
  469W        W 2669   3.982   6.493  43.443  0.0637  0.3306 -0.0683
  470W        W 2670  20.423   4.603  13.840  0.2095  0.1611  0.0618
  471W        W 2671  15.814   4.601   8.694  0.1037 -0.1567  0.2125
  472W        W 2672  18.046   1.295   1.334 -0.1062 -0.1783 -0.0289
  473W        W 2673   3.963   5.936  38.504  0.1080  0.0004  0.0935
  474W        W 2674  10.419   5.005  38.334  0.1099  0.1606  0.0767
  475W        W 2675   1.470   6.290  35.277 -0.2034 -0.0690  0.0160
  476W        W 2676  12.920   3.646  17.122 -0.0284 -0.1246 -0.4235
  477W        W 2677   4.068   3.196   8.889  0.0039 -0.0589 -0.0256
  478W        W 2678   3.611   4.367   1.320  0.0396 -0.1395 -0.1247
  479W        W 2679   1.657   4.485  44.897  0.1721 -0.0363  0.1638
  480W        W 2680  14.915   2.931  37.308  0.2315  0.0026 -0.0839
  481W        W 2681  21.051   0.770   5.037 -0.1699  0.0672  0.1114
  482W        W 2682   9.354   2.927  16.814  0.0124  0.0434 -0.0484
  483W        W 2683   3.389   2.549   9.903  0.0086  0.2958  0.3099
  484W        W 2684   7.128   5.827   1.915 -0.1266  0.2776  0.2784
  485W        W 2685  12.942   2.703  38.171  0.1252  0.2021  0.1510
  486W        W 2686   2.596   4.933   3.755  0.0434 -0.1151  0.5118
  487W        W 2687  14.839   4.464  33.768 -0.0881  0.1478 -0.1388
  488W        W 2688  21.036   2.486   5.789  0.0529  0.2991  0.1352
  489W        W 2689  20.737   1.489  24.091  0.0266 -0.2644  0.0479
  490W        W 2690  12.791   1.165  29.715 -0.0487 -0.3710 -0.1192
  491W        W 2691  16.677   4.857  37.944 -0.0192  0.2408  0.0983
  492W        W 2692   3.089   1.060   0.717  0.1026  0.0056 -0.1291
  493W        W 2693  19.397   3.287  21.232  0.0973  0.0216  0.1843
  494W        W 2694  10.407   1.448   0.252  0.0183 -0.2132 -0.0875
  495W        W 2695  18.993   3.493   3.460  0.0330 -0.0794  0.2762
  496W        W 2696   5.114   5.319  36.850  0.1247  0.1001 -0.0021
  497W        W 2697  15.407   4.361  13.260  0.0558  0.0593  0.0200
  498W        W 2698  11.164   2.401  29.839 -0.1785  0.1012  0.0506
  499W        W 2699  17.790   0.258  28.939  0.1552  0.0632  0.0601
  500W        W 2700  19.173   5.928  11.099  0.1900  0.0884 -0.1793
  501W        W 2701  16.090   2.219   4.051  0.1037  0.1930  0.1845
  502W        W 2702  16.313   2.299  41.100  0.0212 -0.1582 -0.3998
  503W        W 2703  11.974   4.064  12.034  0.2449 -0.1218  0.1293
  504W        W 2704   9.437   5.752  34.698 -0.1389 -0.3298 -0.1095
  505W        W 2705   5.970   3.184  12.374 -0.2160 -0.1052  0.0174
  506W        W 2706  11.824   0.128  36.597 -0.1440  0.0858 -0.1098
  507W        W 2707  11.912   4.330  20.388 -0.1188 -0.1807 -0.0636
  508W        W 2708  10.983   2.553  29.398 -0.0626  0.3551 -0.1817
  509W        W 2709  12.383   0.670  14.167 -0.1468 -0.1290 -0.1410
  510W        W 2710  11.806   2.760  44.863 -0.1454  0.1165  0.1106
  511W        W 2711   0.715   5.231  12.462 -0.0536 -0.2314 -0.0054
  512W        W 2712  14.899   5.370  27.304  0.4487 -0.0455 -0.0088
  513W        W 2713  11.585   2.565  12.078 -0.2922  0.2311  0.3365
  514W        W 2714   9.505   0.709  21.215  0.1862 -0.1862 -0.0660
  515W        W 2715   3.571   4.015  16.055  0.0953 -0.1378  0.0285
  516W        W 2716   1.226   4.796  40.759  0.1779  0.1046 -0.0882
  517W        W 2717  21.007   0.940   8.756 -0.1916  0.0072 -0.3646
  518W        W 2718  12.608   1.229   3.182 -0.1500 -0.3294 -0.0074
  519W        W 2719  13.161   1.847  29.636 -0.0464 -0.1518 -0.3642
  520W        W 2720  10.805   4.695  15.687  0.3611 -0.0378  0.0019
  521W        W 2721   9.411   6.492   6.208  0.2131  0.3400  0.0892
  522W        W 2722  12.916   0.645   8.098  0.2027  0.1638  0.0772
  523W        W 2723  18.380   1.898   6.565  0.0607  0.0550 -0.0141
  524W        W 2724   9.188   3.626  39.521 -0.1243 -0.0175 -0.0255
  525W        W 2725   7.629   0.403  44.076 -0.2502  0.0343  0.0886
  526W        W 2726   4.179   0.319  15.701 -0.3165 -0.2513 -0.0239
  527W        W 2727  18.621   4.513  31.306  0.0504  0.0009 -0.0233
  528W        W 2728   9.490   0.729   5.521  0.2169  0.2125 -0.0620
  529W        W 2729   6.633   3.066  35.541  0.2801  0.0155  0.1627
  530W        W 2730  18.402   1.299   3.337  0.3281 -0.0300  0.1313
  531W        W 2731   2.438   6.237  13.199  0.1202  0.1728  0.1995
  532W        W 2732   4.882   6.083  17.561  0.1031  0.2157  0.1322
  533W        W 2733  10.622   2.181  23.388  0.1971 -0.1166 -0.2047
  534W        W 2734  13.634   1.691  29.495 -0.0549 -0.1873  0.0457
  535W        W 2735   7.080   6.526  40.620  0.0665  0.1199  0.0645
  536W        W 2736  18.482   1.705  26.273  0.2415 -0.0855  0.1317
  537W        W 2737  14.455   3.005   0.123  0.0028  0.4336 -0.1754
  538W        W 2738  20.643   6.224  23.402 -0.0119 -0.2144  0.0915
  539W        W 2739  17.110   0.186   1.173 -0.0989 -0.0437 -0.3339
  540W        W 2740   6.455   5.321  34.638  0.0355 -0.2185 -0.2605
  541W        W 2741  14.185   1.144  17.232  0.4266 -0.0810  0.0020
  542W        W 2742   8.285   1.824  18.402 -0.1692  0.1988 -0.0489
  543W        W 2743   2.050   0.033   8.406  0.1436  0.0606  0.1910
  544W        W 2744  17.131   0.503  23.951 -0.0970  0.1005 -0.1948
  545W        W 2745   2.155   5.336   3.136 -0.1294  0.1387  0.0330
  546W        W 2746  14.515   2.968   8.771 -0.1072 -0.1213  0.0567
  547W        W 2747  12.171   3.225   5.151  0.1502 -0.0735 -0.0780
  548W        W 2748  20.731   6.503   6.170  0.1218 -0.0093  0.3755
  549W        W 2749   7.931   4.942   8.201  0.1018 -0.0685  0.1676
  550W        W 2750  21.082   1.679  12.076 -0.0463  0.4887  0.1923
  551W        W 2751  10.084   0.386  41.157 -0.0877  0.2303 -0.0700
  552W        W 2752   7.657   6.399  38.736  0.1375  0.0305 -0.1715
  553W        W 2753   0.749   3.630  31.787  0.3055 -0.2292  0.0215
  554W        W 2754  11.481   2.433  34.592 -0.0248  0.0240 -0.1542
  555W        W 2755  12.142   5.446  40.335 -0.0204  0.0160 -0.4041
  556W        W 2756  15.383   4.901  42.242  0.1520  0.1259 -0.0172
  557W        W 2757  13.306   0.034  17.149 -0.0419 -0.2505 -0.1310
  558W        W 2758   9.068   3.031   2.675  0.1618  0.0645  0.1354
  559W        W 2759   0.852   3.016  14.233  0.0580 -0.0563  0.2876
  560W        W 2760  15.043   4.297  11.043  0.1424 -0.2299 -0.1175
  561W        W 2761   2.860   2.836  16.985 -0.0162  0.1580  0.2225
  562W        W 2762  17.663   2.043  44.270 -0.2112  0.0149  0.3973
  563W        W 2763   0.077   2.733  14.155 -0.2599 -0.0590 -0.0946
  564W        W 2764   2.839   5.963  26.492 -0.3962  0.0408  0.0731
  565W        W 2765   8.548   2.537  31.032  0.3935  0.0664  0.1478
  566W        W 2766   5.173   2.288  36.921  0.0440  0.0436  0.0157
  567W        W 2767   1.618   2.562  42.338  0.0694 -0.0090  0.4578
  568W        W 2768   1.062   5.703  33.977  0.2481  0.0921  0.4166
  569W        W 2769  13.380   5.918   6.968  0.0730  0.1404 -0.1905
  570W        W 2770   6.507   1.380  13.943 -0.0534  0.0086  0.0095
  571W        W 2771   8.052   1.990  43.311  0.0671 -0.2674 -0.1566
  572W        W 2772  12.638   1.771  19.695  0.0604  0.0684 -0.1298
  573W        W 2773  12.528   6.148  29.285  0.0170 -0.0944  0.0443
  574W        W 2774   6.037   1.220   2.399  0.1621  0.0890  0.0433
  575W        W 2775  11.417   1.487  38.887 -0.0658  0.2429 -0.0017
  576W        W 2776  14.275   1.907   0.922  0.0420  0.3413 -0.0188
  577W        W 2777   4.741   4.342  13.312  0.0107  0.0046  0.1351
  578W        W 2778   4.313   2.416  44.672 -0.0656  0.0582  0.0532
  579W        W 2779   2.177   4.384  41.821 -0.0047  0.1524 -0.1292
  580W        W 2780   1.119   4.989  42.263  0.1999  0.0508  0.1024
  581W        W 2781  16.007   2.852   8.327 -0.2237 -0.2604 -0.2513
  582W        W 2782   1.064   1.857   7.344  0.0581 -0.1839 -0.0656
  583W        W 2783  10.742   1.234  31.619  0.1300  0.2016  0.0271
  584W        W 2784   6.394   1.462   6.610  0.0636  0.2792  0.0153
  585W        W 2785  20.807   5.583  41.097 -0.0706 -0.0896  0.3242
  586W        W 2786   4.896   3.219   7.529  0.3236 -0.1904  0.2204
  587W        W 2787   3.745   0.274  29.236  0.0187 -0.2068 -0.1904
  588W        W 2788  17.678   0.104  41.985 -0.0233  0.2526 -0.1273
  589W        W 2789   5.632   1.141  29.715 -0.0311 -0.0066 -0.1704
  590W        W 2790   5.588   4.658  14.583 -0.0318  0.0881 -0.0886
  591W        W 2791   0.307   3.389  11.548  0.1902 -0.0483  0.3189
  592W        W 2792   8.755   2.538  40.097  0.3349 -0.2769 -0.1316
  593W        W 2793   3.818   5.098  12.799  0.0593 -0.0207  0.0697
  594W        W 2794   7.768   3.199   1.114  0.0619 -0.0905  0.2783
  595W        W 2795   1.612   5.288   1.673 -0.1570  0.0262  0.0554
  596W        W 2796   6.488   0.226  36.895 -0.0717  0.1724 -0.1628
  597W        W 2797   9.129   3.361   9.711  0.0886 -0.0269 -0.0526
  598W        W 2798  17.389   5.855  41.177  0.0999  0.1660  0.2639
  599W        W 2799   4.775   3.689  11.912 -0.4252 -0.1178  0.1089
  600W        W 2800  20.133   2.177  13.738  0.1768 -0.1406  0.3486
  601W        W 2801   5.330   4.751  34.049  0.1185  0.0227 -0.1951
  602W        W 2802   8.714   3.302  24.065 -0.0831 -0.2211 -0.1015
  603W        W 2803   5.888   5.573  20.367  0.1624  0.0789 -0.1164
  604W        W 2804  14.027   3.763  33.477  0.1527 -0.3525  0.2751
  605W        W 2805   9.725   2.108   5.602 -0.2399  0.0573  0.3993
  606W        W 2806   7.310   5.307  10.808 -0.2253  0.1885  0.0170
  607W        W 2807  15.049   1.156  31.708  0.2034 -0.0204  0.1800
  608W        W 2808  15.342   5.303  36.406  0.3231  0.0335  0.1060
  609W        W 2809   5.378   2.650  37.945 -0.3269 -0.0177 -0.0211
  610W        W 2810   5.895   1.592  42.324  0.1509  0.2874 -0.0205
  611W        W 2811  10.113   6.130   0.323  0.0787  0.0019  0.1817
  612W        W 2812  15.642   3.099  42.556  0.1982 -0.0375 -0.0658
  613W        W 2813   4.363   3.894   3.751  0.1300 -0.0917  0.1359
  614W        W 2814  11.960   4.353  15.312  0.1675  0.2006  0.0547
  615W        W 2815   0.037   3.930  43.834  0.2148  0.0032  0.0128
  616W        W 2816   3.850   3.993  36.616  0.0913 -0.1309  0.2600
  617W        W 2817  17.743   3.734  33.317 -0.0157  0.0049  0.3270
  618W        W 2818   6.276   0.629  33.108  0.1798 -0.2129 -0.2299
  619W        W 2819  11.706   6.570  16.846  0.1950 -0.0066 -0.0243
  620W        W 2820   3.306   4.350   4.545 -0.1510  0.1054 -0.0925
  621W        W 2821  19.670   4.155  32.396  0.1283 -0.1382  0.0128
  622W        W 2822  14.230   3.007  28.782 -0.2648 -0.2784  0.1662
  623W        W 2823  18.853   3.564  21.846 -0.0352 -0.2342 -0.1255
  624W        W 2824  10.022   0.871  21.274 -0.0762  0.1932  0.2491
  625W        W 2825   9.327   2.190   9.971  0.1354  0.2165  0.0158
  626W        W 2826   0.941   0.458  29.411  0.0580 -0.0267  0.1671
  627W        W 2827  10.555   4.475  39.645  0.0090  0.1562  0.0305
  628W        W 2828  18.935   6.304  13.301  0.1052 -0.1167  0.0725
  629W        W 2829  16.575   4.456  28.152  0.1496 -0.0868  0.2464
  630W        W 2830  13.763   4.872  30.606 -0.0601  0.4098  0.0745
  631W        W 2831   0.573   0.639  36.688  0.0467  0.2749 -0.1439
  632W        W 2832   2.855   2.599  35.063  0.0385  0.0426 -0.0893
  633W        W 2833  11.863   0.447  44.826 -0.2488 -0.0116  0.0395
  634W        W 2834   8.602   5.077   3.956 -0.2370 -0.1346 -0.1784
  635W        W 2835   2.656   1.611  31.270  0.0653  0.0610  0.0371
  636W        W 2836   5.899   4.988  11.880  0.0227 -0.1838 -0.3605
  637W        W 2837   6.478   2.206  38.165  0.1656 -0.0102 -0.0368
  638W        W 2838  20.816   5.939  31.965 -0.1929 -0.3866 -0.0305
  639W        W 2839   8.320   4.932  39.512 -0.1563  0.2927 -0.2026
  640W        W 2840   1.850   1.160   7.273  0.0082 -0.0508 -0.0754
  641W        W 2841   0.529   2.285  36.149 -0.0981  0.4972 -0.2928
  642W        W 2842  13.258   2.810  34.186 -0.0721  0.1936  0.2754
  643W        W 2843   6.456   6.046  18.732  0.0671 -0.0134  0.1391
  644W        W 2844   4.250   5.882  32.621  0.1298  0.1337 -0.1086
  645W        W 2845  20.075   1.058   7.426  0.0418 -0.0524  0.0796
  646W        W 2846  20.360   2.218   2.953 -0.0125  0.0171 -0.1218
  647W        W 2847   0.670   3.490  32.314  0.3736  0.0867  0.0530
  648W        W 2848   6.322   2.094  40.601 -0.1398 -0.0806 -0.0596
  649W        W 2849  13.585   6.038  13.844 -0.2579 -0.3319 -0.1663
  650W        W 2850  14.939   0.142  35.323  0.5326 -0.2289  0.0940
  651W        W 2851  12.075   5.078  20.611 -0.0140 -0.0223  0.2514
  652W        W 2852  13.659   4.638  37.932  0.1376  0.2505  0.0828
  653W        W 2853  12.685   0.562  15.827 -0.0495  0.3208  0.1632
  654W        W 2854   5.371   5.023  40.745  0.3831 -0.1833  0.1648
  655W        W 2855   4.235   5.790  44.180  0.0366 -0.0476  0.0077
  656W        W 2856   0.485   6.370  23.262 -0.0234 -0.1412  0.0707
  657W        W 2857   2.456   3.546  40.193  0.1552  0.1416  0.2537
  658W        W 2858   5.747   0.255  14.486 -0.2664  0.0886 -0.0979
  659W        W 2859  11.451   5.792  28.427 -0.0598  0.2008  0.0351
  660W        W 2860   2.560   2.362  38.882  0.0954 -0.1205  0.2503
  661W        W 2861   0.311   6.524  13.666 -0.0382  0.0351 -0.1625
  662W        W 2862   6.388   6.365  32.982 -0.0185 -0.1109  0.0621
  663W        W 2863   6.897   4.781   8.357 -0.0769 -0.0104 -0.0807
  664W        W 2864   1.575   5.642  25.665  0.2866 -0.4702 -0.0203
  665W        W 2865   1.367   4.612  39.878 -0.0122  0.0662 -0.1883
  666W        W 2866   0.853   2.474   2.322  0.0938 -0.2071 -0.0147
  667W        W 2867  17.349   0.098  27.987 -0.1137  0.2889  0.0320
  668W        W 2868  20.881   0.582   2.003  0.0875 -0.0419 -0.1762
  669W        W 2869  14.903   3.758  39.414  0.1629 -0.1100  0.0354
  670W        W 2870   4.937   4.481  10.324  0.1524  0.2196 -0.2171
  671W        W 2871  14.691   1.884  13.803 -0.0851 -0.1505  0.4004
  672W        W 2872  18.934   0.324   4.277 -0.0875  0.0588 -0.0806
  673W        W 2873  18.351   1.077  30.968  0.1616 -0.0962  0.1979
  674W        W 2874   5.413   0.685  42.033  0.2590  0.1166  0.1441
  675W        W 2875  15.237   2.988  44.062 -0.1608 -0.0523  0.0865
  676W        W 2876  12.129   0.732  18.185  0.0412 -0.0615  0.1607
  677W        W 2877  15.987   0.340  12.611  0.1658  0.1530 -0.0986
  678W        W 2878   6.834   3.695  21.105  0.4270 -0.0207 -0.1394
  679W        W 2879  15.437   1.801  35.134  0.0351  0.3231 -0.2798
  680W        W 2880  16.365   3.025   4.111 -0.1002 -0.0030 -0.4149
  681W        W 2881   1.423   1.414   3.993  0.0118 -0.0429  0.3012
  682W        W 2882  15.583   4.344  30.743 -0.1315 -0.1094  0.2954
  683W        W 2883  20.908   5.455  37.403 -0.1842  0.0713  0.1381
  684W        W 2884  14.497   2.729  14.674  0.1206  0.0730 -0.4103
  685W        W 2885   1.923   1.902  43.729 -0.0048 -0.0830  0.0709
  686W        W 2886  12.090   0.728  10.552 -0.1799  0.2750 -0.1666
  687W        W 2887  16.712   3.162  43.684  0.2779  0.1171 -0.1885
  688W        W 2888   0.680   2.979  28.494 -0.0107  0.0262  0.2072
  689W        W 2889   6.329   5.594  29.480  0.0476  0.0464 -0.0344
  690W        W 2890   4.566   0.151  18.406 -0.1876 -0.0706  0.3597
  691W        W 2891   5.971   3.629  39.270 -0.6456 -0.1679 -0.1123
  692W        W 2892  19.784   5.707  21.180  0.1011 -0.0054  0.2318
  693W        W 2893  10.141   4.932  22.438 -0.2529  0.0142 -0.0992
  694W        W 2894   8.390   2.366  41.131  0.0341  0.1084  0.0036
  695W        W 2895  13.850   0.549  17.174 -0.1311 -0.0969 -0.1364
  696W        W 2896   7.233   5.892  36.308 -0.1989 -0.1688 -0.1178
  697W        W 2897   5.969   3.912  29.636  0.1541 -0.0328  0.0041
  698W        W 2898   7.532   3.319  44.024  0.0299  0.0199 -0.0963
  699W        W 2899   1.502   3.420   1.473  0.1749 -0.1925 -0.3322
  700W        W 2900  16.717   5.015  12.150  0.0331  0.4693 -0.0653
  701W        W 2901  12.355   3.367  39.567 -0.0467 -0.0946 -0.0481
  702W        W 2902  17.537   5.250  33.665 -0.2100 -0.0704 -0.0106
  703W        W 2903   0.271   4.700   9.775 -0.3517  0.2536  0.1224
  704W        W 2904   5.954   1.067   4.488 -0.0846  0.0869 -0.0666
  705W        W 2905   5.536   2.073   3.450 -0.0766 -0.0379  0.2723
  706W        W 2906  10.687   0.102  40.260 -0.1064  0.1020  0.1517
  707W        W 2907  10.564   2.082  17.193 -0.0906  0.1769 -0.0863
  708W        W 2908  13.681   5.260   6.323  0.0590 -0.0109  0.1551
  709W        W 2909   8.845   2.590  30.211 -0.1565 -0.2895  0.0079
  710W        W 2910   2.362   2.195  36.284  0.2604  0.0046  0.0256
  711W        W 2911   9.217   6.250   5.508  0.1902  0.2256  0.1456
  712W        W 2912  16.879   0.562  14.172 -0.0247 -0.0506 -0.1199
  713W        W 2913   7.698   5.812  35.573 -0.0309  0.0528  0.2394
  714W        W 2914   0.657   0.905  11.879 -0.1120  0.1925  0.1669
  715W        W 2915   5.166   5.919   0.554 -0.0507 -0.1752  0.0500
  716W        W 2916  15.828   5.501   0.598  0.2491 -0.2047  0.1418
  717W        W 2917  16.007   2.934  44.725 -0.2534 -0.1344 -0.1950
  718W        W 2918  14.858   5.684  12.373  0.0591 -0.2310 -0.1385
  719W        W 2919  15.811   4.102  36.913  0.0781  0.1888  0.1176
  720W        W 2920  14.222   4.950   8.135  0.1443  0.0541 -0.3080
  721W        W 2921   6.462   5.327  36.363 -0.3967  0.1327 -0.0516
  722W        W 2922  16.308   5.018  35.128  0.0203  0.3289  0.0336
  723W        W 2923  14.883   0.600  34.653 -0.2696  0.1900 -0.0867
  724W        W 2924  16.997   6.039  28.633  0.2308  0.1005 -0.2616
  725W        W 2925  16.870   6.460  16.910  0.1786  0.0403 -0.2988
  726W        W 2926   2.673   1.733   3.473  0.3890 -0.0227 -0.2440
  727W        W 2927  13.851   2.471  43.447 -0.1033  0.2204  0.0475
  728W        W 2928  16.957   6.053  32.639 -0.1251 -0.0638 -0.2081
  729W        W 2929   5.587   4.954   8.167  0.1214  0.0294 -0.2194
  730W        W 2930  13.789   0.301  27.905 -0.2516 -0.0984  0.3021
  731W        W 2931  16.332   0.754  15.767  0.0700 -0.0304  0.0739
  732W        W 2932   3.909   5.164  43.282 -0.0387  0.0890  0.2425
  733W        W 2933  18.262   6.057  36.847  0.0845  0.1300  0.2816
  734W        W 2934   5.405   4.115  32.040  0.0671 -0.1309 -0.0451
  735W        W 2935   0.330   4.070   0.834 -0.1248 -0.1319 -0.0850
  736W        W 2936  16.735   1.473  39.134  0.0624  0.4998 -0.0063
  737W        W 2937  16.037   4.550   9.641 -0.1146 -0.1057 -0.0760
  738W        W 2938   8.132   6.600  10.646 -0.0826  0.1789  0.0081
  739W        W 2939  18.120   3.160  24.187 -0.0726 -0.0290 -0.1197
  740W        W 2940  18.786   3.190  44.666 -0.1275  0.0992 -0.1816
  741W        W 2941  12.424   2.575  44.267 -0.1868 -0.1739 -0.1863
  742W        W 2942   8.851   0.064  42.503 -0.1855  0.2410  0.5556
  743W        W 2943  16.579   0.588  35.469  0.0038 -0.0458 -0.1628
  744W        W 2944   6.757   1.003  36.785  0.0152  0.1555 -0.2070
  745W        W 2945  13.385   0.088  16.307  0.0535  0.0878  0.1194
  746W        W 2946  20.482   2.619  35.647 -0.0667 -0.2240 -0.1327
  747W        W 2947  18.735   3.176  33.795  0.0678 -0.1730  0.0190
  748W        W 2948  20.920   1.106   4.310  0.1859  0.1240  0.0240
  749W        W 2949   2.557   6.155   8.228 -0.1141  0.1061  0.1547
  750W        W 2950  11.220   0.589   7.774 -0.0103 -0.1738  0.1409
  751W        W 2951   1.369   4.716  30.211  0.0750 -0.0966 -0.0127
  752W        W 2952   2.030   4.342   1.814 -0.0370 -0.2261 -0.0197
  753W        W 2953   9.418   2.704  36.380 -0.0291 -0.1780 -0.2268
  754W        W 2954  16.555   0.805  28.704 -0.2137  0.0418  0.1451
  755W        W 2955  20.203   5.346  43.024 -0.2859 -0.2221 -0.1139
  756W        W 2956  12.886   4.678  41.883  0.0909 -0.2033  0.0691
  757W        W 2957  18.619   4.223  39.783  0.0344 -0.0508  0.2348
  758W        W 2958   2.627   3.789   5.032 -0.0352  0.2218  0.2422
  759W        W 2959  15.100   3.245  27.628  0.1582 -0.2979  0.1477
  760W        W 2960   5.734   2.304   8.895 -0.3226  0.0880 -0.1428
  761W        W 2961  11.585   4.390  31.604  0.0879  0.0836  0.1147
  762W        W 2962  18.413   5.827  39.120  0.3453  0.0596 -0.1265
  763W        W 2963  16.574   1.543  23.420 -0.0870 -0.2594 -0.0865
  764W        W 2964  12.394   4.026   2.183 -0.0568 -0.2748  0.0278
  765W        W 2965   4.256   6.063  15.413 -0.2463  0.4128 -0.0227
  766W        W 2966  19.438   1.004  18.962  0.2008 -0.0555  0.0847
  767W        W 2967   8.619   4.306  23.901 -0.1120  0.1892 -0.1078
  768W        W 2968  11.901   4.038  10.119 -0.0967 -0.1760  0.1432
  769W        W 2969  17.901   5.040   7.173  0.1010 -0.1347  0.0580
  770W        W 2970  10.534   4.082  44.849 -0.1231  0.1130  0.1696
  771W        W 2971   7.983   1.272  10.977  0.0651  0.1296 -0.0912
  772W        W 2972   9.598   2.370   9.126  0.2944  0.2685  0.1132
  773W        W 2973  20.494   4.863  22.524 -0.0651 -0.4266  0.2105
  774W        W 2974   5.606   6.255  13.461  0.1891 -0.1453 -0.1133
  775W        W 2975   6.211   3.697   1.002 -0.0595 -0.0801 -0.1829
  776W        W 2976  19.954   4.681  43.234  0.0158  0.1415  0.0911
  777W        W 2977  14.414   0.176   7.098 -0.1558 -0.0797 -0.2195
  778W        W 2978  12.439   6.428  32.679  0.0691 -0.1816  0.2226
  779W        W 2979  18.134   6.087   5.024 -0.1811 -0.0765 -0.1083
  780W        W 2980   6.729   2.894  22.235  0.0168  0.0211  0.2161
  781W        W 2981  20.968   4.807   5.673 -0.0755  0.3993  0.2065
  782W        W 2982  19.242   5.338  35.435 -0.0005  0.0907  0.2072
  783W        W 2983  11.550   6.249   0.275  0.0060 -0.1645  0.4729
  784W        W 2984   8.026   6.139  44.088 -0.1238  0.0049  0.0605
  785W        W 2985  20.006   3.477  15.036 -0.0503 -0.1069 -0.1288
  786W        W 2986   3.060   5.524  27.824  0.1479  0.1156 -0.0818
  787W        W 2987   8.659   6.364  15.957  0.1876  0.1693 -0.0175
  788W        W 2988  17.304   2.470  14.066  0.1642 -0.0936  0.2045
  789W        W 2989   5.851   3.502  19.305 -0.0794 -0.1712 -0.1385
  790W        W 2990   1.076   1.526   6.558  0.1765 -0.2077 -0.0089
  791W        W 2991  15.373   3.987  15.720 -0.2063  0.2491 -0.3478
  792W        W 2992  13.254   5.677  37.922  0.1544  0.0472  0.1517
  793W        W 2993  20.165   6.222  23.684 -0.0378  0.1696  0.1930
  794W        W 2994   1.046   1.998   3.645  0.2082 -0.1552 -0.0385
  795W        W 2995  10.334   3.702  18.421  0.0952 -0.0304  0.5014
  796W        W 2996  11.911   0.088  31.228  0.0017  0.1304  0.1244
  797W        W 2997   0.761   1.562  31.818  0.0274  0.0080  0.0185
  798W        W 2998   1.235   3.561  44.981 -0.2085  0.1575 -0.2072
  799W        W 2999   3.899   0.182   4.612 -0.2732  0.3855 -0.0592
  800W        W 3000  14.026   2.623   8.718  0.0070 -0.3680 -0.0021
  801W        W 3001  14.600   5.275   8.871  0.1965 -0.1419  0.1419
  802W        W 3002  15.466   5.655  26.958  0.0194 -0.1305  0.2882
  803W        W 3003   0.119   4.097  26.791 -0.1336 -0.1280 -0.2682
  804W        W 3004  13.657   5.272  27.882 -0.0975  0.0759  0.0957
  805W        W 3005   2.889   3.546  12.257  0.0983  0.0405  0.0060
  806W        W 3006   5.008   2.919   5.140  0.1649 -0.0613 -0.0956
  807W        W 3007   0.084   3.077  11.209 -0.1704 -0.3968  0.0485
  808W        W 3008  20.208   2.457  44.111 -0.4368 -0.2127 -0.0154
  809W        W 3009  10.218   5.552  39.415  0.0603  0.0232 -0.2551
  810W        W 3010   3.782   2.835  41.526  0.4085 -0.2367  0.2202
  811W        W 3011   1.347   0.908   0.395 -0.0083  0.1274 -0.2741
  812W        W 3012   9.721   4.684  18.276 -0.1429  0.1636  0.0654
  813W        W 3013  13.719   2.176  35.162  0.0548 -0.1670 -0.3311
  814W        W 3014   7.575   4.532  30.359 -0.1861 -0.0374 -0.1246
  815W        W 3015   7.219   6.414  20.978  0.1655  0.1579  0.2389
  816W        W 3016  13.168   2.640  44.794 -0.0380  0.1076  0.0012
  817W        W 3017  16.117   1.033  26.320 -0.0729 -0.1983 -0.0394
  818W        W 3018   5.057   4.875  37.522  0.1397 -0.1801  0.1415
  819W        W 3019   3.709   0.755  38.586 -0.0137  0.2722 -0.2210
  820W        W 3020   5.437   5.679  42.385  0.1431  0.0705 -0.1648
  821W        W 3021  11.047   1.914   3.047 -0.0084 -0.0151  0.0954
  822W        W 3022   5.831   1.747  10.199  0.2193  0.3192 -0.1498
  823W        W 3023  14.717   3.632   6.611 -0.0577 -0.2155 -0.2345
  824W        W 3024  11.774   3.112  29.695 -0.1607 -0.0907 -0.0364
  825W        W 3025   2.059   4.762  14.909  0.0732 -0.0797 -0.1744
  826W        W 3026   7.923   6.179   8.521 -0.2525  0.0155 -0.0864
  827W        W 3027   8.890   2.031   3.327  0.1115 -0.0955 -0.1412
  828W        W 3028  20.029   1.187  23.291 -0.0859  0.0009 -0.2667
  829W        W 3029   3.520   4.257  28.029 -0.2334 -0.0321 -0.0784
  830W        W 3030   0.615   4.905   8.194  0.0230  0.0483 -0.2991
  831W        W 3031  19.289   2.127  12.427 -0.0221 -0.2503 -0.0040
  832W        W 3032   1.416   1.984  24.165 -0.3505  0.2806  0.0272
  833W        W 3033  14.121   1.633   6.546  0.2468 -0.0191  0.0954
  834W        W 3034   9.146   2.585  37.967 -0.2754 -0.3258  0.1401
  835W        W 3035   9.642   4.412  18.747 -0.0727  0.0058  0.3035
  836W        W 3036  17.939   4.635  40.950 -0.1300 -0.1665  0.2082
  837W        W 3037  11.952   4.297  22.531 -0.2726 -0.2037 -0.1028
  838W        W 3038  12.967   4.631   3.642 -0.4383  0.1599 -0.1252
  839W        W 3039  12.393   1.700  12.208  0.1431 -0.1285 -0.0701
  840W        W 3040   1.926   4.738  42.273  0.1471  0.1627  0.2314
  841W        W 3041  11.870   5.284  11.567 -0.1342 -0.3115  0.1336
  842W        W 3042   3.062   1.390   6.963  0.0779  0.2091 -0.0862
  843W        W 3043  18.171   4.163  43.335 -0.1028  0.1872 -0.0693
  844W        W 3044   5.691   5.275  18.846  0.0534 -0.1223  0.3857
  845W        W 3045   0.233   0.729  28.917 -0.2162  0.0912 -0.1414
  846W        W 3046   9.848   6.405  17.766 -0.2271 -0.2745  0.1090
  847W        W 3047  18.758   2.578  23.861  0.0076  0.1210 -0.1725
  848W        W 3048  12.739   1.475  44.318 -0.1675 -0.1072  0.2924
  849W        W 3049  10.840   6.461  38.217  0.0815  0.0581  0.1433
  850W        W 3050  10.139   6.326  17.366  0.1915  0.0557 -0.0586
  851W        W 3051  16.341   6.159   5.166  0.0456  0.0139 -0.2293
  852W        W 3052  15.268   1.855   0.689  0.2119  0.2479 -0.0348
  853W        W 3053  17.322   2.252  30.752 -0.1687  0.3163 -0.1591
  854W        W 3054   1.862   3.818  16.055  0.3353 -0.2313 -0.0222
  855W        W 3055  10.170   3.629   7.927  0.0798  0.3290 -0.1798
  856W        W 3056   8.620   1.262  39.219 -0.2074 -0.1345 -0.0821
  857W        W 3057  12.351   3.572  11.902  0.2505  0.4484  0.0784
  858W        W 3058  12.503   4.156  36.299  0.0335 -0.0600  0.1231
  859W        W 3059   1.124   4.895  24.754 -0.2100  0.0123  0.0114
  860W        W 3060   9.123   6.537  44.572 -0.1560 -0.0632  0.1034
  861W        W 3061  15.420   6.078  40.999  0.0025  0.1238  0.2433
  862W        W 3062   8.721   2.700   2.671  0.0327  0.0990 -0.0728
  863W        W 3063  10.789   1.760  39.923  0.1089 -0.0824 -0.2365
  864W        W 3064   8.345   2.193   5.619 -0.4214  0.1055 -0.1339
  865W        W 3065  12.986   2.169  18.060  0.1682 -0.1956 -0.2131
  866W        W 3066   5.346   0.693  29.020 -0.3564 -0.1120 -0.0098
  867W        W 3067  12.985   5.311  16.395  0.1623  0.1659 -0.0893
  868W        W 3068   7.876   5.024  22.018  0.0943  0.0525 -0.0761
  869W        W 3069   3.806   1.898  37.333  0.2596 -0.1815  0.3463
  870W        W 3070  20.106   1.172   5.466  0.1497 -0.0605  0.2253
  871W        W 3071   9.133   3.125  18.562  0.2495 -0.0183 -0.1410
  872W        W 3072  17.817   1.299  10.870 -0.1713 -0.1382  0.1599
  873W        W 3073  10.695   0.112  18.187 -0.1526 -0.2240  0.1814
  874W        W 3074   0.217   4.159  36.433  0.0798 -0.1818 -0.0186
  875W        W 3075  15.510   1.512  33.792  0.2640  0.0530 -0.3195
  876W        W 3076   2.045   3.120   4.359  0.0776  0.0239 -0.0339
  877W        W 3077  10.974   5.824  39.829 -0.0576 -0.0567  0.0729
  878W        W 3078   5.582   3.055  13.568  0.1273 -0.0182 -0.0433
  879W        W 3079   0.328   2.971  40.092 -0.1487  0.0109  0.1661
  880W        W 3080  16.093   2.574   2.544  0.0185  0.0469  0.1713
  881W        W 3081   3.680   3.504  34.479  0.2723  0.0182 -0.0428
  882W        W 3082   5.965   6.045  32.661 -0.1807 -0.1201  0.3064
  883W        W 3083   3.593   3.566   8.138 -0.0285 -0.2556 -0.1957
  884W        W 3084   0.714   5.399   8.188  0.5021  0.2040 -0.0725
  885W        W 3085  20.549   6.129  38.609 -0.0624  0.2951  0.1297
  886W        W 3086   9.211   5.446   6.214 -0.3281 -0.2289 -0.0402
  887W        W 3087  17.194   5.100  45.019 -0.0449 -0.0205 -0.3163
  888W        W 3088   8.006   5.548  44.488  0.1189 -0.0258 -0.1920
  889W        W 3089  19.034   2.944  36.527 -0.0544 -0.2081  0.1618
  890W        W 3090  15.899   3.224   3.112  0.0473  0.0479 -0.0307
  891W        W 3091  14.186   1.677  30.741 -0.3210 -0.1087  0.0471
  892W        W 3092   6.069   3.475   9.165 -0.0292 -0.1749 -0.1418
  893W        W 3093   2.785   3.969  11.952 -0.1237 -0.0132 -0.2353
  894W        W 3094   6.836   4.165  44.715 -0.1016  0.5123  0.0315
  895W        W 3095   1.407   2.973  35.327  0.1329  0.0093 -0.2209
  896W        W 3096  17.947   6.367  29.352 -0.1070  0.0989 -0.1356
  897W        W 3097   3.631   4.070  27.467 -0.1552  0.1302  0.1538
  898W        W 3098   6.627   3.198  39.097 -0.3490 -0.4028  0.1709
  899W        W 3099  18.991   0.391  26.334 -0.0503  0.0070  0.1676
  900W        W 3100   4.697   1.218  13.659 -0.0123 -0.0763 -0.0876
  901W        W 3101  10.977   0.334   0.574 -0.4128  0.1586  0.1420
  902W        W 3102   3.585   1.210   7.876  0.2054  0.2002  0.1975
  903W        W 3103  14.748   5.864  31.073  0.1551  0.2441 -0.1469
  904W        W 3104   7.394   3.203   2.603  0.0398  0.1699 -0.1055
  905W        W 3105   9.760   0.712  15.035  0.3780  0.0955  0.0256
  906W        W 3106  10.340   5.836   1.411  0.1295  0.2000  0.1926
  907W        W 3107  15.568   3.703  37.046 -0.0992 -0.0189  0.0783
  908W        W 3108  19.925   3.623   4.011 -0.0515  0.0801  0.0079
  909W        W 3109   0.088   3.162  41.941  0.1253 -0.0414 -0.0352
  910W        W 3110   6.385   0.631  43.150  0.1541 -0.0862 -0.3104
  911W        W 3111  13.923   4.379  44.581  0.0225  0.0042 -0.0900
  912W        W 3112   9.916   6.401  22.823  0.1932  0.1707 -0.1115
  913W        W 3113   1.076   1.584   8.629  0.4995  0.2937  0.0753
  914W        W 3114   4.007   1.115  11.420 -0.2279  0.0496 -0.2449
  915W        W 3115  20.548   5.650  11.243  0.0829  0.0995  0.0985
  916W        W 3116   5.476   3.939  33.122 -0.3510  0.1873  0.0900
  917W        W 3117   3.862   3.422  34.045 -0.2449 -0.1322 -0.1242
  918W        W 3118   9.174   4.309   5.978  0.0633  0.1961 -0.1022
  919W        W 3119   4.914   4.603   7.345  0.1615  0.0476 -0.0225
  920W        W 3120  15.799   4.783  16.301  0.1322  0.0869  0.2170
  921W        W 3121  18.724   4.689  28.155 -0.3310 -0.0361  0.2531
  922W        W 3122   9.111   5.557  41.899 -0.0471  0.1581  0.1366
  923W        W 3123   9.070   1.977  13.790 -0.0338  0.1040 -0.1064
  924W        W 3124   2.276   0.453  34.229 -0.0321 -0.1352  0.1991
  925W        W 3125   7.590   2.538  41.486 -0.0383 -0.1752 -0.0253
  926W        W 3126  15.082   1.063  38.344  0.0386 -0.2331  0.1851
  927W        W 3127   4.766   0.408  33.788 -0.3367  0.2035 -0.0268
  928W        W 3128  12.730   4.708  28.959 -0.0830  0.0209 -0.0893
  929W        W 3129  10.729   4.619   8.936  0.1952  0.3649  0.1638
  930W        W 3130  10.017   4.819  44.435  0.1067 -0.1149 -0.1252
  931W        W 3131  10.533   4.930  37.209  0.2660 -0.2328  0.0439
  932W        W 3132   6.366   4.957   0.464  0.1470  0.1625  0.0751
  933W        W 3133  12.058   1.013  34.350 -0.2037  0.1429 -0.1579
  934W        W 3134  13.331   2.619  29.860  0.2538 -0.1602 -0.2323
  935W        W 3135   6.174   0.615   4.611 -0.1540  0.1644  0.0241
  936W        W 3136   1.869   0.421  11.852  0.0396  0.2661 -0.1849
  937W        W 3137   2.216   1.496  25.525  0.1730  0.0354  0.1964
  938W        W 3138  20.847   3.519   5.021 -0.0260 -0.0418 -0.1329
  939W        W 3139  15.121   0.066  37.304 -0.0159 -0.2850  0.1980
  940W        W 3140  18.349   4.039  16.391 -0.1021 -0.1982 -0.2328
  941W        W 3141  16.866   2.777   9.888  0.1270  0.1475 -0.0488
  942W        W 3142  14.201   0.196  17.692 -0.2635  0.2827 -0.1616
  943W        W 3143  14.015   4.019  43.191  0.0655 -0.0923 -0.1217
  944W        W 3144  14.395   0.111  37.040 -0.1741  0.2928  0.0904
  945W        W 3145   1.479   3.934   1.325 -0.0366  0.0749 -0.1146
  946W        W 3146  17.035   1.574   1.322  0.0188 -0.1602  0.2200
  947W        W 3147  13.368   0.427  12.685  0.0121 -0.0896 -0.1035
  948W        W 3148  12.858   4.217  15.738 -0.1045  0.2865  0.2723
  949W        W 3149  11.763   2.764  19.217  0.2829 -0.3107  0.1666
  950W        W 3150  16.414   4.119  42.724 -0.2890 -0.0039 -0.0276
  951W        W 3151  19.020   2.122   5.870  0.1445 -0.0098 -0.1665
  952W        W 3152  18.654   4.063  42.593  0.0211  0.0385 -0.0720
  953W        W 3153  19.868   1.169  20.162  0.1870 -0.0258  0.1520
  954W        W 3154  12.813   5.408  36.049 -0.1233 -0.3096 -0.0175
  955W        W 3155  10.656   4.457  36.408  0.1428 -0.3409  0.2670
  956W        W 3156  20.171   0.197  45.037  0.2543  0.0327  0.0231
  957W        W 3157   6.863   2.831  13.098  0.0238 -0.1394 -0.1106
  958W        W 3158   2.601   0.804   9.903 -0.0045  0.0575  0.1068
  959W        W 3159   8.889   4.900  41.359  0.2290 -0.0296  0.2646
  960W        W 3160  12.867   3.720   6.532 -0.2530 -0.3286 -0.0007
  961W        W 3161   3.365   1.820  16.188 -0.1487  0.1113 -0.0390
  962W        W 3162  18.516   0.740  38.155  0.1708  0.1652  0.1227
  963W        W 3163   8.311   3.078  41.888  0.0413 -0.2688  0.0748
  964W        W 3164   4.717   4.118  37.569 -0.2360 -0.0594 -0.3762
  965W        W 3165   4.399   3.726   7.143  0.3476 -0.0334 -0.0183
  966W        W 3166   9.619   1.443  30.287 -0.0014  0.2452  0.1206
  967W        W 3167  17.891   3.175  38.762 -0.3847  0.2203 -0.1134
  968W        W 3168   6.985   3.014   5.536  0.1158  0.1696  0.0754
  969W        W 3169  10.141   3.806  10.224  0.0339 -0.1138 -0.2466
  970W        W 3170   9.977   1.868  31.030  0.2071 -0.0024 -0.1779
  971W        W 3171  14.576   0.433  36.161 -0.0030  0.0221  0.2347
  972W        W 3172  17.055   6.137  42.202 -0.1669 -0.0858 -0.2615
  973W        W 3173  13.492   0.847  19.816 -0.1671 -0.2881  0.0686
  974W        W 3174  18.162   3.515   1.668 -0.1920 -0.1676 -0.2114
  975W        W 3175  17.517   4.614  44.445 -0.2941 -0.1309 -0.2934
  976W        W 3176   9.157   1.460  10.848 -0.1920 -0.0316  0.2580
  977W        W 3177   9.834   4.632  14.387 -0.1766 -0.1481  0.0864
  978W        W 3178  14.465   3.114  38.670 -0.0551  0.0737 -0.3559
  979W        W 3179  20.419   1.946  40.110  0.0027 -0.0524 -0.0629
  980W        W 3180  10.648   5.008  18.112  0.0878 -0.4563 -0.0260
  981W        W 3181  17.517   6.533   9.164  0.2581 -0.0074 -0.0179
  982W        W 3182  13.075   0.693  38.079  0.0215  0.2533 -0.1111
  983W        W 3183   7.283   1.474  39.564  0.1492 -0.0882  0.2648
  984W        W 3184  14.575   5.766  18.162  0.1540 -0.1350  0.1427
  985W        W 3185  13.302   1.866  28.366 -0.0667 -0.3622  0.1879
  986W        W 3186  15.419   3.026  28.014 -0.0704  0.0684 -0.0223
  987W        W 3187  18.893   1.831  42.023 -0.0416  0.2851 -0.2163
  988W        W 3188   5.275   6.393  30.688 -0.1158  0.1444 -0.1996
  989W        W 3189   6.491   4.213   7.007  0.1281  0.1704  0.2625
  990W        W 3190   7.152   1.773  18.980  0.3074  0.0583 -0.0915
  991W        W 3191   3.673   3.891   9.372 -0.1276 -0.2338  0.0505
  992W        W 3192   0.006   3.514   5.859  0.0119  0.3200  0.0086
  993W        W 3193   7.897   4.824  31.857 -0.0796  0.3004 -0.0460
  994W        W 3194  11.001   0.340  17.254  0.0179 -0.1691 -0.0355
  995W        W 3195   0.143   5.221  41.944  0.1353  0.0438  0.0723
  996W        W 3196  12.506   2.581  30.980 -0.1674 -0.0200 -0.1930
  997W        W 3197   1.046   4.583   9.618 -0.1863  0.2233 -0.1256
  998W        W 3198  21.057   1.359  34.501  0.1001  0.1581  0.0598
  999W        W 3199  18.993   1.010  36.914 -0.1309  0.1047  0.1354
 1000W        W 3200   0.464   2.493   0.818 -0.1185 -0.0374 -0.1870
 1001W        W 3201   8.514   2.380  30.560  0.0764  0.1134 -0.1945
 1002W        W 3202   2.335   2.509  14.011 -0.1295  0.1244 -0.3530
 1003W        W 3203   3.704   6.019  30.641  0.0183  0.2057  0.0806
 1004W        W 3204  20.571   3.221  13.827 -0.1760  0.2933 -0.0484
 1005W        W 3205  16.615   2.673  28.611  0.2932  0.0810 -0.1444
 1006W        W 3206   3.660   6.524  33.120 -0.2072 -0.0312  0.1002
 1007W        W 3207  18.299   0.330  11.282 -0.0143  0.1711 -0.0355
 1008W        W 3208  12.002   4.339   7.751 -0.1500 -0.4861 -0.1233
 1009W        W 3209  13.356   5.387   5.278  0.1832  0.1287  0.1132
 1010W        W 3210   3.010   5.081   5.402  0.1470  0.2859  0.0362
 1011W        W 3211  13.887   5.525  38.877  0.1754 -0.0165  0.1298
 1012W        W 3212   0.606   2.255   4.651  0.3794  0.1505 -0.1449
 1013W        W 3213  16.570   1.058  30.505  0.2405  0.0460 -0.2628
 1014W        W 3214   6.664   0.560  31.346  0.0315 -0.4799 -0.1740
 1015W        W 3215  17.155   1.628   6.864 -0.0554  0.0778  0.0965
 1016W        W 3216  14.838   2.350  35.694 -0.4168 -0.1163  0.1981
 1017W        W 3217   4.413   2.966  33.378  0.0403  0.4000  0.1714
 1018W        W 3218  11.631   5.028  37.316  0.1193 -0.0432  0.3321
 1019W        W 3219  11.546   1.390  35.978  0.3126  0.2673  0.1250
 1020W        W 3220  17.459   6.559  29.168  0.0324 -0.2153  0.1254
 1021W        W 3221  15.626   1.168  43.203  0.1671 -0.2661 -0.0219
 1022W        W 3222  16.980   4.717  35.754  0.0176 -0.1955 -0.0705
 1023W        W 3223  17.021   0.718   6.459 -0.1719  0.1084  0.0395
 1024W        W 3224  14.657   3.844  41.716  0.1634 -0.1659  0.2399
 1025W        W 3225   7.922   0.874  11.739 -0.1532 -0.1647  0.0941
 1026W        W 3226   9.854   2.042  21.218  0.0177 -0.2004  0.0697
 1027W        W 3227  17.974   0.406  23.885  0.1773 -0.1186 -0.0334
 1028W        W 3228  18.985   1.219  32.128 -0.2838  0.1960 -0.0521
 1029W        W 3229   0.058   3.397  26.604 -0.0436 -0.0681 -0.2301
 1030W        W 3230  20.271   4.146  38.982 -0.1491  0.0439 -0.1424
 1031W        W 3231  15.951   6.316  31.343 -0.2611  0.2752  0.2827
 1032W        W 3232   1.853   4.930  15.373  0.0345 -0.1164 -0.1761
 1033W        W 3233   5.505   3.084  12.466  0.1245  0.1262  0.3333
 1034W        W 3234   0.473   2.370  10.830 -0.0513 -0.0060  0.0843
 1035W        W 3235  10.347   5.590  21.663  0.3252 -0.0302 -0.1323
 1036W        W 3236   6.915   5.523   7.844 -0.2457 -0.1016 -0.0455
 1037W        W 3237  16.704   1.943  26.169 -0.2360  0.1000 -0.0750
 1038W        W 3238   0.588   1.395  24.967  0.1129 -0.1508  0.1506
 1039W        W 3239   3.980   1.584   4.858 -0.1903 -0.1023  0.0891
 1040W        W 3240   0.142   5.974   1.542  0.1582 -0.0229  0.0041
 1041W        W 3241  20.074   5.534   8.455  0.0169  0.1698 -0.1483
 1042W        W 3242  21.095   6.445  35.549 -0.0786  0.1730 -0.0503
 1043W        W 3243  16.209   3.231   0.246 -0.0069 -0.1518  0.5247
 1044W        W 3244   3.327   6.177  10.643 -0.0639 -0.0921 -0.0396
 1045W        W 3245  11.061   4.990  44.245  0.0397  0.0225  0.2177
 1046W        W 3246  18.478   6.324  44.522  0.0990 -0.0016  0.0305
 1047W        W 3247  18.341   2.684   6.898 -0.2434 -0.0179 -0.3018
 1048W        W 3248  20.522   2.857  28.836 -0.0455  0.0414 -0.1242
 1049W        W 3249  10.921   0.190   0.063  0.2646 -0.1706 -0.0678
 1050W        W 3250   2.660   5.986  14.217 -0.1892  0.1752  0.1255
 1051W        W 3251   9.679   3.353  29.058 -0.0202  0.1957  0.1120
 1052W        W 3252   3.377   6.452  31.283  0.3248 -0.2143 -0.3848
 1053W        W 3253  11.547   1.425  29.032 -0.1510 -0.1420  0.0432
 1054W        W 3254  11.231   2.107   1.616 -0.2203 -0.0433  0.0325
 1055W        W 3255   7.564   2.034  44.091  0.1894  0.0962 -0.0066
 1056W        W 3256  20.829   4.267   4.572  0.1185 -0.0458  0.0615
 1057W        W 3257   5.444   2.286  16.428  0.2604 -0.0775 -0.0812
 1058W        W 3258   5.930   0.138  38.778 -0.4658  0.1906 -0.0465
 1059W        W 3259   8.780   0.343  44.532 -0.0174 -0.0275 -0.4290
 1060W        W 3260   5.605   4.461   1.540  0.1459 -0.4220 -0.1862
 1061W        W 3261  21.010   3.650  16.035 -0.2773  0.1167 -0.1993
 1062W        W 3262   6.101   2.510   2.147 -0.1595  0.2742  0.1376
 1063W        W 3263   3.795   2.333   4.685  0.0348  0.2486 -0.2613
 1064W        W 3264   0.382   3.225   9.493  0.1318 -0.0292  0.1907
 1065W        W 3265  13.201   3.679  36.337  0.0607 -0.0023 -0.0626
 1066W        W 3266   3.685   3.762  44.621 -0.1414  0.0475  0.4057
 1067W        W 3267   4.160   1.349  35.052  0.0904 -0.0373 -0.0629
 1068W        W 3268   1.225   5.180   2.074 -0.0733  0.0962 -0.1292
 1069W        W 3269  17.326   1.490  13.224 -0.0222  0.1195  0.2563
 1070W        W 3270   7.561   5.446  44.108  0.2126  0.1443 -0.1182
 1071W        W 3271  13.862   4.518  15.357  0.1009  0.0950 -0.2165
 1072W        W 3272   7.318   4.295  39.999 -0.0587  0.1235  0.3332
 1073W        W 3273  20.551   1.757  13.162 -0.2129 -0.4456 -0.1171
 1074W        W 3274   8.144   0.205  34.173  0.1291 -0.1418  0.3419
 1075W        W 3275  16.616   0.326   8.000 -0.1681  0.1805  0.0967
 1076W        W 3276  11.815   5.869  44.998 -0.1383 -0.2185 -0.1430
 1077W        W 3277  10.800   3.160  12.785  0.1765 -0.0407  0.0618
 1078W        W 3278   8.767   0.075  17.482 -0.2653  0.5223  0.0717
 1079W        W 3279   7.136   3.252  40.327  0.0412  0.4810  0.0073
 1080W        W 3280   3.397   0.920  17.559 -0.1754 -0.0525  0.3062
 1081W        W 3281   3.753   2.815  32.145 -0.1428 -0.0347 -0.1721
 1082W        W 3282   0.230   6.225   9.540 -0.2746  0.0358 -0.0367
 1083W        W 3283  20.256   0.747  37.336 -0.1442 -0.1943  0.0931
 1084W        W 3284  16.298   3.702   5.596  0.2018 -0.0016 -0.2166
 1085W        W 3285   4.453   1.673  11.277 -0.0659  0.0619 -0.0959
 1086W        W 3286   7.862   4.639  33.819  0.0525  0.1391  0.0772
 1087W        W 3287  19.661   1.558  36.242 -0.0234  0.0808 -0.0206
 1088W        W 3288   0.636   5.417  39.873 -0.1179 -0.2033 -0.2452
 1089W        W 3289  15.298   2.586  18.249  0.2857 -0.2105 -0.0557
 1090W        W 3290  20.092   4.969  29.933  0.0154  0.0889 -0.0148
 1091W        W 3291  12.462   0.794  39.954  0.0490 -0.0988 -0.1906
 1092W        W 3292  15.576   0.531  14.108 -0.0227  0.0528  0.4324
 1093W        W 3293   6.344   5.394   6.512  0.2356  0.0105  0.1903
 1094W        W 3294   8.821   1.495  14.110 -0.0426  0.1389 -0.0541
 1095W        W 3295  19.760   5.011  32.798 -0.2126 -0.2387 -0.0379
 1096W        W 3296  17.741   3.553  28.554  0.0098 -0.2076 -0.1102
 1097W        W 3297  12.536   4.677   6.223  0.0242  0.1181  0.2349
 1098W        W 3298   0.796   2.419  27.392 -0.1472  0.0822  0.2525
 1099W        W 3299   4.388   1.788  29.861 -0.3258 -0.0486  0.0758
 1100W        W 3300  14.889   4.127  13.935 -0.0343 -0.1138  0.1477
 1101W        W 3301  12.212   0.556  15.909 -0.0668 -0.1441 -0.2257
 1102W        W 3302   2.244   1.882   5.615  0.3675 -0.0615  0.1208
 1103W        W 3303   3.028   4.180  27.886  0.0514  0.0929  0.2040
 1104W        W 3304  13.299   5.221  36.982  0.2314 -0.0376  0.0449
 1105W        W 3305  13.612   4.936  15.737  0.2302 -0.0725 -0.2339
 1106W        W 3306  10.693   2.189  36.165  0.1652 -0.1967 -0.0582
 1107W        W 3307   2.039   2.341  26.013 -0.2651  0.0601  0.1112
 1108W        W 3308  18.182   2.434   0.784  0.0153  0.0999 -0.2075
 1109W        W 3309   3.795   6.203  12.744 -0.1542 -0.4275  0.1587
 1110W        W 3310   5.715   0.505  20.096  0.0782 -0.1091  0.2375
 1111W        W 3311  16.930   6.172  34.175  0.0144 -0.2374  0.1922
 1112W        W 3312   0.692   5.194  34.475  0.1434  0.2757 -0.1127
 1113W        W 3313  10.580   4.047  13.866 -0.0256 -0.4792 -0.3973
 1114W        W 3314  13.643   4.958   7.583 -0.0397 -0.0507 -0.0459
 1115W        W 3315   2.083   1.986  30.633  0.3209 -0.1654 -0.3747
 1116W        W 3316   9.119   1.264  32.081 -0.0595 -0.1095  0.0345
 1117W        W 3317   8.885   4.848  23.273  0.2813  0.2051  0.3226
 1118W        W 3318   8.234   0.413   3.066 -0.1151  0.0766  0.2878
 1119W        W 3319  12.516   3.677  17.519 -0.5333  0.1743  0.1747
 1120W        W 3320   4.858   1.393   3.680  0.0473  0.1340 -0.1101
 1121W        W 3321   2.039   3.777   6.633 -0.1693 -0.1361  0.1459
 1122W        W 3322  15.180   3.895  37.267 -0.3462  0.2990 -0.1012
 1123W        W 3323   6.636   5.693   9.597 -0.0225 -0.1156  0.0544
 1124W        W 3324   6.254   0.303  17.255  0.0516  0.0488 -0.0500
 1125W        W 3325  18.344   6.318  33.014  0.0532 -0.0793 -0.0532
 1126W        W 3326   7.743   5.572  21.510 -0.1104  0.1714 -0.0601
 1127W        W 3327  18.516   0.422  26.111 -0.3143  0.0542 -0.1682
 1128W        W 3328  14.886   6.599   0.941  0.2979  0.1229 -0.1197
 1129W        W 3329   0.201   3.678   1.678  0.0405 -0.1240 -0.0263
 1130W        W 3330  20.438   4.117   2.411  0.0511  0.3512 -0.1123
 1131W        W 3331  20.546   3.698  31.625 -0.4492 -0.0106 -0.1307
 1132W        W 3332  14.064   1.131   3.365 -0.3284 -0.2046 -0.1991
 1133W        W 3333  14.489   2.671  33.311  0.2252 -0.0916 -0.0880
 1134W        W 3334   5.739   2.961  41.718 -0.0410 -0.3713  0.0056
 1135W        W 3335  20.359   6.173  11.144  0.1469 -0.0476  0.0027
 1136W        W 3336   0.725   2.909  23.931  0.0109  0.1943 -0.1265
 1137W        W 3337  15.210   1.766  38.208 -0.1388  0.2410  0.0575
 1138W        W 3338  20.261   0.817  21.923  0.0059 -0.1340  0.1690
 1139W        W 3339  21.120   2.439  12.248  0.4708  0.0459 -0.2631
 1140W        W 3340  21.032   2.381  33.560 -0.0061 -0.1473 -0.2139
 1141W        W 3341   9.446   5.059  11.242 -0.1733 -0.0721 -0.0126
 1142W        W 3342   8.250   3.229   0.142  0.0865 -0.0736 -0.2823
 1143W        W 3343  13.727   4.269   8.886 -0.2220  0.1780 -0.1437
 1144W        W 3344   9.204   2.606   2.822  0.0693 -0.0946 -0.0955
 1145W        W 3345   4.236   4.159  37.642  0.2864  0.1179  0.3058
 1146W        W 3346  18.348   5.850  42.453 -0.0343 -0.0603 -0.0032
 1147W        W 3347  15.940   0.283  38.194 -0.1713  0.0437 -0.0509
 1148W        W 3348   3.534   0.716  43.151 -0.0527 -0.3762 -0.2087
 1149W        W 3349  13.088   0.896  19.508  0.2610  0.0755 -0.0188
 1150W        W 3350  20.712   0.234   9.379 -0.1278  0.0611  0.0438
 1151W        W 3351   1.388   4.056  37.039 -0.0258 -0.0171 -0.2888
 1152W        W 3352   6.227   0.110  43.802 -0.2394 -0.0931  0.2292
 1153W        W 3353  18.744   0.042   0.136 -0.1772 -0.2864 -0.0197
 1154W        W 3354   0.879   3.497   6.086  0.0770  0.1418 -0.1044
 1155W        W 3355   6.662   2.399  30.731  0.0268  0.2180 -0.0519
 1156W        W 3356  20.862   5.342  13.557  0.0412  0.0822 -0.1288
 1157W        W 3357  17.291   0.282  26.494  0.3792  0.0583 -0.1419
 1158W        W 3358   4.043   2.615   5.048 -0.1326 -0.1617 -0.3934
 1159W        W 3359   9.677   4.883  24.856  0.0090  0.3360  0.1204
 1160W        W 3360  14.693   5.763  38.918  0.0538  0.1615  0.1722
 1161W        W 3361  16.998   4.583   7.433  0.0006 -0.0482 -0.0285
 1162W        W 3362   4.862   3.822  15.330 -0.0101  0.0310 -0.2594
 1163W        W 3363  10.252   5.717  25.131 -0.1307 -0.0551 -0.2569
 1164W        W 3364  16.846   0.296   7.392  0.0583 -0.2247  0.0347
 1165W        W 3365  16.214   4.030  41.134  0.1270 -0.0281  0.1756
 1166W        W 3366  18.437   1.846   9.887  0.2067  0.0303 -0.0550
 1167W        W 3367   6.574   0.284  10.878  0.1142  0.1200  0.0513
 1168W        W 3368  20.203   3.891   6.844  0.0910  0.1946  0.0545
 1169W        W 3369   7.975   4.724  16.418  0.2911 -0.2867  0.2020
 1170W        W 3370   0.849   4.496  12.023 -0.0294  0.0099  0.1317
 1171W        W 3371  11.572   0.188   7.657 -0.3399  0.0231 -0.2367
 1172W        W 3372   5.132   2.588   2.299  0.2518  0.3796  0.0719
 1173W        W 3373  10.353   1.177  18.795  0.2203 -0.1335 -0.2382
 1174W        W 3374   6.404   4.540  15.358  0.2013  0.2153  0.2272
 1175W        W 3375   3.721   5.045   4.280 -0.1443 -0.2334 -0.2651
 1176W        W 3376  11.625   6.035  22.561 -0.1203 -0.2045 -0.2415
 1177W        W 3377   1.162   2.903  28.290  0.1435  0.3555 -0.1647
 1178W        W 3378   0.337   0.172  34.175 -0.1075  0.0363  0.1884
 1179W        W 3379  18.979   6.569   4.625 -0.0414  0.0563 -0.1293
 1180W        W 3380   7.005   5.567  42.021  0.5605  0.0130  0.1185
 1181W        W 3381  12.329   2.488  10.682  0.0360 -0.0000  0.2146
 1182W        W 3382  18.401   4.192   0.025  0.2320  0.0821 -0.1917
 1183W        W 3383  14.631   4.112  11.542 -0.0980 -0.0046  0.1614
 1184W        W 3384   2.304   1.622   4.312 -0.1571  0.2759 -0.0975
 1185W        W 3385   3.424   1.877  38.797  0.0266 -0.1824  0.0395
 1186W        W 3386  18.449   0.095  37.303 -0.0808 -0.0485  0.0842
 1187W        W 3387   2.895   3.358  28.737  0.0345  0.0736 -0.0080
 1188W        W 3388   1.989   6.031  12.700  0.1913 -0.0017 -0.1067
 1189W        W 3389   1.856   4.301  34.482 -0.2481 -0.0067  0.2721
 1190W        W 3390  19.114   4.328  36.096 -0.1243  0.1004  0.0343
 1191W        W 3391   5.026   1.475  16.588  0.2192  0.2104  0.2437
 1192W        W 3392   2.049   5.274  39.824 -0.1261 -0.1085 -0.1789
 1193W        W 3393  16.644   0.602  29.739  0.0112 -0.0651  0.1499
 1194W        W 3394   3.043   5.344  38.880 -0.0270  0.1617 -0.1949
 1195W        W 3395   6.230   4.504   0.299 -0.0021 -0.0075  0.3358
 1196W        W 3396  19.494   3.673  37.635 -0.0850 -0.0506  0.1279
 1197W        W 3397   1.428   5.680  10.255  0.1044  0.0344 -0.0243
 1198W        W 3398   8.195   1.765  35.980  0.0613 -0.1659  0.1442
 1199W        W 3399  17.683   6.019  33.921  0.1116  0.2283 -0.1613
 1200W        W 3400  14.364   3.314   9.181  0.0475  0.1764  0.0141
 1201W        W 3401  12.108   3.034  14.531 -0.0509  0.0260 -0.2130
 1202W        W 3402  10.806   0.746  25.035  0.1381  0.1726  0.1846
 1203W        W 3403   1.424   1.414  41.186  0.0956  0.1154  0.0814
 1204W        W 3404   4.634   5.446  12.440  0.1564 -0.1587  0.4068
 1205W        W 3405   3.229   4.535  13.360  0.0094  0.0388  0.2156
 1206W        W 3406   1.995   1.437  26.887 -0.0646  0.2595  0.2806
 1207W        W 3407   1.579   1.034  25.687 -0.1209  0.2348  0.1360
 1208W        W 3408  20.206   1.480  11.015  0.0987 -0.1696  0.2672
 1209W        W 3409  15.661   4.916  31.974 -0.0635 -0.1122 -0.1839
 1210W        W 3410   8.198   3.557  17.886 -0.0689  0.2509  0.2171
 1211W        W 3411  17.933   1.266  44.028 -0.0726 -0.0937  0.1505
 1212W        W 3412  13.092   4.135  18.038  0.3141  0.1833 -0.0354
 1213W        W 3413  11.119   0.710  10.880 -0.2228  0.1206  0.3813
 1214W        W 3414   2.802   6.598  13.795 -0.0377 -0.1188  0.1486
 1215W        W 3415  13.172   0.304   1.285 -0.1710  0.0635  0.2079
 1216W        W 3416  18.313   6.120  29.629  0.0518  0.0107 -0.0540
 1217W        W 3417  10.473   1.524  30.041 -0.2630  0.1957  0.1817
 1218W        W 3418  19.037   2.926   3.187 -0.2249 -0.2446 -0.0908
 1219W        W 3419  12.931   3.652  29.932 -0.2114  0.2414 -0.0645
 1220W        W 3420   6.917   4.417  39.047 -0.1276  0.0361  0.1923
 1221W        W 3421   6.601   5.427  32.415 -0.0480 -0.3098  0.1774
 1222W        W 3422  18.314   2.789  32.575 -0.1625  0.0513 -0.1513
 1223W        W 3423  15.149   5.907  44.953 -0.1414 -0.2386  0.3208
 1224W        W 3424   3.232   4.685  34.980 -0.0933  0.4412 -0.0257
 1225W        W 3425  17.186   0.476  31.665 -0.0189 -0.2473 -0.2378
 1226W        W 3426   1.604   3.173  14.009  0.0162  0.1023 -0.1889
 1227W        W 3427   5.652   3.293   9.540  0.0711  0.1068  0.0322
 1228W        W 3428   3.654   2.223  26.606  0.0223 -0.1342 -0.0473
 1229W        W 3429  12.392   5.356  28.299 -0.2088  0.0745  0.1181
 1230W        W 3430  10.621   0.716  31.688 -0.0881 -0.0593 -0.2061
 1231W        W 3431  16.267   1.182  34.591  0.0793  0.0256  0.3639
 1232W        W 3432  10.438   2.990   1.971 -0.1309 -0.1758 -0.1954
 1233W        W 3433   7.991   3.579  44.559  0.0639  0.3513  0.3911
 1234W        W 3434   4.455   0.303  16.555  0.5026  0.1357  0.2060
 1235W        W 3435   4.592   5.145  10.700 -0.1923 -0.1043  0.0289
 1236W        W 3436  12.748   5.557  20.170 -0.0478 -0.0274  0.0344
 1237W        W 3437   9.423   3.345   3.346  0.1414 -0.0780 -0.0945
 1238W        W 3438   5.654   2.806  38.787  0.0400  0.0661 -0.0623
 1239W        W 3439   9.784   0.308  20.550 -0.1068  0.1181 -0.1098
 1240W        W 3440  18.741   2.361  33.825  0.0873 -0.0787  0.4614
 1241W        W 3441  12.289   0.800   6.677  0.2559  0.2490  0.1543
 1242W        W 3442   2.135   0.869  40.379  0.2441  0.0017 -0.0667
 1243W        W 3443  12.678   3.983  32.833 -0.1942  0.0060  0.0686
 1244W        W 3444   9.491   2.187  42.176  0.1534  0.1646 -0.1014
 1245W        W 3445   3.136   4.055  16.880  0.1098 -0.0248 -0.1054
 1246W        W 3446  12.122   4.137  28.458 -0.0238  0.2628  0.5671
 1247W        W 3447  18.907   3.437  14.565  0.1478 -0.0923 -0.3248
 1248W        W 3448  21.136   0.427  36.300  0.0722 -0.1789  0.1444
 1249W        W 3449  11.943   6.010  17.762  0.0341 -0.2826 -0.2050
 1250W        W 3450  16.804   2.152  41.970 -0.2396  0.0871  0.1519
 1251W        W 3451   8.605   4.206  12.360 -0.2648  0.1256  0.1691
 1252W        W 3452  15.448   4.443  32.704  0.0964 -0.0052 -0.0079
 1253W        W 3453   4.780   3.447  35.383 -0.1299 -0.0898  0.2041
 1254W        W 3454   6.842   2.189  36.245 -0.1617  0.3583  0.3726
 1255W        W 3455   5.268   1.542  17.084  0.2034  0.4848  0.4912
 1256W        W 3456   6.725   5.900  44.099  0.1619  0.1063 -0.2744
 1257W        W 3457  11.224   2.351   3.533  0.0155 -0.0792  0.3521
 1258W        W 3458   9.675   4.605  31.121  0.1330 -0.0510 -0.0197
 1259W        W 3459  16.496   0.625  37.495  0.1390  0.1563  0.1862
 1260W        W 3460  16.532   1.673  43.880 -0.1785 -0.1828  0.1923
 1261W        W 3461  16.356   6.384  41.139  0.0105  0.1324 -0.0913
 1262W        W 3462  12.808   3.926   3.114  0.1796  0.1657 -0.1304
 1263W        W 3463  14.898   1.556  38.510  0.2610 -0.1728 -0.1311
 1264W        W 3464   7.483   3.514  31.814 -0.1653  0.0233  0.0820
 1265W        W 3465   8.300   4.722   6.802 -0.3855  0.2130  0.1141
 1266W        W 3466   2.604   5.734  34.941 -0.0561 -0.1074 -0.0706
 1267W        W 3467  17.898   6.386  41.034  0.0833  0.0368 -0.1403
 1268W        W 3468   9.562   1.656  14.422  0.2325  0.1294  0.5366
 1269W        W 3469  18.859   2.107  29.781 -0.1442  0.3027 -0.2511
 1270W        W 3470   2.902   6.025  14.624  0.3064 -0.3038 -0.0567
 1271W        W 3471   0.135   3.354  13.517 -0.1879  0.1284  0.2129
 1272W        W 3472  10.585   4.667  20.680  0.0662 -0.1862  0.6410
 1273W        W 3473   3.590   4.453  11.584  0.0967  0.0073  0.1412
 1274W        W 3474   9.658   4.731   3.262  0.1596 -0.2840  0.1723
 1275W        W 3475  19.757   0.066  12.976 -0.2665  0.3681  0.0392
 1276W        W 3476   3.368   0.030   7.129 -0.1176  0.1251  0.0710
 1277W        W 3477   9.335   3.970  13.472 -0.0297 -0.1727 -0.2799
 1278W        W 3478   2.813   4.278   9.716 -0.0991 -0.1432  0.0340
 1279W        W 3479   5.382   4.173   3.431  0.2374  0.0488 -0.0403
 1280W        W 3480   8.080   2.958  17.005 -0.1147 -0.0533 -0.0412
 1281W        W 3481  14.132   2.558  42.924 -0.1317 -0.3046 -0.1147
 1282W        W 3482  11.127   0.035   6.029 -0.2518 -0.2428 -0.2517
 1283W        W 3483  19.714   5.242  14.182  0.1094 -0.1980  0.0918
 1284W        W 3484  10.062   2.345  39.325  0.1264 -0.1704  0.2438
 1285W        W 3485  11.186   5.927   8.512 -0.0647  0.1802 -0.1549
 1286W        W 3486   9.756   3.387  38.218 -0.0253 -0.1611 -0.1012
 1287W        W 3487  16.970   6.017   4.549  0.3026 -0.0404  0.0484
 1288W        W 3488   1.171   3.500  43.086  0.4050  0.0455  0.1181
 1289W        W 3489  12.821   0.870  21.113  0.2170  0.0274  0.2481
 1290W        W 3490   5.006   5.443  42.500  0.1973 -0.2421  0.1037
 1291W        W 3491  10.048   0.009  35.784 -0.0304  0.0087  0.2323
 1292W        W 3492  19.749   0.042   7.496 -0.2286  0.0809 -0.0593
 1293W        W 3493   9.794   6.028  31.039  0.2233  0.1086  0.1390
 1294W        W 3494   5.770   1.938  12.026 -0.1003  0.0120 -0.1707
 1295W        W 3495   5.623   3.069  29.139 -0.1505  0.0079 -0.5810
 1296W        W 3496  16.868   4.364   3.055  0.0064 -0.0389 -0.1450
 1297W        W 3497   1.260   4.665   3.231  0.0449 -0.3615 -0.0329
 1298W        W 3498   7.343   5.653  18.660 -0.2015 -0.0464 -0.1784
 1299W        W 3499   7.095   1.098  39.292 -0.0081 -0.1143 -0.0808
 1300W        W 3500   1.599   0.160  38.555 -0.1261  0.0900 -0.0743
 1301W        W 3501   0.229   4.810  45.025  0.1335  0.1745  0.2124
 1302W        W 3502  12.290   0.701  19.110  0.1039  0.0327 -0.1308
 1303W        W 3503   0.794   0.001  26.273  0.0420  0.0241  0.0770
 1304W        W 3504  15.411   3.368  16.322 -0.3679 -0.1070 -0.1297
 1305W        W 3505  14.878   2.970  12.061 -0.0235  0.1616  0.1060
 1306W        W 3506   5.620   2.505   4.474  0.5100  0.2598  0.0964
 1307W        W 3507   3.049   3.011  26.333  0.0353 -0.1782  0.0574
 1308W        W 3508  14.395   5.559  14.670 -0.2174  0.1401  0.0173
 1309W        W 3509   5.887   4.722  40.641 -0.0575  0.3889  0.1599
 1310W        W 3510  15.045   5.754  32.770  0.0809 -0.0507  0.0632
 1311W        W 3511   3.594   3.449  36.558 -0.0326 -0.2884  0.0096
 1312W        W 3512  20.718   0.728  24.329 -0.0092  0.3415  0.2390
 1313W        W 3513  20.064   4.736  19.660 -0.2450 -0.0625  0.1578
 1314W        W 3514   0.774   2.098  43.297 -0.2834  0.3122 -0.1330
 1315W        W 3515   7.410   5.173  43.343 -0.0394 -0.0828  0.2338
 1316W        W 3516   5.232   1.095  17.297  0.0675  0.3647 -0.0669
 1317W        W 3517   0.457   3.035   2.788 -0.0640 -0.4007 -0.2521
 1318W        W 3518   7.267   6.080  40.345  0.0944  0.0419 -0.3396
 1319W        W 3519   6.945   2.021  43.267 -0.1656  0.2130  0.0369
 1320W        W 3520  12.479   3.048   5.502  0.0463  0.3660 -0.1231
 1321W        W 3521  12.737   6.467  39.101 -0.0544  0.0901 -0.1792
 1322W        W 3522  19.325   5.442  38.977 -0.0743  0.2865 -0.2283
 1323W        W 3523  18.432   3.647  15.753 -0.1041  0.3258 -0.0265
 1324W        W 3524  19.426   4.169  11.006  0.3534  0.3564 -0.1364
 1325W        W 3525   3.676   2.677  13.971  0.1145 -0.0236 -0.0488
 1326W        W 3526  18.306   1.503   9.203  0.1457 -0.1376 -0.0702
 1327W        W 3527  10.618   5.805  30.581 -0.1799 -0.2207 -0.1586
 1328W        W 3528   1.163   5.310  44.555  0.0440  0.4695  0.1716
 1329W        W 3529  16.540   1.188  33.627 -0.0603  0.0315 -0.2215
 1330W        W 3530  19.335   2.832  26.503  0.1695 -0.1129 -0.1986
 1331W        W 3531  20.385   1.124  24.985 -0.3015  0.2923  0.2099
 1332W        W 3532   3.425   2.371  31.066 -0.2173  0.1121 -0.2926
 1333W        W 3533  14.380   5.572  31.262 -0.0290 -0.1253  0.0435
 1334W        W 3534  17.714   5.984   0.001 -0.2456 -0.0618  0.0338
 1335W        W 3535  19.494   0.233   3.253  0.0272 -0.0711 -0.1381
 1336W        W 3536   2.950   5.537  17.822 -0.0362 -0.2873  0.1571
 1337W        W 3537  13.472   6.376  41.633 -0.2016 -0.1041 -0.0372
 1338W        W 3538   3.253   3.786  16.431 -0.2029 -0.0308  0.0259
 1339W        W 3539   3.154   2.597  28.883  0.0267  0.0150  0.1248
 1340W        W 3540  12.257   3.417  11.295 -0.1355  0.1101  0.1731
 1341W        W 3541  11.511   4.575   1.798 -0.3850 -0.1155 -0.0237
 1342W        W 3542   4.498   1.452  39.182  0.2799 -0.1177 -0.1284
 1343W        W 3543  16.853   1.471  14.011  0.0255  0.2833 -0.1620
 1344W        W 3544  18.056   4.505  13.337 -0.1145 -0.0786 -0.0620
 1345W        W 3545   5.495   4.807  43.595 -0.1121  0.1180 -0.0780
 1346W        W 3546   7.067   4.692  30.309  0.1171  0.1257  0.1055
 1347W        W 3547  11.935   3.267  20.717  0.0316 -0.1356  0.1896
 1348W        W 3548   3.557   0.694  33.773  0.3126 -0.1788  0.0376
 1349W        W 3549   0.543   2.854  21.543  0.0527 -0.0714 -0.0870
 1350W        W 3550   3.327   6.246  42.177  0.6112  0.0423  0.0954
 1351W        W 3551  11.624   4.303  17.545  0.1369 -0.0470 -0.3575
 1352W        W 3552  20.978   4.080   8.470 -0.0596 -0.0215  0.3348
 1353W        W 3553  16.644   5.201  39.142  0.0345 -0.1762  0.0538
 1354W        W 3554  14.093   2.347   4.148  0.2208  0.0131  0.2271
 1355W        W 3555  12.703   4.018  36.954  0.0139 -0.1554 -0.0605
 1356W        W 3556   9.652   2.890  18.522  0.3547 -0.1050 -0.1379
 1357W        W 3557  16.546   0.124  32.914 -0.0939  0.1642  0.1274
 1358W        W 3558  19.123   5.894  14.524  0.3580 -0.2239  0.0961
 1359W        W 3559  13.706   1.394   0.158  0.3084 -0.0090  0.0833
 1360W        W 3560  16.465   6.117  43.405 -0.3502 -0.0530 -0.1634
 1361W        W 3561  14.653   5.154  34.254 -0.0600  0.0577 -0.0007
 1362W        W 3562   9.813   4.437  41.525  0.2162  0.3441  0.2217
 1363W        W 3563  18.445   5.973  40.922  0.1637  0.0399  0.1271
 1364W        W 3564  18.550   4.303  33.521  0.0484  0.1823  0.3289
 1365W        W 3565  18.990   5.174  30.536 -0.2488  0.0214 -0.2636
 1366W        W 3566  19.038   6.412   2.867 -0.0390  0.0872 -0.2015
 1367W        W 3567   3.926   5.416  31.939  0.0058  0.0058 -0.0797
 1368W        W 3568   0.777   3.859   0.868  0.1573  0.1440 -0.3292
 1369W        W 3569  13.914   2.736  40.841 -0.1820 -0.1854  0.1217
 1370W        W 3570  10.399   2.001  31.342  0.1701  0.0189  0.0237
 1371W        W 3571   5.053   4.570  43.465 -0.3010  0.0937 -0.0155
 1372W        W 3572  10.489   5.259   5.889  0.2200 -0.1030  0.1655
 1373W        W 3573  18.871   2.107  33.073 -0.0071  0.1174  0.0923
 1374W        W 3574  10.871   6.471   0.622 -0.0439  0.1617 -0.2954
 1375W        W 3575  20.438   0.929   1.871  0.1664 -0.0731  0.0181
 1376W        W 3576  13.642   5.848  28.000  0.0319  0.4062 -0.0369
 1377W        W 3577   1.379   4.266  35.146 -0.1717  0.0197 -0.2437
 1378W        W 3578  18.373   4.412  31.820 -0.0973 -0.1105 -0.0240
 1379W        W 3579  10.132   2.515  34.167  0.1235  0.1287 -0.1910
 1380W        W 3580   9.880   2.299  43.217 -0.3026 -0.3247 -0.4077
 1381W        W 3581  20.570   6.298  12.450 -0.1505 -0.2357 -0.1010
 1382W        W 3582  15.425   4.911  31.542  0.0151  0.0054 -0.1169
 1383W        W 3583  17.593   1.249  33.440 -0.0189 -0.1250 -0.2926
 1384W        W 3584   9.635   3.107  15.436  0.2562  0.0435  0.3504
 1385W        W 3585   3.097   4.668  32.507  0.0678  0.0130 -0.0234
 1386W        W 3586  16.369   1.678  43.329 -0.0146 -0.0560  0.0291
 1387W        W 3587   9.300   5.926  18.612 -0.0066 -0.0300 -0.4985
 1388W        W 3588  16.146   6.012  28.505  0.1797 -0.0475 -0.3405
 1389W        W 3589   9.822   0.881  34.654 -0.0114  0.1068  0.0674
 1390W        W 3590  11.773   2.817  17.850 -0.0769  0.2318  0.2812
 1391W        W 3591  18.447   3.397  10.467  0.1494 -0.2245 -0.1240
 1392W        W 3592  10.421   3.622  15.386 -0.1672  0.1526 -0.3294
 1393W        W 3593  13.046   0.361   5.145  0.3340 -0.1079 -0.2154
 1394W        W 3594   8.439   3.134  11.814 -0.0028 -0.1209 -0.0125
 1395W        W 3595  18.719   5.833  44.511 -0.1782 -0.1098  0.2194
 1396W        W 3596   3.067   3.766  34.314 -0.0636 -0.1753 -0.1294
 1397W        W 3597   5.728   4.149  35.768  0.0560  0.1125 -0.2250
 1398W        W 3598  19.044   1.251  38.585 -0.2217  0.2205  0.3375
 1399W        W 3599  11.620   0.195  29.470 -0.0223 -0.1111  0.2521
 1400W        W 3600  10.395   5.804  20.730  0.0137  0.1210 -0.1276
 1401W        W 3601   8.849   5.435  16.386 -0.2128  0.1557 -0.1888
 1402W        W 3602   1.832   5.286  10.991 -0.1471 -0.1031  0.3230
 1403W        W 3603   0.287   3.758   2.850  0.0376  0.0043 -0.0513
 1404W        W 3604   7.512   3.971  21.208 -0.0194  0.0276  0.0555
 1405W        W 3605  14.452   1.312   2.071 -0.0088  0.2649  0.1282
 1406W        W 3606  10.956   2.610  40.851 -0.0774 -0.2828 -0.2105
 1407W        W 3607  19.448   4.872  26.190 -0.1167  0.4580  0.1710
 1408W        W 3608  19.243   4.861   7.592  0.1205 -0.1048 -0.0276
 1409W        W 3609   3.579   4.864  33.346  0.4095  0.0654 -0.3488
 1410W        W 3610   2.133   1.902  12.215 -0.0302  0.0357  0.3693
 1411W        W 3611   2.831   3.984  33.468  0.0406  0.1998 -0.2218
 1412W        W 3612  14.798   4.502  32.077  0.2742  0.1285  0.6827
 1413W        W 3613   7.671   2.938  22.479 -0.1609 -0.2979 -0.0385
 1414W        W 3614   7.919   0.362  38.199  0.1837  0.0010  0.1025
 1415W        W 3615   8.426   4.730  33.168  0.2127  0.0313  0.1135
 1416W        W 3616  11.905   4.390   9.593 -0.1054 -0.0111 -0.0512
 1417W        W 3617   7.118   3.072  14.680 -0.0213 -0.1108 -0.2822
 1418W        W 3618  15.902   1.198   2.752  0.0680  0.2969 -0.2416
 1419W        W 3619   4.875   6.570  30.358  0.1515 -0.1609 -0.1469
 1420W        W 3620   8.703   6.251  35.786  0.0360  0.2027 -0.0145
 1421W        W 3621  21.126   2.699  39.850  0.0226 -0.3005 -0.1954
 1422W        W 3622  19.181   2.954   7.955  0.2891  0.1874  0.1983
 1423W        W 3623   3.025   5.967   6.592 -0.0715  0.2088  0.0475
 1424W        W 3624  15.217   6.105  30.837  0.5476 -0.0169  0.0491
 1425W        W 3625   5.168   5.117   1.012  0.0379 -0.1147  0.2355
 1426W        W 3626   3.506   2.639  16.776  0.1244  0.1319  0.0027
 1427W        W 3627   2.312   3.059  40.391 -0.0684  0.5359 -0.0249
 1428W        W 3628   7.287   1.711  18.068 -0.4466 -0.0160  0.0067
 1429W        W 3629   3.562   5.170  38.020  0.0483 -0.3990 -0.0753
 1430W        W 3630  15.603   1.773  43.472  0.0373 -0.1862 -0.1034
 1431W        W 3631  17.846   0.787   6.973  0.1365  0.1948 -0.1081
 1432W        W 3632  12.496   5.945  38.212  0.0945 -0.0421  0.3060
 1433W        W 3633   8.806   1.524  14.634 -0.1446  0.1195  0.0156
 1434W        W 3634  15.138   0.824  40.293 -0.3917 -0.3748  0.0557
 1435W        W 3635  16.234   0.282  33.759 -0.0534  0.2785  0.1064
 1436W        W 3636  14.236   4.871  13.087  0.2412  0.0174  0.0929
 1437W        W 3637  20.511   6.389  31.922 -0.0001  0.0116  0.0551
 1438W        W 3638  12.845   6.105  19.236  0.3361  0.0271 -0.2477
 1439W        W 3639   5.227   5.262  19.002 -0.0356  0.1574 -0.1299
 1440W        W 3640  12.526   4.510  32.061 -0.0371 -0.0542  0.3067
 1441W        W 3641  17.357   0.848  40.762 -0.1270 -0.2114 -0.1160
 1442W        W 3642  11.442   1.982   7.456  0.0338  0.2295 -0.1144
 1443W        W 3643   8.724   3.858  30.570  0.0436  0.1597 -0.1916
 1444W        W 3644   1.132   1.922   9.012 -0.2776  0.0705  0.0472
 1445W        W 3645   9.205   1.419  31.196 -0.0090  0.1044 -0.0830
 1446W        W 3646   4.494   2.674  33.944  0.0908  0.0390 -0.0149
 1447W        W 3647  14.062   4.817  12.574 -0.1246 -0.2028  0.4085
 1448W        W 3648   9.639   6.235  37.594 -0.0903  0.1341  0.1039
 1449W        W 3649  10.404   5.668   5.006  0.0561 -0.2106 -0.0362
 1450W        W 3650  14.473   1.234  35.699  0.0654 -0.2577 -0.0730
 1451W        W 3651   1.965   5.509   0.147  0.0241  0.0187  0.0480
 1452W        W 3652  15.226   2.099   3.687 -0.1046  0.0306 -0.0806
 1453W        W 3653   6.035   2.151  11.263  0.3992  0.2616 -0.0413
 1454W        W 3654   8.890   6.317  31.353  0.0582 -0.0459  0.0840
 1455W        W 3655  20.828   6.449   1.068  0.0698  0.1048 -0.3964
 1456W        W 3656   3.901   2.087  38.834  0.0185  0.0343 -0.2568
 1457W        W 3657   3.009   2.146  38.739  0.0246  0.1989  0.2183
 1458W        W 3658  13.708   1.972  38.572  0.1177  0.0219  0.2037
 1459W        W 3659  19.444   5.402  30.370  0.2266 -0.1542 -0.0038
 1460W        W 3660   8.133   2.191  13.984  0.0614 -0.2638 -0.0453
 1461W        W 3661  11.972   1.144  14.592 -0.0219  0.2027  0.0675
 1462W        W 3662  12.425   3.999   0.920 -0.0810 -0.0957 -0.2164
 1463W        W 3663   9.665   1.537  38.816 -0.2920 -0.2420 -0.1167
 1464W        W 3664   1.086   4.469  42.219  0.1217  0.3021  0.3426
 1465W        W 3665  15.697   0.391  13.589 -0.3972  0.0907 -0.1286
 1466W        W 3666  10.779   5.289  21.538  0.1331 -0.1494  0.1862
 1467W        W 3667  15.552   0.960  10.537  0.1930 -0.1655 -0.1133
 1468W        W 3668  19.554   4.127  22.786  0.0479  0.1057 -0.1134
 1469W        W 3669  15.731   6.071   3.133 -0.0825 -0.4019 -0.2290
 1470W        W 3670   5.946   0.474  14.915 -0.0602 -0.1455  0.0537
 1471W        W 3671  15.363   4.482   6.026  0.1035  0.4495 -0.2436
 1472W        W 3672   7.015   1.199   6.823 -0.1079 -0.2204 -0.0686
 1473W        W 3673  19.790   4.736   0.738 -0.0172  0.2215  0.2256
 1474W        W 3674   1.569   2.599  33.223 -0.2489  0.2217  0.0650
 1475W        W 3675  12.281   6.338   5.013 -0.0015 -0.1142 -0.0767
 1476W        W 3676  12.606   0.951  41.396 -0.1078  0.2476  0.0475
 1477W        W 3677  13.431   6.440  30.999 -0.1106 -0.1934 -0.2015
 1478W        W 3678  12.296   3.086  11.674 -0.0818 -0.2425 -0.2730
 1479W        W 3679  17.714   1.662   1.132 -0.2898  0.2064 -0.1246
 1480W        W 3680  10.146   5.347  39.893  0.0814 -0.1026  0.0024
 1481W        W 3681   4.364   3.818  29.944  0.0250 -0.0278 -0.2027
 1482W        W 3682  20.961   2.614  12.752 -0.1257 -0.0078 -0.0318
 1483W        W 3683   3.867   3.964  17.721 -0.2572  0.0621 -0.1659
 1484W        W 3684  20.783   1.882  30.069  0.0252  0.0859  0.1996
 1485W        W 3685  16.079   4.644  17.181  0.3557  0.3491  0.2029
 1486W        W 3686  11.846   3.470  36.980 -0.1085 -0.0464  0.0689
 1487W        W 3687   9.975   3.519  31.985 -0.1667  0.1672  0.4468
 1488W        W 3688   6.120   1.014  16.839 -0.0592  0.1941  0.1188
 1489W        W 3689  11.442   1.247  28.146  0.1254  0.0776 -0.2504
 1490W        W 3690  11.256   3.667   3.173  0.1592 -0.2143 -0.0209
 1491W        W 3691   7.220   5.784  13.805  0.0846 -0.0772  0.4109
 1492W        W 3692   2.801   1.686  39.394  0.1251 -0.1147 -0.5121
 1493W        W 3693  17.894   6.443  42.700 -0.3461 -0.1747 -0.0399
 1494W        W 3694   3.526   5.169   5.237 -0.0117  0.0443  0.1028
 1495W        W 3695  16.005   5.553  38.452  0.2783  0.2271  0.0549
 1496W        W 3696   0.283   1.238   2.110  0.3244  0.2117 -0.0071
 1497W        W 3697  11.021   0.550  10.438 -0.2026 -0.0995 -0.0612
 1498W        W 3698   1.667   5.770  11.275 -0.1441  0.2958  0.3619
 1499W        W 3699  17.416   2.022   1.344 -0.0998  0.2335  0.2275
 1500W        W 3700  15.220   1.161   0.041 -0.0332 -0.1933  0.0619
 1501W        W 3701  19.027   0.506  34.707 -0.1166  0.1089  0.2726
 1502W        W 3702   0.090   5.892  30.721  0.0428  0.1099 -0.3707
 1503W        W 3703   1.362   3.598  27.534 -0.0791 -0.2538 -0.3227
 1504W        W 3704  14.805   0.323  28.577 -0.1495  0.1581  0.0652
 1505W        W 3705  20.353   4.988  43.402  0.1997  0.0640 -0.1756
 1506W        W 3706   4.059   6.148  31.329 -0.0068 -0.2470 -0.1490
 1507W        W 3707   9.425   3.606   9.378 -0.2540  0.0100 -0.0862
 1508W        W 3708  19.339   5.580  20.913 -0.0296  0.0859 -0.0006
 1509W        W 3709   4.158   2.721  32.962  0.2179 -0.3366  0.1840
 1510W        W 3710  15.829   3.682  32.063  0.1011 -0.1765 -0.1808
 1511W        W 3711   9.354   6.110  44.323 -0.3146  0.1118  0.1583
 1512W        W 3712  16.297   6.600  33.354  0.1077  0.0927 -0.1125
 1513W        W 3713  13.600   0.066  38.875 -0.4068  0.2166  0.7304
 1514W        W 3714  13.594   0.904  40.260 -0.1293  0.1447 -0.0741
 1515W        W 3715   0.990   3.277   7.618  0.1770 -0.0252  0.0014
 1516W        W 3716   9.777   3.106  16.969 -0.2026 -0.0729 -0.0026
 1517W        W 3717   4.015   6.444  15.672 -0.1587 -0.1617  0.1237
 1518W        W 3718  20.675   4.827  40.007  0.1720  0.2098 -0.1194
 1519W        W 3719  11.573   0.334   8.530  0.3117 -0.0786  0.0157
 1520W        W 3720  11.058   0.506  20.032 -0.1367 -0.0053  0.1546
 1521W        W 3721  16.159   3.240   8.587  0.0986 -0.1498 -0.1880
 1522W        W 3722  19.740   4.609  10.316 -0.2216  0.4438  0.1080
 1523W        W 3723  18.818   3.555  25.545 -0.0187 -0.1872  0.2504
 1524W        W 3724  11.177   1.378  11.802  0.1679  0.0181  0.2029
 1525W        W 3725   4.665   5.595  39.175 -0.0584 -0.0309  0.1779
 1526W        W 3726   4.499   2.330   4.019 -0.2030  0.0471 -0.1365
 1527W        W 3727   7.475   0.228  13.977  0.0233  0.1422 -0.3580
 1528W        W 3728   9.845   1.161  24.161  0.0220  0.2306 -0.0578
 1529W        W 3729   0.613   4.838  22.571 -0.0204  0.1211 -0.3192
 1530W        W 3730   2.566   0.658  37.728 -0.1178  0.2514  0.2837
 1531W        W 3731   0.917   4.535  34.775  0.0824  0.2168 -0.0702
 1532W        W 3732  20.196   6.511  10.055  0.1229 -0.1838  0.2391
 1533W        W 3733  14.642   3.287  41.336  0.1432 -0.2336 -0.0420
 1534W        W 3734   2.219   4.635  38.807  0.0560  0.1202  0.1076
 1535W        W 3735  12.769   3.552   4.354  0.1111  0.3068 -0.2220
 1536W        W 3736  20.179   3.418  39.641 -0.0666  0.2303  0.1405
 1537W        W 3737   0.182   4.231  26.297  0.0485 -0.2915  0.1013
 1538W        W 3738  15.521   0.854  29.803 -0.0031  0.0055 -0.1322
 1539W        W 3739   2.150   5.678  33.344  0.1461 -0.2791 -0.1661
 1540W        W 3740   5.008   4.005  39.695 -0.0944 -0.1798  0.2232
 1541W        W 3741  15.245   1.353   9.455  0.2456  0.1833  0.0922
 1542W        W 3742   3.592   1.416   9.212  0.1733 -0.0022  0.2848
 1543W        W 3743  13.481   0.991   0.824  0.0303  0.0956 -0.2337
 1544W        W 3744   8.334   6.522  22.179 -0.0533 -0.0987  0.0800
 1545W        W 3745  18.112   3.322  31.262  0.0943  0.2037 -0.1782
 1546W        W 3746  11.958   1.281  41.399 -0.1293  0.2123 -0.0429
 1547W        W 3747  17.010   2.812  33.330 -0.0282  0.0023  0.0681
 1548W        W 3748  16.303   2.274  14.252 -0.0187 -0.0538  0.1327
 1549W        W 3749   4.627   3.566  18.248  0.0189  0.4521 -0.0038
 1550W        W 3750   7.046   5.953   4.406 -0.1207 -0.2494  0.0600
 1551W        W 3751   3.692   3.280  37.678 -0.0120 -0.3238  0.2513
 1552W        W 3752  11.011   2.287  15.314  0.2496 -0.3308  0.0780
 1553W        W 3753   6.034   6.094  35.925 -0.4797  0.1518 -0.1066
 1554W        W 3754  14.005   4.763  39.474  0.3357 -0.0744  0.1644
 1555W        W 3755   9.935   4.563  38.750 -0.0261  0.1066 -0.5263
 1556W        W 3756   7.686   0.712  16.158 -0.2899  0.0183 -0.2288
 1557W        W 3757  16.983   3.944  12.648  0.0252 -0.0039  0.2393
 1558W        W 3758  11.986   3.139  38.860 -0.0676  0.1592  0.0938
 1559W        W 3759   3.308   5.725  33.150  0.0907  0.1040  0.1815
 1560W        W 3760  15.394   6.049  12.613  0.1732  0.3784  0.1439
 1561W        W 3761   7.517   5.509  18.207 -0.0751 -0.1493  0.0802
 1562W        W 3762  12.873   5.321  11.366 -0.1676 -0.1640 -0.0743
 1563W        W 3763  18.371   2.459  25.136 -0.2306 -0.1516 -0.1368
 1564W        W 3764   3.476   1.896   4.057 -0.1023  0.0371 -0.2128
 1565W        W 3765  11.432   3.682  21.748  0.1139 -0.0677 -0.0775
 1566W        W 3766   9.730   3.250   6.855 -0.1222  0.0070 -0.0927
 1567W        W 3767  19.646   6.292  41.690  0.2392  0.1945 -0.0560
 1568W        W 3768  14.618   4.046  12.970 -0.2018 -0.3764 -0.1758
 1569W        W 3769  15.762   1.565  38.205  0.0785 -0.0703  0.3696
 1570W        W 3770  16.142   5.160  37.734  0.2848 -0.0022 -0.1471
 1571W        W 3771   6.949   5.369  34.716  0.1175  0.1362  0.2466
 1572W        W 3772  19.538   2.678  37.599 -0.2312 -0.1280 -0.0928
 1573W        W 3773   6.497   1.812  34.105 -0.0178 -0.0145 -0.1300
 1574W        W 3774   8.448   3.472  23.510 -0.0831  0.0886 -0.0099
 1575W        W 3775  18.579   4.257   1.063  0.1512 -0.2222  0.1846
 1576W        W 3776   7.823   0.124  31.027 -0.1088 -0.1578  0.2291
 1577W        W 3777  11.260   0.127  22.977 -0.1464 -0.0542  0.1476
 1578W        W 3778  20.076   5.958  27.319 -0.0766  0.0313  0.2059
 1579W        W 3779  17.436   6.172  44.341 -0.0093  0.0875 -0.0557
 1580W        W 3780   7.008   5.279  22.159 -0.0642  0.1151 -0.0497
 1581W        W 3781   5.950   5.010  43.455  0.0820 -0.0823 -0.1846
 1582W        W 3782   9.833   3.774  13.373 -0.0865  0.1739 -0.1279
 1583W        W 3783   2.707   2.585  35.835  0.3393  0.2613 -0.3738
 1584W        W 3784   7.235   0.801   0.154  0.0686 -0.1664  0.1954
 1585W        W 3785   0.335   3.825  13.352 -0.2212 -0.0892  0.1851
 1586W        W 3786  18.909   0.079   3.240 -0.1115  0.1567 -0.0616
 1587W        W 3787   0.864   2.785  30.866 -0.2178  0.1875 -0.1700
 1588W        W 3788   0.923   5.694  31.352 -0.0987 -0.0354  0.1056
 1589W        W 3789   7.189   3.683  19.740 -0.3848  0.0413  0.0088
 1590W        W 3790  15.254   2.733  27.178  0.1823 -0.0020 -0.0686
 1591W        W 3791   8.260   3.829   1.642  0.0105 -0.0901  0.1829
 1592W        W 3792  13.259   3.970  10.956 -0.2553  0.2145  0.1302
 1593W        W 3793  10.693   0.966  14.896  0.0992  0.0995 -0.1645
 1594W        W 3794  12.354   6.347   1.543 -0.2360 -0.0118  0.0955
 1595W        W 3795  15.955   2.334  30.521 -0.0472  0.0279 -0.2467
 1596W        W 3796   1.222   4.493   8.142  0.2457  0.2835 -0.0515
 1597W        W 3797  12.677   5.206  33.542  0.0874 -0.0883 -0.1480
 1598W        W 3798   8.814   2.262  42.801 -0.1267 -0.0966 -0.0293
 1599W        W 3799  11.470   5.108   6.535 -0.3591  0.0282  0.0192
 1600W        W 3800   9.296   2.234  32.577 -0.1739  0.1812  0.0016
 1601W        W 3801   1.715   5.232  29.017  0.0236  0.0568  0.1938
 1602W        W 3802  17.128   0.999  12.538  0.1764  0.0662  0.1071
 1603W        W 3803   4.672   3.721  34.372 -0.1542 -0.2675 -0.0950
 1604W        W 3804  20.721   1.403  10.138 -0.1930 -0.1798 -0.2267
 1605W        W 3805  10.502   5.569  41.208 -0.3015  0.0246 -0.3151
 1606W        W 3806   2.188   2.540   7.961 -0.0501 -0.3817  0.1649
 1607W        W 3807   8.616   0.644  29.240 -0.0789  0.0782 -0.2618
 1608W        W 3808   1.162   0.355  38.383 -0.1324 -0.1722  0.0018
 1609W        W 3809   1.672   3.763  12.126  0.0865 -0.1319 -0.1235
 1610W        W 3810   8.377   2.557   8.790  0.3094  0.2728  0.0447
 1611W        W 3811  20.670   5.651  32.459 -0.2776  0.1278  0.0250
 1612W        W 3812  17.345   1.896  12.920  0.0504  0.0293  0.3338
 1613W        W 3813   1.245   3.137  11.462 -0.1886 -0.1198  0.0730
 1614W        W 3814  16.695   5.153   4.927 -0.2300  0.0880 -0.0362
 1615W        W 3815   8.236   4.951   0.074  0.3665 -0.1647  0.1459
 1616W        W 3816  18.859   1.255  34.662  0.0046 -0.3294  0.1197
 1617W        W 3817  19.799   3.291  13.097 -0.1307 -0.0932 -0.1441
 1618W        W 3818  18.588   4.594   1.992  0.3166 -0.1888  0.1804
 1619W        W 3819   4.324   4.461   3.826  0.0531  0.1376 -0.0714
 1620W        W 3820   3.112   4.373  40.085  0.1300  0.2179 -0.2417
 1621W        W 3821  14.733   1.914  43.711  0.2041 -0.0477 -0.2340
 1622W        W 3822  18.819   4.864  23.375 -0.0468  0.2822  0.1331
 1623W        W 3823   9.075   5.597  39.442 -0.0291  0.1791 -0.0108
 1624W        W 3824   5.288   2.023  41.505  0.3104 -0.0051 -0.1597
 1625W        W 3825  12.245   3.478  13.545 -0.0427  0.0577 -0.2696
 1626W        W 3826  11.457   4.215  22.459 -0.1429 -0.1488  0.1506
 1627W        W 3827  18.916   0.453  44.324 -0.0478 -0.1399  0.4062
 1628W        W 3828   5.716   4.626   5.950 -0.1643  0.0386 -0.1509
 1629W        W 3829   5.342   3.606  14.591  0.1904  0.0108  0.2601
 1630W        W 3830  10.130   4.756  31.414 -0.0626  0.0337  0.2658
 1631W        W 3831  12.266   1.141  30.249 -0.1582 -0.0566 -0.0479
 1632W        W 3832  18.900   3.777  32.757  0.2927 -0.1066 -0.2589
 1633W        W 3833  10.319   4.096  30.864  0.2706  0.1703 -0.1190
 1634W        W 3834   3.601   4.418  12.494 -0.2301  0.1671  0.2142
 1635W        W 3835  15.955   4.694   4.637 -0.1922  0.0835  0.1374
 1636W        W 3836   6.258   3.944  20.989  0.0186  0.1470 -0.2499
 1637W        W 3837   3.760   5.463  14.272 -0.0571 -0.2251  0.1906
 1638W        W 3838   9.128   5.373  34.831 -0.4759 -0.2073 -0.1335
 1639W        W 3839  15.288   4.335  34.571  0.3774  0.1566  0.0216
 1640W        W 3840  11.997   5.481  16.547 -0.0740 -0.2289  0.2974
 1641W        W 3841   2.476   0.894   1.446 -0.1380 -0.1494 -0.1713
 1642W        W 3842   1.254   5.239   0.861 -0.1541  0.3561  0.0356
 1643W        W 3843   7.065   5.222   3.908 -0.1414  0.0120  0.1465
 1644W        W 3844  18.272   1.657   5.531 -0.1510  0.0381 -0.0132
 1645W        W 3845   2.411   3.747   3.629  0.0096 -0.0480 -0.2253
 1646W        W 3846  14.033   4.855   7.279  0.0249  0.3229  0.1403
 1647W        W 3847  19.044   5.655  34.613  0.0998  0.0183  0.1353
 1648W        W 3848  13.447   0.749  28.848 -0.1218 -0.2547  0.0596
 1649W        W 3849  17.939   1.834  23.630  0.0764  0.0268 -0.2183
 1650W        W 3850  19.770   5.307  15.278 -0.0953 -0.1151  0.0190
 1651W        W 3851  10.665   3.464  24.805  0.0348  0.0635  0.0116
 1652W        W 3852  11.024   5.960   2.669 -0.0250 -0.0201 -0.3334
 1653W        W 3853  16.422   2.596  30.689 -0.3772 -0.1616  0.0570
 1654W        W 3854   2.853   4.825  40.126  0.3530  0.3144  0.1640
 1655W        W 3855   3.964   5.108  28.881  0.0677  0.4061  0.0064
 1656W        W 3856   7.522   0.769  33.659 -0.2247 -0.0423  0.0208
 1657W        W 3857  17.692   6.349  39.756  0.0864 -0.3183 -0.0768
 1658W        W 3858   0.920   3.980  41.435 -0.2574  0.1750 -0.1974
 1659W        W 3859  13.256   3.965   1.396 -0.1778  0.1293  0.1626
 1660W        W 3860   5.652   1.658   9.747  0.1179 -0.0915  0.0229
 1661W        W 3861   8.225   2.235  31.790 -0.3081 -0.0379  0.0858
 1662W        W 3862  11.535   5.956   5.137 -0.2299  0.1801 -0.0654
 1663W        W 3863  17.110   3.817   2.864 -0.3222 -0.2452 -0.0935
 1664W        W 3864  11.686   0.217  39.084 -0.2214 -0.0285 -0.3322
 1665W        W 3865  15.866   5.506   1.103 -0.0165  0.0386 -0.3082
 1666W        W 3866   7.891   2.275   1.606  0.0155 -0.0432  0.2476
 1667W        W 3867  18.701   5.691  40.636  0.0159 -0.0470 -0.0656
 1668W        W 3868  14.218   5.548  16.793 -0.0637 -0.1606 -0.1270
 1669W        W 3869  15.204   5.943  12.118 -0.3259 -0.0568  0.1493
 1670W        W 3870  13.796   0.705   4.586  0.0212 -0.2535  0.0913
 1671W        W 3871  11.425   3.497  29.021  0.2294  0.2613 -0.1650
 1672W        W 3872   6.571   5.099  44.651  0.2156  0.0508  0.0412
 1673W        W 3873   6.434   1.462  33.125 -0.1914  0.3125  0.0752
 1674W        W 3874   2.323   0.027  34.528  0.0224  0.2726  0.1799
 1675W        W 3875   2.983   2.011  42.199  0.0284 -0.1130 -0.1003
 1676W        W 3876  18.134   6.519  29.890  0.1390  0.1433 -0.4035
 1677W        W 3877   9.904   1.860  24.463  0.2358  0.0087  0.0217
 1678W        W 3878  10.826   3.670   9.275 -0.0199  0.2959 -0.0178
 1679W        W 3879  20.225   3.506  14.518 -0.0150  0.0649 -0.0238
 1680W        W 3880  10.693   2.211  41.133  0.2921 -0.1294  0.1320
 1681W        W 3881   5.988   3.173  42.128  0.1638  0.0114 -0.0082
 1682W        W 3882  19.261   4.758   9.385 -0.0418 -0.2436  0.2030
 1683W        W 3883  17.943   5.036  33.919 -0.0693 -0.1109  0.1545
 1684W        W 3884   0.347   1.164  34.739  0.1732 -0.0677 -0.1126
 1685W        W 3885   3.006   0.747  14.513  0.1096  0.2339  0.1535
 1686W        W 3886  15.947   1.352   8.093  0.1391 -0.0123  0.0598
 1687W        W 3887   5.159   6.067  44.878 -0.1140  0.1509  0.1010
 1688W        W 3888  10.035   4.207  14.243  0.1607  0.1843  0.2250
 1689W        W 3889   5.142   6.553   1.224  0.1489  0.0676  0.2503
 1690W        W 3890  14.601   0.490  32.050  0.0038  0.0492  0.4533
 1691W        W 3891   1.980   0.238  43.919 -0.1272 -0.1166 -0.0580
 1692W        W 3892   1.598   6.138  39.664  0.1929 -0.1057  0.0363
 1693W        W 3893  14.671   3.225   3.192  0.0956  0.1721  0.1998
 1694W        W 3894  20.306   3.933  34.134  0.1610 -0.1989  0.1696
 1695W        W 3895  13.879   0.766   6.044  0.0265  0.2874  0.1444
 1696W        W 3896  14.251   4.603  42.600 -0.0771 -0.2176  0.2833
 1697W        W 3897   4.742   5.760  15.740 -0.1169 -0.0578 -0.2732
 1698W        W 3898  10.045   5.103  33.627 -0.0263  0.4121  0.1192
 1699W        W 3899  14.044   4.271  42.240  0.0375 -0.3374 -0.0180
 1700W        W 3900   8.210   1.943  15.408  0.1376  0.0380  0.0237
 1701W        W 3901   5.017   2.505   1.796  0.2900  0.0328 -0.2763
 1702W        W 3902   0.204   5.478  12.559 -0.0913 -0.2071 -0.0009
 1703W        W 3903   5.460   3.113   7.993  0.0586 -0.2287 -0.0373
 1704W        W 3904  13.766   1.024  36.018  0.3351 -0.1285  0.1009
 1705W        W 3905  14.574   5.327  30.836 -0.1373 -0.1984  0.1258
 1706W        W 3906  21.068   6.497  27.137  0.0030 -0.0022  0.0436
 1707W        W 3907  14.933   1.200   9.782  0.2253  0.1708 -0.0423
 1708W        W 3908  13.238   3.104   9.745  0.2696 -0.1512  0.1194
 1709W        W 3909  12.856   3.073  43.498 -0.0302 -0.0507 -0.1757
 1710W        W 3910   5.052   0.467  36.264  0.3291  0.1506 -0.0618
 1711W        W 3911   2.335   0.366   0.501  0.2987 -0.0302  0.1517
 1712W        W 3912   6.446   5.605  14.365 -0.2394  0.2741 -0.0709
 1713W        W 3913   7.511   5.560  36.116 -0.0554  0.1938 -0.0394
 1714W        W 3914  19.636   1.738  44.340 -0.3995  0.0521 -0.3079
 1715W        W 3915  19.698   3.508  20.807 -0.1191  0.1530  0.1930
 1716W        W 3916   1.225   6.136  43.485  0.2048 -0.0681  0.0403
 1717W        W 3917   2.883   4.156  39.164 -0.1981 -0.1654 -0.2297
 1718W        W 3918   3.378   2.764  27.749 -0.2064  0.3028 -0.2457
 1719W        W 3919  17.123   0.865  16.941  0.0175 -0.0028 -0.0016
 1720W        W 3920  14.036   1.693   1.861  0.0624  0.0586  0.0646
 1721W        W 3921   9.016   0.327   1.733  0.0078  0.0089  0.1267
 1722W        W 3922   2.818   5.859  29.394  0.0278 -0.3786 -0.2186
 1723W        W 3923  19.928   4.665  24.187 -0.0279  0.2358 -0.2645
 1724W        W 3924  19.419   4.296  43.394  0.0318  0.0875 -0.0518
 1725W        W 3925  19.835   6.339  25.045  0.3169  0.0082 -0.0741
 1726W        W 3926  14.460   0.569  39.293 -0.1338 -0.0267  0.0602
 1727W        W 3927  16.857   4.847  15.783 -0.0670 -0.0893  0.0496
 1728W        W 3928   7.887   1.488   2.594 -0.2541 -0.2272 -0.2847
 1729W        W 3929   9.001   5.832  42.503  0.2073 -0.0862 -0.0143
 1730W        W 3930   6.918   2.559  31.208  0.3515  0.2731 -0.0629
 1731W        W 3931  13.933   5.889  33.536  0.2801 -0.1881 -0.0509
 1732W        W 3932   1.645   5.246  23.578  0.1156  0.0050  0.0333
 1733W        W 3933  13.211   1.874   0.672  0.1485  0.0870  0.0087
 1734W        W 3934   5.963   5.584  13.486  0.0625  0.0830  0.1153
 1735W        W 3935  13.159   2.282  41.399 -0.0589  0.0403 -0.0792
 1736W        W 3936  18.704   5.661   9.350 -0.1068 -0.0893 -0.0413
 1737W        W 3937   8.369   0.200   8.873  0.3652 -0.2065 -0.0666
 1738W        W 3938  12.915   3.593   9.759 -0.0619  0.4607 -0.1521
 1739W        W 3939  14.247   1.694  12.686  0.0454  0.0560  0.0289
 1740W        W 3940  11.790   1.166  34.771 -0.2386 -0.3409 -0.0717
 1741W        W 3941  15.901   2.685  12.992 -0.1807  0.0882  0.1820
 1742W        W 3942  15.182   4.020  10.691 -0.0364  0.0310 -0.1438
 1743W        W 3943  13.340   5.670   6.534 -0.0398 -0.0547  0.0150
 1744W        W 3944  21.121   0.809  42.209 -0.1891 -0.0642  0.3046
 1745W        W 3945  12.368   0.503   2.117 -0.4635 -0.2520 -0.0075
 1746W        W 3946  15.053   2.738  37.886 -0.1836 -0.0215 -0.1535
 1747W        W 3947   1.680   3.800  40.152  0.3629  0.0394 -0.1041
 1748W        W 3948  14.780   5.735  30.587 -0.0643  0.0860 -0.1097
 1749W        W 3949  19.727   3.899   7.211 -0.0866  0.1532  0.3086
 1750W        W 3950  20.685   5.255  43.656 -0.2872 -0.2733 -0.1576
 1751W        W 3951  18.461   0.460  27.337  0.0776  0.2044 -0.1312
 1752W        W 3952   1.135   3.763  26.025  0.2263  0.1678  0.0093
 1753W        W 3953   8.960   4.045  42.693 -0.4023  0.3292  0.0242
 1754W        W 3954   5.464   4.694  34.712  0.1093  0.0867  0.0315
 1755W        W 3955   4.876   6.246   1.838 -0.0835  0.1292 -0.1751
 1756W        W 3956  12.120   5.170  33.722  0.1203 -0.1538  0.1810
 1757W        W 3957  13.455   5.245  37.767 -0.1804  0.2025 -0.1755
 1758W        W 3958  20.540   1.421  34.319 -0.2641  0.1054  0.0773
 1759W        W 3959   8.560   5.743   7.712 -0.0285  0.0726 -0.3048
 1760W        W 3960   5.098   2.242  40.121  0.0921  0.0348  0.1356
 1761W        W 3961  14.497   4.610  32.478  0.0662 -0.2670 -0.0323
 1762W        W 3962  10.940   3.985  36.383 -0.0252  0.2863 -0.1680
 1763W        W 3963   7.977   6.275   4.226 -0.1945  0.2198  0.1672
 1764W        W 3964   0.132   4.942  21.853  0.0685 -0.2317 -0.0145
 1765W        W 3965   7.142   2.209  31.545  0.0353  0.1450 -0.2120
 1766W        W 3966   5.806   3.314   6.260  0.1036  0.0593  0.0028
 1767W        W 3967   0.250   2.925  12.653 -0.0919 -0.0974  0.1572
 1768W        W 3968   4.016   1.233  42.460 -0.1207  0.3070  0.3110
 1769W        W 3969   5.085   2.041  28.531  0.0741 -0.0782 -0.1802
 1770W        W 3970   6.711   1.506  15.504  0.1494  0.1555 -0.2063
 1771W        W 3971  19.627   1.407  23.582  0.0081 -0.4794  0.0962
 1772W        W 3972  10.773   1.618   9.331  0.0946 -0.0790 -0.3092
 1773W        W 3973  20.262   4.410   1.555 -0.1937  0.2204  0.1957
 1774W        W 3974   5.753   4.415  43.178 -0.0883  0.1984 -0.0380
 1775W        W 3975   9.671   1.705  35.736  0.2241 -0.0787 -0.1708
 1776W        W 3976  20.470   4.311  29.019  0.0775  0.3902  0.0273
 1777W        W 3977  13.345   0.788  42.094  0.0930  0.2810 -0.1019
 1778W        W 3978  19.450   0.907  36.580  0.0431 -0.0428  0.1123
 1779W        W 3979  13.058   1.007  13.493 -0.0658 -0.1145 -0.2657
 1780W        W 3980  12.005   1.718   1.128 -0.3020  0.0476  0.2989
 1781W        W 3981   2.079   5.627  34.904 -0.1841 -0.0742  0.2500
 1782W        W 3982  15.947   0.814  32.818 -0.2990  0.1481 -0.0611
 1783W        W 3983  13.753   2.261  28.462  0.0962  0.0813 -0.1923
 1784W        W 3984  19.936   1.586  10.492 -0.3217  0.0646  0.0614
 1785W        W 3985  11.451   3.396  38.089 -0.1298  0.0692  0.0136
 1786W        W 3986  13.572   1.717  16.912  0.2758  0.0440  0.1182
 1787W        W 3987   7.285   5.782   4.886  0.1062 -0.3130 -0.0916
 1788W        W 3988   9.227   4.708  40.043 -0.1058 -0.0012  0.0324
 1789W        W 3989  11.633   0.442  38.067 -0.1958  0.0296 -0.1814
 1790W        W 3990   4.329   3.939  34.942 -0.2043  0.0986  0.1021
 1791W        W 3991  20.754   2.498  44.098 -0.0868  0.2967 -0.1771
 1792W        W 3992   4.690   1.157  19.209  0.1845 -0.0944  0.0324
 1793W        W 3993  13.026   2.326  36.105  0.0209  0.2891  0.0718
 1794W        W 3994  10.353   4.346   5.532 -0.3313 -0.1094  0.0015
 1795W        W 3995  17.575   3.719  36.972  0.1744 -0.0481 -0.1104
 1796W        W 3996   1.455   5.026  36.586  0.0835 -0.0017 -0.1219
 1797W        W 3997   9.535   2.788  19.786 -0.0057 -0.0448  0.0240
 1798W        W 3998  19.513   3.440  15.271 -0.0258  0.4298 -0.1125
 1799W        W 3999  14.340   3.762  33.079 -0.1320  0.3276 -0.0164
 1800W        W 4000   8.657   4.531  44.457 -0.1283  0.1257  0.1609
 1801W        W 4001   8.344   4.064  15.710  0.4082 -0.0420  0.2207
 1802W        W 4002   2.342   1.679  30.875 -0.3207  0.0543  0.1409
 1803W        W 4003  10.059   3.408  14.454 -0.1120 -0.0832  0.0365
 1804W        W 4004  10.587   3.099  35.244 -0.4119 -0.0942  0.1476
 1805W        W 4005   6.054   2.929  36.268  0.0451  0.0831  0.2504
 1806W        W 4006   9.893   5.084   7.857 -0.0511  0.2411 -0.0057
 1807W        W 4007   6.079   3.658  20.571 -0.1413 -0.1636 -0.0975
 1808W        W 4008  17.064   5.115  13.327  0.1340  0.2697 -0.0321
 1809W        W 4009  20.415   3.401   2.035  0.0974  0.2690 -0.0043
 1810W        W 4010   9.143   2.258  18.933  0.2403 -0.1305 -0.0334
 1811W        W 4011   6.006   3.568  33.627  0.1674 -0.1907 -0.1201
 1812W        W 4012  18.409   3.365  10.981  0.1117 -0.0224  0.2268
 1813W        W 4013  14.121   4.196  30.411  0.0179  0.1907  0.0937
 1814W        W 4014   3.537   0.565  30.168 -0.0086  0.1538 -0.1060
 1815W        W 4015  14.069   0.501  15.785 -0.0773  0.1915  0.1819
 1816W        W 4016  14.559   3.298   3.942 -0.1657  0.2511 -0.0624
 1817W        W 4017   1.076   5.465  29.874  0.2750 -0.0121  0.1961
 1818W        W 4018   5.963   2.011  32.096  0.1204  0.0914 -0.1577
 1819W        W 4019   1.887   4.413  13.165  0.1246  0.1341 -0.2722
 1820W        W 4020  20.645   0.919  44.212  0.1544 -0.1904 -0.2088
 1821W        W 4021   1.399   0.076  44.330  0.1039  0.0962 -0.0137
 1822W        W 4022   6.668   1.282  35.356  0.1937 -0.0183  0.1916
 1823W        W 4023   8.745   6.301   7.014 -0.3804 -0.1683  0.3307
 1824W        W 4024   6.748   4.076  42.194  0.0577  0.1341 -0.1811
 1825W        W 4025  16.291   0.322   1.836  0.2250 -0.0137 -0.0626
 1826W        W 4026   9.848   5.206  12.293 -0.0206  0.0194  0.2043
 1827W        W 4027  11.294   0.840   0.113 -0.1665 -0.0795 -0.3277
 1828W        W 4028  18.830   6.290  37.464  0.1368 -0.0758  0.2436
 1829W        W 4029  17.398   6.296  11.339 -0.3201  0.2093  0.0248
 1830W        W 4030   7.490   2.171  22.221 -0.4530 -0.0344 -0.1825
 1831W        W 4031   8.896   6.199  40.597  0.2651 -0.0385 -0.1581
 1832W        W 4032   3.620   5.015   3.801  0.1109  0.1877  0.0144
 1833W        W 4033  20.115   3.054  14.723  0.0613  0.1214  0.1148
 1834W        W 4034   2.663   1.937  27.812  0.2134  0.1016  0.0138
 1835W        W 4035   5.836   1.085   6.768 -0.0374 -0.0760 -0.2838
 1836W        W 4036   2.231   2.426  16.178  0.1635  0.1318 -0.1067
 1837W        W 4037  10.209   1.741  19.946  0.2208  0.0409 -0.6449
 1838W        W 4038  20.643   0.590   9.642 -0.3347 -0.1991 -0.3119
 1839W        W 4039  19.200   3.885  22.055 -0.0278  0.3601 -0.1536
 1840W        W 4040   7.169   4.380  18.925 -0.1707 -0.4147 -0.0092
 1841W        W 4041   7.944   2.594  40.809 -0.1178  0.0947  0.1390
 1842W        W 4042   5.465   0.370   2.089  0.1114  0.0569  0.0725
 1843W        W 4043   2.144   3.556  25.619 -0.0127  0.2048 -0.0755
 1844W        W 4044   9.847   1.657   5.295 -0.1789 -0.3191 -0.1201
 1845W        W 4045  15.647   6.341  44.042 -0.1041 -0.1417 -0.0622
 1846W        W 4046  11.694   3.301  21.621  0.0836  0.3076  0.2925
 1847W        W 4047  19.928   6.326  21.629  0.1297  0.1262  0.1337
 1848W        W 4048   6.736   3.997  39.592 -0.0702 -0.1249  0.1151
 1849W        W 4049  11.590   2.266  32.650  0.0016 -0.3943  0.1991
 1850W        W 4050  16.081   3.698   8.814  0.2057  0.0676  0.1958
 1851W        W 4051   2.678   1.930  34.714  0.3237 -0.2557  0.1862
 1852W        W 4052   9.226   4.007  36.865 -0.1744  0.0848  0.0428
 1853W        W 4053   9.562   0.302  35.515 -0.2514 -0.1211  0.1507
 1854W        W 4054   6.373   5.663  31.258  0.2280  0.1745 -0.1474
 1855W        W 4055   0.708   3.827  13.015 -0.2676 -0.0290  0.1613
 1856W        W 4056  13.426   6.458  14.157  0.3867 -0.4363  0.2085
 1857W        W 4057  12.537   4.839   8.390 -0.1630 -0.2784  0.1499
 1858W        W 4058  18.293   3.938   5.511  0.0124  0.1317 -0.0666
 1859W        W 4059   4.614   5.145  42.142  0.3143  0.0952 -0.1021
 1860W        W 4060   8.184   2.924  22.411 -0.0452  0.0550  0.2780
 1861W        W 4061  10.236   0.838  26.332  0.0330  0.1107  0.0956
 1862W        W 4062  18.686   6.594   5.037 -0.0772  0.2508  0.0227
 1863W        W 4063   6.489   5.775  34.802  0.3491 -0.2244 -0.3975
 1864W        W 4064   5.532   1.380  14.135  0.0187 -0.1526  0.1822
 1865W        W 4065   8.837   1.195  29.619  0.0121  0.2280 -0.1391
 1866W        W 4066  20.631   0.564   7.712 -0.0087  0.0940 -0.0732
 1867W        W 4067   6.112   6.437  31.140 -0.0917  0.2250 -0.0131
 1868W        W 4068   2.933   2.450  15.295  0.3809 -0.1693  0.2083
 1869W        W 4069  18.136   6.052  41.760 -0.0225  0.0683  0.1173
 1870W        W 4070   8.856   3.706  23.303  0.2766 -0.0136 -0.4771
 1871W        W 4071   6.297   1.541  43.793 -0.1058 -0.1088 -0.2827
 1872W        W 4072   4.113   1.831  35.977  0.1054  0.0230 -0.4530
 1873W        W 4073  14.775   1.798  12.764 -0.1459  0.1352  0.2305
 1874W        W 4074   1.399   2.354   6.376  0.0812 -0.2936  0.4060
 1875W        W 4075   1.424   6.599   1.189 -0.3420 -0.0730 -0.2007
 1876W        W 4076   7.854   1.861  19.556 -0.2138  0.0174 -0.0472
 1877W        W 4077   1.452   4.181  39.546 -0.0451 -0.2079  0.2012
 1878W        W 4078  12.562   2.362  36.295 -0.1138  0.0576 -0.2215
 1879W        W 4079  13.194   2.099  16.683 -0.0204 -0.0721 -0.1918
 1880W        W 4080   5.350   3.538  30.965  0.0471  0.1764  0.2221
 1881W        W 4081  20.808   6.012  27.504  0.0925 -0.1255  0.2073
 1882W        W 4082   9.621   5.159  42.105  0.1563  0.1780  0.2013
 1883W        W 4083  10.061   3.606  33.302  0.2092 -0.1642  0.0110
 1884W        W 4084  14.252   0.108   4.029 -0.1486 -0.1223 -0.1927
 1885W        W 4085   6.283   2.326  29.406 -0.1117  0.2510 -0.1648
 1886W        W 4086   1.534   3.751  43.297 -0.0500 -0.0164 -0.3515
 1887W        W 4087   2.275   4.769   2.141  0.0070  0.3308  0.1550
 1888W        W 4088  12.136   6.237  37.925 -0.1484 -0.0098 -0.0114
 1889W        W 4089  16.058   4.417  41.420 -0.1934 -0.1286 -0.1424
 1890W        W 4090  12.509   3.641  32.472  0.1770  0.0883  0.3659
 1891W        W 4091   9.782   2.836  24.829  0.0780  0.0564  0.0216
 1892W        W 4092  11.493   1.751  10.963 -0.3699  0.1543  0.1539
 1893W        W 4093  18.906   2.883  12.976  0.0842  0.3666  0.0472
 1894W        W 4094   6.567   1.317  38.468  0.1157  0.0024  0.2461
 1895W        W 4095   0.520   1.462  41.566  0.0735 -0.0118  0.2806
 1896W        W 4096   0.056   0.475  37.218  0.1455  0.1273 -0.0888
 1897W        W 4097  13.566   2.242   9.633 -0.1774 -0.1875  0.1153
 1898W        W 4098   7.459   5.481  38.949 -0.1783  0.2718  0.0111
 1899W        W 4099   4.900   4.786   1.791  0.0199 -0.0106  0.0361
 1900W        W 4100   9.132   2.695  41.675  0.4497 -0.1029 -0.0004
 1901W        W 4101   3.170   5.634  44.948  0.1182  0.2019 -0.4266
 1902W        W 4102   6.111   1.105  31.715  0.1876 -0.3572 -0.0578
 1903W        W 4103  13.518   2.443  14.447  0.1311  0.0507  0.0172
 1904W        W 4104  17.098   5.374  29.892 -0.1692  0.0410 -0.0984
 1905W        W 4105  16.410   6.192  31.968 -0.3237  0.0514 -0.0697
 1906W        W 4106  10.853   5.998  23.869 -0.2631  0.1288  0.0630
 1907W        W 4107   0.765   0.785  22.494  0.1515  0.1382 -0.0380
 1908W        W 4108  14.450   0.966  11.176  0.2915  0.1901  0.1961
 1909W        W 4109  14.142   1.349  31.844 -0.0366 -0.2996  0.1589
 1910W        W 4110   0.062   3.184  15.219 -0.1357  0.1375  0.2055
 1911W        W 4111  12.171   5.693  15.207 -0.2164 -0.0874 -0.0553
 1912W        W 4112   9.321   4.776   7.428  0.1127 -0.1480  0.0143
 1913W        W 4113   1.933   2.665  41.569 -0.2350  0.0383  0.0249
 1914W        W 4114  19.405   0.889  42.301  0.0456 -0.0015  0.3396
 1915W        W 4115   6.835   2.034  33.804 -0.1375  0.0363  0.0489
 1916W        W 4116   2.798   0.287  42.628  0.1534  0.1597 -0.0608
 1917W        W 4117  13.368   5.006  16.722 -0.0725 -0.1698  0.1474
 1918W        W 4118   8.650   4.871  30.614 -0.2333  0.2352  0.0747
 1919W        W 4119  17.974   5.105   2.603  0.1766 -0.1053 -0.1850
 1920W        W 4120  15.068   1.829  26.674 -0.1824  0.0753  0.2394
 1921W        W 4121  14.794   4.440  36.983  0.2210 -0.1474  0.1180
 1922W        W 4122   9.240   6.571   6.679 -0.0273 -0.1020 -0.1078
 1923W        W 4123   8.616   2.567  22.356 -0.1104 -0.0412 -0.0655
 1924W        W 4124  10.106   4.617  13.100 -0.1058 -0.0957  0.2258
 1925W        W 4125   3.862   3.097  33.093 -0.2457 -0.0955 -0.1192
 1926W        W 4126   3.342   1.885  35.811  0.3909 -0.0130  0.1575
 1927W        W 4127   8.904   4.508  44.929 -0.0641 -0.4073 -0.0700
 1928W        W 4128  13.564   0.376  12.115  0.0201  0.2295 -0.1345
 1929W        W 4129  16.285   1.499   9.001  0.1149 -0.2025 -0.0495
 1930W        W 4130   2.840   4.457  43.494 -0.0268  0.1300  0.0269
 1931W        W 4131   2.357   4.887  12.014 -0.2686 -0.1999 -0.1184
 1932W        W 4132   7.623   0.731  36.402  0.0544 -0.0437  0.0851
 1933W        W 4133   0.684   0.488  42.045 -0.0178 -0.0954  0.0734
 1934W        W 4134  18.515   2.822  15.900 -0.3810  0.3174 -0.1761
 1935W        W 4135   9.809   3.512  44.785  0.1577  0.3470 -0.0010
 1936W        W 4136  11.749   5.908  40.164  0.0494  0.3437  0.0595
 1937W        W 4137  18.484   0.894  21.210 -0.1603 -0.0575 -0.1399
 1938W        W 4138  20.579   2.285   5.609  0.0179 -0.2305  0.0140
 1939W        W 4139   3.684   0.283  31.300 -0.0919  0.1696 -0.1639
 1940W        W 4140  20.504   4.750   4.521  0.1231 -0.0113  0.1128
 1941W        W 4141  11.622   3.828  12.955  0.0304 -0.2054 -0.1348
 1942W        W 4142  12.286   3.336  14.933  0.0721  0.1248 -0.1629
 1943W        W 4143   6.984   6.490   6.119 -0.0462 -0.0075  0.4118
 1944W        W 4144   2.591   0.771  29.751 -0.0951 -0.1913 -0.2404
 1945W        W 4145   3.869   0.525  40.503 -0.2595 -0.0204  0.3440
 1946W        W 4146   4.802   1.694  28.880 -0.0095  0.1800  0.0222
 1947W        W 4147   8.467   2.784  33.314  0.0263  0.0599 -0.0629
 1948W        W 4148   4.840   0.385  18.746 -0.0710  0.1266 -0.0657
 1949W        W 4149   3.475   4.023  38.290  0.0207 -0.2465  0.0982
 1950W        W 4150  16.907   0.537  43.167  0.1576 -0.0462 -0.2813
 1951W        W 4151   8.284   0.163  18.395 -0.1287 -0.0332 -0.0193
 1952W        W 4152  18.228   5.165  10.876 -0.0350 -0.1435 -0.1364
 1953W        W 4153   3.186   2.631  16.009 -0.0883 -0.0152  0.3068
 1954W        W 4154  14.584   4.389  30.384 -0.0910 -0.1927 -0.0833
 1955W        W 4155   2.663   1.097  14.548  0.2207  0.4127 -0.0890
 1956W        W 4156  20.507   0.218  23.557 -0.1792 -0.1050 -0.0431
 1957W        W 4157   5.189   2.915  18.862  0.0146 -0.0831  0.0771
 1958W        W 4158   1.037   0.197   2.232  0.2853 -0.1262  0.0887
 1959W        W 4159   2.982   0.007  36.556  0.1602 -0.0906  0.3045
 1960W        W 4160  11.521   5.512  35.457 -0.2917 -0.0813 -0.0843
 1961W        W 4161  11.146   4.679   8.630  0.2098  0.3902 -0.0480
 1962W        W 4162   7.796   4.180   1.483 -0.2574  0.1738 -0.2732
 1963W        W 4163  10.454   2.683  10.785 -0.1614 -0.1073 -0.1518
 1964W        W 4164   8.872   3.727  35.556  0.0812  0.2392 -0.0032
 1965W        W 4165   0.960   5.986   7.254  0.0183  0.0249  0.2063
 1966W        W 4166   0.419   6.592   8.867 -0.2345 -0.2215 -0.1149
 1967W        W 4167   1.219   5.357  13.256 -0.1284  0.0132 -0.0337
 1968W        W 4168   1.694   4.595  32.644  0.0078 -0.2047 -0.2698
 1969W        W 4169  20.631   1.401  42.279  0.0037  0.3340  0.0385
 1970W        W 4170  15.864   6.110   0.365  0.1500 -0.2064  0.0459
 1971W        W 4171   0.593   0.993  15.337  0.3778  0.3721  0.4332
 1972W        W 4172   0.946   1.127   0.095 -0.0273  0.0443  0.0199
 1973W        W 4173   1.284   1.525  42.105 -0.2688  0.2110  0.1218
 1974W        W 4174  16.493   3.119  26.684 -0.2302  0.2208 -0.0020
 1975W        W 4175  12.660   0.227  32.859  0.0930  0.1405 -0.1779
 1976W        W 4176  16.663   4.873   5.768  0.2918  0.1568  0.0757
 1977W        W 4177  20.198   4.421  28.546  0.0270  0.0615 -0.3263
 1978W        W 4178  18.732   5.623  24.067 -0.0391  0.1141  0.0258
 1979W        W 4179   1.061   0.049  32.265 -0.0218 -0.1321  0.2104
 1980W        W 4180   0.931   3.648  33.648  0.1560  0.0665 -0.1288
 1981W        W 4181   5.503   3.606  41.049 -0.1409  0.0833 -0.0832
 1982W        W 4182  20.838   4.188  35.364  0.1089  0.6357  0.0324
 1983W        W 4183  14.476   6.052   2.888 -0.0690 -0.2223 -0.0387
 1984W        W 4184  10.299   1.050  30.860  0.0837  0.0896  0.1185
 1985W        W 4185   7.298   0.829  37.629 -0.0404 -0.1683  0.1031
 1986W        W 4186   0.058   0.717  39.949 -0.3511  0.1307 -0.2170
 1987W        W 4187   1.469   5.627  28.736 -0.2006  0.1325  0.3308
 1988W        W 4188  12.114   5.639   7.837 -0.2455 -0.0159  0.0852
 1989W        W 4189  15.196   5.712  40.674  0.1798 -0.1108  0.1482
 1990W        W 4190  15.891   1.726   2.516 -0.1854 -0.1925  0.3816
 1991W        W 4191  16.310   3.805  10.469 -0.1848 -0.0737  0.0137
 1992W        W 4192  20.225   1.954  15.070 -0.1245 -0.0675 -0.0177
 1993W        W 4193   3.292   1.466  35.508 -0.3539 -0.0633 -0.0016
 1994W        W 4194  20.825   6.403  25.242 -0.0815  0.1263  0.2887
 1995W        W 4195  18.529   1.318  32.947  0.0860  0.3048 -0.1165
 1996W        W 4196  18.740   0.762  35.468 -0.1750  0.0735 -0.0606
 1997W        W 4197   5.716   4.923   1.473  0.3562  0.2008  0.2208
 1998W        W 4198   5.496   2.390  39.091 -0.1495 -0.0670 -0.0686
 1999W        W 4199   0.308   0.131  24.161  0.0419 -0.0884 -0.0028
 2000W        W 4200   1.983   1.923  40.021  0.0106  0.3898 -0.0645
 2001W        W 4201   5.412   5.972  29.578  0.0791  0.0496  0.0423
 2002W        W 4202  14.504   1.413  12.378 -0.0156  0.2837 -0.1613
 2003W        W 4203   6.522   2.429  15.138  0.1008  0.2438 -0.1017
 2004W        W 4204   2.108   3.137  41.291 -0.3400 -0.2851 -0.1452
 2005W        W 4205  13.317   5.891   9.765  0.5036  0.0495 -0.3216
 2006W        W 4206  14.887   1.412   1.996 -0.3026  0.0545  0.0757
 2007W        W 4207   5.744   2.282  32.390  0.0213  0.1967 -0.0716
 2008W        W 4208   7.151   5.059   4.392  0.2498  0.0215  0.1100
 2009W        W 4209  16.714   1.729  35.715  0.0350 -0.1687 -0.2238
 2010W        W 4210   9.202   4.975   3.177 -0.2009  0.3815  0.0688
 2011W        W 4211  13.161   4.015   5.331  0.2558 -0.0096 -0.0365
 2012W        W 4212   8.127   1.343   7.198  0.0636 -0.2498  0.0219
 2013W        W 4213  20.096   0.908  35.055 -0.1738 -0.0858  0.0091
 2014W        W 4214  16.272   2.837  41.437 -0.3324  0.0161 -0.0319
 2015W        W 4215  10.978   5.267  32.244 -0.3465  0.0001  0.1325
 2016W        W 4216   9.234   5.567   0.521 -0.1878  0.1865  0.0346
 2017W        W 4217  18.605   5.852   8.080 -0.1245  0.1123  0.0291
 2018W        W 4218   8.192   3.226  15.445 -0.2445  0.0521  0.3304
 2019W        W 4219   2.992   3.288  24.937  0.0141 -0.0427  0.0769
 2020W        W 4220   4.708   4.885  11.764 -0.2462  0.0188 -0.1269
 2021W        W 4221  18.516   2.174  28.771  0.1348 -0.0430  0.0062
 2022W        W 4222  19.718   5.016   9.208 -0.0165  0.0051  0.0760
 2023W        W 4223  13.170   2.873  31.204 -0.0486 -0.1706 -0.3841
 2024W        W 4224   4.059   1.193   6.253  0.2477 -0.2514  0.0732
 2025W        W 4225   3.732   0.068   1.966 -0.1560  0.1722  0.0022
 2026W        W 4226   6.955   2.220  40.375 -0.0486  0.5935  0.4577
 2027W        W 4227  18.022   3.715  40.351 -0.1203 -0.0308  0.0521
 2028W        W 4228   0.788   2.104  23.335 -0.1749  0.2814 -0.0818
 2029W        W 4229   0.554   0.865   6.582  0.2537  0.2122  0.0649
 2030W        W 4230  20.973   1.332  11.653  0.3391  0.0332  0.2482
 2031W        W 4231   4.711   1.939   8.458 -0.1111 -0.1111 -0.0385
 2032W        W 4232   3.112   3.948  30.323 -0.0763  0.1287  0.1861
 2033W        W 4233   0.188   3.457  40.638 -0.3194  0.0152  0.0515
 2034W        W 4234   6.561   3.140  19.315 -0.0334  0.1204 -0.0958
 2035W        W 4235  10.805   1.026  18.185 -0.0700 -0.2373 -0.0563
 2036W        W 4236   4.740   2.489  29.345  0.0053  0.0920 -0.2850
 2037W        W 4237   0.188   0.065  14.197  0.3123 -0.3933  0.0719
 2038W        W 4238  19.820   2.078  38.455  0.1337  0.0753  0.2159
 2039W        W 4239  14.875   3.618  30.950  0.0264  0.4322  0.1686
 2040W        W 4240  10.450   6.480  40.652 -0.0518  0.3961  0.0202
 2041W        W 4241   9.975   3.060  41.286 -0.0412 -0.0103  0.2475
 2042W        W 4242  14.490   6.096  31.456  0.0443  0.1824  0.1088
 2043W        W 4243   3.017   4.203  34.979 -0.0322  0.2213  0.2150
 2044W        W 4244  12.918   4.398  36.089  0.0194  0.0148 -0.2485
 2045W        W 4245   2.857   3.013  41.307  0.2026 -0.0233  0.1196
 2046W        W 4246   2.888   6.038  39.625 -0.0223  0.2286  0.1045
 2047W        W 4247   5.882   3.773  16.016 -0.0812  0.1117 -0.0473
 2048W        W 4248   4.945   5.930   5.365  0.2730 -0.2606  0.0210
 2049W        W 4249  18.248   4.054  44.592  0.0306  0.2721 -0.0623
 2050W        W 4250  15.393   2.401  42.634  0.0175 -0.1895 -0.0369
 2051W        W 4251  15.130   5.870  14.359  0.1898 -0.0139 -0.2026
 2052W        W 4252   6.617   0.956  15.638 -0.0523  0.1354 -0.0587
 2053W        W 4253  20.631   6.505  10.848  0.1841  0.2040 -0.0021
 2054W        W 4254  17.605   5.554  12.145 -0.0774  0.1793 -0.2418
 2055W        W 4255   8.726   1.609  18.460 -0.0874 -0.0234  0.1431
 2056W        W 4256  19.803   4.248   1.782  0.2282  0.0475 -0.2764
 2057W        W 4257  14.238   4.600   0.825 -0.0430 -0.0961  0.0757
 2058W        W 4258   8.623   2.590   2.040 -0.0153 -0.3430  0.0500
 2059W        W 4259  12.967   6.345  14.513  0.2689 -0.3223 -0.2185
 2060W        W 4260  19.172   2.139  44.218 -0.1483  0.0292  0.0837
 2061W        W 4261  18.458   0.173  36.429 -0.1258  0.1480 -0.1377
 2062W        W 4262  10.846   0.184  12.262  0.0812  0.0420  0.1433
 2063W        W 4263  17.639   3.241  14.252 -0.1384  0.0243  0.0626
 2064W        W 4264   8.557   6.256  30.507 -0.1377 -0.0538  0.3817
 2065W        W 4265  10.164   0.155   6.831  0.1511 -0.0573 -0.3455
 2066W        W 4266  19.254   0.524  39.565  0.0557  0.1065 -0.0549
 2067W        W 4267  18.694   4.471  30.198  0.0231  0.2146 -0.1867
 2068W        W 4268  12.134   2.018  40.217  0.1806  0.2488  0.2152
 2069W        W 4269   9.397   0.457  36.963  0.0952 -0.2118 -0.0659
 2070W        W 4270   4.750   2.522  37.182 -0.0606  0.0274 -0.0753
 2071W        W 4271  14.332   4.863  14.152  0.2778 -0.1600 -0.1871
 2072W        W 4272  12.527   3.861  38.510  0.4065  0.1116  0.0844
 2073W        W 4273  19.545   0.571  42.649 -0.2813  0.3887 -0.2405
 2074W        W 4274  16.033   2.767  44.047  0.3266  0.1712  0.0329
 2075W        W 4275  17.113   3.906  26.418 -0.4256 -0.2687  0.0706
 2076W        W 4276  18.965   3.059   1.768  0.0760 -0.0577 -0.0318
 2077W        W 4277   7.124   5.843  29.864  0.0993  0.0638 -0.2119
 2078W        W 4278  14.079   5.465   8.834  0.0985  0.0876  0.2553
 2079W        W 4279  13.490   5.572  32.712  0.1266  0.0768 -0.2766
 2080W        W 4280  20.030   1.406   6.451  0.0395 -0.1976  0.2693
 2081W        W 4281   5.797   5.509  38.650  0.0434 -0.1528  0.0237
 2082W        W 4282   4.510   3.479  42.218  0.0633 -0.3194 -0.3262
 2083W        W 4283   1.441   2.993  16.307 -0.2657  0.1867 -0.3356
 2084W        W 4284   0.913   2.473  14.434 -0.2276  0.0336 -0.0292
 2085W        W 4285  13.886   3.510  30.240  0.0996 -0.1198  0.0076
 2086W        W 4286  14.991   6.486   7.809  0.1821  0.0018 -0.0205
 2087W        W 4287   5.660   5.864  31.691 -0.2663  0.2078  0.1755
 2088W        W 4288  15.667   4.751  41.655 -0.2722 -0.1204  0.2088
 2089W        W 4289  16.136   4.622  28.890  0.1597  0.3979  0.0602
 2090W        W 4290   3.598   0.570  32.523 -0.0317  0.1279  0.3562
 2091W        W 4291  12.712   0.024  31.803  0.1908  0.1698 -0.3024
 2092W        W 4292  13.291   0.163  28.087 -0.1027 -0.2435 -0.3082
 2093W        W 4293  19.101   4.489  37.549  0.1332  0.0413 -0.0490
 2094W        W 4294   3.711   1.878   8.830 -0.0537  0.1873  0.0925
 2095W        W 4295  15.149   2.927  14.209 -0.2497  0.0378  0.0214
 2096W        W 4296  20.878   2.880   1.850  0.2323  0.0605 -0.0533
 2097W        W 4297   8.522   5.660  22.056  0.1278 -0.0383  0.0825
 2098W        W 4298  19.936   5.387  42.557 -0.3995 -0.0860 -0.1615
 2099W        W 4299   0.750   0.562  38.372  0.1815  0.1233  0.1952
 2100W        W 4300   3.684   5.980  40.121  0.0495  0.0675 -0.2658
 2101W        W 4301  21.008   6.597  14.782 -0.1932  0.0346  0.2196
 2102W        W 4302   9.199   3.801  21.171 -0.0046  0.2055 -0.2453
 2103W        W 4303   1.824   2.579   6.529  0.0836  0.1837 -0.0540
 2104W        W 4304   2.033   3.689  43.068  0.4436  0.1035 -0.0040
 2105W        W 4305  12.677   1.670  29.590 -0.2663 -0.0704 -0.1248
 2106W        W 4306   7.906   4.079  29.431 -0.0174 -0.0599  0.3307
 2107W        W 4307  13.838   4.514  32.091  0.0623  0.4250  0.0909
 2108W        W 4308  19.326   4.137  33.053 -0.1309 -0.0335  0.3269
 2109W        W 4309  16.275   6.319  14.655  0.1375  0.0176  0.3516
 2110W        W 4310   4.209   1.642  37.392 -0.0409 -0.0676  0.2329
 2111W        W 4311   7.000   6.341  21.461  0.5129 -0.2103  0.1258
 2112W        W 4312  16.419   2.586  42.126 -0.1992 -0.2567  0.1210
 2113W        W 4313   6.718   0.543  21.702  0.3123  0.1253 -0.0996
 2114W        W 4314  17.501   3.647  28.087 -0.0689  0.0377 -0.5109
 2115W        W 4315  10.784   5.781  12.803 -0.0889  0.0790  0.2007
 2116W        W 4316  19.023   5.643  31.423 -0.2539 -0.0553 -0.0761
 2117W        W 4317  12.886   2.369  19.053  0.0588 -0.4165 -0.0142
 2118W        W 4318  14.041   2.685  28.290  0.0509  0.1195 -0.0905
 2119W        W 4319  13.182   3.209  11.429 -0.1873  0.2190  0.2697
 2120W        W 4320   6.786   1.100  22.275  0.1140  0.0397 -0.1544
 2121W        W 4321  14.417   6.534  12.154 -0.2792 -0.0930 -0.3813
 2122W        W 4322  11.564   4.576  36.550  0.0090  0.2304 -0.0244
 2123W        W 4323   8.337   2.122  40.664  0.0778 -0.0374  0.0311
 2124W        W 4324  14.134   2.102  13.600  0.1552 -0.3316  0.1456
 2125W        W 4325  19.273   4.317  28.437  0.0424  0.0703  0.1403
 2126W        W 4326  11.404   2.214   1.094  0.0539 -0.2218  0.0588
 2127W        W 4327   6.293   1.063  21.118  0.1040 -0.0160  0.1090
 2128W        W 4328  10.969   3.148  31.555  0.0981 -0.2527 -0.0252
 2129W        W 4329   5.789   5.699  36.334  0.3050 -0.3532  0.2761
 2130W        W 4330  13.286   1.557   5.719  0.1903 -0.5426  0.2412
 2131W        W 4331  19.165   2.027  36.513 -0.1930 -0.3037  0.1675
 2132W        W 4332  13.981   3.757   1.351 -0.2965 -0.0563  0.0484
 2133W        W 4333  11.066   6.398  37.458 -0.2318  0.0691  0.1337
 2134W        W 4334  10.432   0.279  34.021  0.0160 -0.1368  0.0375
 2135W        W 4335  18.190   4.666   7.883 -0.0631 -0.4360  0.2005
 2136W        W 4336   9.779   1.691  11.620 -0.1361  0.2491 -0.3957
 2137W        W 4337   1.870   6.578  28.647 -0.0707  0.3864  0.0798
 2138W        W 4338  13.879   3.435  10.247 -0.2349 -0.4259 -0.1965
 2139W        W 4339  12.650   0.621  16.376 -0.3551  0.1776  0.0047
 2140W        W 4340   1.682   3.146  12.613 -0.3544 -0.1141 -0.2079
 2141W        W 4341   1.270   5.910  15.051  0.0484  0.1920  0.2195
 2142W        W 4342   0.553   4.812  25.687  0.0432 -0.0565 -0.0326
 2143W        W 4343  11.854   1.405  39.232  0.2428  0.2822  0.2475
 2144W        W 4344  10.867   5.014  22.292  0.0528 -0.0982 -0.2512
 2145W        W 4345   8.680   6.328  18.444  0.2923 -0.0565 -0.0674
 2146W        W 4346   3.809   5.888  33.841 -0.0791  0.1841  0.2914
 2147W        W 4347  10.818   4.599  40.169 -0.0943  0.0326  0.2384
 2148W        W 4348  17.067   5.613   8.401 -0.1789 -0.3796  0.2278
 2149W        W 4349   4.006   5.433   3.992 -0.0062  0.0893 -0.1040
 2150W        W 4350  16.460   4.329  16.419  0.3811 -0.1312  0.1277
 2151W        W 4351   7.545   3.291   2.055  0.0317 -0.0424 -0.0384
 2152W        W 4352   3.102   1.696  11.099  0.2724 -0.0655  0.1592
 2153W        W 4353  11.342   4.400  43.037  0.1104  0.0586  0.1424
 2154W        W 4354  12.697   1.158  12.705  0.1251  0.1463 -0.1146
 2155W        W 4355  10.031   2.419  39.820 -0.0891  0.1219 -0.3139
 2156W        W 4356  12.123   2.627  32.850 -0.1290 -0.1536  0.0491
 2157W        W 4357   9.461   4.064   5.275  0.1182  0.0334 -0.3830
 2158W        W 4358  17.547   1.844  22.701  0.3491  0.0878  0.0334
 2159W        W 4359   9.636   5.464  24.695 -0.1735 -0.1734 -0.0360
 2160W        W 4360   7.649   2.316  41.934  0.3000 -0.0150  0.2093
 2161W        W 4361   2.596   5.655  39.802 -0.1224 -0.0720 -0.0581
 2162W        W 4362   5.829   2.859  33.959  0.2502  0.1465  0.3522
 2163W        W 4363   0.634   0.322   6.308  0.0026 -0.3392 -0.4788
 2164W        W 4364   9.133   1.898  36.861 -0.0886 -0.0081  0.2902
 2165W        W 4365  14.892   3.806  15.961  0.2087 -0.2493 -0.2276
 2166W        W 4366  19.528   2.787   2.990 -0.0509  0.1832  0.1287
 2167W        W 4367   9.313   1.724   1.168  0.0321  0.0001 -0.3185
 2168W        W 4368  18.237   2.358  11.775  0.1668 -0.0191  0.0799
 2169W        W 4369   3.318   6.126   7.049 -0.0863 -0.1989 -0.1264
 2170W        W 4370  18.400   2.007   8.905 -0.1907 -0.0194 -0.2024
 2171W        W 4371  18.537   0.288  30.395  0.1535 -0.0098  0.0122
 2172W        W 4372  12.191   0.826  43.451  0.0837  0.0701 -0.3577
 2173W        W 4373  13.827   4.894   4.338  0.0306 -0.0068 -0.0637
 2174W        W 4374   8.503   4.097  39.604 -0.1229  0.0412 -0.4623
 2175W        W 4375   5.556   0.155  42.326 -0.0807 -0.4199  0.2794
 2176W        W 4376  14.123   5.437  15.916  0.0827  0.0371  0.1444
 2177W        W 4377  20.675   1.689   5.996 -0.2155  0.2774 -0.1570
 2178W        W 4378  17.860   4.380  40.229  0.0959  0.0387  0.2510
 2179W        W 4379   9.169   3.864  38.568 -0.5749  0.2371 -0.3566
 2180W        W 4380  11.801   1.515  15.951  0.1248  0.1037  0.0887
 2181W        W 4381  15.635   1.318  36.418  0.2609 -0.1290  0.0780
 2182W        W 4382   6.898   0.032   5.371  0.0939 -0.0968 -0.1417
 2183W        W 4383   2.339   2.990  35.733  0.1399  0.3369  0.1804
 2184W        W 4384  14.523   0.982  34.912 -0.0081 -0.1173 -0.1001
 2185W        W 4385  19.816   4.841  20.641 -0.1803  0.3560  0.2775
 2186W        W 4386  17.081   0.921  34.479 -0.1541  0.1670  0.1092
 2187W        W 4387  13.861   4.047  10.213 -0.1668 -0.2087  0.0769
 2188W        W 4388   2.764   4.595  35.172  0.2623  0.0276 -0.1263
 2189W        W 4389   3.025   1.042  14.945  0.3407  0.0041 -0.2069
 2190W        W 4390   9.930   5.159  23.436  0.3075 -0.1665 -0.1444
 2191W        W 4391  19.890   5.677  27.710  0.0841 -0.0022 -0.3025
 2192W        W 4392  13.507   3.869  43.790 -0.1370 -0.1919  0.2993
 2193W        W 4393  16.824   2.979  16.062 -0.0021  0.1821 -0.3011
 2194W        W 4394  18.818   1.086  36.400  0.3110  0.0092 -0.0651
 2195W        W 4395  18.177   2.405  34.976 -0.1058  0.1211 -0.0382
 2196W        W 4396   6.481   2.692   9.309 -0.0834  0.1547 -0.0935
 2197W        W 4397   0.741   2.813  11.607  0.3593  0.2426  0.1504
 2198W        W 4398  19.577   3.017   1.920 -0.1097  0.1351 -0.0023
 2199W        W 4399   0.003   5.660   9.857  0.0009  0.0273 -0.1398
 2200W        W 4400  18.367   4.897  31.509  0.1681 -0.1986  0.0088
 2201W        W 4401   4.337   3.182  17.603 -0.1736 -0.0543 -0.1271
 2202W        W 4402  14.319   0.027   8.273  0.0675 -0.0675 -0.2171
 2203W        W 4403   3.988   4.967  38.108 -0.0746 -0.2431 -0.2794
 2204W        W 4404  12.467   4.145  17.606  0.0534  0.2460  0.0528
 2205W        W 4405  18.984   0.647  42.603  0.4252 -0.1553 -0.2677
 2206W        W 4406   6.225   4.520  38.302 -0.0413 -0.2875 -0.0501
 2207W        W 4407  17.222   2.619  17.123 -0.0421  0.1103 -0.2256
 2208W        W 4408  17.364   2.910  32.971  0.1545 -0.0454  0.2028
 2209W        W 4409  17.609   4.412  26.494 -0.2005  0.3979  0.1504
 2210W        W 4410   9.962   1.795  22.751  0.0257  0.5724 -0.0434
 2211W        W 4411  18.511   6.127   9.301  0.1145  0.0539  0.2957
 2212W        W 4412   4.591   2.310  34.318  0.2753 -0.1081 -0.0468
 2213W        W 4413  19.978   3.089  36.223 -0.1599  0.1381 -0.1372
 2214W        W 4414   5.276   4.140  15.585 -0.3632  0.0945  0.1854
 2215W        W 4415  17.935   4.510  32.683  0.2348  0.1414 -0.2702
 2216W        W 4416   8.720   1.252   0.909 -0.0757 -0.2339 -0.0470
 2217W        W 4417  13.421   3.916  40.902  0.0583  0.1189 -0.3510
 2218W        W 4418   1.166   2.612  24.871 -0.0852 -0.1641 -0.2101
 2219W        W 4419   1.968   2.468  34.095  0.0691 -0.1146  0.1424
 2220W        W 4420   2.853   3.091  42.197  0.0581  0.0251  0.0020
 2221W        W 4421   5.257   4.890  38.769 -0.1499 -0.1807 -0.2301
 2222W        W 4422  12.796   3.658  41.754  0.0017  0.1623 -0.3716
 2223W        W 4423  20.375   0.095   2.068  0.4970  0.0015 -0.2129
 2224W        W 4424   2.750   2.347  32.641 -0.0172 -0.0522 -0.0306
 2225W        W 4425  12.906   0.152  16.472  0.2475 -0.3964  0.0572
 2226W        W 4426  15.028   2.131  39.201 -0.2533 -0.1878  0.1214
 2227W        W 4427  11.471   3.961  44.269 -0.0952 -0.0882 -0.0681
 2228W        W 4428  15.312   3.393   9.992 -0.0300  0.0277  0.0033
 2229W        W 4429  13.380   3.337  33.029  0.2297  0.0098  0.4235
 2230W        W 4430  19.831   0.985  41.147  0.0628 -0.2738 -0.2061
 2231W        W 4431   6.757   0.656  36.430 -0.1655  0.2152  0.1588
 2232W        W 4432  13.373   0.278  18.608 -0.0720  0.0230  0.1770
 2233W        W 4433  13.903   6.509   6.349 -0.2120  0.0915  0.1501
 2234W        W 4434  16.811   4.081  35.169 -0.0760  0.0320  0.2893
 2235W        W 4435  10.968   4.860  34.855  0.1209  0.2257  0.1791
 2236W        W 4436  14.260   0.023  34.117 -0.0432  0.1753  0.2058
 2237W        W 4437  18.567   2.974  38.940  0.0421  0.2121 -0.1465
 2238W        W 4438  11.302   1.920  29.768  0.5349 -0.0169  0.1816
 2239W        W 4439   2.508   4.635  35.643 -0.1142 -0.0874  0.0597
 2240W        W 4440   6.989   1.934  18.391  0.0866 -0.2846  0.1562
 2241W        W 4441   0.328   3.908  15.253  0.0904 -0.0228  0.0156
 2242W        W 4442  20.329   2.777  36.112 -0.0378  0.0053 -0.1751
 2243W        W 4443  15.835   4.428   6.095 -0.0520  0.0403  0.0594
 2244W        W 4444   4.610   4.372  43.270 -0.0678 -0.0506  0.0438
 2245W        W 4445  20.926   5.682  40.621  0.3767  0.0235 -0.0206
 2246W        W 4446  16.860   5.180   1.207 -0.1254 -0.1933  0.0462
 2247W        W 4447   2.985   1.676  42.742 -0.0329  0.1387 -0.2503
 2248W        W 4448   0.539   1.482   5.288  0.1050 -0.2228 -0.0484
 2249W        W 4449  19.785   0.260   1.093 -0.3070 -0.2996 -0.1776
 2250W        W 4450  20.391   3.715  39.249  0.0291  0.1813 -0.1887
 2251W        W 4451  12.319   4.940  38.400 -0.2624 -0.1673  0.0365
 2252W        W 4452  20.627   3.270  35.978 -0.1916 -0.0417  0.1909
 2253W        W 4453  10.032   3.327  25.324  0.0675  0.2275 -0.1424
 2254W        W 4454  20.779   4.985   7.278  0.2739  0.0750  0.0091
 2255W        W 4455   8.487   4.256  20.104  0.2610 -0.0801 -0.1032
 2256W        W 4456   1.012   5.169  33.071 -0.1457  0.0403 -0.0430
 2257W        W 4457   0.769   1.878   1.755  0.3228  0.0388 -0.0831
 2258W        W 4458   9.741   6.576   4.225 -0.0110 -0.0388 -0.1801
 2259W        W 4459   0.696   3.019  15.107 -0.0635  0.1657  0.3721
 2260W        W 4460  20.108   5.388  21.355  0.0382  0.2672 -0.2560
 2261W        W 4461  20.174   3.032  31.952 -0.2683 -0.2995  0.0443
 2262W        W 4462  12.096   2.947  28.672 -0.0809 -0.2995  0.0848
 2263W        W 4463  13.172   1.045  19.056 -0.1880  0.0372  0.0040
 2264W        W 4464   4.274   6.207   6.752  0.1034  0.2814  0.0781
 2265W        W 4465  20.501   1.308   8.064 -0.1390  0.3435  0.1449
 2266W        W 4466   8.214   6.282  21.242 -0.1474  0.0883 -0.0620
 2267W        W 4467  11.360   1.199   3.616 -0.0302  0.0221 -0.0118
 2268W        W 4468  14.626   1.533  15.348 -0.3477  0.2302  0.1174
 2269W        W 4469  19.439   4.902  28.966  0.1955 -0.0139  0.0923
 2270W        W 4470   4.038   1.429  44.820  0.0579 -0.3098  0.1412
 2271W        W 4471   7.916   3.974  35.425  0.2100  0.1472 -0.2695
 2272W        W 4472  12.250   1.521  20.786 -0.0428 -0.1410 -0.0064
 2273W        W 4473   8.310   5.117  17.954 -0.1824 -0.4618  0.0261
 2274W        W 4474  13.614   3.260  35.012  0.2008 -0.0408  0.2429
 2275W        W 4475  16.294   0.724  36.678  0.2776  0.2343 -0.3146
 2276W        W 4476   3.972   6.192  35.591 -0.0184 -0.0731  0.2232
 2277W        W 4477  10.521   5.044  21.902  0.0972 -0.0109  0.1339
 2278W        W 4478  13.034   3.179  30.740  0.0382  0.3385 -0.0433
 2279W        W 4479  14.179   5.778  16.300  0.0438 -0.3508 -0.1014
 2280W        W 4480   6.351   2.791  13.033  0.0290  0.0992  0.2015
 2281W        W 4481   8.725   2.226  31.906  0.0646  0.3032 -0.0084
 2282W        W 4482   1.008   6.505  29.402 -0.2584 -0.2357 -0.2188
 2283W        W 4483  18.432   1.235  30.125 -0.2480  0.0512 -0.1765
 2284W        W 4484   0.531   1.643   2.939  0.0360  0.0874 -0.0537
 2285W        W 4485   4.017   6.064   5.045 -0.1592 -0.0335  0.0780
 2286W        W 4486  15.628   4.986  37.794  0.1383 -0.1319  0.0404
 2287W        W 4487  16.172   2.732  26.659  0.1337  0.1235  0.0655
 2288W        W 4488  19.642   1.725  21.382 -0.1922 -0.0661 -0.0959
 2289W        W 4489  17.271   0.084  42.948 -0.1327 -0.0800 -0.0726
 2290W        W 4490  19.499   3.201  32.847 -0.1450 -0.1030 -0.0459
 2291W        W 4491  19.133   1.270   4.585  0.0212 -0.0584  0.2343
 2292W        W 4492  13.161   2.957  13.368 -0.0295  0.1463 -0.0658
 2293W        W 4493   5.228   6.463  37.928 -0.3969  0.2387 -0.0689
 2294W        W 4494   9.833   6.555   7.112 -0.0595 -0.0591 -0.2887
 2295W        W 4495  13.530   3.819   0.536  0.2037 -0.2171 -0.4245
 2296W        W 4496  13.854   4.670  33.764 -0.1351  0.2618  0.0657
 2297W        W 4497   0.770   4.465  35.767 -0.0477  0.0504 -0.1333
 2298W        W 4498   5.340   2.447  11.545  0.1043  0.0427  0.1499
 2299W        W 4499   3.347   3.678  36.134  0.0967 -0.0546  0.2299
 2300W        W 4500   3.194   1.485  39.844 -0.1418 -0.0945  0.0782
 2301W        W 4501  11.199   5.210   3.382  0.0560 -0.0255 -0.1399
 2302W        W 4502  17.644   0.658   4.557 -0.2114 -0.0530  0.2548
 2303W        W 4503  14.939   1.026  13.763 -0.0253  0.0060 -0.0429
 2304W        W 4504  16.417   4.456  39.688  0.2892 -0.0737  0.0978
 2305W        W 4505   4.848   2.442  38.765 -0.0479 -0.0101 -0.2945
 2306W        W 4506   7.721   0.615  31.515 -0.2804 -0.0092 -0.1448
 2307W        W 4507   4.021   2.790  39.649 -0.2283 -0.1739  0.0236
 2308W        W 4508   5.688   0.072   8.705  0.0392  0.1071  0.0591
 2309W        W 4509   8.695   0.320  18.749 -0.1830 -0.1840  0.1599
 2310W        W 4510   5.185   2.589  15.532  0.0012 -0.1346  0.1752
 2311W        W 4511  11.203   5.237  14.052  0.0733 -0.2008 -0.1948
 2312W        W 4512  14.341   4.929  17.779  0.1983  0.0908  0.2791
 2313W        W 4513  11.052   4.047  22.989 -0.0072  0.0633 -0.1237
 2314W        W 4514  18.907   2.209   4.083  0.0193  0.0800 -0.0332
 2315W        W 4515   3.197   2.249  14.753  0.0891  0.0057 -0.0116
 2316W        W 4516   6.745   5.689  22.124 -0.0837 -0.2153  0.0948
 2317W        W 4517   4.460   3.949  15.732 -0.0225 -0.3270  0.0698
 2318W        W 4518  11.417   5.618   6.115 -0.2203  0.1082 -0.2490
 2319W        W 4519   0.438   0.287  39.324  0.3134 -0.1461 -0.1130
 2320W        W 4520   8.335   2.339  14.437  0.0637 -0.3894  0.2847
 2321W        W 4521   5.134   3.995  13.356 -0.1134  0.0210  0.1879
 2322W        W 4522  12.505   4.256  16.084 -0.0095 -0.0755 -0.0071
 2323W        W 4523  16.935   5.885   7.177  0.0477 -0.5084 -0.0815
 2324W        W 4524   8.343   3.245   5.890 -0.2433  0.1127 -0.1759
 2325W        W 4525  19.182   4.941  13.000  0.1453 -0.2759  0.0972
 2326W        W 4526   5.112   5.965   7.781  0.1623  0.2467 -0.3791
 2327W        W 4527  20.568   6.399  40.283  0.0097  0.1783  0.0673
 2328W        W 4528   1.469   2.291  23.284 -0.1955 -0.1109 -0.3910
 2329W        W 4529   9.959   4.987  15.322  0.1019  0.1646  0.0560
 2330W        W 4530  11.048   1.081  42.328  0.2134  0.2395  0.2130
 2331W        W 4531  17.074   5.578  24.437 -0.2237  0.0444  0.0335
 2332W        W 4532   5.372   1.461  44.179  0.2250 -0.0209  0.0707
 2333W        W 4533   4.854   1.570   2.096 -0.2974 -0.4206  0.0519
 2334W        W 4534  13.734   1.078  41.959 -0.0111  0.0001 -0.1254
 2335W        W 4535  18.994   6.159  25.859 -0.1191  0.1853 -0.3529
 2336W        W 4536  12.986   1.854  31.429 -0.2872  0.0268 -0.0804
 2337W        W 4537   0.992   4.453   2.779 -0.0252  0.0634 -0.1331
 2338W        W 4538   8.477   2.715   7.150 -0.1333 -0.0249 -0.1636
 2339W        W 4539  18.795   4.900  41.605  0.1387 -0.1603  0.0069
 2340W        W 4540   1.389   4.091  13.805  0.2697 -0.0375  0.0677
 2341W        W 4541  13.406   3.100   1.052 -0.1791 -0.0450 -0.3077
 2342W        W 4542   6.155   1.433  35.266  0.0180 -0.0330  0.2877
 2343W        W 4543  13.500   2.122  19.784 -0.0589 -0.0637 -0.1622
 2344W        W 4544  13.589   6.507  18.881  0.0538  0.3588 -0.0263
 2345W        W 4545   4.612   4.590   6.084  0.0320  0.1320 -0.0443
 2346W        W 4546  15.391   4.469  33.683 -0.1157  0.0175 -0.0093
 2347W        W 4547   6.726   6.469   9.146  0.0899 -0.1582  0.0010
 2348W        W 4548  15.123   6.539  12.789  0.4967  0.0618 -0.2514
 2349W        W 4549  11.601   1.780  44.874  0.0727 -0.0850  0.0758
 2350W        W 4550   1.761   2.832   7.266 -0.0232  0.0496 -0.0450
 2351W        W 4551  18.302   6.335  32.261  0.1119 -0.0383 -0.2006
 2352W        W 4552   5.372   3.272  34.409 -0.1560 -0.1531  0.1805
 2353W        W 4553   3.177   1.689   1.411  0.2045  0.0866  0.1078
 2354W        W 4554   2.031   4.053  25.565  0.1986  0.3358 -0.1374
 2355W        W 4555   4.431   0.729  15.784  0.3194  0.0853  0.1348
 2356W        W 4556   4.150   2.649   4.103  0.2056 -0.1883 -0.3455
 2357W        W 4557   0.842   4.489  30.366 -0.1061  0.3212 -0.2234
 2358W        W 4558   8.446   6.192   6.096  0.2813  0.0588  0.0164
 2359W        W 4559  16.746   1.715  16.214 -0.0547  0.0837  0.0285
 2360W        W 4560  11.518   3.009  40.017 -0.1596 -0.0274  0.1972
 2361W        W 4561  10.876   1.538  37.959 -0.4648  0.2087  0.0211
 2362W        W 4562  17.578   2.583  10.311 -0.2996 -0.0659 -0.0048
 2363W        W 4563  20.484   5.394  20.958 -0.1588  0.1559 -0.0984
 2364W        W 4564  18.701   2.267  10.170  0.0995 -0.0361  0.1058
 2365W        W 4565  10.720   6.339   7.716 -0.0711  0.0341  0.0711
 2366W        W 4566   6.466   0.044  15.125  0.1028  0.3474  0.0468
 2367W        W 4567   2.836   1.148  31.326  0.2323  0.3017  0.0516
 2368W        W 4568  14.445   6.229  40.035 -0.0154  0.2377  0.1602
 2369W        W 4569   1.540   4.544  36.352 -0.1435  0.0013 -0.3115
 2370W        W 4570   3.861   3.945  12.068  0.1068  0.1712 -0.2253
 2371W        W 4571   7.555   5.198  37.025  0.0058 -0.2857 -0.2849
 2372W        W 4572   5.779   0.587   3.704 -0.0493  0.0898  0.2318
 2373W        W 4573   8.441   5.726  16.775 -0.0964 -0.2168  0.5787
 2374W        W 4574  17.263   2.128   3.329  0.0434  0.0781 -0.1677
 2375W        W 4575  20.047   3.869  43.890 -0.0963  0.0995  0.0271
 2376W        W 4576   9.192   1.586   8.853 -0.1295 -0.1380  0.0725
 2377W        W 4577  10.318   5.925  17.126  0.0329  0.0928  0.0043
 2378W        W 4578  19.138   2.300   1.306 -0.1065  0.1145 -0.0728
 2379W        W 4579  14.269   2.774  10.788 -0.2974 -0.2786 -0.2301
 2380W        W 4580   3.233   0.375  29.387  0.2267  0.0617 -0.2191
 2381W        W 4581  12.474   3.494  38.107  0.0876  0.0525 -0.0086
 2382W        W 4582   9.306   1.353  14.055  0.2370 -0.1691 -0.4248
 2383W        W 4583  11.928   0.491  42.928 -0.3411 -0.1255  0.2109
 2384W        W 4584  15.283   4.489  35.504  0.0804 -0.3284 -0.0443
 2385W        W 4585  19.643   3.500  39.642  0.1937 -0.1910 -0.2162
 2386W        W 4586   2.764   4.464   8.862 -0.0312 -0.3742 -0.3287
 2387W        W 4587   6.662   3.519  16.927  0.0445  0.0773 -0.2487
 2388W        W 4588  10.530   2.009  12.858  0.2690  0.1409  0.3053
 2389W        W 4589   8.104   5.490   3.862 -0.1438  0.1512  0.3152
 2390W        W 4590   9.366   0.836  19.114  0.2149 -0.1778  0.2103
 2391W        W 4591   0.303   5.460   5.096  0.1621  0.1381 -0.1466
 2392W        W 4592  11.261   1.008  44.147 -0.1097  0.2718 -0.2527
 2393W        W 4593  19.227   1.228  14.276  0.2888  0.1677  0.2259
 2394W        W 4594  10.809   6.369   3.524  0.3615  0.4267  0.1026
 2395W        W 4595   2.525   6.464   7.268 -0.0030 -0.4148  0.1265
 2396W        W 4596  12.029   3.726  18.234  0.0661 -0.1411 -0.0098
 2397W        W 4597   5.394   0.754  40.748 -0.2910 -0.0709  0.0748
 2398W        W 4598   3.068   5.294   4.910 -0.1374  0.1042  0.2613
 2399W        W 4599  17.316   6.444  27.554  0.1039 -0.1118 -0.2832
 2400W        W 4600  16.979   2.755  10.407  0.4565 -0.2205 -0.1062
 2401W        W 4601   7.197   5.400   2.922 -0.1306  0.0967  0.1841
 2402W        W 4602  11.421   2.328  41.674 -0.3311 -0.0938  0.0562
 2403W        W 4603  19.103   1.182  24.299 -0.1866 -0.2836 -0.3006
 2404W        W 4604  14.097   3.200  31.762 -0.1506  0.0577  0.1845
 2405W        W 4605  11.427   3.237  22.009 -0.0928  0.1143  0.3559
 2406W        W 4606  14.568   0.969  36.220 -0.1496  0.2142 -0.3104
 2407W        W 4607  19.172   5.562   6.932  0.0291 -0.0242 -0.1339
 2408W        W 4608   3.320   0.058  42.651 -0.0729  0.1512 -0.1313
 2409W        W 4609   1.177   5.221   1.441 -0.1859  0.2574 -0.0035
 2410W        W 4610  17.465   4.796  39.016 -0.1159  0.1310 -0.0094
 2411W        W 4611   6.873   0.050   2.361 -0.0233 -0.2973  0.0800
 2412W        W 4612  20.346   4.048  22.794  0.0868  0.2918 -0.1747
 2413W        W 4613  19.050   5.204  36.978  0.1391 -0.1093  0.1832
 2414W        W 4614  16.076   4.041  44.228 -0.2721  0.0268 -0.1950
 2415W        W 4615   5.935   2.224  41.029  0.1942 -0.0139  0.0916
 2416W        W 4616   5.751   4.936  41.107  0.1281 -0.1567  0.1044
 2417W        W 4617   7.386   2.144   4.441 -0.1448  0.1486 -0.0517
 2418W        W 4618   3.692   5.558  28.900  0.0560 -0.2213 -0.3245
 2419W        W 4619  19.028   3.265  40.118 -0.0095  0.0383  0.0416
 2420W        W 4620  17.056   6.332  25.205 -0.1805 -0.0196  0.1326
 2421W        W 4621   5.527   3.986  12.638 -0.0193 -0.1690 -0.2099
 2422W        W 4622   5.585   3.133  39.489 -0.2036 -0.0794  0.0215
 2423W        W 4623   8.765   2.081  40.382  0.1786  0.2316 -0.0541
 2424W        W 4624  12.398   6.489  11.448 -0.2832 -0.1428  0.1380
 2425W        W 4625   8.731   0.160   6.782 -0.2410 -0.0213 -0.0913
 2426W        W 4626  10.424   4.115  29.769 -0.0522 -0.1014  0.1579
 2427W        W 4627   3.809   2.000  37.954  0.2022  0.2186  0.0686
 2428W        W 4628   3.081   2.411  43.438  0.0243  0.4098  0.0479
 2429W        W 4629  12.972   4.560   0.162 -0.1979 -0.0197  0.1765
 2430W        W 4630   7.189   2.576  38.276  0.0843 -0.0365 -0.0114
 2431W        W 4631   7.710   0.664   2.058 -0.1031 -0.2286 -0.0383
 2432W        W 4632  13.933   3.594  40.332  0.3078  0.0202 -0.0533
 2433W        W 4633  19.849   4.982  25.087 -0.0283  0.0139 -0.0523
 2434W        W 4634   1.546   6.174  12.956  0.0608  0.0572  0.1863
 2435W        W 4635   1.497   0.821   9.014  0.0740  0.1573  0.0756
 2436W        W 4636   5.044   2.916   6.627  0.0773 -0.4039 -0.1542
 2437W        W 4637   9.047   1.550  23.677 -0.0573  0.0993  0.0343
 2438W        W 4638  16.288   5.065  25.734  0.1651  0.1631  0.1380
 2439W        W 4639   2.757   1.618  28.186  0.0687  0.2867  0.1121
 2440W        W 4640   2.115   2.932  12.514 -0.0151 -0.1132  0.0329
 2441W        W 4641   2.522   0.101  41.624  0.0683  0.0944 -0.3073
 2442W        W 4642  12.899   2.904  20.877  0.2248 -0.2857 -0.1051
 2443W        W 4643   2.274   3.739  33.568  0.1293  0.2813 -0.4310
 2444W        W 4644  13.188   4.229  30.717 -0.0060 -0.0640  0.1839
 2445W        W 4645   2.520   0.808  40.837  0.0795  0.3993  0.3124
 2446W        W 4646   9.459   1.273  39.792  0.1319 -0.0148  0.0011
 2447W        W 4647   2.426   1.757  42.905  0.1938 -0.1006  0.0271
 2448W        W 4648  10.952   2.259  34.609 -0.1963  0.3524  0.1001
 2449W        W 4649  19.997   4.668   6.633  0.2054  0.1167  0.0611
 2450W        W 4650   5.080   1.704  34.524  0.0495  0.1636 -0.0700
 2451W        W 4651  11.381   3.193  39.585 -0.1137 -0.0003  0.2002
 2452W        W 4652   6.917   5.719  11.814  0.1369  0.1287 -0.1180
 2453W        W 4653   7.328   2.770  36.918 -0.0385 -0.0796 -0.0525
 2454W        W 4654  19.716   5.229   8.187  0.3118 -0.1104 -0.2162
 2455W        W 4655  19.890   2.738  10.437  0.1011 -0.2896 -0.3180
 2456W        W 4656   1.329   4.822  33.939  0.0423 -0.1439  0.1619
 2457W        W 4657  17.668   5.850  39.619  0.3141  0.2114  0.3915
 2458W        W 4658   2.464   2.518  29.737  0.3330  0.1024 -0.1464
 2459W        W 4659   3.468   1.214  31.223 -0.0246 -0.1027 -0.0251
 2460W        W 4660  11.790   4.060   4.046 -0.0933 -0.3010  0.0495
 2461W        W 4661  12.272   2.082   5.521  0.1313  0.0653 -0.0240
 2462W        W 4662   9.579   3.702  20.785  0.2887  0.1453 -0.0215
 2463W        W 4663   1.620   4.470   7.879  0.0588 -0.2398 -0.0833
 2464W        W 4664   7.830   5.725   4.254 -0.1506 -0.1821 -0.0362
 2465W        W 4665  11.558   4.161   6.969 -0.2025 -0.0009  0.1015
 2466W        W 4666   3.977   1.597  27.143 -0.0241 -0.1141  0.2863
 2467W        W 4667   3.896   0.334   1.203 -0.4227 -0.2958  0.1510
 2468W        W 4668  12.161   5.213   9.468  0.1902  0.0259 -0.0514
 2469W        W 4669  12.247   4.677  15.072  0.1929  0.3997  0.3458
 2470W        W 4670  18.216   5.358  11.404 -0.2197  0.1260 -0.1803
 2471W        W 4671   1.080   1.696   2.876 -0.2319 -0.0608 -0.0835
 2472W        W 4672   3.079   4.409  44.395  0.3038  0.0511  0.0103
 2473W        W 4673   7.256   5.098  16.259  0.0004 -0.0832  0.4413
 2474W        W 4674  14.460   4.812  15.344 -0.1816 -0.0019  0.1840
 2475W        W 4675  18.432   6.016  13.042 -0.1101  0.0546  0.1434
 2476W        W 4676   9.889   4.006  40.360 -0.3388  0.2709 -0.1160
 2477W        W 4677  18.998   0.234   5.888 -0.1719  0.0172 -0.3465
 2478W        W 4678  13.040   0.033  29.126  0.2694  0.0193 -0.0370
 2479W        W 4679  14.513   0.160  27.196  0.1854  0.3130  0.1460
 2480W        W 4680  20.431   6.243   0.688  0.1489  0.1157  0.0806
 2481W        W 4681  18.360   1.827  35.944 -0.2157 -0.0261  0.2828
 2482W        W 4682   2.114   4.417   7.232 -0.0309 -0.0221 -0.1182
 2483W        W 4683  12.333   3.087   1.691 -0.0001  0.0524 -0.1068
 2484W        W 4684   2.535   0.763  24.735  0.0881  0.3896  0.1613
 2485W        W 4685   7.629   0.379  34.909  0.1273  0.1339 -0.0956
 2486W        W 4686  18.826   1.973  26.501 -0.1099  0.0308 -0.0169
 2487W        W 4687   8.491   3.831   9.091 -0.0252  0.0811  0.0193
 2488W        W 4688  16.552   2.173  27.719  0.0549  0.3928 -0.2925
 2489W        W 4689   3.372   5.091  27.731  0.0478  0.2662 -0.4099
 2490W        W 4690  13.089   5.740  13.095  0.0927  0.0579 -0.1238
 2491W        W 4691  18.467   4.291  13.493  0.1189  0.1483 -0.0807
 2492W        W 4692  11.175   4.649  28.251 -0.0821  0.0429 -0.2399
 2493W        W 4693  12.815   4.059   9.668  0.0133 -0.1409  0.4277
 2494W        W 4694  20.615   3.103  24.453 -0.0688 -0.0385  0.1290
 2495W        W 4695   9.084   6.005   6.808  0.0548  0.0906 -0.1618
 2496W        W 4696   2.502   2.944   4.082 -0.1797  0.1761 -0.2368
 2497W        W 4697   2.498   6.064  37.441 -0.1324 -0.0277  0.0126
 2498W        W 4698   1.017   4.665   0.570 -0.0770  0.1555  0.1347
 2499W        W 4699  16.238   0.859   2.965  0.0935 -0.1272 -0.2009
 2500W        W 4700   7.733   3.854   2.979  0.0655 -0.1391  0.1327
 2501W        W 4701  15.088   4.384  37.401  0.0447  0.2675  0.1834
 2502W        W 4702  20.433   3.629   5.281 -0.0502 -0.3793 -0.1887
 2503W        W 4703  19.969   4.026  26.369 -0.2063  0.1484  0.0229
 2504W        W 4704  13.700   4.785  11.673  0.1368  0.0624 -0.0545
 2505W        W 4705  16.204   1.405  40.363 -0.1091  0.2033  0.0561
 2506W        W 4706  14.860   2.756   7.133  0.2203  0.1041 -0.0593
 2507W        W 4707   7.678   4.682  36.282  0.1558  0.2880  0.0475
 2508W        W 4708  17.554   5.420  37.392 -0.1183  0.0801 -0.0827
 2509W        W 4709  13.930   4.063  17.643  0.1271  0.1043 -0.4126
 2510W        W 4710  14.778   2.540   6.624  0.0858  0.4907 -0.0788
 2511W        W 4711   9.684   0.799  22.672  0.1379  0.0175 -0.0988
 2512W        W 4712   7.673   1.512  31.428  0.0358  0.2199 -0.0831
 2513W        W 4713   6.175   2.905   7.235 -0.1003  0.0555 -0.2796
 2514W        W 4714  18.208   3.942   3.847 -0.0334  0.1096  0.0963
 2515W        W 4715  15.151   1.026  27.073 -0.2337  0.2116 -0.0051
 2516W        W 4716  17.353   2.821  25.257 -0.0113 -0.0033 -0.0374
 2517W        W 4717  14.504   6.476  12.690  0.1406  0.0571  0.1364
 2518W        W 4718  11.327   6.241  16.832  0.1483  0.0261 -0.2631
 2519W        W 4719  12.584   2.392  13.008  0.2594  0.4726 -0.3594
 2520W        W 4720  16.633   1.203  16.181 -0.2024  0.3784  0.0492
 2521W        W 4721   5.383   3.267   9.973 -0.0083 -0.0065  0.1654
 2522W        W 4722   8.510   0.816  32.821 -0.1177  0.2054 -0.2350
 2523W        W 4723   9.493   4.306  30.793  0.0728 -0.2123 -0.1101
 2524W        W 4724  13.820   4.179   2.127 -0.1408  0.1619  0.1142
 2525W        W 4725  13.446   6.326   4.365  0.1407  0.1755 -0.2032
 2526W        W 4726   7.373   5.412   1.376  0.0379 -0.1487  0.0666
 2527W        W 4727  20.313   0.002  22.034 -0.2865 -0.0797  0.1167
 2528W        W 4728  10.178   2.428  12.805 -0.2919  0.0891 -0.2038
 2529W        W 4729  19.323   4.474  10.525  0.0014  0.2374 -0.1559
 2530W        W 4730  19.862   1.977  41.274  0.2726 -0.0823 -0.1109
 2531W        W 4731  10.665   0.008   1.982 -0.0431 -0.0830 -0.1536
 2532W        W 4732  14.166   3.533  16.742 -0.0110 -0.2766  0.1290
 2533W        W 4733  17.566   0.789  33.613  0.0701  0.1839 -0.2648
 2534W        W 4734  13.140   6.083   1.574  0.2080  0.2943 -0.1883
 2535W        W 4735  17.013   4.189  40.591  0.2020 -0.2446  0.2355
 2536W        W 4736  13.428   2.658  10.579  0.0885  0.2044 -0.3544
 2537W        W 4737  20.638   0.052  44.163  0.0687  0.1961  0.0702
 2538W        W 4738   7.491   2.569   0.832  0.2097  0.2206  0.4203
 2539W        W 4739   9.179   0.312  22.231 -0.1152  0.1371 -0.2180
 2540W        W 4740   7.138   6.410  34.519  0.0915  0.3790  0.0681
 2541W        W 4741  15.503   6.444  31.720 -0.0660  0.0976  0.0734
 2542W        W 4742  17.438   4.667  11.955 -0.1070 -0.0779  0.0479
 2543W        W 4743   2.563   4.731  30.023  0.2774 -0.1452 -0.0632
 2544W        W 4744  10.968   6.024   4.388 -0.0411  0.0604 -0.0712
 2545W        W 4745   4.223   5.351  12.759 -0.2950 -0.3675  0.0308
 2546W        W 4746   2.781   2.399  27.981 -0.1493 -0.0198  0.1262
 2547W        W 4747   4.871   1.107  30.199 -0.2252 -0.0583 -0.0150
 2548W        W 4748   6.077   0.390  10.601  0.0467  0.2419  0.1189
 2549W        W 4749  15.859   5.072  34.864  0.1463  0.2955  0.0422
 2550W        W 4750  19.334   3.732  21.017  0.6700 -0.0440 -0.3278
 2551W        W 4751  11.979   3.642  38.335  0.2601  0.0310  0.1332
 2552W        W 4752   9.295   4.353  24.252 -0.0270 -0.0679 -0.0826
 2553W        W 4753  14.514   3.486  31.813  0.0410 -0.0459 -0.3928
 2554W        W 4754   9.123   0.223  44.065  0.0127  0.0064  0.0478
 2555W        W 4755   9.315   4.377  38.648 -0.1416 -0.1159 -0.3859
 2556W        W 4756   4.035   5.029  16.303 -0.0535 -0.0411 -0.0238
 2557W        W 4757   2.312   4.242  44.244  0.1853 -0.3604 -0.1041
 2558W        W 4758  12.800   4.038   1.888  0.1954  0.0477  0.1343
 2559W        W 4759  11.228   5.620  37.941 -0.0822 -0.3133 -0.1271
 2560W        W 4760  15.352   6.347  28.465 -0.0904  0.3698 -0.4286
 2561W        W 4761   5.971   3.752  33.179  0.0731 -0.1268 -0.0498
 2562W        W 4762   0.821   0.670  36.249 -0.1203  0.0674  0.0508
 2563W        W 4763   7.817   3.532  41.260 -0.0388 -0.1919  0.3723
 2564W        W 4764   3.807   0.158  30.004  0.0829  0.0220  0.2604
 2565W        W 4765  14.713   2.437  31.327 -0.1419 -0.0969  0.1029
 2566W        W 4766   4.677   1.058  32.712 -0.3090  0.0552 -0.2319
 2567W        W 4767  13.570   6.066   8.249  0.2126 -0.1098 -0.0864
 2568W        W 4768  16.476   4.587   1.847  0.0501 -0.1554  0.0118
 2569W        W 4769  18.438   0.157   3.015  0.0632 -0.2282 -0.2036
 2570W        W 4770   8.997   4.978  31.047  0.1116 -0.1755 -0.1317
 2571W        W 4771  19.474   2.937  36.162 -0.0113 -0.2827 -0.0239
 2572W        W 4772   3.726   3.160  14.099  0.1986 -0.1325 -0.0191
 2573W        W 4773  18.720   6.547  30.727  0.0198  0.2154  0.0253
 2574W        W 4774  19.905   5.680  13.504  0.1085  0.1657 -0.0498
 2575W        W 4775   9.501   6.594  37.107  0.0265 -0.0579  0.2014
 2576W        W 4776  10.904   0.786  30.252  0.1499  0.0022 -0.0406
 2577W        W 4777  17.662   5.955  26.787 -0.1923  0.0213  0.1203
 2578W        W 4778  10.877   5.130  15.850  0.3892  0.0135  0.2646
 2579W        W 4779   6.545   0.946  17.891 -0.0345 -0.2462  0.2061
 2580W        W 4780   1.743   5.298  35.785  0.1671  0.1632  0.0214
 2581W        W 4781   6.342   2.474  42.918  0.4153 -0.1871 -0.1497
 2582W        W 4782   7.043   0.695  40.017 -0.0916  0.0428  0.0126
 2583W        W 4783   5.000   5.170   8.966 -0.2891  0.0162 -0.0338
 2584W        W 4784   3.824   2.286  12.514 -0.1055  0.1310 -0.3179
 2585W        W 4785  17.163   3.080  44.990 -0.1071  0.1463 -0.1040
 2586W        W 4786   9.299   3.620  10.637  0.0238 -0.0078  0.0309
 2587W        W 4787  10.416   5.907  18.240 -0.0235  0.0445  0.0545
 2588W        W 4788   3.012   2.672  40.168  0.1620 -0.2489  0.3700
 2589W        W 4789   0.027   2.038   7.390  0.3146 -0.0352 -0.1262
 2590W        W 4790  10.400   0.064  24.766 -0.1791 -0.0718 -0.3192
 2591W        W 4791   6.977   2.390  15.370  0.1303 -0.0878  0.0607
 2592W        W 4792  15.201   4.320  39.349 -0.3683 -0.0568  0.1474
 2593W        W 4793  10.342   3.953  14.619  0.2909  0.3278  0.1578
 2594W        W 4794  16.193   3.273  28.037 -0.0765  0.0563 -0.2754
 2595W        W 4795  11.018   3.821   3.580  0.1628 -0.3356 -0.2078
 2596W        W 4796  13.826   2.723  39.998 -0.1490 -0.1066 -0.0649
 2597W        W 4797   5.798   5.584  11.033 -0.0081  0.1769 -0.1021
 2598W        W 4798   1.986   0.386  13.204  0.5817 -0.0738 -0.2687
 2599W        W 4799  11.621   2.587  30.041  0.1630 -0.0652  0.0720
 2600W        W 4800   7.900   0.034  33.036 -0.3785 -0.1417 -0.0073
 2601W        W 4801  11.820   5.100  14.063  0.2582  0.1680  0.0437
 2602W        W 4802   0.218   2.192  13.493  0.2063  0.1126  0.0469
 2603W        W 4803   7.010   0.467  29.101 -0.0630 -0.1404 -0.0414
 2604W        W 4804  16.927   6.418   7.232 -0.3500  0.3197 -0.2693
 2605W        W 4805  21.077   6.250  33.010  0.2485 -0.0557  0.0924
 2606W        W 4806   1.113   2.640  23.348  0.2228 -0.1563 -0.1539
 2607W        W 4807   9.527   0.042   7.988 -0.3161  0.4077 -0.1156
 2608W        W 4808   8.533   5.995  17.727  0.2684 -0.1395  0.0005
 2609W        W 4809   1.874   5.925  34.433 -0.0907 -0.1285 -0.0858
 2610W        W 4810   0.424   3.712  14.263 -0.2080 -0.1050 -0.5697
 2611W        W 4811  13.260   6.396   0.498  0.0197  0.1559 -0.3555
 2612W        W 4812  17.328   1.252  38.918 -0.0273  0.0298  0.4290
 2613W        W 4813  19.865   0.811  32.794  0.2184  0.0345 -0.2162
 2614W        W 4814   5.228   6.422  35.925 -0.0475  0.2246  0.1264
 2615W        W 4815   1.332   6.568   6.039  0.1143  0.2602 -0.1362
 2616W        W 4816   0.336   4.315  28.026 -0.0826 -0.0262 -0.4324
 2617W        W 4817  19.707   0.233  34.701 -0.0342  0.0158  0.0046
 2618W        W 4818  16.968   3.796  32.974 -0.2417  0.1463 -0.0206
 2619W        W 4819   1.794   0.632   7.135  0.1455 -0.1506 -0.1516
 2620W        W 4820   3.641   3.220   2.121 -0.1042  0.0016 -0.0679
 2621W        W 4821  11.487   4.957  19.859 -0.3453 -0.0601  0.0530
 2622W        W 4822  19.070   0.110  29.402  0.1847  0.2869  0.1336
 2623W        W 4823  10.684   2.748  38.827 -0.3898  0.0673 -0.0256
 2624W        W 4824  14.609   5.649  41.192  0.2190 -0.1808  0.1087
 2625W        W 4825  13.731   0.717   2.779 -0.3431  0.0381  0.3314
 2626W        W 4826   7.274   1.381  12.059  0.0044  0.3183 -0.0670
 2627W        W 4827   7.843   5.918  30.615  0.0983  0.0894  0.4260
 2628W        W 4828  12.308   1.849  30.955 -0.3987  0.0678 -0.1030
 2629W        W 4829   5.071   1.759   0.853 -0.0256  0.1438 -0.2078
 2630W        W 4830   0.456   6.400  10.596 -0.2693  0.3004 -0.2678
 2631W        W 4831   6.601   2.290   4.919  0.2175  0.0222 -0.2939
 2632W        W 4832  20.465   2.605   1.703 -0.2364  0.0305 -0.0603
 2633W        W 4833  18.447   1.160   8.776 -0.1350 -0.1100 -0.0911
 2634W        W 4834   3.960   1.186   2.590  0.0279  0.0461 -0.0470
 2635W        W 4835  18.735   2.600  31.418  0.2447 -0.4801  0.0565
 2636W        W 4836  12.156   0.735  16.474 -0.2049 -0.0336 -0.3138
 2637W        W 4837   8.974   3.545   3.362 -0.0576  0.1566 -0.5123
 2638W        W 4838  18.119   2.979   7.403  0.0182  0.0312  0.1550
 2639W        W 4839   4.706   0.033  17.510 -0.0260 -0.1761  0.0340
 2640W        W 4840  10.578   4.683   7.802 -0.1635  0.1778 -0.2861
 2641W        W 4841   3.090   2.703  38.114 -0.0822 -0.0982  0.0628
 2642W        W 4842   5.096   5.062   7.140  0.2744  0.1545  0.1542
 2643W        W 4843   1.661   0.061  34.059 -0.1727 -0.0017 -0.0953
 2644W        W 4844   7.565   1.252  30.283 -0.1368  0.2698 -0.1833
 2645W        W 4845  14.812   0.371  41.985  0.1295 -0.2007  0.0386
 2646W        W 4846  17.428   5.506  26.815  0.0418 -0.0294 -0.1403
 2647W        W 4847   0.786   4.691  31.310 -0.1119 -0.1532  0.0029
 2648W        W 4848   1.772   4.011  15.372  0.0780 -0.0205  0.1014
 2649W        W 4849  18.054   6.110   3.079  0.1732  0.2562 -0.2065
 2650W        W 4850  18.728   3.668  15.128 -0.0532 -0.0854 -0.2929
 2651W        W 4851  17.314   2.479  36.743  0.0874  0.1095  0.3374
 2652W        W 4852  18.118   3.515  42.045 -0.1623 -0.1325  0.2190
 2653W        W 4853  18.498   3.341  37.052  0.3144  0.2501 -0.0243
 2654W        W 4854   3.954   2.489  44.336  0.2395 -0.0566  0.1278
 2655W        W 4855   3.942   0.116  37.053 -0.1834  0.0654  0.3324
 2656W        W 4856  10.147   2.190  40.385 -0.0277  0.1837  0.1416
 2657W        W 4857  16.251   5.135  27.331  0.1099  0.0028 -0.0466
 2658W        W 4858   8.000   6.402  33.585  0.1458 -0.1531  0.3333
 2659W        W 4859   0.477   3.401   8.073  0.0197  0.0536 -0.1408
 2660W        W 4860  19.713   0.445  15.533  0.0199  0.0816  0.0035
 2661W        W 4861  13.011   5.108  32.665 -0.0264 -0.2365 -0.1088
 2662W        W 4862  12.167   1.822  18.949  0.1170 -0.1256  0.1712
 2663W        W 4863  13.636   4.298  18.897 -0.0853  0.2869  0.0074
 2664W        W 4864   7.542   4.808  19.804  0.0639  0.1882  0.3008
 2665W        W 4865   3.389   4.595  41.873  0.1409 -0.0125  0.0282
 2666W        W 4866  19.608   4.434  33.327 -0.1000 -0.4394 -0.0699
 2667W        W 4867  17.802   2.762  25.875 -0.0601 -0.2283 -0.2739
 2668W        W 4868  19.399   3.644  12.891  0.0004  0.0613  0.1098
 2669W        W 4869   7.856   4.472  12.751 -0.3458 -0.1401 -0.1857
 2670W        W 4870   7.259   2.935  35.998 -0.0233 -0.0962  0.1824
 2671W        W 4871   8.853   0.814  16.298  0.2162  0.0044  0.0187
 2672W        W 4872  19.694   0.408  26.734  0.0175 -0.1408 -0.1665
 2673W        W 4873   5.616   5.488   8.535  0.1772  0.1077  0.2829
 2674W        W 4874   4.213   3.355  31.446  0.3853 -0.1951  0.2492
 2675W        W 4875  13.554   1.924  44.762  0.2383  0.3083 -0.0351
 2676W        W 4876  19.841   4.185   0.808 -0.1246 -0.1683 -0.0193
 2677W        W 4877  10.062   5.464  10.449 -0.2451  0.3690  0.0076
 2678W        W 4878   6.731   4.361   2.273 -0.0738 -0.0083  0.2501
 2679W        W 4879  19.395   5.956   3.029  0.2625 -0.3340  0.2971
 2680W        W 4880  13.268   2.253  14.846  0.0609  0.0081  0.0147
 2681W        W 4881   7.648   2.979  30.462 -0.1730  0.1221 -0.3017
 2682W        W 4882  14.815   2.706   5.363 -0.1537 -0.2854 -0.2175
 2683W        W 4883  19.783   2.721  38.126 -0.0026  0.0109  0.1575
 2684W        W 4884   1.061   2.284  34.750  0.2692  0.0799  0.0579
 2685W        W 4885  12.254   5.933  33.735  0.0831 -0.1550  0.0241
 2686W        W 4886   4.006   4.699  18.178 -0.0002 -0.5773 -0.0673
 2687W        W 4887   6.146   3.238  30.405  0.0484 -0.1193 -0.0184
 2688W        W 4888  11.155   0.779  13.612 -0.0125 -0.0573  0.1452
 2689W        W 4889  17.018   0.336  41.335 -0.0319  0.2893  0.1464
 2690W        W 4890  15.021   4.226  30.178 -0.4460 -0.0958  0.1969
 2691W        W 4891  13.776   2.532   2.499 -0.1896  0.1462  0.2488
 2692W        W 4892  12.762   2.919  11.822  0.2327  0.0190 -0.0532
 2693W        W 4893  12.177   4.912  31.193 -0.1637  0.2316  0.0872
 2694W        W 4894   8.082   4.162   3.679 -0.1309  0.1824 -0.1333
 2695W        W 4895  17.657   3.391   2.588  0.3495  0.1824  0.0939
 2696W        W 4896   0.889   2.926   3.042 -0.1857  0.2983 -0.1981
 2697W        W 4897  15.627   5.368  33.907 -0.0103  0.1741 -0.1556
 2698W        W 4898  16.827   0.966  10.987  0.1647 -0.0718 -0.0368
 2699W        W 4899   9.936   0.699  38.336 -0.0656  0.0189 -0.2630
 2700W        W 4900  14.155   0.868   9.928 -0.1079 -0.0953  0.0678
 2701W        W 4901  14.370   6.303   6.382 -0.4347 -0.1655 -0.1065
 2702W        W 4902   8.478   3.945   4.708  0.0236 -0.1254 -0.0078
 2703W        W 4903  20.650   5.825   5.472 -0.0612  0.0533 -0.0156
 2704W        W 4904  16.986   0.851   7.297 -0.0413  0.0399 -0.2378
 2705W        W 4905   6.175   4.880   0.943  0.1925 -0.0063  0.0141
 2706W        W 4906   6.529   2.052  40.106  0.1150 -0.3966 -0.0448
 2707W        W 4907  13.280   5.161   7.932  0.0606  0.3512 -0.1839
 2708W        W 4908   5.174   1.492  33.140  0.4411  0.1329  0.1668
 2709W        W 4909   3.010   6.454  33.891  0.0083  0.1032  0.0737
 2710W        W 4910  17.624   3.665  31.801 -0.1609  0.2772 -0.2581
 2711W        W 4911   4.053   0.167  44.539 -0.1237 -0.0506  0.1430
 2712W        W 4912  12.998   5.568  37.065  0.0793  0.1303  0.2089
 2713W        W 4913   7.910   2.743  41.857 -0.2156  0.0053 -0.0891
 2714W        W 4914   3.383   5.727  38.985 -0.2051 -0.0879  0.0738
 2715W        W 4915   6.024   3.592  32.602 -0.1367  0.2267 -0.3472
 2716W        W 4916  11.686   1.078  42.849  0.1906  0.1833 -0.0289
 2717W        W 4917  13.104   3.168  40.213 -0.0745 -0.1035  0.0026
 2718W        W 4918   4.580   1.605   2.578  0.1214 -0.2767 -0.1723
 2719W        W 4919  15.610   0.972   9.383  0.0177 -0.0844 -0.0130
 2720W        W 4920   2.446   5.532   2.110  0.0473  0.1686  0.0352
 2721W        W 4921  20.130   4.549   8.636 -0.2047  0.0390  0.0833
 2722W        W 4922  19.243   6.360   5.874  0.0966 -0.1896 -0.0429
 2723W        W 4923   3.632   6.310   3.846 -0.2188  0.1962  0.1764
 2724W        W 4924  17.549   3.327  25.880  0.0719 -0.0208 -0.0079
 2725W        W 4925   3.893   2.624   3.645  0.1598 -0.2400 -0.2081
 2726W        W 4926  16.726   2.523  41.195  0.2347  0.4255  0.0518
 2727W        W 4927   9.483   2.203  14.087  0.0445 -0.0255  0.2985
 2728W        W 4928  16.727   0.480  23.391  0.0771 -0.2305  0.4303
 2729W        W 4929  16.824   4.325  23.055  0.1195  0.1459 -0.1783
 2730W        W 4930  12.645   4.504  37.128 -0.1761  0.0514  0.1392
 2731W        W 4931  15.886   4.771  27.153 -0.0374 -0.1420 -0.0860
 2732W        W 4932   5.780   1.690  33.680 -0.1253  0.1993 -0.0319
 2733W        W 4933  10.826   1.422  36.278  0.1356  0.0796  0.0090
 2734W        W 4934  18.321   0.705  35.118  0.0564 -0.2182 -0.0061
 2735W        W 4935  18.585   6.222   9.790  0.1000 -0.1335 -0.2818
 2736W        W 4936   8.849   6.537  40.236  0.0922  0.0204  0.0970
 2737W        W 4937   7.701   1.930  42.371 -0.2062  0.0446 -0.3751
 2738W        W 4938   8.664   2.848  19.450 -0.0610 -0.4006 -0.0405
 2739W        W 4939  15.728   6.078  42.314  0.2041 -0.0200 -0.4100
 2740W        W 4940  13.157   4.783  27.257  0.0735 -0.0030  0.2871
 2741W        W 4941   5.181   0.181  33.662 -0.0022  0.0665 -0.1026
 2742W        W 4942  17.267   6.051  34.674  0.2299 -0.1796  0.0172
 2743W        W 4943   5.787   1.301  30.789  0.2886 -0.1640 -0.2905
 2744W        W 4944   7.543   1.560  17.341  0.1274  0.0971  0.0650
 2745W        W 4945  13.440   3.874  19.178 -0.1802  0.2177  0.1445
 2746W        W 4946  11.881   0.811  28.761  0.2483  0.0792 -0.0363
 2747W        W 4947  14.886   3.631  39.878 -0.0585  0.1531 -0.1270
 2748W        W 4948   2.074   3.355  42.159  0.0600 -0.1134  0.0986
 2749W        W 4949   0.586   0.846  28.476 -0.1780 -0.0510  0.0554
 2750W        W 4950   2.580   3.107  39.744 -0.1466 -0.0118  0.0091
 2751W        W 4951  13.997   5.024  38.670 -0.0166  0.2996 -0.0239
 2752W        W 4952  19.280   0.620  36.973 -0.1234  0.3001 -0.1166
 2753W        W 4953  13.524   4.150   0.953  0.1781  0.0408 -0.4304
 2754W        W 4954   4.395   4.695  29.185  0.0851 -0.0901 -0.2429
 2755W        W 4955   5.818   5.478  10.053  0.0953 -0.0466  0.0637
 2756W        W 4956  19.765   2.298  14.242  0.2494  0.1171 -0.0435
 2757W        W 4957   0.323   1.987  20.734 -0.3994  0.0710  0.1895
 2758W        W 4958   1.745   1.459  14.938  0.2308 -0.0604  0.2061
 2759W        W 4959  15.936   5.890   1.871  0.0219 -0.3108 -0.4964
 2760W        W 4960  17.943   1.333  31.165 -0.2781  0.1183 -0.0504
 2761W        W 4961   6.589   6.012  10.820 -0.1668 -0.0722  0.0112
 2762W        W 4962  20.829   0.410  42.143  0.0140  0.1639  0.0450
 2763W        W 4963   2.893   2.575   4.523 -0.1038 -0.1660  0.0271
 2764W        W 4964  12.268   5.745  35.939  0.0859 -0.2200 -0.0827
 2765W        W 4965   1.961   6.091  44.525  0.2627 -0.2119  0.0497
 2766W        W 4966  10.900   4.051  22.401 -0.1958 -0.0862  0.3394
 2767W        W 4967  15.829   2.124  16.104 -0.0411  0.1778  0.1647
 2768W        W 4968   9.191   2.966   4.743  0.2505  0.0307  0.3532
 2769W        W 4969  17.277   6.253  36.812  0.1110 -0.0630  0.1837
 2770W        W 4970   3.196   0.050  34.328  0.3842 -0.2164  0.1329
 2771W        W 4971  15.799   2.326   8.710 -0.0744 -0.0459  0.0262
 2772W        W 4972   6.708   1.813  21.219  0.2357  0.2799 -0.1661
 2773W        W 4973   7.700   5.078  39.973  0.1722  0.2221  0.0646
 2774W        W 4974  18.443   2.550  40.558 -0.0607 -0.0855 -0.1816
 2775W        W 4975   3.795   0.855  34.373  0.1603 -0.0980 -0.3511
 2776W        W 4976  17.708   5.691  15.731 -0.0501 -0.0671  0.0886
 2777W        W 4977  16.889   4.423  34.083  0.2467 -0.1328  0.1216
 2778W        W 4978  18.309   3.300   8.066  0.1525  0.3539 -0.1308
 2779W        W 4979   9.227   4.234  10.029  0.1421 -0.2359 -0.3209
 2780W        W 4980   1.167   3.878  31.786 -0.2244 -0.3883  0.1945
 2781W        W 4981  11.877   2.967   7.843  0.0874 -0.1415 -0.3211
 2782W        W 4982  20.281   1.189  44.955 -0.2301 -0.1960  0.3474
 2783W        W 4983  13.875   5.672  31.074  0.4417  0.0895 -0.0764
 2784W        W 4984   8.076   5.068  14.308 -0.1339 -0.0178 -0.0374
 2785W        W 4985  16.970   1.024  11.668  0.0203 -0.3548  0.1621
 2786W        W 4986   5.015   2.213  14.580  0.2862 -0.1787 -0.1417
 2787W        W 4987   7.887   4.375  35.821 -0.2375 -0.1423 -0.2043
 2788W        W 4988  11.496   2.803   1.723  0.1870 -0.0482 -0.3743
 2789W        W 4989  13.334   1.191  30.343 -0.0583  0.2582  0.1254
 2790W        W 4990   1.422   1.375  43.028  0.1069  0.0245  0.1687
 2791W        W 4991   9.306   5.597  31.621 -0.0388 -0.2793  0.4632
 2792W        W 4992  14.526   2.410   7.035  0.3174  0.2118 -0.2055
 2793W        W 4993   8.759   5.771  31.248 -0.1045  0.1464  0.1864
 2794W        W 4994   1.803   4.088  11.785 -0.0405  0.0773  0.1021
 2795W        W 4995  19.802   1.383  21.060 -0.1311  0.3357  0.0191
 2796W        W 4996  13.828   4.682  28.560  0.1956  0.0173 -0.0549
 2797W        W 4997  11.340   3.301  44.420  0.2058 -0.1036  0.0408
 2798W        W 4998  13.912   2.537  18.078 -0.0758  0.0222  0.2125
 2799W        W 4999  21.138   6.166  37.238  0.1467 -0.0972  0.1610
 2800W        W 5000   5.972   0.160  15.320  0.0975  0.1758  0.0482
 2801W        W 5001  17.930   4.102  36.040 -0.3502  0.0841 -0.2016
 2802W        W 5002   6.278   3.859  41.488 -0.0015  0.2131 -0.1927
 2803W        W 5003  14.851   0.029  42.321 -0.0697  0.5990  0.3416
 2804W        W 5004  15.344   4.696  40.791 -0.0104 -0.1458  0.0985
 2805W        W 5005  20.553   1.136   5.807  0.0403 -0.3823 -0.1527
 2806W        W 5006  18.817   1.082  22.120 -0.1090 -0.2383  0.1097
 2807W        W 5007   8.938   5.430  41.341  0.0585  0.2685 -0.1669
 2808W        W 5008  17.781   2.814  42.286 -0.1658  0.0925  0.2694
 2809W        W 5009  16.275   0.329  28.886 -0.0889  0.0270  0.0159
 2810W        W 5010   8.082   2.644  35.638  0.4111  0.0442 -0.2291
 2811W        W 5011   4.642   4.584   3.151 -0.1602 -0.0060 -0.2567
 2812W        W 5012   9.847   1.034   7.126  0.0085 -0.0061 -0.3015
 2813W        W 5013  12.794   6.027  32.609 -0.2150  0.0106 -0.0420
 2814W        W 5014  18.619   0.349   8.268  0.0293  0.1037 -0.2089
 2815W        W 5015   2.496   0.366  13.881 -0.0856  0.1357  0.0140
 2816W        W 5016  14.571   5.406   7.568  0.1507  0.0306  0.3669
 2817W        W 5017   6.929   1.573  17.263  0.1236  0.3043 -0.0141
 2818W        W 5018   9.091   5.519  32.074 -0.0785  0.0769 -0.0028
 2819W        W 5019   4.111   2.863   2.348 -0.0664  0.1441 -0.0173
 2820W        W 5020   8.036   5.988  12.675 -0.4249 -0.0380 -0.4014
 2821W        W 5021   7.471   1.812  18.613 -0.0668  0.2217 -0.0600
 2822W        W 5022  10.952   4.468  44.356 -0.0656  0.0284  0.0453
 2823W        W 5023  14.185   6.005  38.992  0.0429 -0.1249 -0.0454
 2824W        W 5024   7.207   3.703  33.164 -0.0448 -0.3419  0.0329
 2825W        W 5025   8.455   4.700   9.602 -0.0235 -0.0265 -0.1538
 2826W        W 5026   0.758   4.895  41.880 -0.3336 -0.1148  0.0214
 2827W        W 5027   7.590   1.380  42.312 -0.0424  0.0662  0.1242
 2828W        W 5028   8.290   3.921  20.409 -0.0200  0.0856 -0.0851
 2829W        W 5029  19.058   0.177  36.217 -0.3608 -0.0119  0.1324
 2830W        W 5030  10.852   6.006   1.842  0.3391  0.2796  0.3167
 2831W        W 5031  13.741   6.451  41.102  0.2322  0.1857 -0.0435
 2832W        W 5032   8.921   1.652  44.451 -0.0520  0.2654  0.1886
 2833W        W 5033   7.689   0.318   5.629 -0.2442  0.0761  0.3189
 2834W        W 5034  12.448   5.842   7.057 -0.0856  0.2022  0.3763
 2835W        W 5035  17.033   1.069  28.715 -0.0035  0.2843 -0.0955
 2836W        W 5036  13.077   5.193  39.712 -0.1484 -0.0550 -0.0967
 2837W        W 5037  20.926   1.705   7.096  0.0108 -0.2486  0.1618
 2838W        W 5038  12.100   0.945   5.240 -0.0789  0.0003  0.1323
 2839W        W 5039  14.105   0.538  38.114 -0.2916  0.2255 -0.2497
 2840W        W 5040  10.281   4.058  34.855 -0.1973  0.2211  0.2777
 2841W        W 5041   8.005   2.913  34.060 -0.0321 -0.0036  0.3162
 2842W        W 5042  17.210   2.628   6.225 -0.2019 -0.2251  0.1568
 2843W        W 5043  20.996   6.175  43.921 -0.1506  0.1748  0.0381
 2844W        W 5044  10.092   1.931  35.913 -0.0889  0.4498  0.0269
 2845W        W 5045   8.933   0.138  10.607 -0.2554 -0.1157  0.0326
 2846W        W 5046  16.361   3.231  42.761  0.0967  0.0515 -0.1777
 2847W        W 5047  17.588   4.546  13.217 -0.3037  0.0532 -0.0520
 2848W        W 5048   2.552   0.518   5.857  0.3375  0.0945  0.0570
 2849W        W 5049  20.215   1.311  29.724 -0.0253  0.2238 -0.1743
 2850W        W 5050  16.518   6.049   8.979  0.1855 -0.2210  0.3700
 2851W        W 5051  16.011   2.399  40.286  0.0424  0.0382 -0.1455
 2852W        W 5052   6.992   2.062  42.003 -0.2767  0.0946  0.0366
 2853W        W 5053   5.380   5.515  40.413  0.0237 -0.0968 -0.0367
 2854W        W 5054   7.204   5.913   6.241  0.2063  0.0537 -0.0616
 2855W        W 5055  17.891   0.720   6.269  0.0044 -0.1440 -0.1929
 2856W        W 5056   6.041   2.668  31.622 -0.1602  0.0461 -0.3865
 2857W        W 5057  13.104   0.685   1.627  0.0873  0.0908  0.2525
 2858W        W 5058  11.430   3.915  19.399 -0.0937  0.1243  0.1069
 2859W        W 5059  10.718   4.078   3.898 -0.0482  0.0228 -0.2494
 2860W        W 5060   3.700   3.355   6.096  0.4846  0.1062 -0.3459
 2861W        W 5061   9.848   1.327  18.857  0.0704 -0.0847 -0.0031
 2862W        W 5062   8.816   4.782  37.163  0.0218  0.1852  0.1278
 2863W        W 5063  19.648   0.867  26.523 -0.1469  0.0716  0.2067
 2864W        W 5064   8.260   4.046  24.085  0.2092  0.1508  0.1375
 2865W        W 5065   4.093   1.768  39.229  0.1174 -0.0491 -0.1496
 2866W        W 5066  13.640   1.569  40.888  0.2986 -0.2419  0.0723
 2867W        W 5067  16.674   4.079  44.366 -0.1755 -0.3047 -0.2156
 2868W        W 5068  14.176   3.115  13.140 -0.0566 -0.1223  0.1488
 2869W        W 5069  11.975   0.087   3.166 -0.1547 -0.1441  0.2194
 2870W        W 5070   7.388   2.879  16.595 -0.0188  0.0587  0.2652
 2871W        W 5071   5.637   3.254  35.525  0.1202  0.1421 -0.1300
 2872W        W 5072   4.421   3.065  15.307 -0.1965 -0.1444  0.2835
 2873W        W 5073  12.201   2.390  16.937 -0.2117  0.1313 -0.1001
 2874W        W 5074   8.565   0.599  42.141 -0.0467  0.0011 -0.1212
 2875W        W 5075   8.910   4.715   4.168  0.0707 -0.1069  0.0173
 2876W        W 5076   5.062   4.121  31.083 -0.0245 -0.1281  0.1060
 2877W        W 5077   6.767   1.055  40.371 -0.0229  0.3769 -0.1705
 2878W        W 5078   1.192   2.332  41.466 -0.1143 -0.0898  0.1113
 2879W        W 5079  10.446   1.783   9.027  0.1519 -0.1766  0.5550
 2880W        W 5080   2.315   3.468  14.880 -0.1099 -0.1302  0.1566
 2881W        W 5081   7.178   0.496   6.871  0.0845  0.0550 -0.2436
 2882W        W 5082  18.993   4.202  23.547 -0.0966 -0.1816  0.0988
 2883W        W 5083  13.353   1.661  39.268  0.0809 -0.1564  0.0546
 2884W        W 5084  17.354   0.364  13.863  0.2806 -0.1392 -0.0896
 2885W        W 5085   4.780   3.512   2.020 -0.0789  0.0482  0.0198
 2886W        W 5086   8.651   5.041  35.499 -0.1250  0.0450 -0.0249
 2887W        W 5087   6.537   4.917  42.627  0.2056  0.1926  0.1418
 2888W        W 5088   7.002   1.069  38.405  0.1666 -0.0042  0.0901
 2889W        W 5089   7.092   3.523   2.145  0.0507  0.1084  0.0675
 2890W        W 5090  18.450   5.724  22.881  0.0727 -0.1889  0.3656
 2891W        W 5091   4.403   2.131  41.264  0.2278 -0.0952 -0.0643
 2892W        W 5092   6.289   1.905   4.753  0.1266  0.1598  0.0701
 2893W        W 5093   7.242   6.034  14.304 -0.3046  0.0278 -0.1902
 2894W        W 5094  16.580   1.480   9.412 -0.1486 -0.1645 -0.0881
 2895W        W 5095   9.568   1.281   1.096 -0.0145  0.2909 -0.0223
 2896W        W 5096   1.706   5.470   5.697  0.2740  0.1994  0.1139
 2897W        W 5097   6.823   4.150   1.433  0.1595  0.1237  0.1038
 2898W        W 5098  17.513   1.198  29.511  0.1553  0.0170 -0.1091
 2899W        W 5099   8.971   1.753  31.874  0.0229 -0.3050 -0.0708
 2900W        W 5100  13.561   1.023   3.266 -0.2276 -0.0001 -0.2307
 2901W        W 5101  18.788   2.822  15.351  0.0961 -0.0471  0.0824
 2902W        W 5102  18.776   5.450   3.167  0.0636 -0.2156  0.1637
 2903W        W 5103   2.332   5.804  16.052 -0.0271  0.2188  0.1221
 2904W        W 5104   7.730   5.354  22.468 -0.0920 -0.2729 -0.0901
 2905W        W 5105  13.792   5.652   0.893 -0.0298  0.0969  0.0378
 2906W        W 5106   8.111   5.125  32.802  0.0254 -0.6319 -0.0855
 2907W        W 5107  14.300   0.802  27.368 -0.2154 -0.2468  0.0469
 2908W        W 5108   7.908   6.523  39.679  0.4284 -0.0419  0.0329
 2909W        W 5109  10.938   1.087   6.505  0.1527 -0.1661 -0.0295
 2910W        W 5110  13.763   2.077  36.813  0.1956 -0.2125  0.0078
 2911W        W 5111   9.140   6.152  37.638 -0.1996 -0.2732  0.2348
 2912W        W 5112  16.063   2.115   3.456  0.0436 -0.2266 -0.0143
 2913W        W 5113  15.207   0.961   9.106 -0.0337 -0.2435  0.0866
 2914W        W 5114  16.824   4.986  30.111 -0.2533 -0.1301  0.1950
 2915W        W 5115   5.617   3.175  42.552 -0.2231 -0.0721  0.3650
 2916W        W 5116  11.716   2.073   4.907 -0.1433  0.2657 -0.2850
 2917W        W 5117   2.093   4.016  30.062  0.1015  0.2615  0.0292
 2918W        W 5118   8.371   1.678  30.041 -0.1769  0.0423 -0.1875
 2919W        W 5119   5.362   1.471  40.681  0.2240  0.3383 -0.0753
 2920W        W 5120  17.748   2.669  26.385  0.1053  0.2647 -0.0582
 2921W        W 5121   4.641   2.621  31.826 -0.1478  0.1454 -0.1968
 2922W        W 5122  15.857   1.111   1.701  0.3398  0.0047 -0.2806
 2923W        W 5123   4.324   4.798  30.639 -0.3204  0.2368  0.0492
 2924W        W 5124  13.103   6.016  32.203 -0.2279 -0.1198  0.0198
 2925W        W 5125  10.814   3.524   3.948 -0.1582  0.1672  0.1410
 2926W        W 5126  12.002   6.505  18.802 -0.2264  0.0417  0.1283
 2927W        W 5127  18.299   3.485  38.904  0.1640 -0.5040 -0.3584
 2928W        W 5128   9.991   6.594  18.254 -0.0979 -0.0924 -0.0887
 2929W        W 5129   0.250   3.514  44.083  0.0634 -0.0714  0.1524
 2930W        W 5130  17.263   1.145  11.161  0.1560  0.1420  0.0253
 2931W        W 5131  15.677   6.351   1.650  0.1026 -0.0985  0.0962
 2932W        W 5132   9.283   2.121   7.118  0.0830  0.1134 -0.1084
 2933W        W 5133  12.489   0.146  13.999  0.0678 -0.1707 -0.3748
 2934W        W 5134  14.439   1.826   2.788  0.0815 -0.0601  0.0445
 2935W        W 5135  17.907   2.635  32.374  0.0978  0.1269  0.0761
 2936W        W 5136  13.206   2.995   2.505  0.0945  0.0274  0.2450
 2937W        W 5137   0.029   6.153  13.380 -0.4084  0.2237 -0.2869
 2938W        W 5138   0.960   3.292  15.570 -0.0851  0.0721 -0.0907
 2939W        W 5139   1.781   5.380  39.020  0.0878  0.0702 -0.2362
 2940W        W 5140  20.303   2.335  30.365 -0.1690  0.1224  0.0535
 2941W        W 5141   9.325   5.964  10.762  0.0101 -0.0347 -0.0064
 2942W        W 5142  18.050   3.238   4.586 -0.1361  0.0725 -0.3874
 2943W        W 5143   8.420   0.607  37.972  0.2538 -0.1416 -0.4009
 2944W        W 5144  16.730   4.932  25.452 -0.2149 -0.1639 -0.0494
 2945W        W 5145  18.132   4.773  40.365  0.1456 -0.2278  0.3981
 2946W        W 5146  16.723   4.165   2.655 -0.1329  0.2810 -0.0438
 2947W        W 5147  11.034   1.933   7.072  0.1004 -0.0091  0.2326
 2948W        W 5148  16.977   5.269   3.468 -0.1362  0.0412  0.0154
 2949W        W 5149  11.562   0.679  29.721 -0.1927 -0.1269 -0.0648
 2950W        W 5150   2.835   1.620  35.715  0.0280 -0.1283  0.0626
 2951W        W 5151   0.641   5.952  40.618  0.2145 -0.1219  0.1446
 2952W        W 5152  11.569   4.169  14.986  0.0405 -0.0579  0.0319
 2953W        W 5153   5.273   3.412   4.490  0.3959  0.0881  0.0940
 2954W        W 5154  13.210   4.824  39.985 -0.1092  0.0816  0.1095
 2955W        W 5155   9.314   4.950   8.379  0.1103  0.0315 -0.1518
 2956W        W 5156  14.662   2.477   9.380 -0.0931 -0.1783  0.3358
 2957W        W 5157   4.445   0.059  33.505  0.1853  0.1951  0.1617
 2958W        W 5158  11.417   3.725   8.401 -0.2589  0.1552 -0.2177
 2959W        W 5159   6.257   0.666   6.922  0.0012 -0.0018 -0.1841
 2960W        W 5160   2.492   2.661  27.586  0.0446 -0.1155  0.2661
 2961W        W 5161   0.598   2.454   9.517 -0.1509 -0.1322 -0.0122
 2962W        W 5162  18.061   1.973  43.309 -0.0352  0.0211  0.2431
 2963W        W 5163   6.816   0.560  39.151 -0.3428  0.2495  0.1248
 2964W        W 5164  18.877   0.329   3.731 -0.0431  0.0582  0.3979
 2965W        W 5165   8.599   2.851  24.050  0.4270  0.2600  0.0015
 2966W        W 5166  14.578   2.986  40.408 -0.3066  0.2331 -0.1632
 2967W        W 5167   8.293   1.457  39.590  0.2458 -0.0118 -0.2287
 2968W        W 5168   5.913   4.410  41.090 -0.1029 -0.5734  0.0556
 2969W        W 5169   2.725   0.131   9.031  0.1254  0.3539  0.1263
 2970W        W 5170   7.471   3.206  31.432  0.1786 -0.2348  0.2022
 2971W        W 5171   1.053   0.258  33.980  0.0984  0.0746 -0.1601
 2972W        W 5172   4.810   4.207  36.883 -0.1967  0.1385  0.2424
 2973W        W 5173  14.884   2.017   1.070  0.1201 -0.0595 -0.0581
 2974W        W 5174  12.648   6.578  34.720 -0.2040  0.3717 -0.0600
 2975W        W 5175   3.184   3.429  35.401 -0.0744  0.0904 -0.2397
 2976W        W 5176   2.715   0.530  38.581 -0.3496  0.0197 -0.3799
 2977W        W 5177   4.397   1.331  32.016  0.2434  0.3528  0.5198
 2978W        W 5178  16.244   5.014  43.086 -0.3451  0.1745  0.0998
 2979W        W 5179   4.330   0.996  28.973  0.0051 -0.2408 -0.1848
 2980W        W 5180  17.272   4.795  39.478  0.3106 -0.1726 -0.2161
 2981W        W 5181   6.232   4.641  12.152  0.2645  0.0209 -0.3195
 2982W        W 5182   6.432   5.311  13.648 -0.1060 -0.0753 -0.5145
 2983W        W 5183  17.202   4.515  42.263 -0.2742  0.0978  0.1386
 2984W        W 5184  11.239   4.171   4.797  0.2168 -0.0374 -0.2228
 2985W        W 5185  18.311   5.341  23.861  0.4019 -0.1268  0.3032
 2986W        W 5186  13.417   5.321  13.086  0.3233  0.1061 -0.3129
 2987W        W 5187   6.016   5.647  33.797 -0.0939  0.1428 -0.4039
 2988W        W 5188  20.219   2.293  12.144  0.0502  0.1939  0.2546
 2989W        W 5189   7.689   0.103  37.847  0.2306  0.1816  0.1720
 2990W        W 5190   6.577   6.335  31.773  0.1540  0.1440  0.0238
 2991W        W 5191   5.358   3.457  30.280  0.2399 -0.4788  0.0488
 2992W        W 5192  13.129   2.990   7.110  0.0725 -0.1977  0.0851
 2993W        W 5193   5.252   1.288   0.714 -0.1470  0.2103  0.0804
 2994W        W 5194   7.552   6.100  29.756  0.0429 -0.0385 -0.1411
 2995W        W 5195  13.490   5.169  43.669  0.0091 -0.2078  0.1382
 2996W        W 5196  13.195   2.629   9.892 -0.3494  0.1280  0.0098
 2997W        W 5197   0.028   5.656  24.061 -0.0050  0.0232 -0.2011
 2998W        W 5198  18.285   1.081  10.827 -0.1795 -0.1457  0.0361
 2999W        W 5199  16.200   5.335   8.901  0.0803 -0.0799 -0.0729
 3000W        W 5200  18.007   5.313  13.030 -0.1089  0.1363 -0.0824
 3001W        W 5201   4.605   1.336  15.684 -0.0090 -0.2398 -0.0393
 3002W        W 5202  11.513   1.548  18.038  0.0839  0.2325  0.3718
 3003W        W 5203   1.273   3.679  39.738  0.0544 -0.4570 -0.0397
 3004W        W 5204   4.023   2.870  14.944 -0.1298 -0.2212  0.2161
 3005W        W 5205  15.675   1.752  13.767  0.0717 -0.0480 -0.0653
 3006W        W 5206   1.387   4.774   7.499  0.1436 -0.0661 -0.0129
 3007W        W 5207  15.584   4.906  42.683 -0.0141  0.1945  0.2631
 3008W        W 5208  17.813   0.351  15.519  0.1719 -0.1549 -0.0905
 3009W        W 5209  11.849   5.815  31.907 -0.0708 -0.2532  0.0871
 3010W        W 5210   9.371   5.082  12.474 -0.0126 -0.0203  0.0494
 3011W        W 5211  17.725   2.485  16.255 -0.0858 -0.0180  0.0428
 3012W        W 5212  11.964   0.601  12.466 -0.0401  0.0881 -0.1427
 3013W        W 5213  17.165   2.896   2.971  0.1936  0.0471  0.0834
 3014W        W 5214  16.536   0.813  34.396 -0.2757 -0.3493  0.3439
 3015W        W 5215  14.225   0.688  44.238  0.2789 -0.0156  0.3870
 3016W        W 5216  20.002   5.925   7.661 -0.0244  0.0189 -0.0163
 3017W        W 5217   6.980   4.465  20.513 -0.0706 -0.0375 -0.2883
 3018W        W 5218   7.060   2.380  17.861 -0.1547 -0.1029 -0.0151
 3019W        W 5219   8.547   5.979  34.726  0.1309 -0.1538 -0.2469
 3020W        W 5220   8.529   2.576  40.599  0.0046  0.1776 -0.1492
 3021W        W 5221  11.484   2.072  35.578  0.1564  0.2305 -0.0391
 3022W        W 5222   8.319   4.525   3.392  0.1739 -0.0626  0.2268
 3023W        W 5223   8.527   0.330  23.171  0.0562 -0.1336 -0.1590
 3024W        W 5224   0.521   5.597  37.679 -0.1108 -0.2842 -0.0920
 3025W        W 5225  11.522   2.897  34.284  0.1203 -0.0100 -0.2793
 3026W        W 5226  20.513   1.624  22.195  0.1460  0.2030 -0.2069
 3027W        W 5227   1.828   3.064   6.124 -0.3939  0.0369 -0.1788
 3028W        W 5228  13.870   4.497   0.048 -0.1191 -0.1405  0.0732
 3029W        W 5229  18.477   0.673  27.762 -0.2668  0.1254 -0.3298
 3030W        W 5230   5.752   3.743  36.894  0.0362  0.0608  0.0088
 3031W        W 5231   9.988   1.817   3.750 -0.1632  0.2003  0.2084
 3032W        W 5232  15.784   1.920  28.385 -0.0023 -0.2229 -0.0053
 3033W        W 5233   8.078   5.820  41.361 -0.1539 -0.2284  0.0339
 3034W        W 5234   9.882   2.436  21.753 -0.0590  0.1722 -0.1295
 3035W        W 5235  15.778   0.472   9.375  0.1046 -0.2172 -0.0752
 3036W        W 5236   9.514   5.696  39.050  0.0280  0.0174  0.0190
 3037W        W 5237  11.689   6.228  39.819 -0.3696 -0.1758  0.2450
 3038W        W 5238  17.916   5.463  26.597  0.1757  0.2240  0.3600
 3039W        W 5239  10.494   3.634  23.748 -0.3057 -0.3425 -0.0858
 3040W        W 5240  13.689   2.555  37.350 -0.0277 -0.0956  0.2572
 3041W        W 5241  15.196   2.242   9.089  0.1182  0.2858  0.2008
 3042W        W 5242  20.114   6.524  11.973 -0.1288 -0.2040  0.1672
 3043W        W 5243   0.432   0.164   6.780  0.0941  0.0003  0.0122
 3044W        W 5244  20.051   1.410  37.138 -0.1030  0.1061 -0.2085
 3045W        W 5245  20.948   2.196  11.726  0.1174  0.3738  0.0991
 3046W        W 5246   3.712   1.819  34.570  0.1012 -0.0569 -0.1916
 3047W        W 5247  16.684   4.362  40.194 -0.2352  0.0872  0.0996
 3048W        W 5248   1.690   4.080  27.644 -0.0587  0.2217  0.0561
 3049W        W 5249   7.224   6.004  37.812  0.3454  0.1233  0.3026
 3050W        W 5250  11.430   4.930  29.437 -0.1455  0.2486 -0.0845
 3051W        W 5251   8.475   2.511  21.440  0.1412  0.0799 -0.0380
 3052W        W 5252  12.796   0.956  36.398 -0.2944  0.0671  0.1787
 3053W        W 5253  11.069   0.754   2.512 -0.3415  0.2672  0.1670
 3054W        W 5254   5.828   4.290  36.996  0.1471  0.0477  0.1682
 3055W        W 5255   3.597   1.887  14.996 -0.2973 -0.0985  0.1929
 3056W        W 5256   8.966   1.385  41.123  0.0060 -0.0413  0.0164
 3057W        W 5257  15.944   5.999  31.815 -0.2817  0.1576  0.0044
 3058W        W 5258   6.788   5.471  18.633 -0.0603  0.0069  0.1328
 3059W        W 5259  14.087   2.520   7.387  0.1348 -0.0679 -0.2258
 3060W        W 5260  17.943   4.281  30.921  0.2941 -0.0525  0.3570
 3061W        W 5261  12.667   5.610  37.844 -0.1939 -0.1860 -0.1095
 3062W        W 5262  17.386   1.913  36.776 -0.1054  0.0849 -0.3553
 3063W        W 5263   4.726   0.080   5.933  0.1336  0.1613  0.1038
 3064W        W 5264   0.349   3.714  29.540 -0.2034  0.1917  0.3007
 3065W        W 5265   0.455   2.271  14.592 -0.0018  0.1395 -0.2914
 3066W        W 5266   1.073   4.423  15.918 -0.1718 -0.0989 -0.0120
 3067W        W 5267  14.019   2.752  41.403 -0.0571  0.0120  0.0888
 3068W        W 5268  15.031   1.954  16.130  0.2512 -0.0169 -0.2022
 3069W        W 5269   0.569   1.822  15.489 -0.0940 -0.2138 -0.0072
 3070W        W 5270  20.204   2.722  40.822 -0.4157 -0.1396  0.2008
 3071W        W 5271  15.607   2.322  12.904  0.0958  0.2167 -0.0158
 3072W        W 5272   4.733   3.208  11.864  0.6320  0.1097 -0.0744
 3073W        W 5273   7.574   1.363  39.057  0.0281 -0.1106 -0.0535
 3074W        W 5274  20.501   3.710  28.177 -0.3052  0.0637  0.1329
 3075W        W 5275   4.560   3.536  16.022 -0.0307 -0.2506  0.2159
 3076W        W 5276  20.460   4.201  29.670 -0.2305 -0.2527  0.1018
 3077W        W 5277  14.254   3.272  40.647  0.0117  0.2079  0.2920
 3078W        W 5278  15.757   5.750  11.351  0.2543  0.0318  0.0651
 3079W        W 5279  18.372   2.732  36.463 -0.1133 -0.1328  0.1112
 3080W        W 5280   6.607   2.876  30.231  0.0409  0.0760  0.2153
 3081W        W 5281  19.226   1.829   1.559  0.0218 -0.3348 -0.3432
 3082W        W 5282   0.032   5.366  33.200 -0.1050  0.2976  0.1800
 3083W        W 5283  16.727   5.158   1.839  0.0069  0.1883 -0.0260
 3084W        W 5284   9.902   3.889  31.629 -0.2393 -0.0122 -0.2229
 3085W        W 5285  21.055   3.257  29.492  0.1096  0.1866  0.2309
 3086W        W 5286  13.676   5.960  41.876  0.3036 -0.4155 -0.0154
 3087W        W 5287  17.173   1.448   5.725  0.0277 -0.0127  0.1135
 3088W        W 5288   5.049   3.349  32.637  0.1347 -0.1164 -0.1098
 3089W        W 5289   2.638   2.671  12.349 -0.0808 -0.2062 -0.4816
 3090W        W 5290   8.387   6.490   8.459  0.0701 -0.3620 -0.0820
 3091W        W 5291   6.420   4.934  18.679  0.2292  0.2134  0.0905
 3092W        W 5292   4.176   3.625  43.083  0.0869  0.0353  0.1982
 3093W        W 5293   8.833   4.628  14.318  0.0733 -0.0336  0.2075
 3094W        W 5294  20.438   5.249  21.823 -0.1415 -0.0322  0.3802
 3095W        W 5295   9.807   2.130  10.088  0.5873 -0.1655 -0.1261
 3096W        W 5296   0.683   2.584   2.802 -0.2532  0.2240  0.0565
 3097W        W 5297  12.458   3.349  14.469  0.1040  0.0407  0.0349
 3098W        W 5298  19.306   0.358  21.240 -0.5155  0.0203 -0.0738
 3099W        W 5299  13.379   1.030   7.224  0.3155 -0.0233  0.1945
 3100W        W 5300   0.399   6.433  33.829 -0.1797 -0.0308  0.2037
 3101W        W 5301   4.549   1.190  43.684 -0.0209  0.0105 -0.2119
 3102W        W 5302  17.260   3.362  35.254 -0.0924  0.0275  0.2229
 3103W        W 5303   2.941   4.975  12.181  0.5326 -0.1102  0.1122
 3104W        W 5304  19.071   1.991  39.525 -0.2861  0.0028 -0.2684
 3105W        W 5305   5.096   5.429   0.562 -0.2774  0.0167 -0.2846
 3106W        W 5306   8.206   3.199   9.842 -0.1301  0.1349 -0.0540
 3107W        W 5307   9.349   3.014  24.341 -0.0723 -0.1347  0.1679
 3108W        W 5308  15.356   1.468   5.085 -0.1859  0.0625  0.0341
 3109W        W 5309   1.496   3.826  38.276  0.1228  0.5017 -0.2061
 3110W        W 5310  10.259   2.003  23.108  0.3581  0.0612  0.1397
 3111W        W 5311   1.027   3.938  38.864  0.3983  0.3266 -0.0242
 3112W        W 5312  17.901   5.467  24.665 -0.2825  0.0289 -0.1024
 3113W        W 5313   6.122   5.017   5.660 -0.1714 -0.6230 -0.3691
 3114W        W 5314  19.070   0.319  11.668 -0.1128 -0.0330  0.0277
 3115W        W 5315   4.534   1.461  30.306 -0.0128  0.1124  0.1056
 3116W        W 5316  13.132   3.161  42.689 -0.0685  0.0902 -0.2666
 3117W        W 5317   7.239   2.822  15.348 -0.1933  0.3557 -0.0600
 3118W        W 5318   5.810   5.297  15.943 -0.1791  0.0552 -0.1029
 3119W        W 5319   1.786   2.607  35.243  0.1496  0.5290 -0.1574
 3120W        W 5320   9.833   1.764  42.020  0.1789 -0.0357  0.1028
 3121W        W 5321  13.394   1.796  32.222  0.2562  0.2924  0.1388
 3122W        W 5322  18.493   2.828   9.459 -0.0915 -0.1292 -0.0504
 3123W        W 5323  20.310   4.075  15.496  0.1119 -0.0223  0.1935
 3124W        W 5324  10.958   1.772  43.411 -0.1528 -0.2704  0.2245
 3125W        W 5325  10.937   0.095  40.775 -0.1502 -0.3060 -0.1858
 3126W        W 5326  16.341   0.091   5.280 -0.1005 -0.0591 -0.2216
 3127W        W 5327  15.265   2.389   1.432  0.0829 -0.0264  0.1579
 3128W        W 5328  16.654   2.071   5.152 -0.2403  0.0253 -0.1158
 3129W        W 5329   8.165   2.790  37.424 -0.0822  0.1424 -0.1018
 3130W        W 5330   6.150   1.279  30.392 -0.0318 -0.1782 -0.1066
 3131W        W 5331  15.263   2.445   6.976 -0.0693 -0.2997 -0.3688
 3132W        W 5332   6.459   3.958   6.527  0.0608 -0.3117 -0.0211
 3133W        W 5333  19.630   5.563   2.786  0.0832 -0.1558  0.1096
 3134W        W 5334  10.781   4.022  33.441  0.1772  0.2654 -0.2802
 3135W        W 5335   4.690   4.693  33.195 -0.0498  0.3380  0.0054
 3136W        W 5336   1.669   0.937  26.424  0.3473 -0.2115  0.3045
 3137W        W 5337  10.758   3.433   4.618 -0.0236  0.0318 -0.1613
 3138W        W 5338   1.616   3.557  31.683  0.0902 -0.0818 -0.0250
 3139W        W 5339  14.815   0.687  37.189 -0.4204 -0.3087  0.1201
 3140W        W 5340   3.749   1.034  32.522  0.0192  0.0038 -0.3656
 3141W        W 5341  10.655   5.253  16.277 -0.0444  0.0891 -0.0292
 3142W        W 5342   9.115   2.872  23.268  0.0758  0.1438 -0.0311
 3143W        W 5343  11.313   1.364  42.688  0.2234 -0.1370 -0.2114
 3144W        W 5344  19.617   0.090  39.470  0.0285 -0.0402  0.0905
 3145W        W 5345   5.708   1.087  35.433  0.0648  0.0440  0.1976
 3146W        W 5346   1.002   5.308  35.192 -0.2452  0.0715  0.2874
 3147W        W 5347   3.492   0.025  32.572 -0.1416 -0.4311 -0.0153
 3148W        W 5348   1.828   5.438  25.233  0.1111 -0.1190 -0.1658
 3149W        W 5349  10.868   5.941  15.273 -0.0988 -0.3156  0.1000
 3150W        W 5350   2.859   4.799  11.632 -0.2470  0.0713 -0.1029
 3151W        W 5351  10.742   4.826  18.961 -0.2707  0.1413 -0.2177
 3152W        W 5352   7.704   4.655  41.407  0.2330 -0.2087  0.0814
 3153W        W 5353   2.144   0.326  14.263 -0.1224  0.1885  0.2566
 3154W        W 5354   6.844   1.858  10.877 -0.1231 -0.1742  0.0753
 3155W        W 5355  17.759   5.750   5.102 -0.0169 -0.2218  0.3160
 3156W        W 5356  19.785   6.427   8.018  0.0328  0.3672  0.0977
 3157W        W 5357  12.733   1.620   0.975  0.2270  0.0007 -0.0729
 3158W        W 5358   5.542   6.522  38.968  0.2337 -0.2780 -0.2707
 3159W        W 5359   9.843   2.196  31.455  0.0096 -0.1321  0.1107
 3160W        W 5360   5.190   4.469  42.059  0.0123 -0.2196 -0.1018
 3161W        W 5361  12.324   2.651  40.233  0.0778 -0.0398  0.3537
 3162W        W 5362   9.287   0.530  17.351  0.2541  0.0274 -0.3382
 3163W        W 5363   3.652   5.134  28.426 -0.2424  0.0782 -0.2837
 3164W        W 5364   9.339   0.613  43.785  0.2817 -0.1699 -0.1159
 3165W        W 5365   2.564   3.209  29.167 -0.1256 -0.0188 -0.1066
 3166W        W 5366  14.503   0.681  38.422 -0.1117  0.2350 -0.0656
 3167W        W 5367  13.509   2.892  17.122  0.1416 -0.0697  0.3312
 3168W        W 5368  14.327   1.817  32.677  0.1943 -0.2679  0.0367
 3169W        W 5369  18.029   3.112  15.172 -0.0946  0.3049  0.0807
 3170W        W 5370  12.678   2.688  27.306  0.1447 -0.1104 -0.2940
 3171W        W 5371  18.171   1.042  27.913  0.1945 -0.0793 -0.0279
 3172W        W 5372   8.279   5.692  40.315 -0.1804  0.0093 -0.0873
 3173W        W 5373   6.539   1.489  38.924 -0.3033 -0.0190 -0.1003
 3174W        W 5374  14.782   1.407  18.875  0.2565  0.0021  0.2276
 3175W        W 5375  11.532   0.253  30.608  0.0911 -0.1602  0.1309
 3176W        W 5376  17.352   1.821  42.228  0.0193  0.3391  0.2700
 3177W        W 5377  11.031   1.036  21.514 -0.0131  0.1560  0.0222
 3178W        W 5378  11.390   0.216  34.170  0.0183 -0.2406  0.1161
 3179W        W 5379   0.356   5.711  14.628  0.1434  0.2633  0.2369
 3180W        W 5380   0.858   0.086  41.683 -0.1243  0.0496  0.0258
 3181W        W 5381  18.435   3.241   0.779  0.1655  0.1229  0.2156
 3182W        W 5382   3.284   2.388   7.283 -0.1695  0.1218 -0.3672
 3183W        W 5383   1.587   4.308  38.540  0.0094 -0.1500  0.0056
 3184W        W 5384  10.382   5.966  19.746 -0.0600  0.1004 -0.2373
 3185W        W 5385   9.365   4.642  41.467  0.1871 -0.2004 -0.3134
 3186W        W 5386  17.875   3.202  35.181 -0.0107 -0.0197 -0.0280
 3187W        W 5387   1.987   4.383   3.586 -0.0683  0.0394 -0.0155
 3188W        W 5388  14.905   3.502  43.549 -0.1996  0.2042  0.0710
 3189W        W 5389  10.013   2.964  10.782 -0.1630  0.0317 -0.0585
 3190W        W 5390   4.814   3.664   3.824 -0.1334 -0.0702  0.1062
 3191W        W 5391   8.585   6.092  22.720  0.1110  0.0569 -0.0984
 3192W        W 5392   3.314   0.393  41.436 -0.0929  0.1724 -0.3537
 3193W        W 5393  10.244   6.240  10.242 -0.2371 -0.0740 -0.2575
 3194W        W 5394   0.931   3.088  38.746  0.1377  0.0212 -0.2643
 3195W        W 5395  16.372   4.220   5.670 -0.3626 -0.0977 -0.0650
 3196W        W 5396  20.821   4.876  21.521 -0.2766 -0.3122  0.1897
 3197W        W 5397  12.476   3.765   6.083  0.0423 -0.1311  0.2448
 3198W        W 5398   2.338   4.386  28.426 -0.1812  0.0806 -0.0463
 3199W        W 5399   9.426   2.618   5.621 -0.0967 -0.3696  0.2297
 3200W        W 5400  12.569   3.271  28.105 -0.2253 -0.0401 -0.1894
 3201W        W 5401  20.866   6.365   5.320 -0.1066 -0.0149 -0.1250
 3202W        W 5402   4.251   3.029  42.229  0.2732  0.0215  0.0678
 3203W        W 5403   2.945   6.411  14.258  0.1329 -0.1462 -0.0139
 3204W        W 5404  11.086   3.490  19.020  0.2803  0.0613 -0.0574
 3205W        W 5405   2.338   6.487  40.480  0.1603 -0.2433  0.1799
 3206W        W 5406  16.390   2.627  17.220 -0.1547 -0.0365  0.0557
 3207W        W 5407   3.118   2.679   8.551 -0.1809 -0.0505 -0.2098
 3208W        W 5408  11.754   1.185  44.314 -0.0878 -0.0100 -0.0234
 3209W        W 5409  10.539   2.709  28.847  0.0616  0.3095  0.0039
 3210W        W 5410   7.221   4.915  10.333 -0.1201  0.0752 -0.1408
 3211W        W 5411   3.273   1.182  44.956  0.0363 -0.1131 -0.2772
 3212W        W 5412  14.080   6.292  18.741  0.3206 -0.2232 -0.0201
 3213W        W 5413  17.742   2.543  35.662 -0.1571  0.1639  0.1638
 3214W        W 5414   7.330   0.310   9.340  0.1890 -0.0961 -0.0386
 3215W        W 5415  18.058   4.136  40.640  0.0373  0.0791  0.1597
 3216W        W 5416  19.698   3.011  39.397  0.0257 -0.0918 -0.1438
 3217W        W 5417   1.386   0.214   1.674  0.0435  0.2069  0.0557
 3218W        W 5418  16.954   5.924  10.082 -0.3011  0.0880 -0.0327
 3219W        W 5419   4.508   4.222  17.130  0.0208 -0.1041 -0.1623
 3220W        W 5420   2.686   2.056   7.755 -0.1211  0.3581  0.0363
 3221W        W 5421  15.800   6.047   4.020  0.1493  0.1045 -0.1710
 3222W        W 5422   3.266   2.370  35.976  0.0112 -0.0127  0.2020
 3223W        W 5423   3.562   3.626  33.634  0.3068  0.2181 -0.0711
 3224W        W 5424  15.757   4.605  27.645  0.0229 -0.1544  0.0656
 3225W        W 5425   5.526   1.725   6.411  0.3795  0.0726  0.0393
 3226W        W 5426  19.844   4.239   2.286 -0.0844  0.1568 -0.0526
 3227W        W 5427   7.978   2.122  23.775  0.2225 -0.1643  0.0640
 3228W        W 5428  12.817   0.049  36.220 -0.0055 -0.0491  0.1465
 3229W        W 5429  20.445   5.523  15.440  0.1150 -0.2871  0.1232
 3230W        W 5430  12.684   3.547  15.108  0.0489 -0.1185  0.1584
 3231W        W 5431  10.852   1.267  17.760 -0.2520  0.3131  0.0005
 3232W        W 5432   7.839   6.001  39.652 -0.1471  0.1707 -0.1366
 3233W        W 5433   6.931   4.756  13.449  0.0285  0.1954 -0.0085
 3234W        W 5434   0.157   0.850  26.665  0.1611  0.3081 -0.0054
 3235W        W 5435  15.851   4.875  26.663 -0.1621 -0.0481 -0.0268
 3236W        W 5436   3.183   5.850   2.640  0.3162 -0.2227  0.0390
 3237W        W 5437   5.303   0.640   1.668 -0.1092  0.1319  0.0428
 3238W        W 5438  13.711   6.412  15.911 -0.2346  0.1684 -0.2438
 3239W        W 5439  17.891   3.648   9.368  0.1037  0.2636  0.0417
 3240W        W 5440   1.316   3.983  11.341  0.0869  0.0418  0.0055
 3241W        W 5441   2.169   2.682  27.245  0.0317 -0.0367  0.0455
 3242W        W 5442   3.914   1.514  15.158  0.0064 -0.2935  0.3202
 3243W        W 5443  19.960   0.998  29.315 -0.2273 -0.1516 -0.0584
 3244W        W 5444   4.187   2.561  31.666 -0.5774  0.1369  0.1394
 3245W        W 5445  16.740   4.019  39.728 -0.3387 -0.2843 -0.0640
 3246W        W 5446   9.180   2.442  33.044 -0.0101 -0.1036 -0.3816
 3247W        W 5447  10.265   6.048  19.254 -0.2232  0.1415 -0.1028
 3248W        W 5448  15.251   6.564  33.162 -0.0748  0.0266 -0.2224
 3249W        W 5449  18.354   4.654  41.206  0.1195  0.3251 -0.1842
 3250W        W 5450   0.923   2.169  33.422  0.3603  0.0874 -0.0131
 3251W        W 5451  10.998   5.565   3.021 -0.0412  0.0087  0.0290
 3252W        W 5452   1.026   4.615  29.442  0.1471 -0.0153  0.0229
 3253W        W 5453  20.227   2.292  21.898  0.2735 -0.0214  0.0152
 3254W        W 5454  19.222   2.761   4.588  0.1452  0.0973  0.2220
 3255W        W 5455  11.314   2.675  39.207 -0.0790  0.1907 -0.1914
 3256W        W 5456  18.897   3.329  36.768  0.2796 -0.0755 -0.1202
 3257W        W 5457   0.210   5.702  37.233  0.0088  0.0084  0.1234
 3258W        W 5458  16.706   0.089  14.241 -0.0060  0.2966  0.2363
 3259W        W 5459  19.440   0.996  39.524 -0.2910 -0.2949 -0.0155
 3260W        W 5460   4.296   4.149  29.383 -0.1429  0.1806  0.3893
 3261W        W 5461  11.205   1.623  24.032  0.0958  0.1530  0.2519
 3262W        W 5462  15.066   0.420  33.115  0.2621 -0.2384 -0.0311
 3263W        W 5463   6.020   2.410  36.404 -0.0783  0.0043 -0.2284
 3264W        W 5464   6.452   3.344  41.456 -0.1599 -0.0273  0.1447
 3265W        W 5465  16.436   6.336  39.582 -0.1427 -0.1545 -0.0297
 3266W        W 5466   8.649   6.107  22.160 -0.0626  0.0995 -0.2904
 3267W        W 5467  11.566   5.515  22.422 -0.1511  0.1135 -0.1292
 3268W        W 5468  15.569   4.780  28.067  0.0423 -0.0316  0.0558
 3269W        W 5469  20.535   4.666  30.912 -0.0088 -0.0906  0.1625
 3270W        W 5470   0.683   1.551  26.172  0.1529  0.1506  0.2515
 3271W        W 5471   2.311   6.077  31.498  0.2377 -0.0244 -0.0393
 3272W        W 5472  13.647   3.848  41.735 -0.0050 -0.1909 -0.0702
 3273W        W 5473  10.404   0.476  44.978  0.2443  0.0708 -0.2285
 3274W        W 5474   0.640   1.166   7.553 -0.1973  0.0511 -0.4644
 3275W        W 5475  10.188   4.043  43.748 -0.2196  0.1811 -0.2240
 3276W        W 5476   3.620   1.493  11.116  0.1847 -0.3103 -0.0343
 3277W        W 5477   2.458   5.291  36.123 -0.1522 -0.0240  0.2606
 3278W        W 5478   0.749   1.096  36.622  0.0911 -0.1448  0.2509
 3279W        W 5479  14.238   4.748  27.230 -0.0062  0.0385 -0.0250
 3280W        W 5480  11.726   2.847   8.339 -0.1054  0.1119 -0.0310
 3281W        W 5481  12.543   4.884  28.416 -0.2419  0.0798 -0.0056
 3282W        W 5482   3.346   5.353  10.230 -0.0084 -0.2652 -0.2745
 3283W        W 5483   8.353   4.085  11.469  0.1542 -0.3174 -0.3135
 3284W        W 5484   5.650   0.333   5.816 -0.3462  0.1235 -0.2070
 3285W        W 5485   4.314   4.325  33.900 -0.0304  0.1817 -0.0728
 3286W        W 5486   1.397   2.305   8.866  0.2166  0.1947 -0.2780
 3287W        W 5487   6.336   5.892  41.841  0.3991 -0.0652  0.1980
 3288W        W 5488  20.326   1.716   2.614 -0.0407 -0.2927  0.2938
 3289W        W 5489  19.710   2.016  37.448  0.0801 -0.0714  0.1575
 3290W        W 5490  14.769   2.631  12.450  0.0878  0.1121  0.2286
 3291W        W 5491  18.589   5.210  37.619 -0.2250  0.0960  0.0029
 3292W        W 5492   0.250   3.838  28.666  0.0032 -0.2370  0.1055
 3293W        W 5493   3.410   5.167  30.709 -0.3857 -0.0871  0.0677
 3294W        W 5494  17.493   4.419   0.234 -0.2018 -0.1741 -0.2394
 3295W        W 5495  13.009   2.917  39.697 -0.1795 -0.0062 -0.3237
 3296W        W 5496  20.165   1.451  44.064 -0.4014  0.1466 -0.0949
 3297W        W 5497  18.203   1.591  33.967 -0.2368  0.0427  0.2018
 3298W        W 5498   9.396   0.410  21.726 -0.1850 -0.0300 -0.1268
 3299W        W 5499  11.900   2.444  32.101 -0.2490  0.0075 -0.1288
 3300W        W 5500  13.781   2.431   4.501  0.0883  0.0588 -0.0411
 3301W        W 5501  18.419   5.284   0.197  0.3967 -0.3209 -0.0904
 3302W        W 5502  10.296   5.630  16.142 -0.0847 -0.2393 -0.2793
 3303W        W 5503  17.743   1.516  30.679  0.0547 -0.1490  0.4592
 3304W        W 5504  14.464   3.841   8.184 -0.1965  0.0843  0.1002
 3305W        W 5505  11.732   4.612  21.178  0.3703  0.2625  0.4289
 3306W        W 5506   1.028   6.418  15.235  0.0072  0.2041  0.1636
 3307W        W 5507  20.105   3.450  36.528 -0.2188 -0.1724 -0.1836
 3308W        W 5508   7.693   1.895  10.799 -0.0607 -0.3309  0.1191
 3309W        W 5509  15.164   2.607   4.299 -0.4928  0.0978 -0.1810
 3310W        W 5510   9.941   0.914  37.386  0.0155 -0.0728  0.0281
 3311W        W 5511   7.596   1.205  40.880 -0.1595 -0.1160 -0.0392
 3312W        W 5512  15.074   0.214  44.893  0.1521  0.0756  0.0422
 3313W        W 5513   1.465   2.972  13.092  0.0006 -0.2023 -0.0725
 3314W        W 5514  15.922   0.068   7.122  0.1663 -0.0413 -0.3440
 3315W        W 5515  20.690   3.133  33.753 -0.0413  0.3572  0.0076
 3316W        W 5516  19.764   2.604  43.868  0.0113  0.2555  0.2827
 3317W        W 5517   8.462   2.047  39.355 -0.1188  0.1037  0.2287
 3318W        W 5518  18.962   2.733  24.301 -0.2332  0.0285  0.0666
 3319W        W 5519   5.130   4.932  19.358 -0.1877  0.1704 -0.0020
 3320W        W 5520  12.347   6.145  21.495 -0.2503 -0.1008  0.1319
 3321W        W 5521   0.519   4.317  40.321  0.0079  0.1607 -0.0581
 3322W        W 5522   6.507   3.111  38.649  0.0042  0.0357  0.0346
 3323W        W 5523  17.985   5.152   9.310 -0.2385  0.1859 -0.1053
 3324W        W 5524  12.275   4.357  16.525 -0.3809 -0.0840 -0.1670
 3325W        W 5525  18.558   3.484  34.635  0.0619  0.0969 -0.1528
 3326W        W 5526  10.266   4.652  16.701 -0.1286  0.1194 -0.1402
 3327W        W 5527  10.910   0.533  23.319 -0.0333  0.0903  0.1256
 3328W        W 5528  19.972   0.433   2.144 -0.0383  0.1144 -0.0325
 3329W        W 5529  18.780   6.009  34.039  0.0017  0.0488  0.1514
 3330W        W 5530  12.813   5.505  16.942  0.0643  0.0770  0.2790
 3331W        W 5531   1.264   3.082  12.353  0.4265 -0.0762  0.0870
 3332W        W 5532  13.296   3.300  32.296  0.1232  0.0609 -0.0607
 3333W        W 5533  10.114   0.447  35.379  0.0503 -0.2583  0.2187
 3334W        W 5534   1.572   5.349  35.218 -0.0053  0.0564 -0.0855
 3335W        W 5535   5.385   6.001  38.943  0.1172 -0.0176  0.4164
 3336W        W 5536   5.479   4.263   4.743  0.1538 -0.0066  0.2150
 3337W        W 5537   6.781   2.108  35.310  0.0661 -0.0041 -0.1185
 3338W        W 5538  12.510   4.514  19.242 -0.2787  0.0395 -0.0684
 3339W        W 5539   3.287   3.118  43.112 -0.1049 -0.2219 -0.0705
 3340W        W 5540   4.970   0.539  41.024  0.2349 -0.0989 -0.0090
 3341W        W 5541  16.588   3.840   3.055 -0.1015 -0.2010 -0.1886
 3342W        W 5542   5.202   1.997  10.683  0.2074 -0.0051 -0.0516
 3343W        W 5543  10.853   0.415  42.108  0.3072  0.2702 -0.0472
 3344W        W 5544  11.939   5.223  22.644  0.0030 -0.2203 -0.1557
 3345W        W 5545  11.102   2.177  32.122  0.4329  0.1615  0.0275
 3346W        W 5546   3.155   0.583  37.577  0.1492 -0.2934 -0.1014
 3347W        W 5547  11.588   5.429  13.288  0.1009  0.0061  0.3215
 3348W        W 5548   7.640   5.662  12.542  0.0706 -0.0670  0.0239
 3349W        W 5549   7.254   6.166  38.990 -0.0847 -0.0189 -0.0032
 3350W        W 5550  12.212   5.860  12.693  0.2601  0.0442 -0.0503
 3351W        W 5551  19.215   2.425   0.035  0.2209  0.0111  0.0106
 3352W        W 5552  10.510   3.217  41.286 -0.1670  0.4283 -0.0443
 3353W        W 5553  10.310   0.960  24.063  0.2673  0.0235  0.2648
 3354W        W 5554  20.588   2.603   7.971 -0.3181  0.2226  0.1413
 3355W        W 5555  19.572   1.572  16.254 -0.4735 -0.3392  0.2985
 3356W        W 5556  13.254   4.947  28.051  0.0844 -0.1632  0.0154
 3357W        W 5557  13.179   2.797  14.597 -0.1514  0.1253 -0.3381
 3358W        W 5558  11.763   3.441   4.948  0.1856  0.0637  0.1933
 3359W        W 5559  15.967   4.578  37.288  0.1609  0.2321 -0.1653
 3360W        W 5560  14.249   3.937  17.174  0.1477  0.2201  0.1331
 3361W        W 5561  16.690   0.597   2.654  0.0226 -0.1111  0.2904
 3362W        W 5562  12.353   6.106  17.334  0.2471  0.2754 -0.2168
 3363W        W 5563  20.628   2.385  22.306  0.0677 -0.4424  0.0353
 3364W        W 5564   2.657   3.391  35.596 -0.2531  0.2664  0.1242
 3365W        W 5565   9.660   2.198  11.540 -0.0981  0.0618  0.2056
 3366W        W 5566   3.820   1.044   4.021 -0.2734  0.2895  0.1261
 3367W        W 5567   3.901   2.368  16.692 -0.1408 -0.1408  0.1058
 3368W        W 5568   4.906   4.823  15.987 -0.1915  0.3231 -0.0676
 3369W        W 5569  20.312   4.435  38.145  0.1549 -0.0892 -0.0098
 3370W        W 5570   0.238   5.121  13.471 -0.2036  0.0735  0.2616
 3371W        W 5571   5.674   1.367  17.385  0.0962 -0.1072  0.0197
 3372W        W 5572   6.593   6.138   4.140  0.2097  0.1316 -0.4425
 3373W        W 5573  14.805   5.445   2.432 -0.3346  0.1292  0.0932
 3374W        W 5574   1.842   1.036   0.309 -0.2487 -0.0723 -0.0124
 3375W        W 5575   4.146   0.795  41.722  0.0179  0.2763 -0.1199
 3376W        W 5576   8.961   5.146  10.968  0.3300  0.2811  0.0056
 3377W        W 5577  17.482   5.301  32.836 -0.2465  0.0969  0.0096
 3378W        W 5578  10.754   2.844  41.949 -0.0001 -0.1560  0.2283
 3379W        W 5579   5.573   0.975  13.799 -0.3128  0.0154  0.0794
 3380W        W 5580  18.823   0.173  42.689  0.0006  0.1566 -0.1798
 3381W        W 5581  17.535   1.895  34.467  0.0422  0.5514  0.0259
 3382W        W 5582  13.689   3.202  11.424 -0.2080 -0.0070 -0.1591
 3383W        W 5583   3.215   4.276  30.647 -0.0725 -0.1079  0.1336
 3384W        W 5584   3.856   5.059  35.817 -0.3797 -0.1701  0.0823
 3385W        W 5585   0.613   4.391  25.345  0.2530  0.0153  0.2997
 3386W        W 5586   8.409   5.024   3.025 -0.2716  0.0617  0.0399
 3387W        W 5587   7.149   6.594  14.380  0.0218 -0.0343 -0.2295
 3388W        W 5588  19.727   1.406  26.262  0.0858  0.0436  0.0392
 3389W        W 5589   5.701   2.052   4.822 -0.3451  0.0667  0.0770
 3390W        W 5590  13.445   2.243  12.817 -0.1602 -0.2303  0.3605
 3391W        W 5591   2.631   1.946   5.114  0.1168  0.1294  0.0418
 3392W        W 5592  20.984   2.004  31.080  0.1733  0.1966  0.0731
 3393W        W 5593  20.134   4.114   8.328 -0.0211 -0.0720 -0.0404
 3394W        W 5594   2.173   0.775  42.822  0.1765  0.5060 -0.1513
 3395W        W 5595   8.852   3.344  32.207  0.0083 -0.1808  0.1811
 3396W        W 5596  13.357   1.614   8.089 -0.0681 -0.0684  0.1962
 3397W        W 5597  11.784   2.060   6.921  0.1609  0.1134  0.1060
 3398W        W 5598   7.681   4.926   7.476 -0.0464 -0.0972  0.0551
 3399W        W 5599  14.849   2.473  40.810 -0.0767 -0.3327 -0.2475
 3400W        W 5600   7.914   4.087  22.013  0.2383 -0.1612 -0.1024
 3401W        W 5601   5.998   3.267  11.824 -0.2907 -0.0335 -0.1054
 3402W        W 5602   8.262   1.522  38.247 -0.1935 -0.1653  0.0738
 3403W        W 5603  15.347   1.058  11.850  0.0680  0.2451 -0.0189
 3404W        W 5604  14.431   6.505  18.036 -0.0133 -0.3065 -0.1172
 3405W        W 5605  16.653   1.921  28.135  0.1513 -0.0134 -0.4993
 3406W        W 5606  19.134   2.158  14.693  0.0438 -0.2800  0.0727
 3407W        W 5607   1.945   4.187  44.570  0.0723 -0.0690 -0.2472
 3408W        W 5608   4.841   0.867  16.526 -0.1067  0.1050  0.0261
 3409W        W 5609  13.518   4.833  18.029  0.4181 -0.2353  0.1212
 3410W        W 5610   5.433   4.855  13.842 -0.1961  0.2229  0.0055
 3411W        W 5611  14.569   3.387  27.661 -0.0541  0.2329 -0.1210
 3412W        W 5612   6.657   3.500  13.867  0.0413 -0.0519 -0.1758
 3413W        W 5613  19.047   5.139   3.603 -0.0308  0.0728  0.2223
 3414W        W 5614  18.738   5.693  23.273 -0.0616 -0.0353 -0.2322
 3415W        W 5615  19.821   0.348  36.858 -0.2446 -0.0150  0.1556
 3416W        W 5616   6.369   2.804  29.460 -0.2338  0.1492 -0.1599
 3417W        W 5617  13.619   0.556   7.142 -0.1854 -0.2178 -0.3904
 3418W        W 5618   2.671   4.349  43.982 -0.0537 -0.0394  0.0255
 3419W        W 5619  11.443   0.625   7.319  0.1854 -0.4045  0.2421
 3420W        W 5620  18.025   3.492  13.337 -0.0427  0.2356 -0.2273
 3421W        W 5621   3.518   0.452  11.254  0.0564 -0.0605  0.2909
 3422W        W 5622   2.846   5.925  34.581 -0.0755  0.0078 -0.1689
 3423W        W 5623  18.888   0.008  35.292  0.1734  0.0502 -0.2137
 3424W        W 5624   4.959   0.769  38.241  0.3350 -0.2354 -0.0188
 3425W        W 5625   5.622   6.229   8.522 -0.1163  0.0271  0.3657
 3426W        W 5626  15.727   3.805   9.095  0.5266  0.1575  0.1802
 3427W        W 5627  13.775   5.679  12.759  0.0151  0.1041  0.1095
 3428W        W 5628  16.797   2.134  40.809 -0.0621  0.0502 -0.1257
 3429W        W 5629  10.409   5.021   1.730  0.2499 -0.0918 -0.0807
 3430W        W 5630  16.229   6.299   4.323 -0.0358  0.1298 -0.1151
 3431W        W 5631   1.746   5.270  24.147  0.3165 -0.2388  0.2319
 3432W        W 5632   1.141   1.997  13.860  0.0958 -0.0038  0.0710
 3433W        W 5633   6.139   4.903  19.555  0.1535  0.0970  0.2374
 3434W        W 5634  17.703   0.108  26.239 -0.0327 -0.2374 -0.1184
 3435W        W 5635   6.352   2.732  42.093  0.2306  0.1660 -0.3979
 3436W        W 5636   5.317   5.009  11.342 -0.0422  0.1950 -0.2744
 3437W        W 5637   5.114   4.223   5.506  0.1607 -0.1651 -0.1086
 3438W        W 5638  18.719   4.513  21.591 -0.1134 -0.0643  0.0388
 3439W        W 5639  21.059   1.782  30.555  0.2129 -0.0712  0.1187
 3440W        W 5640   4.132   2.380   2.036 -0.0576  0.3186 -0.0666
 3441W        W 5641  17.521   1.050  29.968  0.1591 -0.0051 -0.4206
 3442W        W 5642  11.603   6.467  17.712 -0.2097  0.0208  0.1479
 3443W        W 5643  21.080   0.283  24.998  0.0787  0.0696 -0.0750
 3444W        W 5644  13.480   3.042  35.492  0.0785  0.0848  0.3768
 3445W        W 5645   4.065   4.789  31.699 -0.0878 -0.1358  0.1396
 3446W        W 5646   5.693   6.419   3.719 -0.0945 -0.0868  0.1390
 3447W        W 5647  10.410   5.407  36.897  0.2447  0.0869  0.1417
 3448W        W 5648  16.411   1.066   2.427  0.2881  0.0050  0.0567
 3449W        W 5649  10.906   3.724  39.830  0.1341 -0.2338  0.1645
 3450W        W 5650   5.811   1.432  43.963  0.1401  0.0647  0.0189
 3451W        W 5651  10.784   1.301  35.623  0.0219 -0.0107 -0.1802
 3452W        W 5652   7.111   2.598  44.600 -0.0535  0.2480 -0.1226
 3453W        W 5653  15.520   2.756  34.010 -0.1598 -0.0265  0.0236
 3454W        W 5654  14.517   2.398  32.693 -0.1540 -0.1038 -0.0884
 3455W        W 5655   2.862   5.777  39.053  0.0564  0.0871 -0.0377
 3456W        W 5656   4.515   0.395   4.566  0.1297 -0.2746  0.2976
 3457W        W 5657  16.410   5.228  37.173 -0.1535 -0.1803  0.0540
 3458W        W 5658   8.147   4.441  13.201  0.1583  0.0564 -0.1384
 3459W        W 5659  11.895   5.749  30.874  0.0789 -0.1038 -0.1246
 3460W        W 5660  15.822   1.095  13.143 -0.0519 -0.1004  0.1550
 3461W        W 5661   2.344   3.625  30.775  0.2831  0.0968 -0.0021
 3462W        W 5662  16.493   2.562  15.416  0.4388 -0.2962 -0.1932
 3463W        W 5663   7.896   5.077   5.045 -0.0398  0.0654  0.0625
 3464W        W 5664  12.373   3.785   3.390 -0.2028 -0.0749 -0.3728
 3465W        W 5665   7.074   0.591  15.736  0.0695 -0.0663 -0.3856
 3466W        W 5666   4.232   1.397   1.819  0.0653  0.0546 -0.2025
 3467W        W 5667   1.280   6.380   3.991 -0.2148 -0.0446 -0.2117
 3468W        W 5668   2.428   1.121   4.530 -0.3322  0.1945  0.0486
 3469W        W 5669  18.989   5.520  12.063 -0.1147  0.1123  0.1304
 3470W        W 5670  19.187   6.380  39.366 -0.1378  0.0024  0.1069
 3471W        W 5671  12.240   3.577  40.708 -0.1950  0.3295  0.0158
 3472W        W 5672  16.136   4.953  11.225 -0.1521  0.0316  0.0108
 3473W        W 5673  14.221   5.613   3.653  0.0688 -0.0721  0.1105
 3474W        W 5674  21.099   5.616   5.841  0.0007 -0.0845  0.1665
 3475W        W 5675   2.520   3.155   5.036  0.1016  0.1449 -0.2622
 3476W        W 5676   7.818   3.211   6.033  0.0087 -0.1613 -0.2115
 3477W        W 5677  20.577   2.804  14.712  0.3174  0.0084 -0.1329
 3478W        W 5678  20.174   0.933  13.371  0.3616 -0.1149  0.1952
 3479W        W 5679  10.265   3.106  43.870  0.0105  0.1278  0.3137
 3480W        W 5680  16.067   3.606  25.684 -0.3085  0.1095  0.1233
 3481W        W 5681  14.014   6.491  27.048 -0.3412  0.1414  0.0871
 3482W        W 5682  14.835   4.828   8.911  0.1349 -0.0406 -0.1732
 3483W        W 5683   9.040   1.010  20.991 -0.2018 -0.1056 -0.1757
 3484W        W 5684  11.918   2.507   4.686 -0.2094 -0.1010 -0.0652
 3485W        W 5685  11.566   1.836  21.303  0.2377  0.0403  0.1598
 3486W        W 5686  19.040   5.276  41.312  0.0276 -0.0564  0.0399
 3487W        W 5687   4.966   1.350  30.830 -0.2197  0.0717 -0.0490
 3488W        W 5688  14.068   4.578  33.282  0.2730  0.0105  0.2731
 3489W        W 5689   8.936   4.755  22.768  0.3132 -0.1083 -0.1061
 3490W        W 5690  12.904   0.388  30.417 -0.1799  0.0746  0.0711
 3491W        W 5691  18.976   6.557   5.443  0.2084  0.1528 -0.4077
 3492W        W 5692  17.027   3.892   2.247  0.1416 -0.1386  0.1885
 3493W        W 5693   1.554   4.065  31.421  0.1200  0.1720  0.3328
 3494W        W 5694  18.314   1.053  34.695  0.0162  0.7239  0.0226
 3495W        W 5695  18.716   3.549   6.507 -0.0997  0.0171 -0.1585
 3496W        W 5696   9.511   3.671  11.450 -0.1622  0.3014  0.0989
 3497W        W 5697   6.432   5.728  33.395  0.0416 -0.2431  0.1444
 3498W        W 5698  11.652   1.530  40.958 -0.0691  0.1820  0.0293
 3499W        W 5699  10.888   3.912   7.395 -0.0244  0.0717  0.1190
 3500W        W 5700   2.880   3.567  31.032 -0.1832 -0.2354  0.0588
 3501W        W 5701  13.965   0.229  18.829  0.1899 -0.4385  0.2101
 3502W        W 5702  11.689   0.016   4.017 -0.0460 -0.1060 -0.0107
 3503W        W 5703  16.356   0.896  26.846  0.0988 -0.1483  0.2721
 3504W        W 5704  18.903   2.806  44.205  0.0962 -0.0499  0.1125
 3505W        W 5705  19.004   3.341  12.790 -0.0340  0.1543 -0.0297
 3506W        W 5706   4.397   2.341  34.921  0.1667  0.0562 -0.1619
 3507W        W 5707  15.673   1.608  11.089  0.2684 -0.0366  0.0836
 3508W        W 5708  12.001   2.145  32.902 -0.0458  0.1304  0.0662
 3509W        W 5709  10.700   2.680  12.748 -0.0919 -0.0100 -0.2804
 3510W        W 5710   9.761   0.803  41.518  0.2452 -0.0873  0.0719
 3511W        W 5711   7.246   0.634  22.920 -0.2016  0.1980 -0.0361
 3512W        W 5712  14.629   3.891  30.304 -0.0190 -0.1565  0.1384
 3513W        W 5713  19.013   1.388  42.869  0.3075  0.2979 -0.2033
 3514W        W 5714   4.073   2.198   1.422 -0.0128 -0.1165  0.2599
 3515W        W 5715   7.188   5.128  38.445  0.1721 -0.1522  0.0429
 3516W        W 5716  12.092   6.369  16.445  0.2266 -0.0309 -0.0822
 3517W        W 5717   0.200   1.463  44.602 -0.1880  0.0844  0.0195
 3518W        W 5718  10.602   2.914  36.099  0.3501 -0.2453  0.3231
 3519W        W 5719   7.747   3.012  17.327  0.0920  0.2095  0.0126
 3520W        W 5720  18.180   1.334   9.879  0.1410 -0.0158  0.1041
 3521W        W 5721   7.604   3.124  33.792  0.1400 -0.2015 -0.0191
 3522W        W 5722  13.814   5.366  36.965  0.2620  0.1029 -0.1093
 3523W        W 5723  14.782   0.968  15.061 -0.1487 -0.0717  0.0673
 3524W        W 5724  19.417   2.362  35.199  0.2882 -0.1666  0.0159
 3525W        W 5725  20.600   0.287  40.546 -0.0096  0.0387 -0.1049
 3526W        W 5726   9.623   3.415   8.553  0.0742 -0.0953  0.0490
 3527W        W 5727   2.143   4.626  44.813  0.3213 -0.0429  0.1992
 3528W        W 5728   2.493   3.926  26.319 -0.1094 -0.2742  0.1391
 3529W        W 5729   1.107   6.223  26.184  0.0338 -0.1992  0.1489
 3530W        W 5730   5.619   5.728   2.096  0.1486 -0.1447  0.4088
 3531W        W 5731   1.509   5.620  29.230  0.1133  0.0874  0.0005
 3532W        W 5732   6.862   6.568  19.116 -0.0743  0.1403  0.1499
 3533W        W 5733   9.039   0.749  33.788 -0.0374  0.1704 -0.0461
 3534W        W 5734   8.440   5.197  41.110 -0.3724  0.0684  0.2035
 3535W        W 5735  17.211   1.374  42.580 -0.2057  0.0372  0.2006
 3536W        W 5736  12.766   1.030   6.976  0.0476  0.2675  0.0798
 3537W        W 5737   0.937   5.728  43.279  0.2453  0.1073  0.1143
 3538W        W 5738  11.261   5.356  19.547  0.1200  0.1686  0.3732
 3539W        W 5739  18.601   4.763  33.318  0.0673 -0.2831  0.1766
 3540W        W 5740   8.337   1.910   2.131  0.0537 -0.4368  0.1236
 3541W        W 5741  12.095   5.669  39.156  0.2039 -0.5062 -0.1559
 3542W        W 5742   4.380   2.528  12.508 -0.1341  0.1573  0.1177
 3543W        W 5743  12.126   6.212  31.393  0.2059  0.0261 -0.1561
 3544W        W 5744   1.510   1.202   6.353  0.1765  0.2671  0.1503
 3545W        W 5745   5.198   2.919   0.956  0.2184  0.0536 -0.2817
 3546W        W 5746   1.606   6.002  36.307  0.1203  0.0426  0.0398
 3547W        W 5747   1.850   3.075  10.954 -0.2671 -0.0674  0.0005
 3548W        W 5748   6.628   4.361  31.597 -0.2633  0.0998  0.3672
 3549W        W 5749  11.152   1.134   4.115  0.1303  0.1001  0.3043
 3550W        W 5750   9.848   5.660  23.349  0.1423 -0.0824 -0.1773
 3551W        W 5751  20.729   3.102   0.413  0.1817 -0.4625 -0.0785
 3552W        W 5752   8.652   5.214  17.509  0.1717  0.2159 -0.0313
 3553W        W 5753  19.884   0.600  20.129 -0.0164 -0.2012 -0.0014
 3554W        W 5754   1.614   4.422  14.153 -0.4098 -0.0575 -0.0808
 3555W        W 5755  18.334   4.285  10.780  0.1806 -0.1070  0.0421
 3556W        W 5756   4.766   1.611   4.131 -0.0927  0.1013  0.0952
 3557W        W 5757   9.748   0.457  35.939  0.0491  0.0164 -0.1624
 3558W        W 5758   4.826   4.208  43.750 -0.0398  0.1911 -0.2286
 3559W        W 5759  14.979   1.970  35.317  0.0631 -0.2583 -0.1719
 3560W        W 5760   2.925   0.701   5.522  0.1058  0.1061 -0.1076
 3561W        W 5761   8.454   0.439   8.422  0.1243 -0.1495 -0.2056
 3562W        W 5762   3.443   5.760   7.775 -0.1772  0.1423  0.0509
 3563W        W 5763   3.503   1.597  17.097 -0.1435  0.2161  0.2252
 3564W        W 5764   8.736   3.921  36.796 -0.0022  0.0870 -0.1751
 3565W        W 5765  13.938   5.792  32.034 -0.3895  0.0771 -0.0169
 3566W        W 5766   1.394   1.225  24.194 -0.1093 -0.0422  0.2177
 3567W        W 5767  15.192   5.696   3.766 -0.2997  0.0732  0.1407
 3568W        W 5768  14.946   4.987  33.857 -0.0409  0.2518 -0.0443
 3569W        W 5769  20.248   2.714  31.490  0.0431 -0.0172  0.1173
 3570W        W 5770  17.934   5.243  38.430 -0.1819 -0.1954  0.2034
 3571W        W 5771  10.671   0.920  39.702  0.2098 -0.0422  0.3982
 3572W        W 5772   4.361   0.129  35.289 -0.1780  0.1317  0.1094
 3573W        W 5773   4.955   4.064  12.378  0.1536  0.0956  0.1930
 3574W        W 5774  10.846   3.561   7.019  0.1099  0.2894  0.0127
 3575W        W 5775  12.075   3.390  19.720  0.0943 -0.3093  0.1994
 3576W        W 5776   2.823   2.950  11.991  0.0809  0.0456 -0.0750
 3577W        W 5777   8.475   1.679   7.984 -0.0456 -0.0899  0.0783
 3578W        W 5778   2.856   3.542  44.744 -0.0228 -0.0200  0.1762
 3579W        W 5779  15.281   1.694  33.406  0.0648  0.0226  0.2483
 3580W        W 5780  13.102   5.002  41.538  0.1288 -0.0883  0.1169
 3581W        W 5781  19.176   2.099  23.773 -0.1025 -0.1170 -0.0422
 3582W        W 5782  14.420   5.871  12.457 -0.0308 -0.0643  0.0093
 3583W        W 5783  16.180   6.409  36.301 -0.0107 -0.1684 -0.1373
 3584W        W 5784   6.989   2.635  18.344  0.2013  0.2140 -0.4515
 3585W        W 5785   0.157   4.554  13.750 -0.0607  0.0422  0.0356
 3586W        W 5786  16.160   6.120  11.398  0.0726  0.0438 -0.1576
 3587W        W 5787  16.101   5.342  29.394 -0.1789 -0.1454 -0.3591
 3588W        W 5788  15.426   5.358  40.328  0.1494 -0.1659  0.0378
 3589W        W 5789   7.335   6.045   8.276 -0.1588 -0.0607 -0.0700
 3590W        W 5790   6.137   4.814   9.510  0.1079 -0.3465 -0.3141
 3591W        W 5791   2.805   0.904  34.994 -0.3057  0.1860  0.2540
 3592W        W 5792   3.076   2.089  16.486  0.0334 -0.0366  0.1003
 3593W        W 5793  19.716   0.058   9.763 -0.0391 -0.0091 -0.1795
 3594W        W 5794  19.499   0.486  42.025  0.0821  0.0120  0.0369
 3595W        W 5795   5.685   5.668  32.815 -0.0204  0.0502 -0.0186
 3596W        W 5796  16.158   0.014  15.455  0.1165 -0.2948 -0.0196
 3597W        W 5797  20.826   5.081  27.802 -0.2306 -0.0607 -0.3466
 3598W        W 5798   1.207   3.478  38.690 -0.0624  0.0138 -0.5840
 3599W        W 5799  11.404   1.831  41.665  0.2350 -0.2319 -0.0802
 3600W        W 5800   4.221   3.443   0.946  0.1494 -0.0280 -0.2994
 3601W        W 5801   5.544   0.898   1.985 -0.0119 -0.0327 -0.2987
 3602W        W 5802  19.533   1.005  19.775 -0.0610 -0.0370 -0.1478
 3603W        W 5803  15.035   6.506  15.554  0.1547 -0.0555  0.1452
 3604W        W 5804   4.867   0.354  37.915 -0.1138  0.0135 -0.0643
 3605W        W 5805  16.497   5.493   6.996  0.1355  0.0587 -0.0993
 3606W        W 5806   4.119   1.770  32.195  0.1903 -0.1135 -0.0218
 3607W        W 5807   6.302   5.417  10.137 -0.1435 -0.1202 -0.1626
 3608W        W 5808   2.802   0.871  12.556  0.0767 -0.1157  0.3018
 3609W        W 5809  15.795   5.035   8.983  0.0154  0.0384  0.1675
 3610W        W 5810   0.284   1.386  37.435 -0.3566  0.1591 -0.0240
 3611W        W 5811  18.197   1.153   5.669  0.0246  0.0178 -0.0514
 3612W        W 5812   8.217   2.305  22.448 -0.2255  0.1133  0.0859
 3613W        W 5813  20.020   0.908  39.876  0.2598 -0.0132 -0.2051
 3614W        W 5814   6.938   0.416  43.343 -0.2372  0.0674  0.0290
 3615W        W 5815  12.366   0.842  15.537 -0.2733  0.0066  0.2063
 3616W        W 5816   5.978   2.371  14.221 -0.0906  0.0541 -0.1365
 3617W        W 5817  12.756   5.698  41.888  0.1149 -0.0264  0.1534
 3618W        W 5818   4.233   3.730  16.325  0.0390 -0.0047 -0.0637
 3619W        W 5819  16.071   6.200   7.337  0.1334 -0.0574 -0.3229
 3620W        W 5820   8.417   3.779   4.097 -0.0462  0.0262 -0.1560
 3621W        W 5821  10.004   0.167  36.272  0.1063 -0.1422  0.0021
 3622W        W 5822  20.527   4.320  31.290 -0.1582  0.2371 -0.1966
 3623W        W 5823   8.002   1.744  17.223 -0.0451  0.2927  0.1928
 3624W        W 5824  18.072   1.477  32.994 -0.1470  0.2548  0.2202
 3625W        W 5825  18.921   0.391  13.224 -0.2656  0.1214 -0.0343
 3626W        W 5826   3.589   4.562  30.818  0.1582  0.1762  0.0438
 3627W        W 5827  13.738   5.111  27.387  0.3071 -0.1174  0.2994
 3628W        W 5828  10.952   5.004  10.090 -0.0996  0.0874  0.0410
 3629W        W 5829  19.103   2.716  10.310  0.1256  0.0938 -0.1097
 3630W        W 5830  13.856   3.699  37.576 -0.1681  0.2466 -0.1250
 3631W        W 5831   3.672   3.308  17.219 -0.0342  0.2736 -0.0315
 3632W        W 5832  18.817   5.693  28.670  0.0027  0.0186 -0.3665
 3633W        W 5833   3.979   1.379   3.045  0.0689  0.2381  0.0527
 3634W        W 5834  19.999   5.690  15.018 -0.2456 -0.0634  0.1492
 3635W        W 5835  18.618   2.934   1.427 -0.1163 -0.1507  0.0443
 3636W        W 5836   1.159   4.432  27.023  0.0574 -0.0516  0.0760
 3637W        W 5837  11.821   3.237  27.699 -0.0415 -0.1884  0.1024
 3638W        W 5838   8.236   0.759  43.148 -0.3239  0.1488 -0.1570
 3639W        W 5839   9.468   5.196  35.142 -0.0078 -0.0401  0.0254
 3640W        W 5840  20.915   5.401  34.582 -0.1412 -0.0890  0.0061
 3641W        W 5841   2.509   1.378   7.661  0.4141  0.0278  0.0615
 3642W        W 5842   8.245   3.185  10.329 -0.0617  0.1770  0.4048
 3643W        W 5843  20.655   5.094  10.010 -0.1745 -0.2351 -0.1281
 3644W        W 5844  18.424   3.889  30.542 -0.0221 -0.1063  0.0431
 3645W        W 5845   2.384   4.201  13.170 -0.0808  0.2113  0.3896
 3646W        W 5846  17.867   6.526  33.101 -0.1403 -0.1183 -0.0576
 3647W        W 5847  10.311   4.994  23.141 -0.0277  0.0329  0.1155
 3648W        W 5848   3.863   2.589  27.928 -0.2032 -0.1143 -0.1387
 3649W        W 5849   3.874   1.921   3.222  0.0676 -0.0426  0.0368
 3650W        W 5850   3.601   0.048  17.609  0.3197  0.0807  0.0996
 3651W        W 5851   6.888   6.241  16.211 -0.4197  0.1673  0.0734
 3652W        W 5852   0.948   6.430   9.705  0.2764  0.1609  0.1655
 3653W        W 5853  10.416   5.543  30.041 -0.0242  0.1563  0.0257
 3654W        W 5854   0.550   4.233  39.486 -0.2647 -0.0785  0.1176
 3655W        W 5855  19.297   2.055  26.802  0.1331 -0.1375  0.2633
 3656W        W 5856   2.936   1.870  12.369  0.2082 -0.0092 -0.3805
 3657W        W 5857   7.821   4.963  35.258  0.0610 -0.2049  0.0811
 3658W        W 5858  20.731   0.047  41.106  0.0268  0.5480 -0.1762
 3659W        W 5859  19.386   4.996  35.759  0.1491  0.0670  0.1845
 3660W        W 5860   8.099   5.280  32.270  0.0276  0.1303  0.2056
 3661W        W 5861  19.743   2.263   6.137  0.1049 -0.0913  0.2606
 3662W        W 5862  15.762   0.773  39.596  0.0955 -0.2872  0.0130
 3663W        W 5863  10.788   3.800  41.686  0.1211 -0.1298  0.2348
 3664W        W 5864  16.658   6.214   7.569 -0.1241  0.1418 -0.3342
 3665W        W 5865   8.789   3.263  34.417  0.0955  0.0251 -0.3939
 3666W        W 5866   8.350   0.981  10.767 -0.2833  0.2742 -0.1789
 3667W        W 5867  13.130   6.355  16.716  0.1967 -0.0162 -0.0362
 3668W        W 5868  12.004   1.321  38.680  0.2216 -0.2189  0.3023
 3669W        W 5869   0.412   0.346  26.002  0.2709 -0.1367 -0.1628
 3670W        W 5870  19.012   3.602   8.564 -0.2428 -0.0903  0.0410
 3671W        W 5871   7.142   3.845  18.798 -0.1622  0.0194 -0.1505
 3672W        W 5872   9.790   1.313  41.583 -0.1122 -0.0371  0.1637
 3673W        W 5873  14.695   5.162   6.245 -0.1037 -0.2256 -0.1076
 3674W        W 5874   2.288   2.283   0.437 -0.2735  0.5131 -0.1306
 3675W        W 5875  21.056   1.438  27.339  0.1958  0.0509 -0.0929
 3676W        W 5876  18.753   3.095  10.739 -0.0989 -0.3209 -0.0834
 3677W        W 5877   1.614   2.195  16.829  0.2366 -0.0529 -0.0526
 3678W        W 5878   9.897   6.038  34.752 -0.1948 -0.1938  0.1797
 3679W        W 5879   4.130   5.983  16.453 -0.2076  0.1645 -0.1910
 3680W        W 5880   5.387   6.500  29.422 -0.3411  0.0365  0.2476
 3681W        W 5881   9.764   4.717  23.140  0.2286  0.1920  0.0657
 3682W        W 5882  19.718   4.172  36.868  0.1380 -0.0639 -0.2035
 3683W        W 5883   1.675   5.006  25.446 -0.2942  0.2891  0.2194
 3684W        W 5884  17.700   5.122   1.629 -0.2469  0.2056 -0.0368
 3685W        W 5885   4.420   1.282   6.780  0.2240 -0.3099  0.0429
 3686W        W 5886  19.666   5.246  29.897 -0.0442 -0.1523  0.1017
 3687W        W 5887  12.445   4.040  41.904  0.1624  0.1863  0.0030
 3688W        W 5888   6.212   6.183   6.861 -0.1401 -0.0229 -0.4435
 3689W        W 5889  19.956   6.529   5.048 -0.0411  0.1734  0.1776
 3690W        W 5890   4.719   2.201   8.939 -0.2611 -0.0571  0.2070
 3691W        W 5891  17.013   5.570   4.266 -0.1250  0.0703  0.3133
 3692W        W 5892   6.179   0.089  37.933  0.1205 -0.1055  0.2137
 3693W        W 5893  20.543   1.227  27.452  0.3144  0.0743  0.1088
 3694W        W 5894   0.940   1.717  22.571 -0.2840  0.0676  0.2711
 3695W        W 5895  21.117   0.070   4.586  0.1019 -0.2830 -0.2446
 3696W        W 5896  12.867   3.920  10.215  0.1520  0.0799  0.2115
 3697W        W 5897   4.508   4.241  44.151 -0.0988  0.1196  0.0493
 3698W        W 5898  14.722   6.104  40.432  0.0936 -0.1936  0.4506
 3699W        W 5899   2.357   4.327  29.781 -0.0268 -0.1081 -0.2775
 3700W        W 5900  12.198   2.676   0.077  0.2507 -0.3766  0.0665
 3701W        W 5901  11.529   3.639  42.260  0.0542 -0.4183 -0.0582
 3702W        W 5902   0.425   3.923   7.729  0.0879 -0.3161 -0.2039
 3703W        W 5903   5.691   5.420  30.955  0.0540  0.1276  0.2136
 3704W        W 5904   0.847   2.534   8.907 -0.0128 -0.2316 -0.0356
 3705W        W 5905   1.129   1.336   7.606 -0.1110 -0.0293  0.0627
 3706W        W 5906  19.503   1.458  42.965  0.0565 -0.3600  0.0046
 3707W        W 5907  14.906   5.507  28.663 -0.3794  0.0790 -0.1754
 3708W        W 5908   0.736   2.162  41.132 -0.1257  0.1742 -0.1239
 3709W        W 5909   6.658   4.591  42.251  0.0430 -0.1578 -0.1360
 3710W        W 5910   1.493   2.924  30.158 -0.3493  0.2847  0.0460
 3711W        W 5911  20.002   1.772  38.114  0.3351 -0.3303 -0.0940
 3712W        W 5912  18.327   3.119  28.798 -0.2473 -0.2063  0.2163
 3713W        W 5913   8.749   6.217   9.935 -0.4343  0.1662  0.1535
 3714W        W 5914  18.145   1.935   3.924  0.0967  0.1487  0.4796
 3715W        W 5915   7.962   5.959  18.917 -0.0989 -0.0904 -0.0474
 3716W        W 5916   7.059   1.010   8.811  0.1417  0.1042 -0.1019
 3717W        W 5917   3.939   5.405  38.402  0.0625 -0.0265  0.1484
 3718W        W 5918  14.698   6.464  34.384 -0.0702  0.2146 -0.0020
 3719W        W 5919  15.961   0.511  13.082 -0.1861 -0.3072  0.1514
 3720W        W 5920   4.220   4.226  42.579  0.2465 -0.1290  0.0506
 3721W        W 5921   6.717   2.222   6.841  0.0121  0.0325 -0.1102
 3722W        W 5922   8.611   2.967  44.314  0.1097 -0.3040 -0.1087
 3723W        W 5923  17.347   5.297   1.229  0.0069  0.2303  0.0394
 3724W        W 5924  15.984   0.998  35.926  0.1406 -0.0730 -0.0283
 3725W        W 5925  15.770   3.550   5.715  0.2407 -0.0804 -0.0156
 3726W        W 5926   8.791   4.019  16.224  0.0423  0.1054  0.0963
 3727W        W 5927  13.318   1.082  38.457  0.3553  0.2981 -0.0325
 3728W        W 5928   0.381   0.602  22.753  0.2414  0.0578  0.0601
 3729W        W 5929  10.252   5.287  36.427  0.1283  0.1457  0.1373
 3730W        W 5930  10.271   4.382  37.483 -0.0262 -0.1354  0.1579
 3731W        W 5931   7.504   1.726   8.125 -0.1347  0.0424 -0.0930
 3732W        W 5932  17.099   3.579  38.390 -0.3231 -0.3034  0.4645
 3733W        W 5933   0.076   3.477   5.372  0.1620 -0.0650 -0.1993
 3734W        W 5934  17.705   5.777   3.767  0.2432 -0.0390 -0.0667
 3735W        W 5935  20.212   3.188  13.388 -0.0880  0.1482  0.3041
 3736W        W 5936  10.531   3.288   6.458  0.0282 -0.2329 -0.1314
 3737W        W 5937  11.030   3.104  42.356 -0.1450  0.0914  0.0440
 3738W        W 5938  13.464   5.851  42.968 -0.4476  0.0904  0.0536
 3739W        W 5939  17.137   1.886  13.910 -0.2126  0.0435  0.1410
 3740W        W 5940  19.661   3.407  31.061  0.1180 -0.0553 -0.0836
 3741W        W 5941  12.968   4.379   1.608  0.1005 -0.0078  0.0110
 3742W        W 5942   6.875   3.613   6.217  0.1447 -0.0111  0.1233
 3743W        W 5943   5.360   6.050  13.830  0.1101  0.5096  0.1429
 3744W        W 5944  10.234   6.471  22.115  0.2029  0.1253  0.1128
 3745W        W 5945   9.497   3.642  19.184  0.1214  0.2438  0.1198
 3746W        W 5946   5.845   5.109  20.482  0.0660  0.0681  0.0218
 3747W        W 5947   7.193   2.452  35.071  0.1556  0.3297  0.3168
 3748W        W 5948   0.011   3.308   4.600 -0.0644 -0.1141 -0.0242
 3749W        W 5949   6.903   2.006   7.269  0.0409  0.0356  0.0874
 3750W        W 5950  10.458   1.160  16.361  0.1877 -0.1375  0.0069
 3751W        W 5951  18.585   5.455   3.928 -0.0409  0.0968  0.0338
 3752W        W 5952  17.260   5.265  36.837 -0.1576 -0.2410  0.0085
 3753W        W 5953   6.272   1.072   5.959 -0.3662  0.1229 -0.1033
 3754W        W 5954   6.111   2.569   0.314  0.0590 -0.3364 -0.2477
 3755W        W 5955  12.454   3.839  14.659  0.0069 -0.2275  0.1163
 3756W        W 5956   7.028   3.821   8.614 -0.2687  0.2009  0.0215
 3757W        W 5957  15.454   2.000  33.798 -0.0437  0.0086 -0.2693
 3758W        W 5958   6.393   0.967  33.834  0.0490 -0.2807  0.2307
 3759W        W 5959  14.321   0.654  17.456  0.2122 -0.0226 -0.0544
 3760W        W 5960  19.780   5.848  35.575 -0.0826  0.1052 -0.0607
 3761W        W 5961  18.007   3.763  39.252 -0.2844  0.0053 -0.1895
 3762W        W 5962   5.260   1.875  19.100  0.1026 -0.2849 -0.0160
 3763W        W 5963  10.365   5.983  22.097  0.0819 -0.2281  0.2692
 3764W        W 5964  15.088   3.044  26.631  0.2188 -0.2002  0.1467
 3765W        W 5965  20.013   4.195  31.547  0.2399 -0.0037  0.1333
 3766W        W 5966  14.132   5.773  29.213  0.3449 -0.1738 -0.2853
 3767W        W 5967  19.422   0.519   9.010  0.0396 -0.0203  0.0303
 3768W        W 5968  19.582   2.638  25.601 -0.1340  0.0672 -0.1995
 3769W        W 5969  10.067   2.380  29.634 -0.1424 -0.0255  0.2953
 3770W        W 5970  20.768   6.329  15.187 -0.1818 -0.2461  0.1067
 3771W        W 5971  19.985   2.796  19.350  0.0553  0.0038  0.3150
 3772W        W 5972  14.713   0.234  11.372 -0.0055 -0.1560 -0.0723
 3773W        W 5973  19.661   6.440  23.707 -0.0249  0.1327  0.0175
 3774W        W 5974   0.264   3.132  37.151 -0.1223  0.1039  0.0629
 3775W        W 5975  11.221   0.857  43.677 -0.2970  0.1627  0.1342
 3776W        W 5976  12.941   6.154   8.708 -0.2245  0.0181  0.1214
 3777W        W 5977   8.242   6.091  12.216 -0.0004 -0.1602 -0.0502
 3778W        W 5978  15.481   1.257  27.756 -0.0615  0.2318 -0.1256
 3779W        W 5979   5.669   4.129   7.152  0.3033  0.0835 -0.0904
 3780W        W 5980  12.094   1.800   5.119  0.2402 -0.0383 -0.1087
 3781W        W 5981  17.534   6.364  43.748 -0.1434  0.0624  0.0036
 3782W        W 5982   6.332   4.182  12.774  0.3881  0.2229  0.1600
 3783W        W 5983   8.438   2.693   5.818 -0.1949  0.0643 -0.0191
 3784W        W 5984   8.173   4.002  30.143  0.0817  0.1496  0.2110
 3785W        W 5985  17.498   4.089  30.308  0.1325 -0.1283  0.0998
 3786W        W 5986   4.777   1.860   1.513  0.0088 -0.0132  0.1966
 3787W        W 5987   4.880   0.296  16.709 -0.2504 -0.0923  0.1561
 3788W        W 5988   0.374   3.348   7.019 -0.1014 -0.0579 -0.1737
 3789W        W 5989  17.689   3.069  39.541 -0.2107 -0.5294 -0.0193
 3790W        W 5990  13.341   4.606  42.908 -0.0801 -0.1538 -0.0312
 3791W        W 5991  15.483   1.674   6.619 -0.1263  0.1634  0.1021
 3792W        W 5992  10.755   5.076  42.048 -0.3199 -0.0172  0.2590
 3793W        W 5993   1.706   4.359  23.565  0.2741 -0.0998 -0.1171
 3794W        W 5994  17.325   4.674  10.690  0.3641  0.0277 -0.0755
 3795W        W 5995   4.108   1.985  40.823  0.1869  0.1453  0.3458
 3796W        W 5996  19.847   5.356  11.448 -0.1813  0.4071 -0.0475
 3797W        W 5997   7.576   4.295  15.086  0.2016  0.0601 -0.4079
 3798W        W 5998   0.308   5.672   0.079  0.0292  0.1552  0.0826
 3799W        W 5999  16.474   4.316  14.022  0.0603  0.2250 -0.2142
 3800W        W 6000   4.767   2.286  10.749  0.0376  0.0736  0.1123
 3801W        W 6001   4.207   0.348  42.768  0.1018 -0.0752 -0.2014
 3802W        W 6002  20.260   2.918  33.913 -0.2383  0.1233 -0.1024
 3803W        W 6003  15.125   1.614  34.712  0.0111 -0.1852 -0.2403
 3804W        W 6004   0.733   1.607  28.790 -0.2700  0.0339  0.1188
 3805W        W 6005   1.584   0.187   4.736 -0.0301  0.0672  0.3823
 3806W        W 6006   0.740   4.172  14.450 -0.0470  0.1773  0.0400
 3807W        W 6007   3.111   3.488  41.256  0.0424  0.1139 -0.1520
 3808W        W 6008  18.434   5.282  25.431 -0.2380 -0.2515 -0.2548
 3809W        W 6009   0.509   1.517   4.382  0.0746 -0.3542  0.2200
 3810W        W 6010   0.385   2.280  42.056 -0.3403  0.1413 -0.1542
 3811W        W 6011  19.197   4.388   4.546  0.2542 -0.0624 -0.0499
 3812W        W 6012  18.332   0.886  22.167  0.0560 -0.0591 -0.0864
 3813W        W 6013  12.154   4.862   5.202  0.1573 -0.0402 -0.1194
 3814W        W 6014  14.319   3.697   2.385  0.0371  0.1865  0.0058
 3815W        W 6015   7.915   4.378   8.315  0.0077 -0.1124 -0.2309
 3816W        W 6016   1.778   2.003   4.467 -0.0885  0.0531  0.0450
 3817W        W 6017   1.102   2.916  35.784 -0.0988  0.0684  0.2423
 3818W        W 6018  12.324   6.554  33.108  0.1863 -0.0688 -0.3718
 3819W        W 6019  18.293   5.936  14.967  0.0448 -0.2379 -0.0594
 3820W        W 6020   6.929   1.619   6.354 -0.0792  0.0476  0.1695
 3821W        W 6021   4.495   6.397  12.729  0.1616  0.0526 -0.2008
 3822W        W 6022  10.105   2.610   9.171 -0.2794 -0.2997  0.1632
 3823W        W 6023  12.151   1.956   2.501 -0.2248  0.0814 -0.0663
 3824W        W 6024  17.234   3.645   4.177  0.1506 -0.1142 -0.0701
 3825W        W 6025   2.182   4.674  32.934 -0.0988 -0.3360 -0.0395
 3826W        W 6026  12.175   5.203  16.204 -0.1473 -0.2510 -0.1407
 3827W        W 6027  11.242   3.576  36.434  0.1561 -0.4741 -0.0746
 3828W        W 6028   4.110   5.513  36.962 -0.3199 -0.0365  0.1680
 3829W        W 6029   5.469   6.561   0.269  0.0474 -0.0784  0.1083
 3830W        W 6030  11.429   4.370  42.537  0.1160 -0.2844 -0.1347
 3831W        W 6031  18.887   5.649  35.161 -0.0041  0.0577  0.0482
 3832W        W 6032  17.119   5.919  10.999  0.1349  0.1553  0.2541
 3833W        W 6033   7.635   5.931  21.794  0.0368  0.0647 -0.3078
 3834W        W 6034   7.393   4.199  41.575  0.1349  0.0159 -0.0289
 3835W        W 6035   6.051   4.763  16.283 -0.4090 -0.3260 -0.0237
 3836W        W 6036   8.189   0.556   4.336 -0.1767 -0.2029  0.1301
 3837W        W 6037   7.888   2.466  21.711  0.0195  0.1093  0.0278
 3838W        W 6038  19.434   4.493  11.445 -0.1477 -0.0090  0.0504
 3839W        W 6039  12.815   5.129  17.348  0.1913 -0.1018 -0.1459
 3840W        W 6040   4.170   5.778  40.216 -0.2438 -0.0502 -0.0568
 3841W        W 6041  15.725   1.536  14.807 -0.2960  0.0854 -0.1737
 3842W        W 6042   9.942   2.794   7.907  0.0694  0.0072  0.0924
 3843W        W 6043  12.144   5.179   7.592 -0.0191 -0.2634  0.0373
 3844W        W 6044  14.697   4.585   6.276 -0.1783  0.3225  0.1377
 3845W        W 6045   4.057   2.634  34.086  0.0047 -0.3345 -0.2187
 3846W        W 6046   4.966   6.585  41.582 -0.0519 -0.5576 -0.0084
 3847W        W 6047   7.423   1.251  36.254 -0.4412  0.1160  0.1794
 3848W        W 6048   1.124   1.597  24.401 -0.1883 -0.0236 -0.1591
 3849W        W 6049  18.960   2.225  44.658 -0.1407 -0.2711 -0.2430
 3850W        W 6050   1.863   3.250  16.048 -0.1899  0.2830 -0.0564
 3851W        W 6051  18.689   3.244  22.226 -0.1359  0.2365  0.2826
 3852W        W 6052  13.346   1.989  34.757  0.0374 -0.3529  0.0798
 3853W        W 6053  18.650   6.366  36.766  0.0362  0.2114  0.0829
 3854W        W 6054   8.317   4.844  43.714  0.3391  0.1995 -0.3067
 3855W        W 6055   8.182   1.027   3.600  0.0681 -0.0975  0.1259
 3856W        W 6056  12.736   5.371   7.342 -0.2018  0.0111 -0.0648
 3857W        W 6057  18.241   0.632   5.626  0.1542  0.1380 -0.0690
 3858W        W 6058  15.145   5.038  28.087  0.1416  0.1147 -0.1322
 3859W        W 6059   8.425   4.197  20.830 -0.1309  0.0162  0.0318
 3860W        W 6060   7.916   6.372  21.663  0.2868 -0.1125 -0.2762
 3861W        W 6061  14.598   3.419   7.586 -0.0579  0.2426 -0.1207
 3862W        W 6062   9.153   3.874  35.943 -0.1120  0.4444  0.2980
 3863W        W 6063   9.984   1.890  39.101 -0.0100  0.0999  0.2560
 3864W        W 6064  17.358   5.452   7.387 -0.1410 -0.2211 -0.0414
 3865W        W 6065  17.854   2.904   8.195 -0.2343 -0.1749 -0.0198
 3866W        W 6066  12.654   3.769   2.468 -0.1491  0.0203  0.0047
 3867W        W 6067   3.012   5.252  37.825 -0.0484 -0.0167 -0.1538
 3868W        W 6068   9.187   1.802   7.566 -0.0833  0.0454 -0.3733
 3869W        W 6069   1.532   2.336   5.655  0.3085  0.1898 -0.1280
 3870W        W 6070   0.632   0.887  24.843 -0.0489 -0.0410  0.0571
 3871W        W 6071   9.886   1.888  29.672 -0.0768  0.0507  0.1167
 3872W        W 6072   1.883   1.942  25.075 -0.1238  0.2734  0.2765
 3873W        W 6073  14.999   1.108  35.755 -0.1747  0.0267  0.2279
 3874W        W 6074  11.993   1.961  44.639  0.0663 -0.1569  0.0673
 3875W        W 6075   9.817   0.082   2.470  0.0245  0.0315 -0.3297
 3876W        W 6076   4.447   0.692  27.997  0.1405  0.0567  0.3147
 3877W        W 6077  19.931   1.535  12.525 -0.0959  0.0694  0.2144
 3878W        W 6078   8.559   5.906  20.488 -0.0732  0.4342 -0.2786
 3879W        W 6079  16.959   4.905   8.694  0.0817  0.2967  0.0302
 3880W        W 6080  20.183   2.931  44.854  0.0470  0.1229  0.4306
 3881W        W 6081  17.857   4.507  28.527  0.1552 -0.0015  0.1971
 3882W        W 6082   2.035   3.163  30.837  0.3767  0.0932  0.4674
 3883W        W 6083   0.684   2.691  24.943 -0.1219 -0.1808  0.2685
 3884W        W 6084   0.453   3.227  14.362  0.1186 -0.0051 -0.1001
 3885W        W 6085  15.812   2.771   5.807 -0.2028  0.0160  0.2014
 3886W        W 6086  16.893   0.228  29.287  0.0252  0.4502  0.0354
 3887W        W 6087  16.125   1.760  24.651 -0.1178  0.0687 -0.2273
 3888W        W 6088   4.345   4.317  12.951  0.0200  0.1563 -0.3540
 3889W        W 6089   9.776   0.778  20.294  0.3642  0.4026 -0.1675
 3890W        W 6090  10.591   2.742  43.280 -0.1517  0.5328  0.1404
 3891W        W 6091   9.359   4.150  10.687  0.0670  0.3625 -0.1543
 3892W        W 6092  18.111   0.951  38.396  0.0974  0.0541 -0.1807
 3893W        W 6093   7.480   3.850  34.626 -0.0499  0.1039  0.1374
 3894W        W 6094  18.593   4.828  43.537 -0.1167  0.1026  0.0768
 3895W        W 6095  13.553   3.942  28.964  0.1783 -0.0641 -0.0488
 3896W        W 6096  14.917   4.338  14.794 -0.1337  0.1566 -0.0298
 3897W        W 6097  17.726   4.732   3.406 -0.0707 -0.0816  0.0949
 3898W        W 6098   4.428   3.697  13.779 -0.2981 -0.4309  0.0220
 3899W        W 6099   2.239   4.309  31.409 -0.1957 -0.3352  0.1452
 3900W        W 6100  19.691   6.547  15.533 -0.2989  0.0411  0.0815
 3901W        W 6101  18.722   3.162  35.682  0.1045  0.1746  0.3707
 3902W        W 6102   2.927   6.187  43.238  0.1376 -0.1265 -0.0334
 3903W        W 6103   4.983   5.690  20.763 -0.0063  0.2922  0.1309
 3904W        W 6104   7.154   1.698   7.709  0.3872 -0.0344  0.2723
 3905W        W 6105  10.922   1.405  19.865  0.1283  0.2242 -0.1998
 3906W        W 6106  10.813   1.228  29.401  0.1343  0.0111 -0.1759
 3907W        W 6107  19.784   3.750  14.674  0.0537 -0.1487 -0.0949
 3908W        W 6108   3.727   5.582  39.313 -0.2709  0.1286 -0.0698
 3909W        W 6109  12.486   0.658  38.847  0.2535 -0.2457 -0.1543
 3910W        W 6110  16.441   0.977  37.831 -0.0121  0.0251 -0.0025
 3911W        W 6111   1.893   3.115   2.924  0.1598  0.2426 -0.3600
 3912W        W 6112   0.040   5.663  31.170  0.1330 -0.1481  0.2517
 3913W        W 6113   9.698   1.354  25.293  0.0457 -0.0212 -0.0084
 3914W        W 6114  10.883   4.634  34.017  0.0889 -0.1208  0.0775
 3915W        W 6115   4.654   2.219   5.731 -0.0863 -0.2220 -0.2935
 3916W        W 6116   7.567   4.422  15.990 -0.0121 -0.0160 -0.1229
 3917W        W 6117  18.997   4.623  43.245 -0.0425 -0.0693  0.2866
 3918W        W 6118  18.475   5.830   8.847  0.1968  0.1743 -0.1191
 3919W        W 6119   7.447   0.795   4.559 -0.2953 -0.1911 -0.5591
 3920W        W 6120  19.690   1.416  34.440  0.0270 -0.2245  0.0027
 3921W        W 6121  10.555   5.461  21.169 -0.0266  0.0226 -0.2526
 3922W        W 6122   2.203   1.672  10.557  0.1124  0.5350  0.1456
 3923W        W 6123   7.120   0.591  38.551 -0.0302  0.3019 -0.1217
 3924W        W 6124  10.821   1.690  31.296  0.2469  0.2287 -0.1631
 3925W        W 6125   2.427   3.136  27.371  0.0931 -0.0742 -0.0176
 3926W        W 6126   4.115   3.682  29.172  0.2318  0.1783  0.2183
 3927W        W 6127  17.501   0.610  26.091  0.0543 -0.3102 -0.2092
 3928W        W 6128  17.099   0.694  10.305  0.1846 -0.0336  0.0458
 3929W        W 6129   5.610   3.594  11.635 -0.3958  0.0920 -0.1240
 3930W        W 6130  10.616   5.515   1.776 -0.0569 -0.3634  0.0072
 3931W        W 6131  14.077   1.161  38.949 -0.0310 -0.0148 -0.0619
 3932W        W 6132  18.656   0.298  21.161  0.2321 -0.1472 -0.0842
 3933W        W 6133  11.556   0.235  13.847  0.1660 -0.3912 -0.1084
 3934W        W 6134  12.511   6.040  11.312 -0.0840 -0.0714 -0.1782
 3935W        W 6135   1.166   3.288  42.655  0.1972 -0.2811  0.1294
 3936W        W 6136  14.468   1.644  37.495 -0.1059 -0.1019 -0.5180
 3937W        W 6137   9.273   2.610   8.781 -0.1019  0.3986 -0.0012
 3938W        W 6138   3.876   2.316   8.709  0.0834 -0.0315  0.0908
 3939W        W 6139  17.221   4.367  17.013 -0.1573 -0.0121 -0.0302
 3940W        W 6140   0.100   1.267  43.023 -0.1827  0.2190 -0.4522
 3941W        W 6141  10.877   5.001  40.509  0.2189  0.3246  0.4606
 3942W        W 6142  14.814   6.086   8.714  0.0828 -0.1244  0.2553
 3943W        W 6143  14.168   3.135  10.020  0.1408  0.1309  0.1925
 3944W        W 6144   2.455   0.402  32.059 -0.1610  0.0241 -0.1402
 3945W        W 6145   5.148   0.836  45.023  0.2484  0.1187  0.2289
 3946W        W 6146   2.095   0.804  10.048 -0.1348 -0.0822  0.2610
 3947W        W 6147  20.258   1.701   4.639 -0.0966 -0.1327 -0.3402
 3948W        W 6148  11.434   2.085  10.432  0.1547  0.0850  0.3433
 3949W        W 6149  12.831   3.337  30.316 -0.0328 -0.0506 -0.0373
 3950W        W 6150  15.263   6.437  39.288  0.1572 -0.0466 -0.1647
 3951W        W 6151  10.056   1.607  14.412  0.0953  0.1983 -0.0251
 3952W        W 6152  17.375   0.080  11.013  0.0784 -0.2177  0.0779
 3953W        W 6153   9.839   0.369  21.080  0.0444 -0.4139 -0.3503
 3954W        W 6154   4.256   1.105   5.040  0.2983  0.0775 -0.0784
 3955W        W 6155  18.244   4.085  15.905 -0.2261 -0.1980  0.2169
 3956W        W 6156  11.893   2.793   4.246 -0.0974  0.2889  0.1646
 3957W        W 6157  19.840   2.972  42.049  0.1438  0.1541  0.0387
 3958W        W 6158  12.979   4.856  33.897 -0.1182 -0.1024 -0.1083
 3959W        W 6159  10.115   6.563  21.111  0.1972  0.1969 -0.0362
 3960W        W 6160  10.696   6.267  32.750 -0.1461  0.4024  0.1620
 3961W        W 6161   9.341   3.165  42.623  0.2576  0.2742  0.0637
 3962W        W 6162  20.008   6.082  32.812  0.0767  0.1479 -0.3205
 3963W        W 6163  19.525   2.042  11.579 -0.2140  0.0505  0.4376
 3964W        W 6164  10.790   5.953  11.847 -0.3699  0.1461  0.1077
 3965W        W 6165  18.262   1.783  36.500 -0.2765 -0.0645  0.0432
 3966W        W 6166  11.779   4.236  22.078  0.2736 -0.0684  0.0016
 3967W        W 6167   6.438   4.608  44.567 -0.1056 -0.0038 -0.0789
 3968W        W 6168   7.858   2.114  40.553 -0.0479  0.2811 -0.1552
 3969W        W 6169   0.942   5.228  36.493  0.0234 -0.1929 -0.1417
 3970W        W 6170   7.323   0.988  38.803 -0.4960 -0.0052  0.1335
 3971W        W 6171  15.812   2.122   4.883  0.2801 -0.2818  0.0954
 3972W        W 6172   5.352   3.139  17.496  0.2412 -0.1485 -0.0500
 3973W        W 6173  19.231   5.369  41.809 -0.0960  0.3592 -0.2728
 3974W        W 6174  16.776   3.225  33.463 -0.2857 -0.0616  0.0689
 3975W        W 6175  17.167   6.560  31.472  0.1130 -0.1705 -0.0820
 3976W        W 6176   7.868   3.996  11.671 -0.2255 -0.0637  0.0934
 3977W        W 6177  19.201   3.617  11.922 -0.0566  0.0450 -0.1694
 3978W        W 6178   9.158   3.061  15.866  0.0239  0.1017 -0.0033
 3979W        W 6179   9.370   5.959   1.214 -0.1783  0.1268  0.0005
 3980W        W 6180  10.375   2.850  22.772 -0.1346 -0.2864 -0.0750
 3981W        W 6181   7.239   4.692  44.230  0.0854 -0.1510 -0.1933
 3982W        W 6182  13.510   3.577   1.649 -0.0334  0.0958 -0.0240
 3983W        W 6183  16.224   6.079  16.100  0.2358 -0.0785  0.1201
 3984W        W 6184  19.157   5.064  35.010  0.0972  0.3200 -0.1866
 3985W        W 6185  12.477   0.430  31.985  0.2989  0.1460 -0.1484
 3986W        W 6186  18.219   5.023  26.878  0.1928 -0.1670  0.1048
 3987W        W 6187  20.816   0.874  11.747  0.0708  0.1476  0.1575
 3988W        W 6188  15.793   0.879   5.616 -0.1162  0.1894 -0.2816
 3989W        W 6189  10.383   3.529  35.123  0.2313 -0.0893  0.0441
 3990W        W 6190  16.990   4.463  27.914 -0.0185 -0.3543 -0.0444
 3991W        W 6191   3.662   2.489  31.684 -0.1199 -0.3391 -0.1632
 3992W        W 6192  15.806   1.142  11.130  0.1851 -0.1662 -0.0846
 3993W        W 6193   8.954   0.510  30.995  0.0209 -0.1245  0.0416
 3994W        W 6194   0.521   3.489   4.592  0.1385  0.2297 -0.0017
 3995W        W 6195  18.221   3.341  29.340 -0.1901 -0.2666  0.2135
 3996W        W 6196   3.910   6.139  11.286  0.0236 -0.1082 -0.0370
 3997W        W 6197  18.620   5.227  33.528  0.1532 -0.2007  0.0979
 3998W        W 6198  10.027   4.576  20.666 -0.2758 -0.0762  0.2312
 3999W        W 6199  11.430   6.408  15.945  0.2105  0.1573  0.4523
 4000W        W 6200  19.697   3.967   3.080 -0.1407  0.0871  0.0977
 4001W        W 6201   9.942   0.332  44.681  0.1208 -0.4397  0.2910
 4002W        W 6202  20.931   5.910  14.329 -0.1533 -0.0157  0.1404
 4003W        W 6203  12.694   4.388  18.074  0.1950 -0.1717 -0.2221
 4004W        W 6204   6.539   4.808  38.567  0.0988 -0.1596 -0.1773
 4005W        W 6205  11.447   0.387  16.617 -0.0045  0.0761 -0.0131
 4006W        W 6206   9.709   1.893  40.949 -0.0563  0.0564 -0.2394
 4007W        W 6207  21.132   2.062  38.192 -0.2139 -0.1639  0.1070
 4008W        W 6208  16.132   0.533  43.960 -0.0828 -0.2394  0.0118
 4009W        W 6209  10.384   3.648   3.716 -0.1718 -0.2051  0.2121
 4010W        W 6210   2.104   0.378  28.989  0.0839  0.0730  0.2350
 4011W        W 6211  18.127   1.541  42.193 -0.0228  0.0107 -0.1145
 4012W        W 6212   9.326   5.897  19.827 -0.0403 -0.0126  0.2701
 4013W        W 6213   1.476   3.277  11.951  0.0136  0.0056  0.1453
 4014W        W 6214  18.895   1.636  35.049  0.0522  0.1758  0.1144
 4015W        W 6215   4.413   1.122   2.323  0.3316  0.1173 -0.1113
 4016W        W 6216  17.301   3.958   8.852  0.0234  0.2772 -0.0306
 4017W        W 6217  20.665   0.590  30.093 -0.2158  0.1329 -0.1154
 4018W        W 6218   1.160   0.112  14.238  0.1504 -0.0485 -0.0780
 4019W        W 6219  11.554   3.913  34.364  0.0049  0.0388  0.0758
 4020W        W 6220  16.886   1.746  39.681 -0.3584  0.0993  0.0798
 4021W        W 6221   1.982   0.707  15.818 -0.0361  0.0743  0.1193
 4022W        W 6222   8.743   3.088  20.834  0.0676 -0.1079 -0.2742
 4023W        W 6223   1.169   5.479  12.349 -0.2333  0.0289  0.4006
 4024W        W 6224  15.345   3.030  16.884  0.1150  0.2380  0.2709
 4025W        W 6225   0.716   2.778  39.123  0.1009  0.0622  0.0400
 4026W        W 6226  13.544   0.480  33.036 -0.1746 -0.1266 -0.0045
 4027W        W 6227   6.442   0.239   5.476  0.1567  0.2175  0.2364
 4028W        W 6228   9.426   1.258   5.698  0.1125 -0.1575  0.0917
 4029W        W 6229  14.552   1.399  15.936 -0.0138  0.2377  0.3584
 4030W        W 6230  20.322   6.560   3.367  0.0744  0.0493 -0.2779
 4031W        W 6231   6.628   1.864  17.459 -0.1898  0.1258  0.1108
 4032W        W 6232  13.644   3.736   7.856 -0.0547 -0.1058  0.1704
 4033W        W 6233  12.197   6.486  36.453 -0.0073 -0.0864  0.1365
 4034W        W 6234  20.288   4.262   4.564  0.1778  0.1132 -0.0952
 4035W        W 6235  19.739   1.683  20.078 -0.1695 -0.0246  0.0326
 4036W        W 6236  16.123   4.299  28.509  0.4182  0.1730  0.1489
 4037W        W 6237  18.002   5.200  27.919  0.2556  0.0201  0.0666
 4038W        W 6238   8.261   4.175   0.665  0.1923  0.1961 -0.2476
 4039W        W 6239  10.874   3.389  32.275  0.3059  0.0839  0.2419
 4040W        W 6240  16.669   2.288   1.947 -0.0430 -0.0362  0.0227
 4041W        W 6241  12.589   5.786  30.694  0.2209 -0.2340 -0.0817
 4042W        W 6242   3.164   1.885   3.466 -0.0941  0.1041 -0.1193
 4043W        W 6243   1.346   2.167  31.728 -0.1487 -0.0394  0.0768
 4044W        W 6244  12.043   2.573  29.792 -0.2333  0.1874  0.0346
 4045W        W 6245  20.715   6.018   9.760  0.0057  0.3695 -0.2974
 4046W        W 6246  11.135   2.568   4.761 -0.2318 -0.3330 -0.1273
 4047W        W 6247   9.577   2.529   3.140  0.1978  0.2003 -0.1464
 4048W        W 6248   3.889   2.199  32.036 -0.0798  0.0679 -0.2655
 4049W        W 6249  13.746   0.278   0.481  0.0755  0.1501  0.2650
 4050W        W 6250  18.608   3.490   9.323 -0.0834 -0.1121  0.3255
 4051W        W 6251  10.871   5.960  17.868  0.3344  0.2150  0.0796
 4052W        W 6252  20.710   3.609  23.413 -0.0403  0.1413  0.0050
 4053W        W 6253  11.874   2.409  40.316 -0.1649  0.1801  0.2568
 4054W        W 6254  20.166   5.110   4.407  0.0491 -0.0706  0.0844
 4055W        W 6255  20.023   0.705  24.974 -0.0727 -0.0372 -0.2944
 4056W        W 6256   0.947   0.842  39.493  0.1047  0.0812 -0.1726
 4057W        W 6257   9.840   5.849  44.533 -0.1326  0.0947  0.0000
 4058W        W 6258  11.107   6.465  18.677  0.2327 -0.1704  0.2678
 4059W        W 6259   6.915   6.299  38.073 -0.1496 -0.0748  0.0926
 4060W        W 6260   5.856   6.216   4.717  0.1531  0.0635  0.3802
 4061W        W 6261  15.533   2.280  11.933  0.2114 -0.1081  0.0988
 4062W        W 6262  11.196   0.593  34.512  0.1338 -0.0548  0.1991
 4063W        W 6263   1.089   4.244  36.049  0.0827 -0.1429  0.0287
 4064W        W 6264   7.914   5.539  36.972 -0.0002  0.0826 -0.1179
 4065W        W 6265   2.887   0.163   2.534  0.2290  0.1465 -0.0822
 4066W        W 6266  16.960   2.692  27.759  0.0789 -0.2099  0.0609
 4067W        W 6267  18.047   5.461  34.550  0.0268  0.2455  0.1106
 4068W        W 6268   9.081   0.567  14.495 -0.1859 -0.0451  0.0706
 4069W        W 6269   7.242   1.476   1.438 -0.0883 -0.0879 -0.0122
 4070W        W 6270  16.738   6.284  10.394  0.1068 -0.0394 -0.0452
 4071W        W 6271   0.968   5.336   2.645 -0.0696  0.4851  0.3364
 4072W        W 6272  19.712   5.735  26.613  0.0743 -0.1851 -0.0409
 4073W        W 6273  15.611   2.254  25.953  0.0941 -0.0905  0.2252
 4074W        W 6274  15.393   3.669   7.124  0.3615 -0.0613  0.0338
 4075W        W 6275   6.176   3.113   0.392 -0.0792  0.0733 -0.0008
 4076W        W 6276  20.305   1.003  30.491 -0.0376  0.1393 -0.1821
 4077W        W 6277  12.746   4.293   0.596 -0.0543 -0.0375 -0.1339
 4078W        W 6278   4.741   1.855  37.804 -0.0210  0.1215  0.0273
 4079W        W 6279  12.458   3.529  42.104  0.3766  0.1238  0.1919
 4080W        W 6280   2.304   3.310   6.687  0.2960  0.0178 -0.0986
 4081W        W 6281   0.993   3.409  16.489  0.1260 -0.4649  0.0244
 4082W        W 6282  21.121   2.544  10.854 -0.0846  0.0172  0.2744
 4083W        W 6283   0.126   0.519   8.936 -0.0693  0.3220 -0.1897
 4084W        W 6284   6.313   4.810  38.991  0.0798 -0.1673 -0.2910
 4085W        W 6285  19.060   3.693  42.930 -0.5227 -0.0415  0.1259
 4086W        W 6286   4.393   0.000  30.100 -0.3135 -0.2362 -0.0733
 4087W        W 6287  18.863   4.862  42.356 -0.0012 -0.1662 -0.2931
 4088W        W 6288  13.310   1.471  13.364 -0.0373 -0.0368 -0.3888
 4089W        W 6289  17.209   5.808  12.361  0.1429 -0.0885 -0.1037
 4090W        W 6290   0.405   2.196  40.752 -0.1706  0.1448 -0.1699
 4091W        W 6291  14.313   1.501   4.115  0.1411 -0.1953  0.1599
 4092W        W 6292  19.123   0.752  38.701 -0.1968  0.1899 -0.0557
 4093W        W 6293  10.592   5.442  22.685  0.0195  0.0333  0.0921
 4094W        W 6294  17.569   4.538   8.287  0.1123  0.4213  0.0774
 4095W        W 6295  16.789   1.703  26.623  0.1438 -0.0052 -0.3391
 4096W        W 6296   8.180   3.436  37.969 -0.0070 -0.1179  0.0383
 4097W        W 6297  10.226   4.141   3.880 -0.0623 -0.0849  0.0583
 4098W        W 6298   9.806   4.451   9.424 -0.1949 -0.1395 -0.1525
 4099W        W 6299   3.363   0.752  10.831  0.1353  0.0966  0.0645
 4100W        W 6300   9.149   3.766  21.674  0.0232  0.2978  0.0559
 4101W        W 6301   1.517   1.208  28.888  0.3557  0.0883 -0.0490
 4102W        W 6302  18.855   3.350  43.254  0.1592  0.1564  0.0427
 4103W        W 6303  14.694   5.659  34.183  0.0892 -0.1530  0.1678
 4104W        W 6304   8.782   1.455  19.766 -0.3078  0.0449  0.2906
 4105W        W 6305   8.782   4.289   9.812 -0.2715 -0.1920 -0.0812
 4106W        W 6306   8.852   3.148  42.948  0.0144 -0.2253  0.1315
 4107W        W 6307   9.171   0.921   3.724  0.2496  0.1948  0.0018
 4108W        W 6308  15.290   5.822  43.912  0.0760  0.0925  0.2296
 4109W        W 6309  18.420   5.555  34.930 -0.1982  0.0719  0.0050
 4110W        W 6310  21.034   5.174  32.368  0.2302  0.0393  0.0035
 4111W        W 6311  18.615   4.768   5.776 -0.1734  0.0701 -0.2106
 4112W        W 6312   7.361   5.995  15.693 -0.0715  0.0958 -0.1091
 4113W        W 6313  13.266   5.774  36.168  0.0126 -0.2764 -0.1404
 4114W        W 6314  13.024   3.421   3.962  0.1905 -0.0092  0.2155
 4115W        W 6315   4.373   3.423  43.481  0.2468  0.3182 -0.2604
 4116W        W 6316  16.441   2.630  13.272 -0.1015  0.0335 -0.1440
 4117W        W 6317   9.818   0.017  29.245  0.3125 -0.0043 -0.0508
 4118W        W 6318  20.105   2.231  40.879  0.0365  0.1774  0.0482
 4119W        W 6319  18.756   6.096  31.588  0.0116  0.0133 -0.1532
 4120W        W 6320   6.515   0.922  39.232  0.2019  0.1159 -0.1960
 4121W        W 6321   8.404   5.967  42.982 -0.0420  0.0448  0.0302
 4122W        W 6322   2.154   4.999  38.112  0.4892  0.2252  0.2699
 4123W        W 6323  16.132   3.686  10.985 -0.0684 -0.1526  0.0390
 4124W        W 6324   2.601   5.656  15.600  0.0055  0.2547 -0.0594
 4125W        W 6325   9.324   1.514  20.666 -0.1164 -0.2293 -0.0571
 4126W        W 6326   2.818   5.412   3.692 -0.0673  0.0080 -0.2832
 4127W        W 6327  16.979   0.102   8.300 -0.1027 -0.1586  0.3092
 4128W        W 6328  16.462   3.397   9.121 -0.0727 -0.0449  0.2777
 4129W        W 6329  15.148   3.187  38.223  0.4146 -0.2269 -0.1396
 4130W        W 6330   1.016   0.201  10.644 -0.0582 -0.2664 -0.2732
 4131W        W 6331  14.171   2.553   5.531 -0.2975 -0.0474 -0.2952
 4132W        W 6332  11.009   1.093   5.314  0.0463  0.0674 -0.0902
 4133W        W 6333  15.732   1.595   7.318  0.1298 -0.0667 -0.0852
 4134W        W 6334  11.578   4.321   9.208 -0.1043  0.1503 -0.2547
 4135W        W 6335  16.284   0.907  11.043  0.3481 -0.2126  0.2747
 4136W        W 6336   7.172   3.944  37.326 -0.0203 -0.1877  0.0590
 4137W        W 6337  17.470   2.902  31.058  0.0967  0.0190  0.2261
 4138W        W 6338  15.108   2.320   5.647 -0.1322 -0.0382  0.1815
 4139W        W 6339  21.102   5.984  32.490 -0.0097  0.1423 -0.2088
 4140W        W 6340  17.014   4.485  38.042 -0.3200 -0.0301 -0.2603
 4141W        W 6341  13.580   1.442  12.728 -0.1226  0.0211 -0.1705
 4142W        W 6342   0.566   6.231   1.437  0.0940 -0.0030 -0.0665
 4143W        W 6343   6.393   3.604  14.983  0.2439  0.1395  0.2013
 4144W        W 6344   8.755   4.843  38.477 -0.1000  0.0476  0.0097
 4145W        W 6345   2.027   2.853  31.221 -0.1229  0.2571 -0.3559
 4146W        W 6346  12.545   5.799   7.556  0.2360  0.1861  0.0718
 4147W        W 6347  14.311   5.065  19.220 -0.1981  0.2027 -0.0560
 4148W        W 6348  18.083   4.424   4.067  0.0788  0.1497  0.3420
 4149W        W 6349  12.956   4.545  30.336  0.0553 -0.1460 -0.3329
 4150W        W 6350  10.498   6.322  20.925 -0.1487 -0.0083 -0.0303
 4151W        W 6351  15.242   0.340  40.443 -0.1003 -0.0486 -0.2497
 4152W        W 6352   0.916   2.662  36.185  0.0134  0.0799 -0.4272
 4153W        W 6353   2.275   2.297  40.078  0.1811 -0.2187  0.1072
 4154W        W 6354   6.898   5.513   1.198  0.1832  0.2607  0.0893
 4155W        W 6355  20.316   5.056  12.280  0.0192 -0.0488 -0.0913
 4156W        W 6356   7.913   6.591  39.167 -0.0940 -0.0088  0.0513
 4157W        W 6357  18.969   0.727   9.064 -0.2903 -0.1727 -0.3997
 4158W        W 6358  10.311   2.308  41.444  0.0412 -0.0395  0.4625
 4159W        W 6359   4.681   0.795  39.963 -0.0710 -0.1417 -0.1903
 4160W        W 6360   6.616   2.446  39.836 -0.0349 -0.1579  0.2159
 4161W        W 6361   6.456   1.041  18.383 -0.1019  0.1535 -0.0770
 4162W        W 6362  19.914   5.210   5.316 -0.0667 -0.2176  0.0905
 4163W        W 6363  14.405   4.118   0.834 -0.0673  0.1428 -0.1682
 4164W        W 6364  18.503   4.224  11.253 -0.0166  0.0546  0.4704
 4165W        W 6365  17.519   0.399  14.768  0.1986  0.3437  0.2367
 4166W        W 6366  13.723   4.246  31.457  0.1939 -0.0271  0.1480
 4167W        W 6367   9.324   2.212  16.892 -0.1265  0.2096  0.1033
 4168W        W 6368  16.816   0.188  35.204  0.4386  0.1062  0.3619
 4169W        W 6369   5.256   0.945   4.417 -0.0360 -0.1844  0.1010
 4170W        W 6370   7.232   6.187   7.769 -0.0714 -0.0573 -0.1470
 4171W        W 6371  13.788   4.251  19.456 -0.2987 -0.0156  0.0969
 4172W        W 6372   5.954   4.962  18.406  0.1030 -0.0085  0.0925
 4173W        W 6373  20.783   1.949  42.550 -0.1398 -0.0954 -0.1238
 4174W        W 6374   8.979   5.313  30.621 -0.2311  0.0242 -0.2214
 4175W        W 6375  16.976   1.952  37.949  0.0124 -0.2978  0.0517
 4176W        W 6376  12.769   3.699  37.740 -0.2900  0.3928 -0.1047
 4177W        W 6377   1.466   2.051  25.525  0.3273  0.0291 -0.1389
 4178W        W 6378   4.982   6.188  38.469 -0.1335  0.2634 -0.2536
 4179W        W 6379  17.766   5.084   4.972 -0.0617 -0.1123 -0.1132
 4180W        W 6380  12.498   6.493  37.729  0.0471 -0.1359 -0.0089
 4181W        W 6381  14.468   1.724  10.460  0.1018 -0.2175 -0.1479
 4182W        W 6382  19.636   6.581  44.204  0.3324 -0.2123 -0.1000
 4183W        W 6383   2.707   0.991   5.971  0.0190  0.0325 -0.1825
 4184W        W 6384  10.963   4.530   6.233  0.0611 -0.0894 -0.3948
 4185W        W 6385  17.256   4.366  23.697  0.3143 -0.3422 -0.1089
 4186W        W 6386  10.022   5.893  24.076  0.3759  0.2466 -0.0974
 4187W        W 6387  15.895   2.321  17.077 -0.0630  0.0040  0.1348
 4188W        W 6388   1.986   4.020  38.540  0.1692  0.1040  0.2036
 4189W        W 6389  17.085   6.522  13.064 -0.0908  0.1130 -0.2635
 4190W        W 6390  17.983   1.959   5.911 -0.1553 -0.1002 -0.1773
 4191W        W 6391  13.581   1.484  37.795  0.2867 -0.4956 -0.0447
 4192W        W 6392   4.423   5.384  10.243 -0.1482  0.1021  0.1323
 4193W        W 6393  15.986   3.353   9.155  0.1623 -0.0098 -0.0840
 4194W        W 6394   9.997   2.588  21.233  0.1359  0.0573 -0.0317
 4195W        W 6395   6.999   6.451   4.383 -0.1833  0.0184  0.0843
 4196W        W 6396   5.399   5.270  27.988 -0.1319  0.3695  0.2738
 4197W        W 6397   2.810   1.082  11.176  0.4003 -0.0479  0.1061
 4198W        W 6398  18.983   4.340  10.179  0.1636  0.3164 -0.0102
 4199W        W 6399  14.768   4.516  31.131 -0.1040 -0.0623 -0.2154
 4200W        W 6400   2.065   3.444  12.170 -0.0839  0.0404  0.1386
 4201W        W 6401   3.141   0.056  15.843  0.1545  0.2152  0.4840
 4202W        W 6402   5.158   4.342  37.476  0.0015  0.1565 -0.0273
 4203W        W 6403   4.212   1.527  33.363 -0.1852 -0.0362  0.1208
 4204W        W 6404  10.678   3.449  37.436 -0.1009  0.3391 -0.1129
 4205W        W 6405  15.703   1.465   0.891  0.2080 -0.2387 -0.0862
 4206W        W 6406   4.464   2.036  29.094 -0.0617 -0.3277  0.0638
 4207W        W 6407  10.623   1.765  23.975  0.1551 -0.1825  0.0796
 4208W        W 6408  12.238   5.026  13.776  0.1068 -0.2928 -0.4321
 4209W        W 6409   6.206   2.553  14.690 -0.0083  0.1649  0.0038
 4210W        W 6410  11.922   4.900   3.473  0.2535  0.0343 -0.2118
 4211W        W 6411  11.652   4.873  29.923 -0.3339  0.1976  0.2014
 4212W        W 6412   7.571   4.533   1.780  0.0041  0.1571 -0.1329
 4213W        W 6413  12.678   4.813  44.890  0.1167 -0.0157 -0.0139
 4214W        W 6414  14.756   6.184  18.370 -0.0581 -0.1316 -0.1653
 4215W        W 6415  17.561   4.043  13.269 -0.0433 -0.0127  0.0195
 4216W        W 6416  11.363   2.965   5.712  0.1613  0.2347 -0.3192
 4217W        W 6417  21.105   3.567   7.726  0.4052  0.2272 -0.1162
 4218W        W 6418  11.892   1.402  13.624 -0.2398  0.0607  0.3810
 4219W        W 6419   5.644   3.554   8.082  0.1448  0.3396  0.1154
 4220W        W 6420  17.740   0.398  37.086  0.0635  0.0243 -0.0233
 4221W        W 6421  11.514   4.806  31.876  0.2003 -0.2570  0.1679
 4222W        W 6422   8.554   3.885  16.998  0.1906  0.2031 -0.2124
 4223W        W 6423  18.417   4.286  25.874  0.0025  0.0152 -0.1521
 4224W        W 6424   8.066   5.219  22.903 -0.0340 -0.0143 -0.2307
 4225W        W 6425   0.880   6.154  36.687 -0.1204 -0.0504 -0.0822
 4226W        W 6426   2.638   6.471  39.609 -0.0927  0.0265 -0.0615
 4227W        W 6427   0.756   3.510   4.128  0.0970 -0.0762  0.1012
 4228W        W 6428   9.864   5.262  10.975 -0.3168  0.2510  0.2376
 4229W        W 6429  18.712   2.833   8.910 -0.1458  0.0329 -0.4874
 4230W        W 6430  10.316   6.555  44.818 -0.0400 -0.2291 -0.1067
 4231W        W 6431   8.543   4.894  43.251 -0.3697 -0.1485 -0.1165
 4232W        W 6432  11.339   6.535   3.389  0.1038 -0.0676  0.0341
 4233W        W 6433  17.999   0.944  41.273 -0.1493 -0.0990 -0.1051
 4234W        W 6434  17.101   3.740   6.524  0.0678  0.0156 -0.0290
 4235W        W 6435   7.357   2.383  34.536 -0.0923 -0.3727  0.0707
 4236W        W 6436   0.924   2.612  43.367 -0.1043 -0.1020  0.0410
 4237W        W 6437   1.617   6.589   3.196  0.0607  0.0925 -0.1448
 4238W        W 6438   8.179   3.911   7.496  0.0571  0.1730 -0.0331
 4239W        W 6439   0.310   1.515  32.070  0.3047  0.0658  0.1872
 4240W        W 6440   7.089   3.864  44.368  0.2252 -0.0146  0.2867
 4241W        W 6441  18.292   2.392  43.273 -0.1539 -0.0484 -0.1315
 4242W        W 6442   5.967   2.854  30.751 -0.3389 -0.0288 -0.2919
 4243W        W 6443   3.255   0.820   5.919  0.0302 -0.0438 -0.3995
 4244W        W 6444   5.673   2.017  33.353  0.0122 -0.1304  0.2114
 4245W        W 6445  19.508   0.045  28.193 -0.0667  0.0795 -0.0779
 4246W        W 6446  15.793   2.703   6.305  0.0477  0.0982 -0.0046
 4247W        W 6447   4.597   3.468  41.498  0.0843 -0.2895  0.0772
 4248W        W 6448   4.363   3.636  37.671 -0.0595 -0.1324 -0.0348
 4249W        W 6449  11.599   4.408  34.230  0.1177 -0.1435 -0.1487
 4250W        W 6450  13.599   2.769  28.348  0.1122  0.2915 -0.1389
 4251W        W 6451   6.268   0.520  38.889 -0.0825  0.1700 -0.2087
 4252W        W 6452  13.571   2.411  44.838 -0.2408 -0.1099  0.0382
 4253W        W 6453  14.048   4.005  28.167 -0.1137  0.1307 -0.2113
 4254W        W 6454   1.544   5.719  39.285 -0.1796  0.0295 -0.0822
 4255W        W 6455   8.662   2.150  30.169 -0.0639  0.2769 -0.2665
 4256W        W 6456   5.343   4.799  16.866 -0.0097  0.2138 -0.1394
 4257W        W 6457   1.022   1.103  13.892  0.1090 -0.1853 -0.0638
 4258W        W 6458  10.415   0.291  23.390 -0.0756  0.1176  0.1273
 4259W        W 6459  12.255   1.094  33.523 -0.3532 -0.0322 -0.0216
 4260W        W 6460  18.699   0.602  39.533  0.4601  0.2170  0.0870
 4261W        W 6461   9.216   2.143  32.062  0.0653  0.2360  0.0182
 4262W        W 6462  20.960   4.471  15.400  0.0880 -0.2361 -0.0981
 4263W        W 6463   6.135   3.692  12.160 -0.1229 -0.2403 -0.0197
 4264W        W 6464   3.698   5.618   2.015  0.0850  0.0409 -0.2883
 4265W        W 6465   7.821   1.140  19.388  0.1919 -0.0002 -0.0922
 4266W        W 6466   6.979   2.088  41.468  0.1696 -0.3357  0.2012
 4267W        W 6467  17.101   3.683   9.650 -0.1116  0.1017 -0.2637
 4268W        W 6468   9.559   2.900   6.005 -0.2958 -0.0231 -0.1267
 4269W        W 6469  17.073   6.441  37.290 -0.1493 -0.1379  0.1996
 4270W        W 6470  19.453   0.620  33.908 -0.0033  0.1625  0.0921
 4271W        W 6471   3.681   6.568  41.342  0.0845 -0.0963 -0.3088
 4272W        W 6472  10.947   4.488  13.238 -0.1755 -0.0438 -0.0759
 4273W        W 6473   3.608   5.519  43.507  0.3052 -0.2469 -0.0236
 4274W        W 6474  16.707   3.016  29.066 -0.1715 -0.0424  0.0240
 4275W        W 6475   1.813   4.537  25.423  0.0332  0.1014 -0.2124
 4276W        W 6476  16.525   1.468  23.953  0.1185 -0.0525  0.1229
 4277W        W 6477  11.448   0.372  20.307  0.1824 -0.1285  0.0452
 4278W        W 6478  18.215   1.326   5.146 -0.0276 -0.0591  0.1695
 4279W        W 6479  18.380   1.022  37.727 -0.1946  0.1513 -0.0557
 4280W        W 6480   7.836   0.534   4.724 -0.1136  0.2389  0.0690
 4281W        W 6481   8.658   6.204  36.281 -0.2165 -0.1613  0.2774
 4282W        W 6482   6.612   1.910  30.666 -0.1294  0.0403  0.1554
 4283W        W 6483   4.366   3.708   6.653  0.2017 -0.0171  0.1181
 4284W        W 6484   7.406   2.762  18.656 -0.0975 -0.0346 -0.2623
 4285W        W 6485  13.617   2.329  16.891  0.0949  0.1132 -0.0134
 4286W        W 6486  17.359   0.002   8.693 -0.0981  0.1457 -0.1289
 4287W        W 6487   1.896   5.454  34.290 -0.1251  0.1462  0.0335
 4288W        W 6488  12.411   0.161  40.234  0.1510 -0.0162 -0.0524
 4289W        W 6489  17.422   5.661  24.815 -0.1277 -0.0394 -0.0113
 4290W        W 6490  16.275   4.122  37.062  0.1169 -0.0215 -0.0467
 4291W        W 6491  13.055   2.098  42.482  0.0142 -0.1527  0.0791
 4292W        W 6492  18.601   0.873  30.540 -0.2191  0.0147 -0.1509
 4293W        W 6493   3.246   6.563   5.386  0.0975 -0.4160  0.1272
 4294W        W 6494  19.528   5.442  13.190 -0.1230  0.0125 -0.1693
 4295W        W 6495  18.749   6.038   7.055 -0.0349 -0.0626 -0.3366
 4296W        W 6496   1.331   4.689  44.172 -0.2424  0.0982 -0.0344
 4297W        W 6497  19.486   0.360  23.697 -0.4065  0.2281  0.3073
 4298W        W 6498  14.226   1.271   4.743  0.3771 -0.0184 -0.2353
 4299W        W 6499  17.547   0.235   6.180  0.3558  0.1189 -0.1951
 4300W        W 6500   6.752   1.688  40.322 -0.0130 -0.0749  0.0878
 4301W        W 6501   6.198   2.294  33.161  0.0268 -0.2332 -0.2929
 4302W        W 6502   0.927   5.859   0.471 -0.0402  0.1397 -0.0874
 4303W        W 6503  10.281   6.002  41.057  0.2627  0.0100  0.3522
 4304W        W 6504   3.836   2.915  13.580 -0.2451  0.4023  0.0093
 4305W        W 6505  13.571   3.896  27.995 -0.0792  0.0416  0.0413
 4306W        W 6506  11.247   6.337  11.981  0.0832 -0.0024 -0.1373
 4307W        W 6507  10.982   2.608  21.643 -0.0984  0.0856  0.0900
 4308W        W 6508   6.622   1.231  18.894  0.0592 -0.1568  0.0224
 4309W        W 6509  15.805   1.235  37.273  0.0103 -0.2631 -0.1068
 4310W        W 6510   0.133   1.381   6.925 -0.3881  0.3813  0.1037
 4311W        W 6511   2.860   5.470   2.399  0.0665 -0.2088 -0.0032
 4312W        W 6512   0.018   0.670  25.788  0.0487 -0.3702 -0.0574
 4313W        W 6513   9.371   1.295  40.272 -0.0317 -0.0398 -0.3116
 4314W        W 6514  13.760   4.675  17.082  0.1627  0.0543  0.2124
 4315W        W 6515   6.403   5.675  19.363 -0.1983  0.1644 -0.1814
 4316W        W 6516   0.816   4.814  38.385  0.1764 -0.2483 -0.3559
 4317W        W 6517  11.862   3.159  15.632 -0.0688 -0.3358 -0.2167
 4318W        W 6518   4.517   4.258  28.919  0.2292  0.0665  0.0367
 4319W        W 6519   8.551   2.838  29.822  0.0912  0.0853  0.2053
 4320W        W 6520   9.248   0.502  34.156 -0.1361 -0.0360 -0.2471
 4321W        W 6521   3.389   3.983  26.342  0.1592 -0.0398  0.2135
 4322W        W 6522  11.449   4.425  43.580  0.1773 -0.1036 -0.0355
 4323W        W 6523  14.419   6.193  37.861 -0.0342 -0.0185  0.2914
 4324W        W 6524  10.770   2.256  38.718  0.1379  0.2492  0.0608
 4325W        W 6525   0.361   2.120  32.973 -0.2439 -0.2653 -0.1525
 4326W        W 6526   5.580   1.729   5.722 -0.1630 -0.0520 -0.0477
 4327W        W 6527  10.797   5.606  43.678  0.1965 -0.1196 -0.0991
 4328W        W 6528  11.895   1.434  31.743  0.1575  0.1488 -0.1120
 4329W        W 6529  14.084   0.735  10.435  0.0772 -0.1275  0.1162
 4330W        W 6530  12.551   3.532   1.979 -0.1849 -0.2023 -0.0625
 4331W        W 6531  14.045   3.889   3.668  0.0817  0.1408  0.1863
 4332W        W 6532  21.133   1.125   8.303  0.2373 -0.0479 -0.1199
 4333W        W 6533   2.839   1.952  37.342 -0.2181 -0.1660 -0.2696
 4334W        W 6534   3.298   4.262  14.686 -0.2151  0.0951 -0.0320
 4335W        W 6535  19.568   2.452   7.207 -0.0022 -0.0321 -0.1885
 4336W        W 6536  10.791   4.123   8.574 -0.0972  0.2612 -0.0272
 4337W        W 6537   8.312   2.343  21.980  0.0853  0.2230  0.0068
 4338W        W 6538  19.088   2.153   0.480 -0.2319  0.1035 -0.1126
 4339W        W 6539  15.959   4.201  33.182 -0.2553  0.0167  0.2635
 4340W        W 6540   1.128   1.613  24.920 -0.5688 -0.2791 -0.1284
 4341W        W 6541   1.142   2.139  22.953  0.0931  0.2054 -0.4749
 4342W        W 6542   9.439   3.903  35.498 -0.0493 -0.0809  0.3162
 4343W        W 6543   0.301   5.241  40.417 -0.1558  0.1562 -0.3177
 4344W        W 6544  14.579   4.109   8.588 -0.2033  0.1093  0.2008
 4345W        W 6545  17.954   0.506  41.562 -0.1918 -0.1969  0.1842
 4346W        W 6546   1.111   1.860  33.791 -0.0163  0.0559  0.0433
 4347W        W 6547   5.547   4.950   3.201 -0.0774  0.1483 -0.2536
 4348W        W 6548   0.380   1.806  41.202  0.0217 -0.0632  0.3085
 4349W        W 6549   7.030   0.444  37.689  0.3826 -0.1314  0.0543
 4350W        W 6550  12.436   0.365   4.337  0.0350  0.1389 -0.0494
 4351W        W 6551  18.997   1.786  43.614  0.0327 -0.1514 -0.0201
 4352W        W 6552  18.019   3.780  29.660 -0.0236  0.7067  0.1558
 4353W        W 6553   9.523   0.552  33.743 -0.0562 -0.3205  0.1035
 4354W        W 6554  12.001   6.254  22.929 -0.1550 -0.1645  0.0444
 4355W        W 6555   2.659   6.440   8.631  0.0746  0.2196  0.0536
 4356W        W 6556  17.333   0.603  27.887 -0.0155  0.0576  0.3111
 4357W        W 6557   7.045   2.469   0.514  0.2313  0.0185  0.1351
 4358W        W 6558  17.431   4.861   8.630 -0.0049  0.2359 -0.0812
 4359W        W 6559  19.000   2.436  26.528 -0.2059  0.1189 -0.3401
 4360W        W 6560  10.223   4.360  32.892 -0.0657  0.1374  0.0139
 4361W        W 6561  11.217   3.260  33.541  0.1157 -0.0906  0.1156
 4362W        W 6562   5.543   1.912  44.355 -0.1313  0.0200  0.1200
 4363W        W 6563   3.156   0.634   8.420  0.0705 -0.0409  0.0513
 4364W        W 6564  18.579   3.116  21.754  0.0943 -0.1449 -0.1072
 4365W        W 6565  19.630   3.665   5.308 -0.1453 -0.0236 -0.1003
 4366W        W 6566   5.455   3.939  17.128 -0.4631 -0.0753  0.2771
 4367W        W 6567   6.574   1.977   1.066 -0.0449  0.0876  0.1532
 4368W        W 6568  15.068   1.696  10.444  0.0432  0.0778  0.2643
 4369W        W 6569  10.128   6.264   5.612 -0.0391 -0.2479  0.0771
 4370W        W 6570  19.007   0.245   9.275 -0.4215  0.0627 -0.2018
 4371W        W 6571   1.232   6.478  14.787  0.0013  0.0111 -0.0972
 4372W        W 6572   7.130   2.623  10.628 -0.2530  0.0650 -0.2078
 4373W        W 6573   2.068   2.477  15.352  0.2836  0.0320  0.2781
 4374W        W 6574  20.906   4.299  27.120  0.2984 -0.0965  0.0501
 4375W        W 6575  18.579   0.854   2.048 -0.0055 -0.0464 -0.0422
 4376W        W 6576  10.114   4.976  40.802 -0.0911  0.0815 -0.2265
 4377W        W 6577   7.123   5.089  44.632  0.2533 -0.0836  0.0125
 4378W        W 6578  13.166   0.523   8.537 -0.0570  0.0987 -0.1538
 4379W        W 6579  11.958   2.953  16.449 -0.0135 -0.1467 -0.0729
 4380W        W 6580  17.566   2.530  23.507 -0.2730  0.1279  0.1476
 4381W        W 6581  10.396   1.475  15.374  0.1928 -0.0426  0.0203
 4382W        W 6582  15.240   6.039  36.912 -0.2284 -0.0486  0.0061
 4383W        W 6583  14.851   0.324   9.827  0.3955  0.3482 -0.0288
 4384W        W 6584  19.573   5.658  32.427  0.1120 -0.1669  0.2770
 4385W        W 6585  11.530   2.989   3.188 -0.0369 -0.0089  0.1766
 4386W        W 6586  13.087   1.462  12.833 -0.0990  0.0392  0.1049
 4387W        W 6587   6.040   3.187  15.705  0.1053 -0.0559 -0.0413
 4388W        W 6588  13.663   5.256  31.238 -0.0926  0.0826  0.0592
 4389W        W 6589  13.533   2.322   7.418 -0.0558  0.1418  0.0094
 4390W        W 6590  11.214   6.222  36.138 -0.2178  0.0326 -0.0354
 4391W        W 6591  10.278   2.086  21.807  0.0538  0.2418 -0.1299
 4392W        W 6592  19.772   4.332  44.001 -0.2993 -0.2569 -0.1288
 4393W        W 6593  16.463   3.398  13.839  0.0676 -0.0786  0.0801
 4394W        W 6594  18.595   3.544  28.849 -0.1515 -0.1282  0.0026
 4395W        W 6595  10.300   4.542  45.070  0.2922 -0.0840  0.0266
 4396W        W 6596   6.783   4.578   0.275 -0.0221  0.1842  0.1644
 4397W        W 6597   7.086   4.328  43.319  0.1326 -0.0319  0.0489
 4398W        W 6598   3.142   3.936  37.065 -0.2320  0.2255 -0.0673
 4399W        W 6599   2.547   1.074  11.619  0.0583 -0.0048 -0.3089
 4400W        W 6600  12.654   2.065  29.268 -0.3128 -0.0361  0.0682
 4401W        W 6601  18.570   3.257  15.494  0.1429 -0.2284  0.2652
 4402W        W 6602   1.546   3.880  22.515 -0.0926 -0.3713 -0.0721
 4403W        W 6603  17.887   1.330  30.159  0.0103  0.0660 -0.2013
 4404W        W 6604   5.203   1.849   5.031 -0.1787  0.1406  0.3733
 4405W        W 6605  14.714   3.475  15.193  0.1102  0.0365 -0.0260
 4406W        W 6606   9.555   1.902  12.545  0.2154  0.0711 -0.1393
 4407W        W 6607   0.267   1.793  13.849  0.1595  0.1102 -0.0550
 4408W        W 6608  12.735   0.112  33.391 -0.0167 -0.1146 -0.1239
 4409W        W 6609   9.777   3.955  32.204 -0.0928 -0.0563 -0.0463
 4410W        W 6610   8.149   1.255  30.291  0.1179 -0.0515  0.1716
 4411W        W 6611  11.469   3.192  38.657  0.1181  0.0014 -0.1073
 4412W        W 6612  14.369   1.410  29.855  0.1460  0.2130 -0.2673
 4413W        W 6613  14.869   0.105  36.354 -0.0736  0.0458  0.0790
 4414W        W 6614   6.203   6.465  29.953 -0.1895 -0.0071  0.2743
 4415W        W 6615  20.943   6.205  38.957 -0.5099 -0.1412  0.1376
 4416W        W 6616   1.562   5.155  44.280  0.0712  0.0088  0.0259
 4417W        W 6617  10.554   0.330  35.586 -0.0889 -0.4103 -0.2344
 4418W        W 6618  19.035   0.825   4.473  0.0376  0.1439  0.3904
 4419W        W 6619   0.706   1.637  24.068  0.2589  0.0069 -0.3244
 4420W        W 6620   1.917   6.084  39.287 -0.2111 -0.2490 -0.1887
 4421W        W 6621  10.781   5.521   3.982 -0.0134 -0.0931  0.0605
 4422W        W 6622   7.950   1.277   8.401 -0.3296  0.1970 -0.1138
 4423W        W 6623  15.385   1.744  27.677 -0.0129  0.1439 -0.3573
 4424W        W 6624   5.282   2.793  36.933 -0.1475  0.1910  0.0099
 4425W        W 6625  14.971   2.332  44.783 -0.1445  0.0766 -0.0305
 4426W        W 6626  15.357   3.939  35.505  0.0368 -0.0550  0.0018
 4427W        W 6627   1.177   4.069  43.145 -0.2901  0.0159  0.2368
 4428W        W 6628  20.862   2.284  11.244 -0.0360 -0.0847  0.1787
 4429W        W 6629   7.000   4.034   4.461  0.2000 -0.0416 -0.1061
 4430W        W 6630   6.406   2.372   5.555 -0.1141 -0.0821  0.1901
 4431W        W 6631   6.661   6.409  41.065 -0.1780 -0.3533  0.0361
 4432W        W 6632   0.594   5.541  10.541 -0.2815 -0.1561 -0.2101
 4433W        W 6633   9.977   4.502  43.558 -0.1607 -0.2111  0.2017
 4434W        W 6634  10.558   2.223  36.663 -0.1610 -0.0985  0.0884
 4435W        W 6635  13.332   1.356   3.660  0.1025 -0.4455 -0.3292
 4436W        W 6636  14.709   0.046   6.210  0.0082  0.0088  0.0683
 4437W        W 6637   2.011   0.946  24.911  0.3816  0.3357 -0.1495
 4438W        W 6638   9.770   6.280  32.962 -0.1247 -0.2093 -0.0301
 4439W        W 6639   2.276   0.548  32.561 -0.0712  0.1331  0.0938
 4440W        W 6640  14.207   6.578  37.480 -0.1694 -0.3378  0.1249
 4441W        W 6641  12.988   0.139   0.830  0.0893 -0.1854 -0.2305
 4442W        W 6642   5.443   0.586  20.610 -0.1373 -0.2000 -0.1153
 4443W        W 6643  16.699   4.708  39.277 -0.1513  0.2580  0.5127
 4444W        W 6644   6.482   5.249  31.549  0.0748 -0.0115 -0.0708
 4445W        W 6645  12.295   0.271  10.795 -0.1367 -0.0348  0.0883
 4446W        W 6646  19.809   6.026  31.515 -0.0348  0.0147 -0.2242
 4447W        W 6647  10.551   4.576  17.170  0.1201 -0.1138  0.1828
 4448W        W 6648   7.298   6.530  41.627 -0.4606  0.1211  0.2024
 4449W        W 6649  16.584   0.188  43.346 -0.0838  0.0333 -0.0451
 4450W        W 6650   4.604   0.057  39.250  0.1791 -0.0232 -0.3332
 4451W        W 6651   6.267   6.602  34.090  0.1926 -0.0867 -0.0924
 4452W        W 6652  18.961   4.671  11.561 -0.3653 -0.2285 -0.1395
 4453W        W 6653  14.161   5.756  28.650 -0.1604  0.0653 -0.0700
 4454W        W 6654  13.634   2.978  36.967  0.0961  0.1643 -0.1677
 4455W        W 6655   2.147   6.204  15.832 -0.1321  0.0125 -0.0678
 4456W        W 6656   8.780   2.715  11.982 -0.1331  0.3109  0.3745
 4457W        W 6657   4.405   0.315  44.154 -0.0514 -0.0213  0.0780
 4458W        W 6658   9.907   2.200  43.769  0.0166  0.2168 -0.2473
 4459W        W 6659   5.786   6.167  29.265 -0.0392 -0.1338  0.2814
 4460W        W 6660  12.900   2.412  11.371 -0.0765  0.1428 -0.0872
 4461W        W 6661  15.567   1.656   6.099  0.0865 -0.0120  0.0480
 4462W        W 6662  17.068   6.302   3.180 -0.1340 -0.0469 -0.2234
 4463W        W 6663   9.979   4.403  21.435  0.2630 -0.0490 -0.2045
 4464W        W 6664  10.734   3.495  10.441  0.3061  0.2764 -0.2226
 4465W        W 6665  20.048   0.485  10.750 -0.1228  0.0293 -0.0409
 4466W        W 6666  21.055   6.484  28.590 -0.3078 -0.0223 -0.1023
 4467W        W 6667  14.800   6.565  44.363  0.1934 -0.0124 -0.1830
 4468W        W 6668   0.087   0.141  44.435 -0.0401 -0.0477 -0.3788
 4469W        W 6669   2.201   5.299  14.820  0.1096 -0.0682 -0.2072
 4470W        W 6670  12.490   3.907  14.175 -0.2478  0.1303 -0.2093
 4471W        W 6671  19.438   6.207  44.996  0.1970  0.1575  0.1568
 4472W        W 6672   0.658   3.945   8.382 -0.1244  0.0492 -0.2517
 4473W        W 6673  15.448   3.923  30.888 -0.1291 -0.1160  0.0595
 4474W        W 6674   6.918   3.034  30.844 -0.0001 -0.0652 -0.4075
 4475W        W 6675   7.233   4.356  17.908  0.2663  0.0103 -0.0793
 4476W        W 6676   0.707   3.676  44.360 -0.0833 -0.2282  0.0991
 4477W        W 6677  17.407   1.599  28.823  0.1856  0.0585 -0.0384
 4478W        W 6678   9.238   0.718   4.641 -0.0535  0.0540 -0.4042
 4479W        W 6679  20.809   0.103  33.154  0.2777  0.0898  0.2582
 4480W        W 6680   0.121   0.403  26.966 -0.0837 -0.1128 -0.1616
 4481W        W 6681   6.088   2.968   8.557 -0.0549 -0.2656 -0.1603
 4482W        W 6682  16.804   3.840   6.959  0.2038  0.0651 -0.1356
 4483W        W 6683  11.639   2.541   3.407  0.2003  0.1289  0.1140
 4484W        W 6684  19.682   1.385  13.035 -0.0919  0.0053 -0.1581
 4485W        W 6685  10.802   3.508   0.910  0.1669 -0.1974  0.2372
 4486W        W 6686   7.510   0.366  16.595 -0.2643  0.1081 -0.2270
 4487W        W 6687  19.393   2.540  20.737  0.1825 -0.1224 -0.0636
 4488W        W 6688   0.910   3.794   7.530  0.0310  0.0975  0.1435
 4489W        W 6689  20.989   5.055  38.314 -0.0421 -0.1677  0.1113
 4490W        W 6690   4.918   5.645  34.663 -0.1476 -0.0625  0.1462
 4491W        W 6691  12.673   4.082  37.470 -0.2741 -0.3078  0.0210
 4492W        W 6692   2.426   3.910  24.749 -0.0376 -0.0601  0.1124
 4493W        W 6693   0.701   6.187  26.513 -0.0888  0.0933 -0.1598
 4494W        W 6694   9.571   2.212  30.775  0.2075 -0.0567  0.0034
 4495W        W 6695   3.636   2.796  32.737 -0.1449 -0.0434 -0.0941
 4496W        W 6696  20.507   1.295  12.979 -0.0411  0.1218  0.1107
 4497W        W 6697   6.734   2.637   2.859  0.0059 -0.1813  0.1132
 4498W        W 6698  17.271   4.589  14.998 -0.1270  0.3226  0.0625
 4499W        W 6699   2.142   5.124  44.968  0.2342  0.1246  0.2070
 4500W        W 6700   6.208   5.071  39.380  0.1800  0.2602  0.0239
 4501W        W 6701  13.176   6.320   8.330 -0.1705 -0.0879 -0.0285
 4502W        W 6702  13.984   0.321  39.058 -0.3054 -0.3769 -0.0094
 4503W        W 6703  20.036   0.636  36.511  0.1461  0.3047  0.0519
 4504W        W 6704  14.364   0.200  30.589 -0.0475  0.1012  0.0561
 4505W        W 6705   3.957   5.239  13.817 -0.1719 -0.0374  0.0386
 4506W        W 6706   9.886   5.608  43.947  0.2667  0.0405 -0.0043
 4507W        W 6707  12.615   4.805  20.803 -0.1245  0.2066  0.1182
 4508W        W 6708   2.293   4.378  38.398 -0.2221  0.0731 -0.2929
 4509W        W 6709  17.713   2.845  11.603  0.0946  0.4211 -0.1833
 4510W        W 6710   0.870   6.407   4.261  0.2158  0.0472 -0.1047
 4511W        W 6711  19.556   5.444  35.910 -0.1336  0.0140  0.2749
 4512W        W 6712  10.830   4.129  40.334 -0.0850 -0.0282 -0.1008
 4513W        W 6713   8.297   0.486  11.024  0.1496 -0.0053  0.3355
 4514W        W 6714  17.079   2.748   8.730 -0.0885  0.2666  0.2513
 4515W        W 6715   5.972   4.874  28.907  0.3211 -0.0137  0.2781
 4516W        W 6716  13.376   5.966  39.413  0.2786  0.1137  0.1006
 4517W        W 6717   3.237   0.905  27.008 -0.1508  0.1194  0.0728
 4518W        W 6718  11.168   4.822  42.702  0.0742 -0.0594 -0.2282
 4519W        W 6719  16.085   3.621   1.769  0.0532 -0.1021 -0.3528
 4520W        W 6720   6.426   5.455   7.452  0.0590 -0.2517 -0.0653
 4521W        W 6721   3.657   0.224  38.736 -0.0100  0.0193 -0.0334
 4522W        W 6722  17.654   3.480   4.893 -0.1523 -0.1206  0.1108
 4523W        W 6723  10.684   0.383  23.771  0.1884  0.0044  0.1107
 4524W        W 6724   9.608   4.227   3.215 -0.2215 -0.0894  0.0662
 4525W        W 6725   2.156   2.675  42.621 -0.0638 -0.0424 -0.0777
 4526W        W 6726  15.487   1.075  32.265 -0.2751  0.1816 -0.0133
 4527W        W 6727  10.731   1.632  15.702 -0.0150  0.0554 -0.0521
 4528W        W 6728   8.666   3.378   0.950  0.2157  0.1853 -0.2015
 4529W        W 6729  20.913   5.698  34.190  0.0659 -0.0085  0.0320
 4530W        W 6730  15.984   4.545  12.135 -0.1306 -0.2105  0.0617
 4531W        W 6731  16.096   3.267  38.293 -0.0780 -0.1093 -0.2736
 4532W        W 6732  16.079   6.230  43.751  0.3085  0.0531 -0.1562
 4533W        W 6733   8.024   0.571  39.217 -0.1983  0.1796 -0.2484
 4534W        W 6734   5.581   4.860  20.151 -0.3486  0.0424  0.1974
 4535W        W 6735  18.902   4.385  22.077 -0.4236 -0.0048 -0.0501
 4536W        W 6736   5.075   0.526   7.575  0.2491  0.0863 -0.0243
 4537W        W 6737   2.324   2.817  43.084 -0.1241  0.1487  0.0870
 4538W        W 6738  10.469   0.027  12.989 -0.2674 -0.1128  0.1337
 4539W        W 6739   2.223   6.525  44.720  0.1566  0.1504 -0.0739
 4540W        W 6740   9.060   0.432   3.823  0.1777  0.1244 -0.1883
 4541W        W 6741   8.454   0.205  43.359 -0.1018  0.1433  0.2630
 4542W        W 6742   9.569   5.284  33.934 -0.0368 -0.0211 -0.2774
 4543W        W 6743  14.065   0.783  36.331  0.0748  0.3446  0.1793
 4544W        W 6744  16.288   3.259  11.178  0.0185  0.0114  0.0391
 4545W        W 6745   4.006   4.135  43.920  0.0862 -0.0781 -0.0132
 4546W        W 6746  13.527   2.854  18.047 -0.1631 -0.0347 -0.0838
 4547W        W 6747   0.115   3.150   9.892  0.1485 -0.0817  0.2499
 4548W        W 6748  17.784   0.986   1.719  0.1454  0.1170 -0.3291
 4549W        W 6749  19.712   1.577   0.953  0.1858 -0.1509  0.1238
 4550W        W 6750  19.274   5.457   5.632 -0.1781  0.1658 -0.1512
 4551W        W 6751  13.020   5.882  42.861  0.1119 -0.2564  0.2131
 4552W        W 6752   1.232   1.838  43.000  0.0857  0.0926 -0.0019
 4553W        W 6753  20.333   6.019  12.083  0.2511 -0.0638  0.3541
 4554W        W 6754  14.930   5.356   0.203  0.0101  0.0788 -0.0236
 4555W        W 6755  20.056   1.099  25.514 -0.2970 -0.2267  0.2010
 4556W        W 6756  10.660   4.612  11.889  0.0152 -0.0626 -0.3785
 4557W        W 6757   6.955   4.452  39.569 -0.0478  0.3785  0.2895
 4558W        W 6758  18.327   4.174   4.621  0.2426  0.2638  0.0331
 4559W        W 6759  15.647   2.232   6.121 -0.0555 -0.0408  0.1155
 4560W        W 6760  10.049   1.246  11.129  0.2192  0.1789 -0.5315
 4561W        W 6761  16.745   1.506  33.252 -0.3093 -0.0546  0.1643
 4562W        W 6762   1.083   5.731  36.434  0.1729 -0.2720  0.4800
 4563W        W 6763  10.550   1.074   7.581  0.0607 -0.0228 -0.0148
 4564W        W 6764  18.871   4.110  40.764  0.0221  0.1470  0.0526
 4565W        W 6765   8.957   3.580  17.269 -0.2047  0.0096  0.0643
 4566W        W 6766  19.080   5.510  10.701 -0.2803 -0.0722  0.0569
 4567W        W 6767  12.435   4.599  34.864  0.0868 -0.2814  0.0522
 4568W        W 6768   9.485   3.884  42.070 -0.1215 -0.0747  0.3411
 4569W        W 6769   1.473   0.890  44.019 -0.0754  0.0800  0.1360
 4570W        W 6770   7.945   5.195  34.840  0.0511  0.1140 -0.0346
 4571W        W 6771   3.601   1.229  12.874  0.1299  0.0199 -0.0601
 4572W        W 6772   7.389   3.135   7.951  0.2086  0.1773  0.3862
 4573W        W 6773   2.411   6.262   6.713 -0.1744  0.3853 -0.0847
 4574W        W 6774   4.187   2.622   6.220  0.0430 -0.0884  0.2445
 4575W        W 6775  10.650   6.213  36.998  0.1686 -0.0886  0.0353
 4576W        W 6776   2.287   3.753   1.914 -0.0276 -0.1142 -0.2495
 4577W        W 6777  16.980   1.100  43.395 -0.0627 -0.0284 -0.0573
 4578W        W 6778   2.363   4.101  16.453  0.2067 -0.4787  0.2846
 4579W        W 6779   0.025   5.403  31.678  0.0619  0.0957  0.2199
 4580W        W 6780  16.198   1.597   1.177 -0.1938  0.0457  0.0092
 4581W        W 6781  12.538   1.103  36.772  0.0808  0.1521  0.2577
 4582W        W 6782   5.421   5.880   8.834 -0.0418  0.1113  0.0760
 4583W        W 6783  16.681   3.078  10.903 -0.0588 -0.1314 -0.1016
 4584W        W 6784  15.581   2.477  31.998  0.0113  0.1840 -0.3774
 4585W        W 6785  16.195   0.453  36.247  0.0256 -0.1003 -0.1579
 4586W        W 6786   4.315   3.814  31.384  0.1369 -0.2655 -0.0292
 4587W        W 6787   3.981   1.479   7.963  0.0540  0.0157  0.2009
 4588W        W 6788  17.901   6.331   6.668 -0.1391  0.0732  0.2570
 4589W        W 6789  11.446   5.644   2.451  0.0304 -0.0617 -0.1715
 4590W        W 6790   5.623   1.583  18.772 -0.0748 -0.2953  0.1147
 4591W        W 6791  15.392   2.671   5.992  0.2084  0.2255  0.3002
 4592W        W 6792   3.817   3.025  27.663 -0.0980  0.2859 -0.1710
 4593W        W 6793  14.393   1.800   9.188 -0.0016 -0.1477  0.2252
 4594W        W 6794  16.501   0.044  25.878  0.2242 -0.0080  0.0167
 4595W        W 6795   2.418   5.960   6.322 -0.1658  0.0325  0.1847
 4596W        W 6796  10.382   5.229   4.204  0.1172 -0.1640  0.0752
 4597W        W 6797  20.003   6.017   6.654 -0.1165  0.0406  0.0891
 4598W        W 6798   6.763   6.530  42.009 -0.0889  0.2535 -0.2634
 4599W        W 6799  12.940   1.414  14.687 -0.1465  0.1725  0.1605
 4600W        W 6800  17.657   3.561  26.383 -0.2046 -0.0860 -0.1002
 4601W        W 6801   1.459   4.304  44.445 -0.1201 -0.1126 -0.0165
 4602W        W 6802  19.663   2.743   4.284  0.1237 -0.0072 -0.0547
 4603W        W 6803  15.437   2.773  28.579  0.0034  0.4246  0.0769
 4604W        W 6804  15.766   1.095  31.430  0.4035  0.1221 -0.0027
 4605W        W 6805  21.017   2.945  24.815  0.1621 -0.0921  0.1912
 4606W        W 6806   8.969   4.769  21.364 -0.0827  0.0911  0.3955
 4607W        W 6807   0.930   0.360  33.420  0.2198 -0.0825  0.0364
 4608W        W 6808   4.584   5.146  39.430 -0.1227 -0.0433  0.1711
 4609W        W 6809   8.308   5.870  30.334  0.0930  0.1727 -0.0076
 4610W        W 6810   6.835   5.508  16.824  0.1461  0.1644 -0.3107
 4611W        W 6811  20.097   5.474   7.974 -0.2335 -0.1145  0.1552
 4612W        W 6812   0.512   5.047  34.039  0.2138  0.1515  0.1388
 4613W        W 6813  19.077   6.435   8.439 -0.1883  0.0216 -0.1394
 4614W        W 6814  11.674   6.182   8.844  0.1253  0.0212 -0.0042
 4615W        W 6815  12.796   2.511  35.460 -0.1216  0.1081  0.1976
 4616W        W 6816  10.854   1.646  12.556 -0.0217 -0.1912 -0.1252
 4617W        W 6817   2.290   1.498  26.299  0.0047  0.0551 -0.0919
 4618W        W 6818   0.635   4.335   6.832 -0.0969 -0.1695 -0.1942
 4619W        W 6819   7.982   2.002   7.683 -0.0513  0.1106  0.1801
 4620W        W 6820  18.035   1.973  26.350 -0.1345  0.0292  0.2249
 4621W        W 6821   1.563   6.450  43.046  0.1873 -0.0719  0.0804
 4622W        W 6822   5.312   5.304  37.472 -0.0699 -0.1044  0.0350
 4623W        W 6823  12.034   4.474  38.994  0.1812  0.1087  0.0347
 4624W        W 6824  16.631   1.632  14.999 -0.0406 -0.0625 -0.3081
 4625W        W 6825   2.865   2.224   8.536  0.1196 -0.3768  0.0549
 4626W        W 6826   7.863   0.067  16.072 -0.1539  0.3013 -0.2906
 4627W        W 6827   2.152   3.619  39.802  0.2101 -0.0811 -0.1204
 4628W        W 6828   1.332   5.262  30.240  0.0144 -0.0103  0.1322
 4629W        W 6829  13.131   1.735  19.855 -0.1900  0.1142  0.1438
 4630W        W 6830  15.990   1.940  39.368 -0.0164  0.2297  0.3381
 4631W        W 6831  10.246   0.071  15.434  0.3262 -0.2378 -0.5680
 4632W        W 6832  15.512   4.593  12.332 -0.0519  0.0908  0.3702
 4633W        W 6833  20.103   2.767  40.313  0.0733 -0.0771  0.4036
 4634W        W 6834  15.430   5.169   1.187 -0.1087 -0.0049 -0.1061
 4635W        W 6835   4.487   3.090  31.818 -0.0385 -0.2861  0.0466
 4636W        W 6836  13.873   1.832   9.862 -0.0392 -0.1580  0.2934
 4637W        W 6837   7.691   6.542  23.216 -0.3403  0.4132  0.1274
 4638W        W 6838   7.737   2.760   8.622  0.0355 -0.0357  0.3687
 4639W        W 6839   9.308   5.138  41.682 -0.0043  0.3167  0.1193
 4640W        W 6840  12.115   4.304  10.683  0.0514  0.3067 -0.1544
 4641W        W 6841   5.757   2.494   5.027 -0.1781  0.2488 -0.0308
 4642W        W 6842   6.500   2.364  15.706 -0.1143  0.0235 -0.1884
 4643W        W 6843  21.121   5.790  13.724 -0.0629  0.0812 -0.1256
 4644W        W 6844  15.959   2.476  25.511 -0.2349  0.1380 -0.1011
 4645W        W 6845  18.776   0.628  37.215  0.0677  0.0444  0.2508
 4646W        W 6846   3.841   2.197   9.229  0.0819  0.2957  0.2274
 4647W        W 6847  12.744   2.626  41.648  0.1059 -0.1901  0.2161
 4648W        W 6848  16.725   4.324  33.606  0.1509  0.3707 -0.0318
 4649W        W 6849  13.738   0.019  29.825  0.1216 -0.0128  0.1706
 4650W        W 6850   5.442   5.244  11.805 -0.0935  0.0773 -0.2738
 4651W        W 6851   2.266   2.274   6.104 -0.0522 -0.1809  0.0281
 4652W        W 6852  10.047   6.586  44.273  0.0423 -0.1481  0.0843
 4653W        W 6853   8.355   5.722  11.844  0.0006 -0.1730 -0.1219
 4654W        W 6854   5.058   4.429   2.120  0.0585  0.1581  0.0069
 4655W        W 6855   4.570   1.795   3.637  0.3219 -0.2485  0.1846
 4656W        W 6856  19.235   4.736  23.706 -0.0250  0.0893 -0.0737
 4657W        W 6857   3.151   5.045  34.680  0.1544 -0.0084  0.0442
 4658W        W 6858  10.482   4.004  39.874  0.1043  0.0597 -0.1900
 4659W        W 6859  16.347   2.724   9.972 -0.0125  0.1488 -0.1858
 4660W        W 6860  16.673   1.075  31.047  0.3803  0.0296 -0.3465
 4661W        W 6861   7.912   2.086  14.449 -0.2767 -0.0224  0.3330
 4662W        W 6862  19.455   3.208  37.419 -0.1846 -0.0524 -0.2012
 4663W        W 6863   8.754   4.272  12.970 -0.0698  0.1504  0.0942
 4664W        W 6864  17.860   2.033  36.649  0.0870 -0.0536  0.0398
 4665W        W 6865   1.903   0.082  15.056  0.0350  0.1580 -0.1556
 4666W        W 6866   8.154   5.496   6.486  0.0763 -0.1358 -0.0755
 4667W        W 6867   6.359   0.293  36.376 -0.1833 -0.1405  0.1823
 4668W        W 6868  15.119   3.164  42.053 -0.0251  0.3563 -0.1669
 4669W        W 6869   6.739   3.169   4.017 -0.0087 -0.6124  0.0286
 4670W        W 6870  11.249   6.109   9.563  0.1049  0.1980 -0.2244
 4671W        W 6871   1.859   4.502  31.629 -0.0155  0.1228  0.3539
 4672W        W 6872   8.023   4.107  16.832  0.0410  0.1177 -0.1698
 4673W        W 6873  17.468   5.492  43.843  0.0270 -0.0720 -0.2211
 4674W        W 6874   8.050   4.419  12.250 -0.0042 -0.0504 -0.0708
 4675W        W 6875  18.513   4.569  42.639  0.2291  0.0450 -0.0571
 4676W        W 6876   8.084   3.265   8.346 -0.2124  0.0991 -0.1380
 4677W        W 6877  11.390   3.254   1.690  0.4730  0.1198  0.3210
 4678W        W 6878   1.829   0.529   0.442 -0.1224  0.0623  0.1498
 4679W        W 6879   7.620   3.818  36.537  0.0548  0.0838 -0.1102
 4680W        W 6880  18.961   0.676  32.481 -0.1940 -0.0665 -0.4966
 4681W        W 6881  18.382   2.142  26.686 -0.0202  0.0534  0.1119
 4682W        W 6882   8.926   3.928  33.552  0.1448 -0.1686 -0.1653
 4683W        W 6883   2.973   5.578   1.502  0.1638 -0.0934  0.0163
 4684W        W 6884  17.137   6.389  32.283  0.0924  0.0472 -0.1909
 4685W        W 6885  19.473   5.155  31.931  0.1416 -0.2257  0.1258
 4686W        W 6886  15.761   1.523  40.649  0.0641 -0.1487 -0.3899
 4687W        W 6887  14.792   0.260  36.876 -0.0944  0.2448  0.0693
 4688W        W 6888   3.292   2.381  35.072  0.0406 -0.2673 -0.1256
 4689W        W 6889   6.671   4.196  31.137 -0.1155 -0.0124  0.3846
 4690W        W 6890   0.704   1.689  32.915 -0.1069 -0.0339  0.1382
 4691W        W 6891  19.679   3.431  31.935  0.1380 -0.0523  0.1455
 4692W        W 6892  14.989   1.690  17.071 -0.1415 -0.6062  0.2600
 4693W        W 6893  17.589   1.453   9.847  0.0531  0.2024 -0.1531
 4694W        W 6894  13.626   5.610  31.657  0.0628 -0.1087 -0.1063
 4695W        W 6895  16.199   5.471  43.237 -0.2661 -0.2172  0.0577
 4696W        W 6896  10.482   3.846  44.372 -0.1067 -0.0815  0.3011
 4697W        W 6897   9.836   4.392   5.445 -0.0154  0.0033 -0.3517
 4698W        W 6898   5.654   5.855   9.304  0.1802  0.0041  0.0274
 4699W        W 6899  20.650   2.306  22.970 -0.0261 -0.0826 -0.2277
 4700W        W 6900   1.424   1.527  32.338 -0.0680 -0.2117  0.1642
 4701W        W 6901   0.297   4.918  32.288  0.2350 -0.0480 -0.0061
 4702W        W 6902  18.402   4.751  12.158 -0.0052  0.1034  0.2542
 4703W        W 6903  11.769   4.342  16.493 -0.3066  0.1652 -0.2731
 4704W        W 6904   1.604   5.870   1.512  0.2621 -0.0757  0.1069
 4705W        W 6905   1.488   4.411   2.867  0.1979 -0.2993 -0.0853
 4706W        W 6906   4.994   3.780  41.017  0.1916  0.2182 -0.0471
 4707W        W 6907   5.324   4.426  35.804  0.0624 -0.0091  0.1653
 4708W        W 6908  19.946   3.436  37.501 -0.1002 -0.2624 -0.4502
 4709W        W 6909   2.679   4.641   5.117  0.0358  0.2104 -0.0589
 4710W        W 6910  11.218   6.077  43.616  0.0672  0.2396 -0.0324
 4711W        W 6911  19.722   4.992  44.328 -0.4784  0.1052 -0.2416
 4712W        W 6912  12.005   0.323  18.974 -0.1020 -0.0811 -0.0320
 4713W        W 6913   8.947   0.197  16.131 -0.1103 -0.1907  0.0703
 4714W        W 6914   3.089   2.137   5.276 -0.1274 -0.1259  0.0885
 4715W        W 6915  20.030   4.436  21.527  0.0113 -0.3289 -0.1970
 4716W        W 6916  13.808   1.898   7.341 -0.0991  0.0784  0.2344
 4717W        W 6917   4.567   0.435  32.484  0.0678  0.3382  0.2491
 4718W        W 6918  19.340   0.138  13.355  0.0595  0.0984  0.0048
 4719W        W 6919   9.395   0.188   7.210 -0.1511  0.0113 -0.0173
 4720W        W 6920   6.089   5.263  35.011  0.0628  0.2144  0.1697
 4721W        W 6921  11.587   5.485  44.121 -0.0251  0.0225 -0.1764
 4722W        W 6922  11.612   2.277  17.272 -0.3815 -0.3176 -0.2983
 4723W        W 6923  20.199   5.422  10.887 -0.0227  0.0917  0.1204
 4724W        W 6924   6.015   6.316   2.453  0.2845 -0.0897  0.1132
 4725W        W 6925   9.454   5.831  43.607 -0.2493 -0.0181 -0.1128
 4726W        W 6926  20.914   0.492  42.664  0.1372  0.1644  0.0753
 4727W        W 6927   8.558   3.173  35.420 -0.0960  0.0556  0.3407
 4728W        W 6928  13.742   5.477  44.462 -0.1002 -0.1684 -0.0187
 4729W        W 6929  18.914   1.789  13.542  0.1007  0.1659  0.0787
 4730W        W 6930  16.526   5.488   3.051  0.5360 -0.0476 -0.1786
 4731W        W 6931  17.189   3.571   3.628  0.2815 -0.2369 -0.0474
 4732W        W 6932   6.584   1.607  14.416  0.0341 -0.0995  0.3588
 4733W        W 6933  12.375   4.346  14.360 -0.1263 -0.1327  0.0249
 4734W        W 6934   2.162   1.949  40.903  0.1852  0.0987 -0.1189
 4735W        W 6935  20.396   1.381  43.318 -0.1345  0.0763  0.0820
 4736W        W 6936   8.619   1.480  39.999  0.1581  0.2025 -0.2363
 4737W        W 6937   1.964   4.515   2.731 -0.0758 -0.1907  0.0129
 4738W        W 6938  14.011   3.536  37.140  0.0064 -0.0307  0.1153
 4739W        W 6939   1.707   2.681   8.209  0.2057  0.1278 -0.2505
 4740W        W 6940   5.422   5.256  33.996 -0.1462  0.0817  0.1914
 4741W        W 6941  21.079   5.191  13.949 -0.1380  0.1840  0.0588
 4742W        W 6942   7.162   3.073  37.245  0.2537 -0.0306 -0.0045
 4743W        W 6943  20.652   6.475  10.299  0.0937 -0.1904 -0.0446
 4744W        W 6944  13.163   5.577  31.354 -0.3899 -0.0577 -0.2435
 4745W        W 6945   9.940   4.381  44.182  0.1550 -0.1123 -0.2743
 4746W        W 6946   9.489   4.399  14.916  0.0422 -0.0250 -0.2865
 4747W        W 6947  19.775   5.309  33.296 -0.2063  0.1087 -0.0627
 4748W        W 6948  15.274   0.487  36.940  0.1983 -0.2550 -0.1778
 4749W        W 6949   3.287   2.860   2.106  0.0724 -0.0573 -0.2565
 4750W        W 6950   8.595   0.144   4.856 -0.1486 -0.2504  0.0731
 4751W        W 6951   4.506   1.652  10.753  0.2336 -0.3117 -0.1858
 4752W        W 6952  11.670   4.441  10.508 -0.1670  0.4999 -0.0667
 4753W        W 6953   4.692   3.778  28.631 -0.1587 -0.2279  0.2621
 4754W        W 6954  12.354   3.916  44.766  0.2809  0.0937  0.0841
 4755W        W 6955   4.932   4.934   0.578  0.2854  0.0821 -0.2619
 4756W        W 6956  19.507   3.240   6.711  0.0134 -0.2760 -0.0040
 4757W        W 6957   7.721   4.540  37.280 -0.0603  0.1728  0.1893
 4758W        W 6958  17.349   4.701  15.760 -0.2977  0.1356  0.1635
 4759W        W 6959  15.471   4.071   0.056 -0.2445  0.0522  0.1205
 4760W        W 6960  15.188   6.482  40.688  0.0155 -0.0061  0.2806
 4761W        W 6961   5.898   0.655  31.535  0.2284  0.0549 -0.0228
 4762W        W 6962  10.191   3.186  15.325  0.0020 -0.1421  0.2240
 4763W        W 6963  13.465   0.382  42.391 -0.0553 -0.2276  0.0020
 4764W        W 6964   4.200   3.990  43.434  0.1627  0.1768  0.2558
 4765W        W 6965  16.910   2.348  27.371  0.0393  0.1501 -0.1861
 4766W        W 6966   9.005   3.592  42.793 -0.2441  0.5295  0.0170
 4767W        W 6967  11.342   6.542   9.482  0.1552 -0.1047  0.2308
 4768W        W 6968  12.203   4.369  30.353  0.0138  0.1376  0.0517
 4769W        W 6969  18.174   5.340  42.201  0.0748 -0.0610  0.0085
 4770W        W 6970   8.030   2.958   5.673  0.3269 -0.2934 -0.0046
 4771W        W 6971   9.484   6.532  30.265 -0.1602  0.0185 -0.0986
 4772W        W 6972  20.788   2.657  12.002  0.0622  0.1190  0.0280
 4773W        W 6973   8.165   1.379   2.959  0.0624  0.1818  0.0609
 4774W        W 6974   5.428   6.025   5.325 -0.0524 -0.1510 -0.2148
 4775W        W 6975  13.510   3.629   1.047 -0.4227  0.2579 -0.1646
 4776W        W 6976  10.653   1.960  42.257 -0.2211 -0.2790  0.0055
 4777W        W 6977  13.740   4.190  35.510 -0.0116  0.2608  0.0748
 4778W        W 6978   9.584   2.626  31.152  0.0110  0.0201  0.0717
 4779W        W 6979  19.653   1.884  27.877 -0.0325  0.1321 -0.1493
 4780W        W 6980   4.899   5.678  10.225  0.1983  0.1352  0.1796
 4781W        W 6981  20.040   2.787  30.662  0.0843  0.0189  0.2012
 4782W        W 6982  17.179   5.613  32.541 -0.0347  0.1738 -0.3309
 4783W        W 6983  16.729   1.659  41.124 -0.0905  0.2094  0.1498
 4784W        W 6984  20.894   1.832  35.552  0.0456 -0.2416 -0.0213
 4785W        W 6985   1.914   3.453   9.370 -0.1269 -0.1299 -0.3358
 4786W        W 6986   3.450   6.447  10.008  0.1109  0.0519 -0.2983
 4787W        W 6987   3.306   2.158  37.337  0.1013 -0.3404  0.1203
 4788W        W 6988   3.608   0.249  27.504 -0.1682  0.0140  0.1944
 4789W        W 6989  20.350   5.647  28.125  0.0589  0.1497  0.0718
 4790W        W 6990  20.884   3.350   2.280  0.0652  0.1703  0.2845
 4791W        W 6991   4.725   0.520   1.763  0.0242  0.2248  0.3268
 4792W        W 6992   5.350   1.307  12.974 -0.2499 -0.1204 -0.2112
 4793W        W 6993  13.392   6.451  11.325 -0.0281  0.0312 -0.0533
 4794W        W 6994  18.423   2.904  23.194 -0.1327  0.6355  0.0468
 4795W        W 6995  20.852   4.929  14.612 -0.0325  0.1593  0.2787
 4796W        W 6996   1.811   5.794  24.426  0.0928 -0.0661  0.0538
 4797W        W 6997   2.418   1.413  30.465 -0.0547 -0.1904  0.0121
 4798W        W 6998  20.945   2.979  26.489  0.0504 -0.1547 -0.1800
 4799W        W 6999  17.011   4.580  24.321 -0.1154 -0.0705  0.2280
 4800W        W 7000   9.784   0.251  30.517 -0.1646 -0.0031  0.1267
 4801W        W 7001   9.128   3.646   0.915  0.1253  0.2322 -0.0011
 4802W        W 7002   6.796   5.356  33.613  0.1849  0.2083 -0.1118
 4803W        W 7003   0.243   1.226  25.817  0.0714 -0.2229 -0.0458
 4804W        W 7004   5.179   1.585  38.600 -0.0108 -0.0494 -0.1515
 4805W        W 7005  16.283   3.192  40.031  0.0726  0.0428 -0.1629
 4806W        W 7006   1.131   5.998  29.593 -0.1515  0.1244  0.2780
 4807W        W 7007   2.587   0.043  15.950  0.1856 -0.3691 -0.1335
 4808W        W 7008   2.334   0.024  36.463  0.1231  0.0583  0.0505
 4809W        W 7009  11.804   3.039   6.906  0.0306 -0.2466  0.3095
 4810W        W 7010  10.176   4.204  29.397  0.1355 -0.0351  0.1000
 4811W        W 7011   8.058   0.303  22.978  0.1214  0.3946  0.1420
 4812W        W 7012   7.816   6.415  13.692  0.0256 -0.0444 -0.1310
 4813W        W 7013  19.600   2.064  23.151  0.2921  0.3172  0.2313
 4814W        W 7014  16.642   5.730  43.787  0.3882  0.1362  0.0565
 4815W        W 7015  10.286   3.585  44.786 -0.1599 -0.0352  0.2093
 4816W        W 7016  12.948   0.437  42.088 -0.1036 -0.1077  0.1547
 4817W        W 7017  18.299   2.673  15.381  0.2887 -0.3402  0.1693
 4818W        W 7018  16.793   5.060   4.391  0.2272 -0.0352 -0.2414
 4819W        W 7019   3.671   2.828  14.521  0.2582 -0.0800 -0.0318
 4820W        W 7020   6.138   6.209  44.007 -0.2065  0.0868 -0.1263
 4821W        W 7021   4.353   0.713  16.299  0.1678 -0.0942  0.0455
 4822W        W 7022   2.801   6.509   9.480  0.1268  0.0829  0.1579
 4823W        W 7023   0.858   4.673  34.142  0.2875 -0.2449 -0.0566
 4824W        W 7024  18.721   6.527  25.537  0.2914 -0.2906  0.0881
 4825W        W 7025   1.521   2.004  39.810 -0.0634  0.1251 -0.0245
 4826W        W 7026   0.127   3.999  31.822  0.2080  0.3893 -0.0428
 4827W        W 7027   2.859   4.053  14.774  0.2548 -0.0278 -0.2429
 4828W        W 7028   3.404   5.664  15.943  0.1015 -0.4713  0.0361
 4829W        W 7029   9.768   6.455  15.464 -0.3538  0.0453  0.0068
 4830W        W 7030  10.055   4.406  16.094  0.0425 -0.0913 -0.0256
 4831W        W 7031   7.434   4.514  20.283  0.2304 -0.2056 -0.3180
 4832W        W 7032  15.929   1.596  35.286  0.2707 -0.0053 -0.1454
 4833W        W 7033  13.243   1.219   8.469 -0.4348  0.0917 -0.0075
 4834W        W 7034  18.347   0.998   9.403  0.2073 -0.1947 -0.0861
 4835W        W 7035  15.729   1.115  44.958 -0.1232 -0.0614 -0.0927
 4836W        W 7036   1.872   5.927  31.093 -0.1559  0.2439  0.0080
 4837W        W 7037  10.570   5.870  35.543  0.2265  0.4336 -0.1127
 4838W        W 7038   0.123   5.807  29.076  0.3183  0.0792 -0.2075
 4839W        W 7039  18.079   1.678  41.460 -0.0115 -0.0594  0.4209
 4840W        W 7040  12.007   3.931  11.029  0.0241 -0.2486 -0.1060
 4841W        W 7041   3.751   5.973   4.603  0.3691 -0.1396 -0.3258
 4842W        W 7042  16.424   6.017  25.775 -0.1108  0.0281 -0.0364
 4843W        W 7043  13.323   2.329  28.696  0.0881  0.1100  0.1518
 4844W        W 7044   9.568   1.095  36.534  0.1721  0.0906 -0.1951
 4845W        W 7045   7.235   4.772   8.804 -0.0762  0.0760  0.1275
 4846W        W 7046  10.278   4.394  35.970  0.0905  0.1284  0.3738
 4847W        W 7047   0.522   4.105  30.461 -0.1066 -0.3966  0.3110
 4848W        W 7048   1.938   0.312   9.339  0.2804  0.4465  0.2732
 4849W        W 7049  16.360   4.716  41.788 -0.3571 -0.0864  0.0129
 4850W        W 7050  17.933   0.880  36.877 -0.2673 -0.1351 -0.0287
 4851W        W 7051  19.733   1.764  25.493 -0.1178  0.0608 -0.1057
 4852W        W 7052   9.757   1.100  37.884  0.1076  0.0433  0.0877
 4853W        W 7053  14.481   5.207   4.943 -0.1153  0.1165  0.2149
 4854W        W 7054  16.461   1.318  10.862 -0.1997  0.2290 -0.1863
 4855W        W 7055  13.227   3.430  18.777  0.1907  0.0977  0.0791
 4856W        W 7056  20.802   4.494  24.012  0.0489  0.2306 -0.0385
 4857W        W 7057   3.135   4.787  33.537 -0.0809 -0.1124  0.0185
 4858W        W 7058  18.707   1.157   6.293  0.2035 -0.0842 -0.0456
 4859W        W 7059   4.444   3.974  40.176 -0.1344 -0.0090  0.1669
 4860W        W 7060  17.082   5.779   5.687 -0.1415 -0.0552 -0.0900
 4861W        W 7061   5.691   1.275   7.183  0.0987  0.0280 -0.1457
 4862W        W 7062   5.248   1.742  18.018 -0.1527  0.1588 -0.1347
 4863W        W 7063   4.148   2.857  43.860 -0.3179  0.2285  0.0860
 4864W        W 7064  13.959   1.499  35.470  0.2748  0.0359 -0.0640
 4865W        W 7065  20.268   0.759   5.646 -0.2032 -0.2292 -0.1087
 4866W        W 7066  12.982   4.095  45.005 -0.1012 -0.1857  0.2011
 4867W        W 7067   3.147   1.011   8.098 -0.0933  0.1866  0.0050
 4868W        W 7068   1.382   2.829  39.290  0.0042  0.0700 -0.1036
 4869W        W 7069  16.293   3.226  15.075 -0.1369 -0.1519 -0.1703
 4870W        W 7070  14.027   3.952  15.481 -0.3025 -0.0927 -0.0966
 4871W        W 7071   3.418   3.000  10.750  0.0639  0.0388  0.1466
 4872W        W 7072  18.282   1.670  24.005 -0.1954 -0.2038  0.0649
 4873W        W 7073  19.862   1.939  13.370  0.1656 -0.0003  0.0564
 4874W        W 7074   0.404   0.151  29.919  0.1725  0.0958  0.1052
 4875W        W 7075  11.861   4.142   1.861  0.1361 -0.0408 -0.0776
 4876W        W 7076  11.848   0.481  14.305  0.0960 -0.1030  0.0519
 4877W        W 7077   5.260   0.909   9.063 -0.2187  0.2914 -0.0962
 4878W        W 7078   7.029   5.575  40.509  0.0820 -0.1314 -0.1292
 4879W        W 7079  12.156   5.550  32.896 -0.1010  0.2229  0.0716
 4880W        W 7080  20.991   2.407  40.326  0.0466 -0.2327 -0.0288
 4881W        W 7081  18.081   3.284  12.889 -0.0410  0.0815  0.0924
 4882W        W 7082  11.580   1.413  19.349  0.2180  0.2956 -0.0718
 4883W        W 7083   7.678   2.564   3.171  0.1015  0.0474 -0.0747
 4884W        W 7084   8.223   2.284   3.850 -0.0311 -0.0347  0.3389
 4885W        W 7085  17.111   0.628  33.532 -0.1390  0.0982  0.1776
 4886W        W 7086  11.826   6.142  36.604 -0.1335  0.0843  0.2495
 4887W        W 7087  20.906   6.442  14.322 -0.3938  0.1781 -0.0594
 4888W        W 7088   1.600   5.247  11.438 -0.0329  0.1247  0.1565
 4889W        W 7089  15.601   0.292  16.227  0.0633  0.0149 -0.0259
 4890W        W 7090  16.378   5.557   1.764  0.1048 -0.2655 -0.0449
 4891W        W 7091  19.961   1.766   6.026 -0.2053 -0.1093 -0.2166
 4892W        W 7092   4.479   4.486   0.635 -0.1437 -0.1229  0.1483
 4893W        W 7093   5.646   0.929  16.079 -0.4191  0.1338 -0.0241
 4894W        W 7094  14.651   1.863   9.592  0.0418 -0.1958 -0.1271
 4895W        W 7095  13.602   1.513   1.599 -0.3902 -0.0300 -0.2761
 4896W        W 7096   0.412   4.136  24.553  0.0272 -0.1574 -0.2037
 4897W        W 7097  14.214   4.302  40.267 -0.0891  0.0016  0.3704
 4898W        W 7098   3.547   4.149  42.179  0.1713 -0.1679  0.1077
 4899W        W 7099  13.192   5.994  16.041 -0.0477  0.1072 -0.1729
 4900W        W 7100  12.450   4.652  11.142 -0.0270  0.0285 -0.0849
 4901W        W 7101   4.375   5.041  16.869 -0.2288 -0.1013  0.2681
 4902W        W 7102   2.976   6.574   0.235 -0.1061 -0.0908 -0.0781
 4903W        W 7103  18.839   3.401  24.616 -0.2037  0.1194  0.1160
 4904W        W 7104   8.854   4.464  33.411  0.1922  0.1750  0.1730
 4905W        W 7105   5.089   0.997  11.197 -0.1189 -0.0722  0.4164
 4906W        W 7106  20.478   4.008  42.048  0.1154 -0.1680 -0.3484
 4907W        W 7107  13.578   0.300  11.538 -0.2555  0.0070 -0.1253
 4908W        W 7108  12.722   2.463  16.689 -0.3084 -0.1338 -0.0186
 4909W        W 7109  20.614   0.730   4.309  0.0705  0.0167 -0.0786
 4910W        W 7110  18.997   4.438  42.570  0.2416 -0.1638 -0.1328
 4911W        W 7111   8.442   2.181  35.807 -0.1291  0.0625  0.0003
 4912W        W 7112  17.366   6.430  25.601  0.2342  0.0002 -0.0196
 4913W        W 7113  16.239   0.103  39.261  0.1249 -0.0232  0.1152
 4914W        W 7114  15.118   5.446  44.640  0.3205  0.0514  0.2659
 4915W        W 7115  19.816   5.161  31.556 -0.1006  0.0746  0.1477
 4916W        W 7116   4.195   1.873  42.254 -0.0447 -0.1006 -0.0353
 4917W        W 7117  18.600   1.985  39.435  0.1012 -0.2147  0.1591
 4918W        W 7118  19.979   4.923  11.139  0.5253 -0.2380 -0.4351
 4919W        W 7119  12.940   2.792  19.944  0.2940 -0.0330  0.0699
 4920W        W 7120  17.635   1.002  30.545 -0.1501 -0.0574  0.2639
 4921W        W 7121  19.794   2.320  15.179  0.4856 -0.1579 -0.0708
 4922W        W 7122  13.279   2.717  19.562 -0.2493  0.5960  0.1447
 4923W        W 7123  18.510   5.564   6.739 -0.1353 -0.2051  0.3011
 4924W        W 7124   5.267   5.778  16.876  0.0940  0.0713  0.1907
 4925W        W 7125   2.691   4.662  44.437 -0.0953 -0.0335 -0.1122
 4926W        W 7126  15.111   3.059   8.987 -0.1972  0.0374 -0.0436
 4927W        W 7127   9.016   1.466  11.789 -0.0418 -0.1916 -0.0347
 4928W        W 7128  11.950   6.542  33.399  0.0406  0.1138 -0.0381
 4929W        W 7129  12.433   0.420   8.084  0.0438  0.2829 -0.0194
 4930W        W 7130   7.600   5.808  32.962 -0.0290  0.0490  0.1841
 4931W        W 7131  19.941   4.177  35.437 -0.0641 -0.0168  0.2531
 4932W        W 7132  16.619   0.758  25.683 -0.0833  0.0856 -0.1157
 4933W        W 7133  14.203   0.169  33.253  0.1907  0.0326 -0.1755
 4934W        W 7134  12.608   5.087  15.669  0.0680 -0.2505 -0.1916
 4935W        W 7135   2.412   0.446   8.032  0.0644 -0.1231  0.0262
 4936W        W 7136   4.577   4.243  32.951  0.1515  0.0519 -0.1796
 4937W        W 7137  17.264   2.443  11.630 -0.0268 -0.2119  0.0368
 4938W        W 7138   7.613   4.877  10.618  0.2000  0.1823 -0.0586
 4939W        W 7139  13.460   6.582  13.003 -0.2216  0.1634 -0.2253
 4940W        W 7140  14.239   0.258   6.192 -0.2744 -0.2791  0.0032
 4941W        W 7141   0.231   2.890  25.171 -0.0362 -0.1628 -0.1669
 4942W        W 7142   8.702   5.251  41.750 -0.1251  0.3727  0.2372
 4943W        W 7143   3.719   5.426   7.521  0.0130  0.3065 -0.1196
 4944W        W 7144  11.224   6.142  33.496  0.2722  0.0702 -0.0852
 4945W        W 7145  14.365   2.316   6.412 -0.0897  0.0138 -0.1428
 4946W        W 7146  20.041   0.447  27.776 -0.0046 -0.1260 -0.1413
 4947W        W 7147  20.351   1.102  32.088 -0.2028  0.0021  0.0667
 4948W        W 7148  11.373   4.311   0.244  0.1710  0.1527 -0.2242
 4949W        W 7149   1.924   3.282  32.879  0.0163  0.3407  0.2991
 4950W        W 7150   3.860   1.910  14.567 -0.3132  0.0621 -0.0668
 4951W        W 7151   4.892   1.890  28.046  0.1468 -0.2041  0.0909
 4952W        W 7152   5.649   3.638  31.389 -0.0350  0.1184 -0.3236
 4953W        W 7153   0.117   2.975   5.633 -0.2404 -0.3288 -0.0512
 4954W        W 7154   0.053   1.334  28.675 -0.1246  0.2843  0.0435
 4955W        W 7155  19.350   2.400  40.393 -0.0293  0.1909  0.0338
 4956W        W 7156   8.495   1.422  22.278  0.0900  0.1105  0.0230
 4957W        W 7157   7.180   0.391  35.157  0.1369 -0.0944  0.1016
 4958W        W 7158   3.151   3.190   2.433  0.1221 -0.0026 -0.0204
 4959W        W 7159  15.168   1.272   7.393 -0.0474 -0.0287 -0.1996
 4960W        W 7160   5.355   6.394  34.380  0.1286  0.1653  0.1663
 4961W        W 7161  20.163   5.600   0.991 -0.0703 -0.0237  0.3124
 4962W        W 7162  14.667   6.101  12.086 -0.1505  0.2893  0.0933
 4963W        W 7163   1.658   1.453  26.477 -0.4792 -0.1088 -0.2148
 4964W        W 7164   7.950   5.901  34.342  0.1752  0.3038 -0.2729
 4965W        W 7165  20.221   1.674  13.670 -0.0979  0.1368  0.1680
 4966W        W 7166   3.138   5.073   8.391  0.1622  0.0051  0.3532
 4967W        W 7167  14.467   1.742  11.086  0.1323  0.0979 -0.2564
 4968W        W 7168  18.331   4.912   7.491  0.0445 -0.0741 -0.2165
 4969W        W 7169  12.336   4.178  12.373 -0.0333 -0.3044  0.1384
 4970W        W 7170   7.803   2.725   4.857 -0.1919 -0.5396 -0.2704
 4971W        W 7171   6.097   4.844  35.254  0.3790  0.1544 -0.0942
 4972W        W 7172   7.089   5.771  16.081  0.1055  0.0144 -0.0006
 4973W        W 7173   3.308   0.257  15.403 -0.2510 -0.0288 -0.0152
 4974W        W 7174  10.142   1.556  19.189 -0.0512  0.2546  0.1936
 4975W        W 7175   3.008   6.380  31.590  0.1848  0.1494  0.1736
 4976W        W 7176  12.363   2.280   0.279  0.2215 -0.0633  0.1270
 4977W        W 7177   3.229   0.679  42.706  0.1081  0.0854  0.3036
 4978W        W 7178  14.909   0.428  40.141  0.1930 -0.0742  0.0010
 4979W        W 7179  12.960   0.858  41.790  0.0854  0.0303 -0.1819
 4980W        W 7180   7.157   0.600  39.567  0.0446 -0.1314 -0.0543
 4981W        W 7181  15.164   2.742  27.645  0.0258  0.1426 -0.1268
 4982W        W 7182   4.155   1.621  16.378  0.4577  0.0180  0.2276
 4983W        W 7183   0.273   2.505  11.768  0.1072  0.0007  0.2850
 4984W        W 7184   1.604   3.979  42.117 -0.1705  0.0353 -0.3097
 4985W        W 7185   6.013   1.444  32.905 -0.1752  0.1184  0.1708
 4986W        W 7186  14.550   4.018  28.092 -0.0899 -0.0178  0.1008
 4987W        W 7187  16.039   6.038  27.996  0.1731  0.1434  0.1290
 4988W        W 7188   8.775   0.871  44.599 -0.1577  0.0691 -0.0565
 4989W        W 7189   1.844   2.786  34.505 -0.1353 -0.1312  0.1235
 4990W        W 7190  17.916   4.084  26.033  0.0992  0.2081  0.0314
 4991W        W 7191  12.936   1.156  37.207 -0.2237 -0.0920 -0.0222
 4992W        W 7192   8.645   3.352  13.133 -0.0050  0.0028 -0.2084
 4993W        W 7193   1.062   6.174  11.803 -0.1463 -0.3424  0.0402
 4994W        W 7194  18.790   0.877  44.913 -0.0568  0.4357 -0.2330
 4995W        W 7195   5.184   4.722  35.169 -0.2415  0.1783 -0.2407
 4996W        W 7196  17.426   2.780  31.594 -0.1068 -0.2584  0.1532
 4997W        W 7197  13.545   2.901  45.003 -0.0671  0.2192  0.0346
 4998W        W 7198  19.396   1.694  27.503  0.3494  0.2563 -0.2892
 4999W        W 7199   1.797   0.293  28.264  0.1226 -0.1231  0.3036
 5000W        W 7200  20.627   5.455  23.051  0.0728 -0.2224  0.1128
 5001W        W 7201  12.064   2.184  29.347  0.0414 -0.0863  0.1430
 5002W        W 7202  18.489   2.743   6.244 -0.1058  0.0949 -0.0696
 5003W        W 7203  14.385   0.942   8.191 -0.0012 -0.1356 -0.2875
 5004W        W 7204   1.348   3.180  33.025 -0.3060 -0.2223 -0.0571
 5005W        W 7205   5.607   5.499  17.251 -0.0504  0.1675 -0.0010
 5006W        W 7206  17.924   3.914  15.001  0.2287  0.0946  0.2046
 5007W        W 7207   7.475   6.506   8.484  0.0003  0.3221 -0.0309
 5008W        W 7208   2.447   4.219   4.891 -0.0120  0.2784  0.1338
 5009W        W 7209  10.629   0.333  30.366  0.3341 -0.2282  0.0089
 5010W        W 7210  11.085   0.646  16.820  0.1136  0.0614  0.1736
 5011W        W 7211   3.061   2.465  44.444 -0.1264  0.1800 -0.1244
 5012W        W 7212  16.371   3.086  30.023 -0.3010  0.3455 -0.1174
 5013W        W 7213   8.972   5.708  20.744 -0.0251 -0.2037  0.1662
 5014W        W 7214   4.257   1.726   1.414 -0.0602  0.1619 -0.3539
 5015W        W 7215   4.339   4.003  17.554  0.2516 -0.0796 -0.2665
 5016W        W 7216   2.120   4.390   6.258 -0.1960  0.0381  0.3130
 5017W        W 7217  17.501   1.107  25.609  0.0191 -0.0231  0.2004
 5018W        W 7218  17.442   6.548  27.089  0.0593  0.1274 -0.0293
 5019W        W 7219  16.110   3.736  28.326  0.3417 -0.1600  0.1066
 5020W        W 7220   5.222   1.853   9.615 -0.2514  0.0871 -0.1063
 5021W        W 7221   3.671   5.383  36.578 -0.2083  0.1462 -0.0194
 5022W        W 7222   8.620   1.466  31.227  0.3105 -0.5591  0.0429
 5023W        W 7223  17.033   0.698   3.800  0.1248 -0.1164 -0.0202
 5024W        W 7224   8.543   5.038  19.664  0.1946 -0.0982 -0.1849
 5025W        W 7225  18.399   1.774  13.649  0.1449 -0.2067 -0.3105
 5026W        W 7226   9.261   0.946  44.566  0.1083  0.1030 -0.0449
 5027W        W 7227  12.630   6.023   3.059  0.2480 -0.1348  0.2942
 5028W        W 7228  18.579   3.912  43.551  0.2083 -0.1198 -0.0984
 5029W        W 7229   2.038   2.342   5.639  0.0826 -0.0452  0.1303
 5030W        W 7230  11.296   4.562   2.381  0.0770 -0.0821  0.1571
 5031W        W 7231   0.585   1.731   3.596  0.0541  0.0714 -0.1565
 5032W        W 7232  17.092   3.473  25.671  0.0311 -0.2315  0.1313
 5033W        W 7233   9.173   2.801  10.120 -0.0951  0.3689  0.0813
 5034W        W 7234  16.329   5.578  33.123  0.2573 -0.0464 -0.2646
 5035W        W 7235  18.639   4.958  44.942 -0.0557  0.0921 -0.0556
 5036W        W 7236  10.394   1.493  44.326  0.0529  0.1588 -0.1243
 5037W        W 7237  18.224   2.904  34.973 -0.2840  0.1205 -0.1589
 5038W        W 7238  21.018   0.501   0.464  0.2632 -0.2131 -0.0207
 5039W        W 7239  17.114   4.092  27.538 -0.1097  0.4973 -0.0410
 5040W        W 7240  19.222   3.385  16.044 -0.1799  0.0946  0.0409
 5041W        W 7241  19.975   4.508  13.654  0.3574  0.1204  0.2054
 5042W        W 7242   9.656   3.962  34.140 -0.3033 -0.1099  0.0852
 5043W        W 7243   7.068   0.872  18.010  0.2828 -0.1665 -0.2717
 5044W        W 7244   5.908   2.582   1.545 -0.0366 -0.3720 -0.0837
 5045W        W 7245  14.954   0.382   7.553  0.0960  0.3868  0.1570
 5046W        W 7246   8.072   3.723  40.178  0.0972  0.1606  0.0297
 5047W        W 7247   6.302   4.183  36.863  0.0610 -0.2083  0.0681
 5048W        W 7248   3.566   4.646  33.781  0.0449 -0.0063 -0.0218
 5049W        W 7249   7.553   1.357   4.800  0.0151  0.0736  0.0082
 5050W        W 7250  16.829   6.577   0.869 -0.2123  0.0176 -0.1080
 5051W        W 7251   6.714   1.939  21.968  0.1541  0.1755  0.1693
 5052W        W 7252   9.381   0.150  34.662  0.0850 -0.2546 -0.0394
 5053W        W 7253  18.268   5.399  34.108 -0.1569 -0.1144  0.2409
 5054W        W 7254   4.605   3.307   2.605 -0.1570  0.0877  0.1411
 5055W        W 7255   8.381   6.363   2.029  0.0658  0.0797  0.2986
 5056W        W 7256  16.516   2.635   0.995  0.0792 -0.2011 -0.0948
 5057W        W 7257   9.198   4.816  15.818 -0.2250 -0.3473 -0.0134
 5058W        W 7258   1.053   5.419  13.732  0.2311 -0.0038 -0.5490
 5059W        W 7259   9.520   0.032  23.141  0.1905  0.0507 -0.2190
 5060W        W 7260   0.342   0.316  13.013 -0.0994 -0.3712 -0.0382
 5061W        W 7261  18.447   5.216   5.304  0.2501 -0.1271 -0.1962
 5062W        W 7262  18.540   0.685   3.718  0.0786  0.2463 -0.2243
 5063W        W 7263  15.295   2.881  37.041 -0.2617  0.1946 -0.0545
 5064W        W 7264  20.370   3.619  34.545  0.1499  0.0451 -0.2930
 5065W        W 7265  10.943   2.388  10.755  0.0077  0.2752  0.3774
 5066W        W 7266  15.151   0.457  12.737 -0.1180 -0.2628  0.2856
 5067W        W 7267   2.827   4.008   0.052 -0.0682 -0.1657 -0.1571
 5068W        W 7268   7.914   5.518  39.904 -0.0412  0.0764 -0.0146
 5069W        W 7269   2.669   6.267  39.165 -0.1148  0.0237  0.2216
 5070W        W 7270  13.132   3.566  33.613  0.3507 -0.0176  0.2323
 5071W        W 7271   6.539   5.118   6.092 -0.1149 -0.0665  0.0401
 5072W        W 7272  14.174   3.772  32.002 -0.0951 -0.0809  0.0739
 5073W        W 7273  12.473   1.803   2.036  0.1380  0.2269 -0.3669
 5074W        W 7274   9.611   2.945  43.533 -0.0403  0.0191  0.1857
 5075W        W 7275  16.256   2.249  11.835 -0.0723 -0.5304 -0.2845
 5076W        W 7276  10.002   3.463  16.372 -0.1236  0.3014  0.2248
 5077W        W 7277   0.738   2.080  14.206 -0.2128  0.0201 -0.1214
 5078W        W 7278  20.556   0.412  38.169  0.0722 -0.2012  0.1482
 5079W        W 7279   1.767   3.151  13.485 -0.0161  0.0487 -0.1065
 5080W        W 7280   9.396   3.926  22.595  0.0213  0.1502  0.0826
 5081W        W 7281   8.169   1.324  36.349 -0.2665 -0.2406 -0.2460
 5082W        W 7282   6.319   5.920   2.470  0.0975  0.0728  0.2870
 5083W        W 7283  18.990   3.768  25.118 -0.1696  0.1164  0.2211
 5084W        W 7284  10.017   2.969  39.963 -0.0450 -0.0822 -0.0646
 5085W        W 7285   0.262   5.491  39.473  0.0626  0.2200  0.0010
 5086W        W 7286  18.896   3.933  31.287 -0.0922 -0.3287 -0.0499
 5087W        W 7287   3.540   2.213  44.393  0.2588  0.1090 -0.0260
 5088W        W 7288  20.098   1.363   9.953 -0.0549 -0.2754  0.4009
 5089W        W 7289   3.341   1.461   2.806  0.1987  0.0027 -0.1440
 5090W        W 7290  17.996   0.112  39.875  0.2184 -0.2758 -0.0394
 5091W        W 7291   0.426   4.626   6.381  0.1819  0.0403  0.0430
 5092W        W 7292  12.479   0.895  31.131 -0.1188  0.1044 -0.2565
 5093W        W 7293   4.404   1.225   5.510  0.1075  0.0905  0.1933
 5094W        W 7294   3.796   1.360   5.279  0.3953 -0.0557  0.0268
 5095W        W 7295  16.532   3.603  35.088 -0.1786 -0.3561 -0.0109
 5096W        W 7296   2.997   3.021   7.154 -0.0933 -0.0132 -0.0938
 5097W        W 7297   8.393   0.468  21.006  0.3318  0.2137  0.4700
 5098W        W 7298   5.915   2.979  18.743 -0.0051 -0.3465  0.0230
 5099W        W 7299   8.273   6.037  37.789 -0.0757  0.0975 -0.0952
 5100W        W 7300  17.949   6.469  10.711 -0.0722 -0.0854  0.0009
 5101W        W 7301  17.433   2.531   8.372 -0.0303  0.1650  0.1007
 5102W        W 7302  11.290   2.982  29.576  0.0735  0.0492 -0.0886
 5103W        W 7303  14.078   4.750   9.576 -0.1637 -0.0061  0.1203
 5104W        W 7304  11.420   2.590  32.199 -0.2559 -0.1867 -0.2654
 5105W        W 7305   9.823   2.329  16.029 -0.1556 -0.0383 -0.1964
 5106W        W 7306  12.282   4.095   0.392  0.2924  0.1302  0.0472
 5107W        W 7307  16.452   4.480  32.205 -0.0311  0.1090 -0.0371
 5108W        W 7308   5.543   6.063  15.150 -0.3554 -0.0667  0.1977
 5109W        W 7309  14.122   2.169  28.912 -0.0014 -0.2662 -0.2827
 5110W        W 7310   5.338   1.704  10.297 -0.2406  0.1750 -0.0109
 5111W        W 7311  11.185   4.122  40.681  0.1255  0.2144  0.3198
 5112W        W 7312   8.193   2.210  34.812 -0.0799  0.1091 -0.1520
 5113W        W 7313   0.338   0.920  29.424  0.0080  0.4269 -0.3312
 5114W        W 7314  20.682   1.736  10.890 -0.1613 -0.2487  0.0069
 5115W        W 7315  20.919   4.570   3.711  0.1668  0.1061 -0.0341
 5116W        W 7316   7.595   6.271  33.160 -0.3223  0.1797  0.0413
 5117W        W 7317  16.783   3.393  40.332 -0.1422  0.2222  0.1190
 5118W        W 7318   0.870   4.553  28.780 -0.1290 -0.0367  0.0771
 5119W        W 7319  10.274   1.855   1.348  0.0874 -0.1782  0.0771
 5120W        W 7320  18.005   0.061  36.244 -0.1434 -0.0642 -0.0654
 5121W        W 7321   0.083   5.968  31.545 -0.1133 -0.0081  0.0169
 5122W        W 7322   1.410   5.270  34.263 -0.1309  0.0776  0.0595
 5123W        W 7323  19.248   1.562   8.706 -0.0258 -0.3364  0.1008
 5124W        W 7324  11.720   2.070  43.093  0.2274  0.0720 -0.0038
 5125W        W 7325  12.445   5.523  33.895 -0.1335 -0.0700  0.2254
 5126W        W 7326   6.947   3.452  39.357  0.3074 -0.1671  0.2431
 5127W        W 7327  12.697   6.118  27.871  0.0464  0.2318  0.0588
 5128W        W 7328   3.654   3.513  16.266 -0.2852 -0.0466 -0.2494
 5129W        W 7329  16.651   1.912  13.839  0.1171  0.0466 -0.1584
 5130W        W 7330  19.824   1.118  10.274  0.1129 -0.0449 -0.0800
 5131W        W 7331   8.540   2.977  32.385 -0.1521  0.2891  0.2086
 5132W        W 7332  21.099   3.083  11.812 -0.0208 -0.0282  0.3344
 5133W        W 7333  10.459   2.188  25.234  0.0575  0.1450  0.3849
 5134W        W 7334   3.867   2.221   5.988  0.1388 -0.0275  0.0846
 5135W        W 7335   3.750   5.016  44.149 -0.0423  0.1091  0.1343
 5136W        W 7336   4.436   0.727   5.499 -0.1906  0.2345  0.0284
 5137W        W 7337   6.617   2.006  33.230 -0.0454 -0.2493  0.1655
 5138W        W 7338   7.748   1.680  43.638 -0.3245  0.3973  0.2328
 5139W        W 7339  12.054   2.519   2.230 -0.1203 -0.2049  0.0079
 5140W        W 7340  20.407   0.700   6.155 -0.1530 -0.1283  0.0214
 5141W        W 7341   3.858   6.384  33.664 -0.0605  0.1456 -0.0786
 5142W        W 7342  13.964   1.918   3.977  0.2660 -0.1428 -0.1206
 5143W        W 7343  11.268   1.537  33.030 -0.2758 -0.2642  0.2002
 5144W        W 7344   3.168   6.597   4.120  0.0174  0.1668  0.0553
 5145W        W 7345  12.641   5.393  40.630 -0.1188 -0.2805  0.0995
 5146W        W 7346  14.957   3.042  15.623 -0.2521 -0.0477  0.0481
 5147W        W 7347  12.719   3.307  11.505  0.4030  0.0200 -0.1881
 5148W        W 7348  18.020   3.323  31.733 -0.1677 -0.1396  0.3080
 5149W        W 7349   9.424   0.879  40.548  0.1837  0.0345 -0.0546
 5150W        W 7350   7.391   1.765  41.950 -0.1176 -0.3903 -0.0570
 5151W        W 7351   5.947   1.111  18.546 -0.0385  0.2546  0.2366
 5152W        W 7352  15.135   4.753  25.169 -0.1157  0.0249 -0.3323
 5153W        W 7353  15.583   3.032  10.294 -0.0406 -0.0063 -0.2115
 5154W        W 7354  11.644   3.800   0.045  0.2958  0.2558  0.0837
 5155W        W 7355  18.747   0.983   5.654 -0.0049 -0.1796 -0.0674
 5156W        W 7356  14.284   4.397   3.761 -0.2057 -0.0706 -0.2090
 5157W        W 7357   2.287   0.203  12.804  0.1262  0.0136 -0.0300
 5158W        W 7358  18.794   2.133   5.085  0.3616 -0.1862 -0.0431
 5159W        W 7359  13.915   0.647  13.408 -0.0493 -0.2469  0.0254
 5160W        W 7360   8.082   3.345  13.026  0.2251  0.0781  0.1666
 5161W        W 7361  10.988   1.837  38.858  0.3611  0.1262 -0.1981
 5162W        W 7362  10.890   1.909  14.450 -0.1698 -0.1069 -0.5003
 5163W        W 7363  15.368   1.753   7.591 -0.0189  0.1175 -0.0108
 5164W        W 7364   1.860   0.983  15.119 -0.1570  0.0330 -0.1827
 5165W        W 7365   5.963   2.240  20.503  0.1588  0.0179  0.2205
 5166W        W 7366   1.325   4.574  30.728 -0.1299  0.0173  0.0037
 5167W        W 7367  10.202   2.834  30.880  0.1121  0.0273  0.1182
 5168W        W 7368   6.084   2.065   7.645 -0.0588  0.1552  0.3602
 5169W        W 7369  18.937   2.590  38.953  0.1261  0.0001 -0.1690
 5170W        W 7370   7.247   0.206  17.328  0.1661  0.0745  0.0627
 5171W        W 7371   8.736   2.480  38.767  0.2168 -0.0798 -0.0501
 5172W        W 7372   3.959   0.540  34.092 -0.1414 -0.0760 -0.1398
 5173W        W 7373   7.242   1.779  41.159 -0.2087  0.1755  0.1805
 5174W        W 7374  10.044   5.655  41.428 -0.0562  0.2311 -0.0681
 5175W        W 7375   9.278   0.051  23.999 -0.2089 -0.0577 -0.1794
 5176W        W 7376  10.401   0.469  41.910  0.2460  0.0060 -0.0577
 5177W        W 7377  19.364   4.354   3.181  0.4720 -0.0141 -0.1086
 5178W        W 7378   9.570   1.170  15.657 -0.1691 -0.0929  0.0116
 5179W        W 7379  15.154   2.199   2.382  0.4731 -0.0046  0.2877
 5180W        W 7380  16.158   5.827  13.727  0.0632  0.0992  0.2300
 5181W        W 7381   8.707   5.687   3.094 -0.0157  0.0080 -0.0927
 5182W        W 7382  20.316   5.694  40.458  0.2125  0.3856  0.0444
 5183W        W 7383   8.150   4.419  23.598  0.2278  0.0601  0.1654
 5184W        W 7384  21.076   3.902   9.414  0.0545 -0.0420  0.0364
 5185W        W 7385  14.943   4.550  29.755  0.0592  0.3335 -0.0933
 5186W        W 7386   9.815   3.569  30.358  0.3431  0.2197  0.1256
 5187W        W 7387   9.833   1.469   9.468  0.2470 -0.0252 -0.0802
 5188W        W 7388   1.373   5.881   0.166  0.1229  0.3954 -0.0145
 5189W        W 7389   6.467   1.679  33.644 -0.0372  0.2093 -0.1606
 5190W        W 7390   5.775   1.056   7.779 -0.2178 -0.2831  0.1402
 5191W        W 7391  21.098   0.196  33.706  0.1890  0.2532 -0.0855
 5192W        W 7392   3.712   0.440  33.066 -0.3127  0.0772 -0.0247
 5193W        W 7393   2.159   3.317  38.917  0.1123 -0.2510  0.1245
 5194W        W 7394  20.600   4.920  44.855 -0.0197 -0.2111 -0.2126
 5195W        W 7395   3.841   3.032  17.579 -0.3048  0.2405  0.0314
 5196W        W 7396  10.229   2.754  24.558 -0.0763 -0.2041  0.0578
 5197W        W 7397  10.026   1.946  37.390  0.1523 -0.1533 -0.1541
 5198W        W 7398   1.920   1.532  14.462 -0.2969 -0.0807 -0.0814
 5199W        W 7399   6.483   6.215  18.000  0.0925  0.0723  0.2198
 5200W        W 7400  14.210   4.530  37.954 -0.0254  0.0765 -0.3787
 5201W        W 7401  12.821   3.384  44.389 -0.0209 -0.1703  0.1166
 5202W        W 7402   8.193   1.631  14.207 -0.0703 -0.4009  0.2943
 5203W        W 7403  18.077   0.445  29.796 -0.1116  0.0949 -0.1400
 5204W        W 7404  18.424   2.735  28.449  0.1108 -0.0107  0.0042
 5205W        W 7405  18.257   0.265   8.633  0.0762 -0.2396  0.1529
 5206W        W 7406   9.250   4.700  25.096  0.1536  0.1872  0.2318
 5207W        W 7407  17.600   2.918  37.041 -0.0423 -0.1177  0.1888
 5208W        W 7408   9.290   6.136  13.516  0.0649  0.0372 -0.0833
 5209W        W 7409  15.278   5.151  33.611  0.1535  0.0774  0.2331
 5210W        W 7410   5.351   4.719   4.452 -0.2142 -0.1939 -0.0074
 5211W        W 7411  15.037   2.897   6.323 -0.0878 -0.1096  0.1643
 5212W        W 7412  11.644   4.588  18.731 -0.2280  0.3287 -0.0787
 5213W        W 7413  14.485   1.292  36.631 -0.1917 -0.3402  0.0311
 5214W        W 7414  12.462   1.780   4.762  0.0440 -0.1028 -0.1580
 5215W        W 7415   1.858   4.539  41.440  0.0193  0.2821  0.0516
 5216W        W 7416  20.050   1.774  32.570  0.0557  0.3107 -0.2673
 5217W        W 7417   8.653   1.763  37.028 -0.0701  0.1337 -0.3075
 5218W        W 7418   7.843   6.341   1.326 -0.0917  0.0929 -0.2527
 5219W        W 7419   4.567   2.645   2.076 -0.1180 -0.2006 -0.1107
 5220W        W 7420   7.388   0.139  22.312 -0.0098  0.1554  0.2263
 5221W        W 7421   6.658   1.914   5.250  0.2284 -0.0292 -0.2123
 5222W        W 7422  19.367   1.864  36.953  0.3113  0.2326  0.3536
 5223W        W 7423   8.983   4.720   5.707 -0.0545 -0.2027 -0.2587
 5224W        W 7424   1.980   0.512  10.610 -0.0844 -0.0514  0.0854
 5225W        W 7425   3.061   5.073  16.485  0.1902  0.0313  0.0847
 5226W        W 7426  12.026   2.901  19.854 -0.2398  0.1184 -0.0691
 5227W        W 7427   6.984   1.205  43.718  0.0693  0.5124  0.2892
 5228W        W 7428   5.525   3.892   5.114 -0.0785 -0.2985 -0.0810
 5229W        W 7429  11.750   3.530   5.470  0.1246  0.3098  0.3670
 5230W        W 7430   9.483   3.586  13.868  0.2450 -0.2768  0.1936
 5231W        W 7431  15.574   0.706  38.951 -0.0195 -0.1332 -0.0887
 5232W        W 7432  10.819   2.541  35.730  0.0409  0.0797 -0.1812
 5233W        W 7433  11.097   6.551  31.359 -0.1673 -0.0680  0.0384
 5234W        W 7434   4.701   0.426  16.078 -0.0754 -0.0329  0.1825
 5235W        W 7435   3.111   1.890  41.392  0.0006  0.0698  0.0117
 5236W        W 7436  19.127   5.014  45.000  0.0854  0.1346 -0.2559
 5237W        W 7437  12.970   4.672   8.144  0.0982 -0.3753  0.0291
 5238W        W 7438  11.281   4.034  10.852 -0.0633 -0.0558  0.1286
 5239W        W 7439   3.820   5.490  38.855 -0.3050  0.1809  0.2220
 5240W        W 7440   7.180   4.306  18.439  0.3160 -0.2928  0.2273
 5241W        W 7441   7.910   3.950  33.547 -0.0737  0.4171  0.1923
 5242W        W 7442  17.275   2.456  35.726 -0.0991  0.1379  0.1943
 5243W        W 7443  14.006   6.287   2.874 -0.1500 -0.0807  0.2213
 5244W        W 7444  19.677   1.409  14.517 -0.0522 -0.1216 -0.1371
 5245W        W 7445  19.719   0.900   9.157 -0.0689 -0.0536 -0.0286
 5246W        W 7446  13.219   2.248   5.237 -0.3325 -0.4002 -0.0895
 5247W        W 7447  14.254   3.443  18.454 -0.0729  0.0782  0.1145
 5248W        W 7448  12.434   1.239  34.031 -0.1653  0.0160  0.1817
 5249W        W 7449   9.859   5.329  39.184  0.1813 -0.2364  0.1018
 5250W        W 7450  13.976   0.625   6.501 -0.0966  0.0297 -0.0818
 5251W        W 7451   9.165   2.582  10.662 -0.0389 -0.4702  0.1506
 5252W        W 7452  10.779   4.439  40.817  0.0195  0.0166  0.4736
 5253W        W 7453  13.323   5.095   4.499  0.1362  0.2132  0.1279
 5254W        W 7454  12.735   3.814   8.048 -0.0047  0.2277 -0.1206
 5255W        W 7455  14.212   4.819   3.436 -0.0565 -0.2721 -0.2444
 5256W        W 7456   3.278   2.176  28.621  0.0999 -0.1739  0.1629
 5257W        W 7457  14.275   1.653  34.601  0.2726  0.1179  0.1253
 5258W        W 7458   2.309   2.956  42.290 -0.1969  0.0329  0.1530
 5259W        W 7459  10.858   1.339  10.893 -0.3226 -0.0960  0.0907
 5260W        W 7460  10.788   3.370  38.160  0.0882  0.0248  0.1006
 5261W        W 7461  19.549   3.733   6.791  0.1620 -0.2769  0.1649
 5262W        W 7462   7.407   1.915  40.678 -0.0212 -0.0815  0.1255
 5263W        W 7463  20.053   1.501  22.397 -0.3891 -0.0217  0.2356
 5264W        W 7464  11.230   4.528  15.501 -0.0907  0.2044  0.1389
 5265W        W 7465  10.221   5.912  36.919 -0.2951 -0.1456 -0.0789
 5266W        W 7466   1.015   1.513  14.765 -0.2422 -0.2719  0.0207
 5267W        W 7467   8.793   5.477  18.479  0.1829 -0.1092  0.2546
 5268W        W 7468   4.848   4.860  18.342 -0.0504 -0.2362 -0.1108
 5269W        W 7469   2.119   4.444  16.838 -0.2000  0.0104  0.5793
 5270W        W 7470   2.022   4.787   0.817  0.0222  0.1677 -0.1517
 5271W        W 7471  16.839   3.930   3.967 -0.1940 -0.0932  0.2644
 5272W        W 7472  15.017   5.004  36.130 -0.1472  0.2299  0.0775
 5273W        W 7473  11.292   5.354   9.983  0.1661 -0.0236 -0.1131
 5274W        W 7474  10.467   5.334   8.762  0.2933 -0.4128 -0.1347
 5275W        W 7475   8.605   0.893  38.668 -0.0407 -0.1097  0.3116
 5276W        W 7476  11.543   3.892   3.607 -0.0222  0.1198 -0.1609
 5277W        W 7477  11.428   1.207   9.766  0.1022 -0.2485 -0.0174
 5278W        W 7478  11.921   1.919  32.427 -0.1673 -0.1147 -0.1774
 5279W        W 7479   4.473   2.628   9.444  0.0874 -0.2620 -0.4255
 5280W        W 7480  16.035   5.003  41.483  0.0591 -0.0854 -0.1553
 5281W        W 7481  12.046   1.747  43.352  0.0709 -0.1240 -0.3010
 5282W        W 7482   3.722   3.403  41.792 -0.0794 -0.0730 -0.1057
 5283W        W 7483  12.917   2.116  13.890 -0.0843 -0.2434 -0.0190
 5284W        W 7484  17.293   1.985  11.907  0.1604 -0.1551  0.0677
 5285W        W 7485  15.973   0.845  10.211 -0.0492  0.2637 -0.1011
 5286W        W 7486  20.068   3.614  21.906  0.0751 -0.1135 -0.2565
 5287W        W 7487   4.703   3.058   3.827  0.0831 -0.0142 -0.3924
 5288W        W 7488  19.032   0.630   2.951  0.2729  0.0092  0.0966
 5289W        W 7489  20.044   6.037  43.388 -0.0761 -0.1941  0.1737
 5290W        W 7490   7.937   6.433  43.503  0.0032 -0.0450  0.0374
 5291W        W 7491  14.732   4.995  32.224 -0.0462 -0.0255 -0.2479
 5292W        W 7492   6.182   6.334  42.035 -0.1231  0.0651  0.0038
 5293W        W 7493  11.961   4.179  43.599  0.0935  0.0146 -0.0241
 5294W        W 7494   6.131   0.275  33.738 -0.2311 -0.0467  0.1613
 5295W        W 7495  14.328   1.344  32.262 -0.0940 -0.3345 -0.0368
 5296W        W 7496  12.245   2.577  43.754  0.0396  0.1270  0.0140
 5297W        W 7497  15.675   5.320  31.707 -0.2102 -0.0052  0.3188
 5298W        W 7498  18.908   5.966  21.404 -0.3104  0.0844  0.2456
 5299W        W 7499   2.334   4.846  40.073 -0.1700  0.0045  0.0739
 5300W        W 7500  13.106   0.013  38.776 -0.1115  0.0773  0.0700
 5301W        W 7501   7.912   5.740  12.123 -0.1398 -0.1667  0.1168
 5302W        W 7502   2.575   4.392  40.299 -0.1175  0.1189 -0.1565
 5303W        W 7503   6.529   1.749  18.319  0.0407  0.2577 -0.0976
 5304W        W 7504  13.141   2.290  11.817 -0.0712  0.2963 -0.0984
 5305W        W 7505  16.832   4.553  10.705 -0.0551  0.0066 -0.0167
 5306W        W 7506   3.633   2.640   4.147  0.1293  0.0845 -0.1972
 5307W        W 7507  17.631   0.052  12.395 -0.0685  0.0836  0.2201
 5308W        W 7508   9.674   5.680   6.162  0.1985 -0.0527  0.2338
 5309W        W 7509   3.074   4.819  31.647  0.2303  0.0831  0.0672
 5310W        W 7510  11.478   4.470   5.243  0.0492  0.1169 -0.0951
 5311W        W 7511  15.655   5.280  14.417  0.1321 -0.1740 -0.2355
 5312W        W 7512   9.680   4.398   7.657  0.0777  0.0124  0.1753
 5313W        W 7513  17.569   5.793  16.672 -0.0713  0.2446  0.1553
 5314W        W 7514   8.911   6.320  21.464 -0.1033 -0.2489  0.0553
 5315W        W 7515   9.182   1.816  35.870  0.1525 -0.0847 -0.0945
 5316W        W 7516  15.539   4.465  42.905 -0.0628  0.1666 -0.1140
 5317W        W 7517   4.705   1.187   0.107  0.0776 -0.0182 -0.1057
 5318W        W 7518   3.352   2.002  43.403 -0.3872  0.0841 -0.0595
 5319W        W 7519   7.197   3.172  21.265  0.0977 -0.0614 -0.1282
 5320W        W 7520   9.016   4.645  20.881  0.0007  0.0588  0.1206
 5321W        W 7521  19.604   2.855  29.324 -0.2412 -0.0547 -0.0851
 5322W        W 7522  14.664   4.939  37.162 -0.1375 -0.2326  0.2442
 5323W        W 7523   0.138   2.856  29.282  0.2270  0.1048 -0.2085
 5324W        W 7524   9.615   3.453  24.034  0.5620 -0.2721 -0.0533
 5325W        W 7525  17.160   4.829  26.236  0.1151 -0.0856  0.0159
 5326W        W 7526  12.394   3.965  10.318 -0.0277  0.2113  0.3394
 5327W        W 7527  19.339   1.731  13.385 -0.0810 -0.1087 -0.1269
 5328W        W 7528   1.433   5.491  44.940  0.0489 -0.1219  0.1462
 5329W        W 7529  12.845   1.049   0.712 -0.2350 -0.2776 -0.1179
 5330W        W 7530   1.642   6.333   0.189 -0.0472  0.2954  0.2792
 5331W        W 7531   8.824   4.371  10.296 -0.1519 -0.2512 -0.2600
 5332W        W 7532  10.625   0.995  32.606 -0.1052  0.1447  0.1675
 5333W        W 7533  14.655   1.875  43.186 -0.1149 -0.3468  0.1851
 5334W        W 7534   0.531   5.262   4.183 -0.0347  0.0609  0.0201
 5335W        W 7535   6.820   2.649  43.722 -0.3336 -0.1041  0.3541
 5336W        W 7536  11.950   6.572   6.221  0.0692 -0.1254  0.2365
 5337W        W 7537  15.076   2.818  11.170 -0.0124 -0.0658  0.1761
 5338W        W 7538  13.014   0.423   6.392 -0.0356 -0.1372  0.1677
 5339W        W 7539   5.723   5.225   3.559 -0.0796 -0.0019  0.1392
 5340W        W 7540   2.267   3.771  10.271 -0.0428 -0.0920 -0.0460
 5341W        W 7541  15.189   5.960  38.772 -0.0180  0.0057  0.0570
 5342W        W 7542  19.434   1.587  12.452 -0.1650  0.0910 -0.0612
 5343W        W 7543  11.507   4.709  34.826  0.0087 -0.0671  0.1528
 5344W        W 7544  18.434   4.002  39.023 -0.2419 -0.0958 -0.4118
 5345W        W 7545   4.158   0.532  30.087  0.2096  0.0989  0.1567
 5346W        W 7546  10.097   2.677  31.967  0.1099  0.1725  0.2621
 5347W        W 7547   6.616   2.305  44.407 -0.0757 -0.1081 -0.0981
 5348W        W 7548   7.869   1.066  36.028  0.0487  0.0225 -0.3401
 5349W        W 7549   5.255   5.066  30.156 -0.1417 -0.2006  0.2410
 5350W        W 7550  15.673   5.451   5.128 -0.1523  0.0448 -0.0462
 5351W        W 7551  11.181   4.220  36.033  0.0148  0.3414 -0.3196
 5352W        W 7552  10.325   4.284  40.635  0.0030  0.3871  0.0098
 5353W        W 7553   3.780   2.375  42.846 -0.2806 -0.0495  0.0077
 5354W        W 7554  12.898   2.299  38.561 -0.0002 -0.2401 -0.0272
 5355W        W 7555   4.820   3.822  14.629 -0.3219  0.2093 -0.0753
 5356W        W 7556   8.903   5.614   2.573  0.0693 -0.0821 -0.0353
 5357W        W 7557  13.860   2.330  31.343 -0.1828 -0.1102  0.1587
 5358W        W 7558  11.612   2.541  33.546 -0.1886 -0.2092 -0.0399
 5359W        W 7559  19.687   2.921  23.969  0.1157  0.2175  0.1392
 5360W        W 7560  20.599   4.396  22.346  0.1215 -0.0103 -0.0540
 5361W        W 7561  15.187   4.798  32.022 -0.0165 -0.2324  0.0783
 5362W        W 7562   8.345   6.309  20.274 -0.1436 -0.1750  0.0169
 5363W        W 7563   1.116   4.246  25.318  0.1635  0.0140 -0.1327
 5364W        W 7564   4.158   3.266   3.130  0.2607  0.1038 -0.1708
 5365W        W 7565   3.362   0.667  39.888 -0.0513 -0.1362 -0.1229
 5366W        W 7566   7.815   0.905  38.874  0.2169 -0.0812  0.0732
 5367W        W 7567  12.736   6.543  16.918  0.1020  0.1615  0.1304
 5368W        W 7568  16.935   1.630  11.768  0.1792  0.0650  0.2031
 5369W        W 7569  16.972   4.891   0.398  0.0532 -0.2178  0.0459
 5370W        W 7570  11.379   4.043  32.441  0.1354 -0.0789  0.1993
 5371W        W 7571  16.186   0.268   8.394 -0.1450  0.2572  0.0345
 5372W        W 7572   9.141   1.232  21.834  0.1789  0.0877  0.0277
 5373W        W 7573   2.829   6.452   2.031  0.2466  0.2260 -0.0329
 5374W        W 7574   7.190   0.827  43.445 -0.3633  0.0966  0.1667
 5375W        W 7575   4.560   5.766  42.063 -0.1161 -0.0865 -0.0380
 5376W        W 7576  20.723   0.047  44.742  0.0211 -0.1102 -0.2910
 5377W        W 7577  16.929   3.952  28.924  0.1662 -0.2655  0.4808
 5378W        W 7578  13.038   6.252   3.264 -0.1278  0.0247  0.0810
 5379W        W 7579   6.765   1.489  39.414  0.2198  0.0592  0.0810
 5380W        W 7580   9.861   2.234   1.400  0.0419  0.1493  0.1652
 5381W        W 7581   2.385   5.707  32.877  0.3080  0.0031 -0.0320
 5382W        W 7582   6.742   2.873  28.982 -0.2259  0.1839 -0.0288
 5383W        W 7583   3.199   3.498  26.204  0.1000  0.0977  0.0427
 5384W        W 7584  20.550   3.886  20.832 -0.1904 -0.1602 -0.2234
 5385W        W 7585  10.097   4.569  30.870 -0.1207  0.0825  0.1274
 5386W        W 7586   0.327   2.024  24.269  0.1862 -0.1503  0.0622
 5387W        W 7587  17.997   4.872  14.554 -0.2659  0.2578  0.3077
 5388W        W 7588   3.904   4.554   7.771 -0.0904 -0.0433 -0.0668
 5389W        W 7589  12.359   0.191  36.856  0.1837 -0.0779 -0.0911
 5390W        W 7590  13.370   4.418   3.821  0.0384 -0.0446 -0.4625
 5391W        W 7591   7.071   4.061  38.647 -0.0744  0.0450  0.1563
 5392W        W 7592   2.611   4.630  15.383  0.0894 -0.0983  0.0232
 5393W        W 7593  19.445   0.741  14.125 -0.0400  0.3001  0.2164
 5394W        W 7594   4.029   0.731  32.773 -0.1407  0.1204 -0.0754
 5395W        W 7595   9.350   0.054  43.548 -0.1413 -0.1016  0.1760
 5396W        W 7596  13.526   2.460   6.258  0.1607  0.3428 -0.2342
 5397W        W 7597  11.910   0.001  39.504 -0.1158  0.1231 -0.1238
 5398W        W 7598  17.770   3.634  26.925  0.1895  0.0004  0.3895
 5399W        W 7599   4.966   5.736   3.681  0.0873  0.0088 -0.3772
 5400W        W 7600  17.178   5.069  34.581  0.4435  0.0381 -0.1894
 5401W        W 7601   4.928   6.145  16.020  0.4550  0.1566 -0.0451
 5402W        W 7602  20.340   6.563   1.064 -0.0905  0.2122  0.0322
 5403W        W 7603   1.635   4.565  16.557 -0.1245  0.1620  0.3310
 5404W        W 7604   3.268   4.821  13.768 -0.0570  0.1014  0.0911
 5405W        W 7605  20.299   0.185  44.529 -0.0293 -0.0397 -0.1301
 5406W        W 7606  14.010   2.114  20.528 -0.0514 -0.0040 -0.2366
 5407W        W 7607   6.322   2.803  44.089 -0.0595  0.4332 -0.1879
 5408W        W 7608  16.476   4.586  11.250 -0.1144  0.1516 -0.1948
 5409W        W 7609  10.360   1.992  15.651  0.0464 -0.1225 -0.2221
 5410W        W 7610  17.304   6.359   8.040  0.2485 -0.1938  0.2195
 5411W        W 7611   8.388   6.598  31.694 -0.0479  0.1238  0.0157
 5412W        W 7612  15.623   3.720  28.274 -0.1654  0.0783 -0.0757
 5413W        W 7613   5.057   3.836   0.139  0.0949 -0.1450 -0.0482
 5414W        W 7614  17.925   2.974   1.863 -0.0022  0.1581 -0.1389
 5415W        W 7615   4.382   2.782   0.185  0.1696 -0.1134 -0.2653
 5416W        W 7616  17.468   5.125   3.679 -0.1759  0.1133 -0.0260
 5417W        W 7617  18.608   4.157  38.375 -0.0366 -0.0475  0.0581
 5418W        W 7618   1.279   6.047  28.599 -0.0233 -0.2118 -0.0471
 5419W        W 7619   6.508   1.847   7.658 -0.1137 -0.0486 -0.3087
 5420W        W 7620   1.286   3.382  35.609  0.1244  0.0666  0.1602
 5421W        W 7621  10.815   0.688  13.934 -0.1455  0.3336  0.1072
 5422W        W 7622  10.916   0.719  31.242 -0.1428  0.2345  0.1698
 5423W        W 7623   4.693   1.243  28.682  0.0114 -0.1352 -0.0604
 5424W        W 7624   4.158   0.308  30.571 -0.1550 -0.0808 -0.3994
 5425W        W 7625  12.288   0.235   4.849 -0.0688 -0.0323 -0.1122
 5426W        W 7626   8.473   1.406  11.036 -0.1067 -0.0448  0.1747
 5427W        W 7627  15.027   3.155  36.757 -0.0401  0.1692 -0.0964
 5428W        W 7628   4.261   1.743   0.594  0.2260 -0.0895  0.0492
 5429W        W 7629   0.886   4.121  40.588 -0.1993  0.1903  0.0842
 5430W        W 7630  10.520   3.046  20.416  0.0611  0.0745  0.5619
 5431W        W 7631  18.510   4.636  38.287 -0.1318 -0.0956  0.1139
 5432W        W 7632   9.668   5.119  31.440 -0.0123 -0.1555  0.0159
 5433W        W 7633   4.454   1.961  32.500  0.1221 -0.0397 -0.0503
 5434W        W 7634  11.928   1.900  40.730  0.1497 -0.0103  0.2308
 5435W        W 7635  10.921   1.442  22.024  0.0571  0.1369 -0.1683
 5436W        W 7636  10.107   0.830  44.685 -0.2681  0.0649  0.1764
 5437W        W 7637   3.988   5.403  11.740 -0.1904 -0.2145 -0.1718
 5438W        W 7638  10.812   2.739  43.754 -0.0114 -0.3693 -0.1181
 5439W        W 7639  20.226   5.908  42.962 -0.2288 -0.2804  0.0953
 5440W        W 7640   6.015   5.164  42.999  0.3907  0.0863  0.4134
 5441W        W 7641   9.698   0.277   6.675 -0.2548 -0.1674  0.1669
 5442W        W 7642   9.420   1.798  40.042 -0.2016  0.1987 -0.0969
 5443W        W 7643   1.082   1.138  35.452  0.2048  0.3533  0.1486
 5444W        W 7644  14.421   0.530  29.784 -0.2642  0.0261  0.0566
 5445W        W 7645   2.640   2.302  31.661 -0.0068  0.0609 -0.1439
 5446W        W 7646   8.216   5.565   9.372  0.1220 -0.0203  0.2574
 5447W        W 7647   5.251   2.270  42.705 -0.2511  0.2906  0.0161
 5448W        W 7648   2.212   3.417  24.763  0.0168 -0.5788  0.1680
 5449W        W 7649  12.580   1.132  16.490 -0.1795 -0.0616 -0.1459
 5450W        W 7650  18.487   5.904  16.146  0.0446  0.0803 -0.2035
 5451W        W 7651  15.550   1.174  16.133  0.3912 -0.1305 -0.1400
 5452W        W 7652   4.571   4.295  29.835  0.3545  0.1930  0.0205
 5453W        W 7653   1.210   1.117  11.418  0.2650 -0.0856  0.1691
 5454W        W 7654   4.126   0.802   9.466  0.0013  0.1675 -0.0637
 5455W        W 7655   7.613   2.473  14.252 -0.1894  0.1633 -0.2347
 5456W        W 7656   5.663   5.127   5.207  0.1143 -0.2237  0.0804
 5457W        W 7657  12.984   1.995  19.346  0.0677  0.1313  0.0723
 5458W        W 7658  19.269   5.115   2.905  0.0381  0.0964  0.0697
 5459W        W 7659   7.637   5.313  11.627  0.0584 -0.0446  0.0005
 5460W        W 7660  19.354   6.215  35.325  0.1735  0.0724 -0.0210
 5461W        W 7661   4.560   4.690  33.673 -0.1335  0.0338  0.1231
 5462W        W 7662  17.396   5.177  13.726  0.0518 -0.2903  0.3084
 5463W        W 7663   2.753   0.475  36.519 -0.0173 -0.0834  0.1090
 5464W        W 7664  11.447   5.620  43.565  0.0418 -0.0409 -0.0421
 5465W        W 7665  11.245   3.053  19.239 -0.2149  0.0541  0.0954
 5466W        W 7666   9.078   2.906  16.364  0.2270  0.2797  0.0103
 5467W        W 7667   0.976   1.123  25.109 -0.0561 -0.1078  0.1506
 5468W        W 7668  17.512   2.424   5.479  0.0567  0.0685 -0.0385
 5469W        W 7669  18.599   2.846   8.337 -0.2857  0.1014  0.1815
 5470W        W 7670   2.604   1.219  34.617  0.0751 -0.1306 -0.5192
 5471W        W 7671  12.765   2.619   9.333  0.2490 -0.0454  0.2586
 5472W        W 7672  18.878   2.212  30.288  0.2358  0.0226 -0.0877
 5473W        W 7673  13.871   2.187  19.473  0.0035 -0.2307 -0.3427
 5474W        W 7674  12.503   2.400  33.266 -0.0433 -0.0984 -0.1718
 5475W        W 7675   1.123   0.754   2.622  0.0034 -0.1346  0.3135
 5476W        W 7676   9.470   6.523  36.604 -0.1253 -0.2416  0.0061
 5477W        W 7677   3.531   4.763  15.427  0.0158  0.0584 -0.4505
 5478W        W 7678  11.820   0.535  19.415  0.0731 -0.0427  0.3503
 5479W        W 7679   6.326   4.377  19.611 -0.2076  0.3469 -0.0676
 5480W        W 7680  10.408   5.912  32.578 -0.0185 -0.2531  0.0470
 5481W        W 7681  16.737   3.436   7.775  0.0271 -0.0632 -0.2976
 5482W        W 7682   9.506   4.569  44.372 -0.0605 -0.0134  0.1357
 5483W        W 7683  10.698   3.105  31.144 -0.1961  0.1124  0.2452
 5484W        W 7684   4.940   6.405  12.369  0.2717  0.1013  0.0994
 5485W        W 7685  10.538   4.203  34.384 -0.0781  0.0577  0.4488
 5486W        W 7686   0.811   4.290  22.703  0.1388  0.1283 -0.2061
 5487W        W 7687   1.290   0.235  40.322 -0.2076  0.0812  0.2796
 5488W        W 7688   2.239   2.144  34.463  0.0395 -0.2316  0.1711
 5489W        W 7689  11.442   3.258  31.688 -0.1985  0.1325  0.0173
 5490W        W 7690  12.799   3.173   6.675 -0.0839  0.0605  0.3433
 5491W        W 7691  17.101   1.659  27.935 -0.3193 -0.0037 -0.0140
 5492W        W 7692  10.197   5.503  22.996 -0.2040 -0.0634 -0.0902
 5493W        W 7693  11.635   4.800  28.538  0.0703 -0.0034 -0.0255
 5494W        W 7694   0.075   5.278  23.627 -0.0368 -0.0817  0.0250
 5495W        W 7695   2.623   2.533  10.417 -0.0631 -0.1235  0.0651
 5496W        W 7696   0.298   1.823   5.840  0.0190 -0.0274 -0.2983
 5497W        W 7697   1.748   4.464  31.106  0.0580 -0.0959  0.1390
 5498W        W 7698  12.845   6.451  16.089  0.1611  0.1625 -0.1607
 5499W        W 7699  19.747   6.080  39.540  0.4269 -0.3002  0.0188
 5500W        W 7700   5.622   2.562  33.598 -0.1333  0.1792  0.2954
 5501W        W 7701  16.030   4.220   9.017  0.0648  0.0971 -0.0786
 5502W        W 7702  17.836   4.148  31.800 -0.1525 -0.1622 -0.1398
 5503W        W 7703  10.943   2.358   6.129 -0.1803 -0.0103  0.2179
 5504W        W 7704   0.246   6.474  44.851 -0.2968  0.1061 -0.0898
 5505W        W 7705  20.340   2.325  23.883  0.1123 -0.2022  0.2212
 5506W        W 7706   9.129   2.880  23.827 -0.3585 -0.2537  0.2964
 5507W        W 7707  10.175   3.981   8.757  0.2478 -0.0045  0.0300
 5508W        W 7708   7.062   6.122  44.430  0.0723 -0.2441  0.0732
 5509W        W 7709  17.208   6.491  31.039 -0.2107 -0.2217 -0.2494
 5510W        W 7710   1.642   3.065  28.231 -0.0310  0.1942  0.0924
 5511W        W 7711  12.469   3.353   8.549 -0.2010  0.2253 -0.0591
 5512W        W 7712  13.607   2.101  30.555 -0.0863 -0.1456  0.1168
 5513W        W 7713   6.415   6.594  42.560  0.0207 -0.0021 -0.2909
 5514W        W 7714  18.965   2.288   4.594 -0.0486  0.1737  0.0434
 5515W        W 7715   1.758   5.803  35.878 -0.2926  0.0950 -0.0675
 5516W        W 7716   6.003   6.190  36.639  0.1875 -0.1013 -0.0794
 5517W        W 7717  12.085   0.148  34.662  0.0316  0.0679  0.0073
 5518W        W 7718  16.429   0.991  27.810 -0.1946  0.2750  0.0778
 5519W        W 7719   1.166   2.980  22.499  0.0165  0.1110 -0.0349
 5520W        W 7720   0.596   1.628   7.756  0.1385 -0.2043  0.1354
 5521W        W 7721   6.605   2.763   1.609  0.0251 -0.0222 -0.3255
 5522W        W 7722  18.275   2.028   0.045 -0.0968 -0.0306  0.1049
 5523W        W 7723  13.262   1.496  31.240  0.0901 -0.1063  0.0585
 5524W        W 7724   2.712   0.431  30.704 -0.2117 -0.1500  0.0483
 5525W        W 7725  18.300   0.218   1.493 -0.0981  0.2288 -0.0099
 5526W        W 7726   1.516   0.916  11.100  0.2684 -0.0103  0.2296
 5527W        W 7727   0.297   3.340  30.959 -0.2035 -0.0673  0.1470
 5528W        W 7728   9.077   4.635  14.746 -0.1316  0.2352 -0.1423
 5529W        W 7729   6.169   5.232   3.230  0.1709  0.0349  0.0378
 5530W        W 7730   0.240   1.112  36.364  0.0177 -0.1058  0.2009
 5531W        W 7731   9.816   4.778  36.947 -0.2894 -0.0546  0.1341
 5532W        W 7732  10.820   6.213  20.498 -0.0034  0.0194  0.0696
 5533W        W 7733  10.478   6.069  37.881  0.2615  0.0060 -0.0076
 5534W        W 7734   7.070   5.109  14.242 -0.0154 -0.2631  0.0656
 5535W        W 7735  13.840   5.976  34.450  0.2168  0.1399 -0.2692
 5536W        W 7736  17.177   4.743   2.850 -0.1558 -0.1453  0.1085
 5537W        W 7737   3.834   1.654  35.553 -0.2314  0.0909  0.2130
 5538W        W 7738  11.896   6.589  19.301  0.0319 -0.1399 -0.3155
 5539W        W 7739  19.893   4.319  35.924 -0.4300 -0.1315  0.1046
 5540W        W 7740   6.762   1.535  11.957 -0.1317  0.1350  0.0079
 5541W        W 7741  15.707   3.273  37.469  0.1185  0.3335 -0.1468
 5542W        W 7742  14.262   3.654  30.546  0.0687  0.1078  0.1206
 5543W        W 7743   2.763   1.487  14.914  0.2917 -0.0079 -0.2489
 5544W        W 7744  16.819   4.267  36.191  0.1012  0.2345 -0.1381
 5545W        W 7745  18.149   0.034  44.180  0.2136  0.2117 -0.1090
 5546W        W 7746   2.688   1.157   3.440  0.1013  0.1429 -0.1848
 5547W        W 7747  11.764   1.325  30.425  0.2316 -0.0206  0.0775
 5548W        W 7748   0.623   5.465  34.881 -0.1576  0.2194  0.2744
 5549W        W 7749  13.839   5.374   1.937  0.0277  0.1158  0.0935
 5550W        W 7750   1.010   4.419  44.473  0.0610  0.3056 -0.1731
 5551W        W 7751  13.513   5.801  40.308  0.0326 -0.1706  0.0218
 5552W        W 7752   3.236   2.318  11.236 -0.2762  0.3566 -0.1920
 5553W        W 7753  13.742   6.545   5.782  0.2609  0.1190  0.0235
 5554W        W 7754  15.233   2.567  13.812  0.0334 -0.3354 -0.1478
 5555W        W 7755   1.196   6.237   7.687  0.0479 -0.1850  0.2732
 5556W        W 7756   4.908   2.282  35.080  0.1661 -0.0062 -0.3279
 5557W        W 7757   9.104   3.185  24.847  0.2539  0.1599 -0.0036
 5558W        W 7758   1.791   1.569  40.897 -0.0020  0.1317  0.0858
 5559W        W 7759  16.947   4.062  29.439 -0.0105 -0.0772 -0.2597
 5560W        W 7760   0.740   4.955   4.538  0.1063  0.2073  0.0365
 5561W        W 7761  12.539   1.925  44.403  0.2549  0.2935 -0.2107
 5562W        W 7762   2.749   1.338   2.378  0.3382 -0.4356  0.2051
 5563W        W 7763   0.756   1.365  28.304  0.0029 -0.1716  0.2790
 5564W        W 7764  21.041   5.744  44.832  0.0485 -0.0770 -0.2111
 5565W        W 7765   2.095   5.958  36.558  0.0491  0.1357 -0.2838
 5566W        W 7766   0.578   0.991  30.401 -0.1486 -0.1542 -0.3199
 5567W        W 7767   6.711   6.190  11.609  0.1578  0.2472 -0.0786
 5568W        W 7768   8.632   2.755  43.192 -0.0105 -0.0934 -0.0567
 5569W        W 7769  18.114   5.847  16.464 -0.0862 -0.3578  0.1946
 5570W        W 7770  12.640   0.739  28.579  0.1849  0.0196  0.1849
 5571W        W 7771   8.655   0.700  29.831 -0.1969  0.2086  0.0103
 5572W        W 7772  12.155   4.132  27.916  0.2115  0.4665 -0.0537
 5573W        W 7773  16.235   3.677  26.555 -0.1097 -0.0304  0.0298
 5574W        W 7774  14.410   2.006   7.299  0.0639 -0.4201 -0.3215
 5575W        W 7775  12.359   2.241  31.332 -0.2105 -0.0469 -0.3304
 5576W        W 7776  20.724   1.076   9.507  0.2274 -0.1208  0.0331
 5577W        W 7777   2.132   6.328  38.666  0.2451 -0.1239  0.0384
 5578W        W 7778  13.582   4.747  42.498 -0.2955 -0.0180 -0.0521
 5579W        W 7779  16.062   0.441   1.393  0.0219 -0.1050  0.0296
 5580W        W 7780  20.917   4.364  14.447 -0.1219  0.1246 -0.0895
 5581W        W 7781  16.404   0.550  32.996  0.0315 -0.0313  0.3156
 5582W        W 7782   5.190   1.839  35.014 -0.2898  0.1175  0.0894
 5583W        W 7783   1.850   0.681  32.775 -0.4860  0.1198 -0.1141
 5584W        W 7784   1.748   5.868  38.802 -0.0570 -0.1361  0.2361
 5585W        W 7785  15.533   2.624  44.042  0.1023 -0.3012  0.2837
 5586W        W 7786  12.171   4.473  36.019 -0.0334 -0.1092 -0.1293
 5587W        W 7787  19.442   1.285  31.609 -0.1611 -0.0093 -0.2787
 5588W        W 7788  19.827   6.557  22.240  0.4131  0.1757  0.1340
 5589W        W 7789   4.935   3.555   2.911 -0.3113  0.2023 -0.0562
 5590W        W 7790   9.534   5.265   7.384  0.0079 -0.1247 -0.1316
 5591W        W 7791  18.430   1.758  25.512 -0.0254 -0.1022 -0.2568
 5592W        W 7792   3.173   0.923  35.627 -0.2727  0.1972 -0.2480
 5593W        W 7793   0.332   6.012  36.823 -0.1016  0.0902 -0.0522
 5594W        W 7794  13.591   3.275  42.945 -0.1545  0.2400  0.2983
 5595W        W 7795  11.651   1.464  21.642 -0.0885  0.0631 -0.1615
 5596W        W 7796   0.267   2.445  31.661  0.1887 -0.1592 -0.0265
 5597W        W 7797  10.459   2.329  18.556  0.0962  0.0264  0.1865
 5598W        W 7798  19.535   5.134  22.846 -0.1910 -0.0260 -0.1955
 5599W        W 7799  18.702   0.379  28.548 -0.0481 -0.0314 -0.1723
 5600W        W 7800   9.403   1.524  37.858  0.1617  0.0782  0.1479
 5601W        W 7801   4.105   5.667  31.107  0.1853  0.1813 -0.1715
 5602W        W 7802  16.474   1.187  11.968  0.0943 -0.1224  0.0275
 5603W        W 7803  12.055   6.000  33.315 -0.2075  0.4068  0.0782
 5604W        W 7804   7.033   6.168   0.290 -0.1032 -0.0417 -0.0093
 5605W        W 7805  19.545   6.074  27.031 -0.2101 -0.1680 -0.4183
 5606W        W 7806   7.320   0.000   5.709  0.0780 -0.4798  0.1020
 5607W        W 7807  16.173   5.163  31.903  0.1767  0.1722 -0.0038
 5608W        W 7808  19.962   4.961  21.762  0.2089  0.0442 -0.1985
 5609W        W 7809  12.955   2.185  36.610 -0.1220  0.0444  0.1602
 5610W        W 7810  20.890   0.052  29.276  0.0565 -0.3088  0.1133
 5611W        W 7811  10.147   2.078  17.536  0.1855  0.0155  0.0337
 5612W        W 7812  14.600   1.126   3.440  0.0051 -0.0794  0.3059
 5613W        W 7813   5.004   0.337  43.192 -0.0508 -0.2091  0.1199
 5614W        W 7814   2.841   0.578   6.209  0.0524  0.1380 -0.1331
 5615W        W 7815  15.340   2.567  45.043  0.2204 -0.0140  0.0852
 5616W        W 7816  18.854   2.360  28.469  0.0009  0.1531  0.1041
 5617W        W 7817  20.864   2.895  37.402 -0.1366  0.1348  0.1151
 5618W        W 7818   4.712   2.110   2.848 -0.0451 -0.1777  0.0735
 5619W        W 7819  15.383   2.504  39.160 -0.0660 -0.0440 -0.1317
 5620W        W 7820   8.021   0.324   7.211 -0.0300  0.0870 -0.0250
 5621W        W 7821  20.979   3.341   4.093  0.1662  0.0785 -0.2766
 5622W        W 7822  20.778   2.665  25.155 -0.1290  0.0364  0.0139
 5623W        W 7823   9.729   0.441  42.912  0.1278 -0.0594  0.0031
 5624W        W 7824   0.943   1.164  24.592  0.0464 -0.0355 -0.1322
 5625W        W 7825   7.140   4.714   3.999 -0.2048  0.0099  0.1591
 5626W        W 7826   7.950   2.803  14.466 -0.0608  0.0431 -0.0368
 5627W        W 7827   3.510   0.903  40.350 -0.1863 -0.0030 -0.0470
 5628W        W 7828  15.950   1.484  36.084  0.1131  0.0386  0.2535
 5629W        W 7829  17.890   6.189  36.334 -0.0983 -0.4745 -0.0286
 5630W        W 7830  18.088   0.293  26.519  0.1203  0.0097  0.1518
 5631W        W 7831   3.166   3.763  27.609  0.5601  0.0688 -0.3363
 5632W        W 7832   2.786   2.539  14.855 -0.0566  0.1994  0.1005
 5633W        W 7833  20.448   6.266  28.424  0.2009  0.0299  0.1500
 5634W        W 7834  10.666   0.301  14.747  0.1520  0.0493  0.2764
 5635W        W 7835   0.031   2.595  34.297  0.4459  0.0923 -0.2428
 5636W        W 7836  14.301   0.084  39.563 -0.0085  0.1113  0.1418
 5637W        W 7837   3.629   5.946  44.969 -0.1379 -0.0706  0.0093
 5638W        W 7838  19.146   3.853  22.560  0.0818  0.2354  0.1612
 5639W        W 7839  20.001   0.736   1.080  0.1185  0.0186  0.2243
 5640W        W 7840   8.572   3.786  42.976  0.1259  0.1094  0.0999
 5641W        W 7841  13.848   6.582   3.277  0.1258  0.1919  0.0738
 5642W        W 7842  19.787   3.753  44.282  0.3551  0.2410 -0.0005
 5643W        W 7843  18.548   4.881   3.011 -0.1193 -0.2235 -0.1195
 5644W        W 7844   1.066   0.122  31.530  0.0293  0.0225 -0.1810
 5645W        W 7845   4.667   0.996   3.988  0.0045  0.1300  0.3340
 5646W        W 7846  20.666   5.814  24.190 -0.1448  0.0815 -0.0560
 5647W        W 7847  16.520   6.382   3.141 -0.2446 -0.0238 -0.1224
 5648W        W 7848  18.681   4.772   5.140  0.0890 -0.2891  0.0186
 5649W        W 7849   5.773   5.016  32.365 -0.1124  0.0707 -0.0515
 5650W        W 7850  12.023   3.667   0.898  0.2598  0.0284 -0.0634
 5651W        W 7851  13.490   2.177   8.313  0.0625 -0.0839  0.0322
 5652W        W 7852  17.209   1.277  24.349  0.0183 -0.2087 -0.1472
 5653W        W 7853  11.889   2.948  33.824  0.3929  0.1388  0.0028
 5654W        W 7854   2.984   0.948  16.255 -0.1843 -0.0143  0.1257
 5655W        W 7855  17.099   4.958  37.721 -0.0174  0.2094  0.1191
 5656W        W 7856   6.290   3.824  10.581 -0.2838  0.0674  0.1964
 5657W        W 7857  13.046   5.669   4.406 -0.1957 -0.0262  0.0183
 5658W        W 7858   8.776   2.856  14.008  0.1373  0.2820  0.1364
 5659W        W 7859   3.011   5.093  39.373 -0.2128 -0.0340  0.1802
 5660W        W 7860   6.539   3.796   3.501 -0.1762 -0.1293  0.2147
 5661W        W 7861  13.869   3.513  30.867 -0.0226 -0.1936  0.1486
 5662W        W 7862   0.684   4.080  26.927 -0.1624 -0.0614  0.1062
 5663W        W 7863   0.818   2.310  11.264  0.0925  0.0169 -0.1925
 5664W        W 7864  11.478   4.362  40.199  0.2841  0.2701 -0.0667
 5665W        W 7865  20.227   0.753   9.252 -0.1091  0.0646  0.0695
 5666W        W 7866   9.707   5.021  39.856  0.2332 -0.0691  0.0439
 5667W        W 7867   4.833   1.227   5.155  0.1906  0.1224  0.0244
 5668W        W 7868  11.045   5.072  16.639 -0.1466  0.0478  0.0289
 5669W        W 7869   4.298   4.110  28.535 -0.0959 -0.2225  0.2824
 5670W        W 7870  15.755   0.256  39.660  0.2113  0.1326  0.1540
 5671W        W 7871   6.055   5.487   8.314  0.1291  0.4065  0.0708
 5672W        W 7872  13.980   4.460  13.961  0.0223  0.1404  0.1049
 5673W        W 7873   8.486   0.319  42.801  0.0203 -0.0126  0.0686
 5674W        W 7874  15.464   3.873  14.613 -0.1817  0.2362  0.1867
 5675W        W 7875  10.571   1.221   2.552  0.3213  0.3420 -0.1475
 5676W        W 7876   2.603   5.179  41.893  0.0197  0.0688  0.2304
 5677W        W 7877   6.963   2.782  15.951 -0.1177  0.0707  0.4180
 5678W        W 7878   5.598   6.096  37.578 -0.1883 -0.0082 -0.4266
 5679W        W 7879  19.348   1.164  36.150 -0.3979 -0.1590 -0.1356
 5680W        W 7880   2.037   5.776   1.890  0.2903 -0.3753  0.0408
 5681W        W 7881  15.924   1.236   7.009 -0.2955  0.4194  0.2272
 5682W        W 7882  16.273   2.732   5.556  0.0579  0.2173  0.2343
 5683W        W 7883  14.834   0.423  10.425  0.0617  0.3104  0.4011
 5684W        W 7884   9.568   5.559  29.115  0.1440  0.2767  0.1172
 5685W        W 7885   1.100   0.893   4.772  0.2258  0.0931 -0.0809
 5686W        W 7886   7.551   0.569  40.158 -0.0989  0.1129  0.2500
 5687W        W 7887   3.819   2.705   0.858 -0.0720  0.2268  0.0364
 5688W        W 7888  16.522   4.042  33.986 -0.0827  0.2086  0.3698
 5689W        W 7889   6.076   2.388  18.056 -0.2625 -0.0663  0.0925
 5690W        W 7890   9.168   0.419   6.870  0.0797  0.0019 -0.1765
 5691W        W 7891   4.296   2.174  14.659 -0.0786 -0.2724 -0.2461
 5692W        W 7892   2.068   0.454   1.420  0.0566  0.0836  0.1334
 5693W        W 7893   9.784   0.399  19.976 -0.0650 -0.0913  0.2145
 5694W        W 7894  15.953   1.771   7.772 -0.2637  0.1873 -0.0025
 5695W        W 7895  10.587   3.239   7.394  0.1339 -0.1292  0.0237
 5696W        W 7896   5.772   5.836  34.963  0.1041 -0.2573  0.0675
 5697W        W 7897  16.669   3.824  38.845  0.1820  0.0755 -0.2201
 5698W        W 7898   3.397   6.530  13.054 -0.0165  0.1960 -0.1119
 5699W        W 7899   3.989   6.441   7.458 -0.0206  0.1713  0.1693
 5700W        W 7900   6.258   5.746  41.368 -0.2459 -0.1255 -0.1302
 5701W        W 7901   5.114   2.621  39.198  0.1776 -0.3560 -0.1087
 5702W        W 7902   6.604   2.284  18.613  0.1356  0.2548  0.1448
 5703W        W 7903   2.609   3.985   2.322 -0.2267 -0.0843 -0.0148
 5704W        W 7904   2.816   6.058   7.042  0.2291  0.0339 -0.1110
 5705W        W 7905   1.057   5.180  37.076  0.0352 -0.0180  0.2234
 5706W        W 7906  15.155   2.120  31.220 -0.0261 -0.0033  0.1932
 5707W        W 7907  11.184   4.054  21.981  0.1731 -0.0156 -0.1957
 5708W        W 7908  15.809   6.575  35.128  0.1715  0.2072 -0.0116
 5709W        W 7909   3.999   0.888  28.137 -0.3676 -0.0392 -0.2996
 5710W        W 7910  11.188   0.032  40.262  0.0252  0.3297 -0.2504
 5711W        W 7911  12.067   5.136  19.722  0.0385  0.2877  0.1510
 5712W        W 7912   8.938   3.323  18.130  0.0376 -0.3334 -0.1480
 5713W        W 7913   9.345   2.894  38.857 -0.0760  0.1255  0.0544
 5714W        W 7914  20.045   3.090  13.910  0.3315  0.1073  0.0958
 5715W        W 7915  10.507   1.076  17.424 -0.2833 -0.1407  0.1202
 5716W        W 7916   6.319   4.895  32.823  0.2215  0.2821 -0.0307
 5717W        W 7917   6.742   5.205   0.353  0.1944 -0.0357  0.2754
 5718W        W 7918  20.371   1.841   2.089  0.2447  0.0054 -0.3573
 5719W        W 7919  17.713   1.852  30.236  0.0862 -0.1350  0.1158
 5720W        W 7920   2.829   3.662  12.798  0.0882  0.1269 -0.2878
 5721W        W 7921  10.263   3.570   9.044 -0.0065 -0.1174  0.0055
 5722W        W 7922  11.585   0.793  16.879  0.2785 -0.1340  0.1534
 5723W        W 7923   2.666   5.237  36.928 -0.2661 -0.1536  0.1479
 5724W        W 7924  15.161   1.609  39.046 -0.0120 -0.0916 -0.2044
 5725W        W 7925  16.611   0.336  37.058  0.1878  0.1960 -0.2911
 5726W        W 7926  16.649   3.848  32.210  0.1100  0.1097  0.0642
 5727W        W 7927  11.601   6.136  34.599  0.0536 -0.2677 -0.1753
 5728W        W 7928  14.998   3.898   8.857  0.1668  0.1018  0.2089
 5729W        W 7929   3.521   5.823  41.120 -0.2226 -0.0078  0.1746
 5730W        W 7930  18.201   2.620  44.522 -0.0103  0.0941  0.0090
 5731W        W 7931  15.555   2.551   5.115  0.3179  0.0971 -0.1196
 5732W        W 7932   9.473   5.308  43.768  0.0178  0.1534  0.0509
 5733W        W 7933  14.648   1.801  32.188  0.1343 -0.0297 -0.2737
 5734W        W 7934  19.019   2.506   1.755 -0.3549  0.1430  0.4819
 5735W        W 7935  20.222   1.951  10.723  0.0604 -0.0228  0.0990
 5736W        W 7936  10.858   6.092  30.241 -0.1121  0.0475  0.0161
 5737W        W 7937  15.306   1.505  35.513 -0.1716 -0.0526  0.1390
 5738W        W 7938   0.035   5.994  27.178  0.0436 -0.1137  0.1776
 5739W        W 7939   9.307   4.822  33.632 -0.2620  0.1155 -0.1073
 5740W        W 7940  15.344   3.262  10.971  0.2138 -0.1956  0.0482
 5741W        W 7941  11.499   4.995  30.463 -0.4210 -0.0182 -0.0418
 5742W        W 7942   0.888   4.964   9.283  0.2356 -0.1219 -0.0666
 5743W        W 7943  17.196   6.327  12.155  0.2783 -0.1270 -0.1574
 5744W        W 7944   2.280   1.432   7.179  0.1052 -0.3549 -0.1172
 5745W        W 7945  19.462   4.570  42.406  0.0967 -0.4169  0.3671
 5746W        W 7946   1.157   5.102  30.648 -0.0503 -0.4337  0.1355
 5747W        W 7947  10.058   3.192  30.584  0.1681  0.0777  0.3092
 5748W        W 7948  11.140   3.167  16.147 -0.1497  0.1814  0.1058
 5749W        W 7949   3.723   2.618   5.455 -0.2198  0.0086 -0.1113
 5750W        W 7950   5.445   5.757  29.026  0.1570  0.1552 -0.0403
 5751W        W 7951   0.353   2.933  44.297  0.1290  0.1192  0.0168
 5752W        W 7952  15.984   5.054  43.564 -0.0982 -0.2046 -0.0200
 5753W        W 7953  20.923   3.511  42.780 -0.0692  0.2622 -0.0633
 5754W        W 7954  21.045   0.177  43.198  0.0433 -0.2298 -0.0609
 5755W        W 7955   1.679   1.072  30.603  0.1915 -0.1299 -0.1834
 5756W        W 7956  19.732   0.983  15.380 -0.3280 -0.1002  0.0587
 5757W        W 7957  21.001   6.002  25.845 -0.0670 -0.1152  0.4179
 5758W        W 7958   7.217   4.622  14.291  0.1597  0.0454  0.3352
 5759W        W 7959   9.659   3.107  21.369  0.1607 -0.0388 -0.1429
 5760W        W 7960  13.365   4.553  41.691  0.1407  0.0060 -0.3823
 5761W        W 7961   6.901   1.982  40.755  0.1060  0.0206  0.0838
 5762W        W 7962   6.983   4.441   3.267  0.1182  0.0500 -0.1425
 5763W        W 7963  13.059   6.240  45.074  0.0450 -0.2351 -0.2903
 5764W        W 7964  15.299   3.409  39.539 -0.2820 -0.0911 -0.1619
 5765W        W 7965  20.861   3.188  14.853  0.0708  0.2778 -0.1930
 5766W        W 7966   2.756   4.175   5.398  0.2067 -0.0668  0.2112
 5767W        W 7967   9.475   0.086  13.743  0.0381 -0.0490 -0.0582
 5768W        W 7968  18.200   5.508  23.367  0.0077 -0.4830 -0.2165
 5769W        W 7969  20.223   3.840  26.780  0.4237  0.3353  0.1715
 5770W        W 7970   1.644   3.092   8.498 -0.1599  0.1204  0.0445
 5771W        W 7971  12.386   2.611  29.036  0.0170  0.1556 -0.0775
 5772W        W 7972  15.928   2.031  35.043 -0.0008 -0.2654 -0.1225
 5773W        W 7973  16.502   4.654   7.446 -0.0692  0.2735 -0.0378
 5774W        W 7974  14.567   1.089  31.454 -0.2282  0.0410 -0.1050
 5775W        W 7975  14.172   0.252  26.683  0.2334  0.3512 -0.2350
 5776W        W 7976  20.496   4.240   0.267 -0.2370  0.2317 -0.3473
 5777W        W 7977  18.677   0.426  12.745 -0.3758  0.1131 -0.0374
 5778W        W 7978   0.473   3.444   0.231 -0.0330 -0.3112  0.2556
 5779W        W 7979   9.012   2.409  14.085 -0.0910  0.1428 -0.0402
 5780W        W 7980  16.699   3.222  37.054  0.0549 -0.0288  0.0864
 5781W        W 7981  10.147   3.325  34.314  0.1847 -0.1974  0.2776
 5782W        W 7982  13.049   6.505  10.891 -0.0247 -0.1454  0.0181
 5783W        W 7983   1.664   0.726  38.531 -0.1034 -0.0212  0.0789
 5784W        W 7984   8.970   2.402   7.953 -0.0838  0.0193  0.2350
 5785W        W 7985  16.248   3.364  39.246  0.2373  0.0596 -0.0107
 5786W        W 7986  17.649   4.392  42.035  0.1767  0.0622  0.0424
 5787W        W 7987  15.387   4.028  44.223 -0.1267  0.1369  0.0109
 5788W        W 7988  12.472   6.308   6.212 -0.0152  0.1507  0.0416
 5789W        W 7989   4.066   2.321  32.500 -0.2517  0.1567 -0.0413
 5790W        W 7990   6.285   0.689  42.577 -0.2474  0.1416 -0.0606
 5791W        W 7991  20.018   3.911  36.217 -0.2013  0.0661  0.1066
 5792W        W 7992  13.932   5.947   8.940  0.0022 -0.0239 -0.1127
 5793W        W 7993   9.384   2.672  14.430 -0.2445  0.1910 -0.2507
 5794W        W 7994  13.145   2.447  41.937 -0.3066  0.1408  0.2513
 5795W        W 7995   6.306   5.277  35.472  0.1020 -0.0126  0.2399
 5796W        W 7996  19.182   2.567  12.057  0.0695 -0.1173 -0.0127
 5797W        W 7997  10.763   1.839  24.823  0.3074  0.0847  0.0584
 5798W        W 7998  10.309   3.010   2.530  0.0016 -0.0366 -0.0256
 5799W        W 7999   1.438   5.599   8.793 -0.1953 -0.1773  0.0812
 5800W        W 8000  20.936   3.600  34.608 -0.0326 -0.0359  0.1010
 5801W        W 8001   9.922   4.040  41.340 -0.2208  0.1125  0.0305
 5802W        W 8002  20.271   0.207   9.589  0.0997 -0.1940 -0.1339
 5803W        W 8003  18.285   0.740  25.382 -0.1887 -0.2254 -0.0038
 5804W        W 8004   6.242   3.181   5.988  0.1179 -0.0111 -0.1996
 5805W        W 8005   5.367   6.401   8.947  0.1199  0.0588 -0.1868
 5806W        W 8006   4.058   3.412   7.374  0.0135  0.1492  0.0698
 5807W        W 8007   8.502   6.391  34.967 -0.0626 -0.0671  0.2272
 5808W        W 8008   5.449   0.726  32.958  0.1894  0.2472 -0.0658
 5809W        W 8009   2.845   4.402  28.857  0.0395  0.1001  0.2890
 5810W        W 8010   2.628   1.267   6.840  0.2818  0.0044  0.0621
 5811W        W 8011  12.517   4.953   1.922  0.0243 -0.2143  0.1540
 5812W        W 8012  10.070   2.985  17.397  0.1544  0.3440  0.1139
 5813W        W 8013  12.011   0.642   4.323 -0.0772 -0.1648  0.1090
 5814W        W 8014   6.119   0.511  39.383 -0.0742 -0.0771 -0.1507
 5815W        W 8015  14.150   4.104  13.184 -0.0844  0.2677 -0.4301
 5816W        W 8016   2.468   4.100  25.813 -0.1951  0.0612  0.0136
 5817W        W 8017  16.875   2.745  42.016 -0.1500 -0.0269 -0.0638
 5818W        W 8018  20.880   3.403   1.793 -0.1803 -0.0238 -0.1445
 5819W        W 8019   6.210   5.204  43.816  0.0125 -0.0090 -0.0332
 5820W        W 8020   5.789   2.976  17.133  0.0810  0.0852  0.0986
 5821W        W 8021  19.882   3.278  11.462 -0.0861 -0.1797 -0.0553
 5822W        W 8022   3.654   2.928  34.066 -0.1747 -0.0890  0.1330
 5823W        W 8023  11.731   6.391  30.467  0.1097 -0.3396 -0.2849
 5824W        W 8024   5.305   3.530  37.144 -0.1080 -0.0809 -0.4405
 5825W        W 8025   1.178   5.893  13.658 -0.3885 -0.0795 -0.1904
 5826W        W 8026  21.043   3.898  39.969  0.1320  0.0315  0.2045
 5827W        W 8027   7.725   3.511  29.204  0.0011  0.2367 -0.0610
 5828W        W 8028   4.229   2.167  42.704 -0.0749 -0.0140  0.0655
 5829W        W 8029   1.589   1.491  42.553 -0.1189  0.1505 -0.2473
 5830W        W 8030   3.114   3.962  28.877 -0.1424  0.1409 -0.2033
 5831W        W 8031   5.619   5.169  10.365 -0.1764  0.1528  0.0488
 5832W        W 8032   4.825   6.262   3.706  0.1022  0.0685  0.3096
 5833W        W 8033  10.794   5.494  15.443  0.0462  0.0818  0.1034
 5834W        W 8034   6.577   3.754  22.701  0.2798  0.1522 -0.0084
 5835W        W 8035   6.480   1.622   6.013 -0.0494  0.0840 -0.1590
 5836W        W 8036  16.909   0.725   1.878  0.1029  0.0988 -0.0893
 5837W        W 8037  10.282   5.050  44.784  0.0838  0.2503  0.3086
 5838W        W 8038  12.631   5.895  13.012  0.0572  0.0956  0.0873
 5839W        W 8039  12.041   3.987  35.964  0.1784 -0.1658 -0.2175
 5840W        W 8040  11.238   3.611   1.235 -0.1737  0.1750  0.1345
 5841W        W 8041   7.080   0.288   3.112  0.1597 -0.0769 -0.3627
 5842W        W 8042  15.373   1.451  26.822 -0.1540  0.1081  0.2164
 5843W        W 8043   9.985   5.453  22.428  0.1617 -0.0219  0.1539
 5844W        W 8044   7.407   4.260  20.766 -0.2469  0.0597  0.2510
 5845W        W 8045   3.212   1.204  28.271  0.1160  0.1208  0.0607
 5846W        W 8046   7.938   2.000  22.028 -0.0281  0.2743  0.2385
 5847W        W 8047  19.252   2.311  14.019 -0.1174  0.0823 -0.0148
 5848W        W 8048  13.742   1.398  10.843  0.1486 -0.1617 -0.3334
 5849W        W 8049  19.693   3.458  41.060 -0.0496  0.0328 -0.0128
 5850W        W 8050   3.975   1.055   6.748  0.0386  0.1819  0.0944
 5851W        W 8051   5.607   6.410   0.978 -0.3447 -0.0119 -0.0974
 5852W        W 8052   2.497   1.270  34.079  0.2940 -0.3480  0.0195
 5853W        W 8053   7.155   2.380  34.009  0.0244 -0.1739  0.2347
 5854W        W 8054   9.532   1.510  24.076 -0.0177 -0.2700 -0.1292
 5855W        W 8055  16.778   0.298  27.270 -0.0712  0.1582 -0.0545
 5856W        W 8056  10.414   5.458  14.728 -0.0091  0.0832 -0.1314
 5857W        W 8057   6.016   5.020  42.544  0.1865 -0.0760  0.1011
 5858W        W 8058  19.137   4.827  40.891  0.1820  0.0697  0.2640
 5859W        W 8059  20.293   0.818   6.613  0.2476  0.0249  0.3226
 5860W        W 8060  18.865   5.336   5.043  0.1448 -0.1040 -0.0362
 5861W        W 8061   2.155   5.280  27.120  0.0534  0.2242  0.0717
 5862W        W 8062   7.085   2.918  40.855 -0.1274 -0.1198 -0.0527
 5863W        W 8063   8.053   0.809  12.221 -0.0610 -0.1153  0.2457
 5864W        W 8064   1.518   0.223  40.843 -0.0875 -0.1985 -0.2643
 5865W        W 8065  19.540   2.197   3.001 -0.3136 -0.0012  0.0260
 5866W        W 8066   4.739   3.459  15.053  0.2587 -0.0274 -0.2696
 5867W        W 8067   1.719   3.548  40.761  0.1265 -0.2396  0.5453
 5868W        W 8068  20.531   1.917  35.126 -0.3983 -0.2082 -0.3298
 5869W        W 8069   9.042   6.140  39.391 -0.1092 -0.1071 -0.1040
 5870W        W 8070  15.821   0.972   0.758 -0.0170 -0.2582  0.1065
 5871W        W 8071   7.435   0.051  31.626 -0.1125  0.2061  0.1280
 5872W        W 8072   2.400   6.465  14.114 -0.1156 -0.2595  0.1521
 5873W        W 8073  16.838   6.461  35.578  0.2031  0.0656  0.0487
 5874W        W 8074   7.471   0.982  35.718  0.0864 -0.0068  0.1755
 5875W        W 8075   5.486   4.677   5.045 -0.3076 -0.1141  0.2036
 5876W        W 8076   9.877   3.312  36.445 -0.1112  0.0617  0.3224
 5877W        W 8077   0.223   2.192  27.421 -0.0136  0.1088  0.3121
 5878W        W 8078  12.509   0.212  27.568 -0.0091 -0.0984 -0.1030
 5879W        W 8079   0.370   1.794  26.487 -0.1982  0.3195 -0.2661
 5880W        W 8080   2.974   3.275   4.117 -0.1714  0.0149 -0.4899
 5881W        W 8081   2.460   4.658  14.556 -0.3033  0.0774 -0.0702
 5882W        W 8082  13.860   3.920   9.624 -0.1597 -0.1716  0.0182
 5883W        W 8083  12.631   5.890   4.576  0.1364 -0.1289 -0.1108
 5884W        W 8084   0.937   3.106  34.831 -0.2428  0.2196 -0.3544
 5885W        W 8085   9.640   0.389  18.380  0.0062 -0.0202 -0.1030
 5886W        W 8086   7.330   5.527  14.431  0.2032  0.1612 -0.1465
 5887W        W 8087   8.782   3.967  17.520 -0.1272 -0.1881  0.0835
 5888W        W 8088  17.168   4.923  38.234 -0.1403 -0.1428  0.1511
 5889W        W 8089  19.541   4.048  38.632  0.4085 -0.4015 -0.3034
 5890W        W 8090  19.761   4.505  38.874  0.4364  0.2189  0.1885
 5891W        W 8091  10.539   2.844  31.628  0.0543  0.1426 -0.0422
 5892W        W 8092  19.138   1.803  30.214  0.1761 -0.0268  0.0805
 5893W        W 8093   7.226   3.973   9.576  0.0058 -0.1735 -0.1511
 5894W        W 8094   7.206   2.896  37.773 -0.2988 -0.0924  0.0431
 5895W        W 8095   9.989   0.754  20.786  0.3072 -0.0335  0.1286
 5896W        W 8096   2.428   5.843   7.888 -0.2913  0.1055 -0.2611
 5897W        W 8097   6.006   2.581  32.785  0.1478 -0.0600  0.1297
 5898W        W 8098  15.413   5.004  43.898  0.0484  0.1458 -0.2257
 5899W        W 8099   8.965   2.773  36.085  0.2497  0.0946  0.0283
 5900W        W 8100  13.681   2.339  10.951 -0.0176 -0.2641 -0.1170
 5901W        W 8101  14.217   0.963  18.344  0.1674 -0.0910 -0.0459
 5902W        W 8102  18.314   2.036   9.373  0.2350  0.0956  0.0782
 5903W        W 8103  19.497   1.628   8.241 -0.1975  0.0395  0.2213
 5904W        W 8104  13.248   1.756   6.645 -0.2131 -0.1582 -0.5374
 5905W        W 8105   2.490   2.736   4.752  0.0041 -0.1659 -0.1933
 5906W        W 8106   5.753   0.013  33.505 -0.0320 -0.0922 -0.2355
 5907W        W 8107  12.767   3.663  29.494  0.1333 -0.1448 -0.0619
 5908W        W 8108   8.907   0.552  23.626 -0.1840 -0.0713 -0.2163
 5909W        W 8109  17.756   3.069   9.256 -0.2122 -0.0678  0.0606
 5910W        W 8110  17.420   3.665   7.319 -0.0392  0.1246 -0.2323
 5911W        W 8111  18.791   4.167  26.406 -0.2215 -0.2519 -0.0841
 5912W        W 8112  10.726   0.628   8.548  0.2657  0.3023 -0.0137
 5913W        W 8113  20.228   5.230  43.819 -0.0851  0.0026 -0.3759
 5914W        W 8114   5.183   1.120  14.421  0.1895  0.3292  0.1159
 5915W        W 8115  14.581   0.420   5.867 -0.1779 -0.0642  0.1122
 5916W        W 8116   5.180   0.933  36.174  0.0489  0.3955  0.0034
 5917W        W 8117   5.451   5.972  34.603  0.0894  0.1210 -0.2869
 5918W        W 8118  15.202   0.341   1.775  0.0355  0.0009  0.0563
 5919W        W 8119   6.590   6.330  32.333 -0.1761 -0.0442 -0.0671
 5920W        W 8120   6.647   0.229  44.836 -0.1824  0.0044 -0.0673
 5921W        W 8121   5.023   5.500  41.927  0.0556 -0.1984  0.0643
 5922W        W 8122  12.568   5.886  28.315 -0.3938 -0.0859 -0.2533
 5923W        W 8123   8.876   2.656  37.072  0.3428 -0.1944  0.0155
 5924W        W 8124  18.890   4.094  40.290 -0.1009 -0.0605 -0.3174
 5925W        W 8125  17.959   4.446  11.093 -0.0123 -0.0135  0.0867
 5926W        W 8126  11.634   2.158  11.335 -0.0366 -0.1780 -0.1944
 5927W        W 8127  10.680   4.857  17.597 -0.0932 -0.0963  0.2296
 5928W        W 8128  18.728   2.806   0.032 -0.0120 -0.0850 -0.5809
 5929W        W 8129  18.412   1.767   6.032 -0.0727  0.1429 -0.1351
 5930W        W 8130   0.595   4.979  40.079 -0.0501  0.0674 -0.1296
 5931W        W 8131  12.296   5.539  40.967  0.1516 -0.0522  0.3384
 5932W        W 8132   8.553   4.234  33.772  0.3070 -0.3537 -0.2094
 5933W        W 8133   2.939   5.525  41.016 -0.2284 -0.0415 -0.1192
 5934W        W 8134  14.209   4.314   3.284  0.0737 -0.0362 -0.3253
 5935W        W 8135  20.721   0.115  12.916 -0.0717 -0.1224 -0.3535
 5936W        W 8136  18.200   0.553   0.461 -0.1505  0.2291  0.1406
 5937W        W 8137  17.756   1.951  37.186 -0.1207 -0.0737 -0.1418
 5938W        W 8138   4.422   2.118  37.147  0.0230  0.0197 -0.1016
 5939W        W 8139  12.438   2.952   7.651  0.3697 -0.1254 -0.1906
 5940W        W 8140  19.026   0.943  38.207  0.1940  0.3698  0.0828
 5941W        W 8141  14.267   6.335   4.958  0.2250  0.1558  0.2275
 5942W        W 8142  17.040   1.215  41.427  0.0133 -0.5158  0.1993
 5943W        W 8143   7.212   4.428  35.871 -0.0698  0.0314  0.1917
 5944W        W 8144  18.268   3.837   9.162 -0.0382 -0.1485  0.0284
 5945W        W 8145  19.484   4.362   7.558 -0.1935 -0.1514  0.0025
 5946W        W 8146  17.963   5.595  14.949 -0.0832 -0.0004  0.1062
 5947W        W 8147   2.532   6.525  31.498  0.0567  0.0008  0.0768
 5948W        W 8148   7.485   2.041  23.845 -0.2898 -0.0370 -0.1760
 5949W        W 8149   5.130   0.512  31.503  0.4428  0.0114 -0.0475
 5950W        W 8150  17.242   0.958   5.763  0.0780  0.2302  0.1319
 5951W        W 8151   3.115   0.562  10.457 -0.1714 -0.3336  0.3145
 5952W        W 8152   2.852   1.017  27.376 -0.1071 -0.0298 -0.1624
 5953W        W 8153  12.806   2.109  21.478 -0.2590 -0.2203 -0.1315
 5954W        W 8154   8.348   0.086  14.911 -0.2599  0.1861 -0.2076
 5955W        W 8155  17.535   5.249  42.625 -0.1914  0.1842 -0.2254
 5956W        W 8156   9.757   2.863   3.379 -0.2214 -0.0684  0.0794
 5957W        W 8157  18.421   5.328  10.426 -0.1223 -0.3840  0.1410
 5958W        W 8158  13.112   1.618   4.047 -0.0343  0.0093 -0.1214
 5959W        W 8159  12.372   4.681   9.481  0.0885 -0.2025 -0.2256
 5960W        W 8160   2.707   3.106  37.960  0.0552  0.1788 -0.0891
 5961W        W 8161   0.827   5.416  33.533  0.0929  0.1159 -0.3395
 5962W        W 8162  18.200   1.785   3.392  0.0853 -0.1761  0.0427
 5963W        W 8163   4.882   3.870   2.520 -0.0152 -0.0753  0.2919
 5964W        W 8164   5.704   0.767  10.293 -0.0305 -0.0288 -0.0169
 5965W        W 8165   4.003   3.333   7.918  0.0376  0.0876 -0.0343
 5966W        W 8166  13.830   3.744  41.245  0.5245 -0.0038  0.3451
 5967W        W 8167  20.742   5.596  42.235  0.0040 -0.0392 -0.1749
 5968W        W 8168   2.569   4.425  15.931  0.0813 -0.2485  0.1914
 5969W        W 8169  17.914   3.421   9.953 -0.0316 -0.1915 -0.2052
 5970W        W 8170   7.207   3.561   6.950  0.0970  0.0646  0.0092
 5971W        W 8171  20.253   6.477  38.796  0.2811  0.1411 -0.1801
 5972W        W 8172  13.335   0.367  10.796 -0.2784  0.3995  0.2728
 5973W        W 8173  16.830   6.272  25.757 -0.0410  0.0594 -0.1393
 5974W        W 8174   1.937   3.271  33.760 -0.1689  0.1274 -0.1653
 5975W        W 8175   3.780   3.380   6.573  0.3841  0.0140 -0.0004
 5976W        W 8176   1.028   4.795  27.462  0.2449 -0.0808  0.1962
 5977W        W 8177   0.738   2.539  35.741  0.0052  0.0662 -0.2122
 5978W        W 8178  15.399   0.203   8.739 -0.2562  0.0243 -0.0951
 5979W        W 8179  18.081   0.754   8.718  0.0854  0.1077  0.0169
 5980W        W 8180  15.971   0.546  39.221  0.1512  0.2337 -0.2863
 5981W        W 8181  12.966   1.615  33.218 -0.0733 -0.1078 -0.1341
 5982W        W 8182  15.567   0.185  16.701 -0.0775  0.4824 -0.1679
 5983W        W 8183  10.784   3.386  44.140  0.0117  0.0002 -0.0054
 5984W        W 8184  20.641   3.776  11.705 -0.0358  0.3072 -0.0267
 5985W        W 8185  15.288   6.262   8.682  0.2924  0.2029  0.2634
 5986W        W 8186   2.114   2.658  33.251 -0.0257 -0.0991 -0.3610
 5987W        W 8187   7.477   3.841  30.114 -0.2562 -0.1854  0.0999
 5988W        W 8188  19.691   4.156   4.635  0.1634 -0.1111  0.0619
 5989W        W 8189   3.488   3.109  15.021 -0.3758 -0.1784  0.1007
 5990W        W 8190   0.523   3.989  27.702 -0.0225  0.0971  0.0376
 5991W        W 8191  11.585   5.823  16.544  0.0928 -0.0343  0.0438
 5992W        W 8192   4.093   4.475  34.760 -0.0632  0.0938 -0.1713
 5993W        W 8193   4.412   2.070  10.432  0.0991 -0.0210 -0.0926
 5994W        W 8194  11.495   3.962  43.741 -0.2872  0.1412 -0.0699
 5995W        W 8195  14.936   2.715  33.434  0.3928 -0.1963  0.0697
 5996W        W 8196  14.942   4.778  30.301  0.2342  0.1993  0.1831
 5997W        W 8197  13.412   3.288   6.629  0.0256  0.0504 -0.0640
 5998W        W 8198  12.968   0.245  37.542 -0.1435 -0.1063 -0.3148
 5999W        W 8199   4.218   4.729  11.557 -0.2390  0.2692 -0.1977
 6000W        W 8200  19.434   3.277   3.243  0.1065 -0.0968 -0.0893
 6001W        W 8201  16.300   1.921   1.673 -0.2811 -0.0424 -0.1167
 6002W        W 8202   7.978   3.362   6.802 -0.2573 -0.0193  0.0320
 6003W        W 8203  20.694   1.379  28.914 -0.1252 -0.0784 -0.1753
 6004W        W 8204   5.858   4.721   1.949 -0.3208  0.3179  0.2346
 6005W        W 8205   6.648   4.296  32.142 -0.1693 -0.1169  0.0394
 6006W        W 8206  10.096   1.960  42.905  0.3335  0.2632 -0.0300
 6007W        W 8207  17.504   3.558  42.999  0.0787 -0.0904 -0.0155
 6008W        W 8208   9.538   0.021  44.237  0.1542 -0.0074  0.2119
 6009W        W 8209  20.712   1.450  21.244 -0.2107  0.0132  0.0467
 6010W        W 8210   9.278   0.308  40.060  0.0851 -0.0832  0.0415
 6011W        W 8211   9.639   5.192   2.337 -0.1245 -0.0003  0.0751
 6012W        W 8212   7.648   0.366   3.761  0.2103 -0.1903 -0.0459
 6013W        W 8213  20.630   4.514  30.089 -0.0820 -0.0904  0.0284
 6014W        W 8214   1.736   5.683   5.274  0.2713  0.1780  0.1539
 6015W        W 8215   4.744   2.205  12.258 -0.3414 -0.0440  0.2702
 6016W        W 8216  16.156   4.421  30.898  0.1154 -0.0167 -0.1824
 6017W        W 8217   3.049   4.298   5.867 -0.4233  0.1254 -0.0864
 6018W        W 8218   3.685   0.653  34.780 -0.3750  0.1829 -0.0315
 6019W        W 8219  14.866   3.022  40.959  0.2265 -0.1152  0.0144
 6020W        W 8220  10.653   1.806  13.300 -0.0819  0.4672 -0.2533
 6021W        W 8221   0.150   3.784  38.757 -0.0435  0.0223  0.2647
 6022W        W 8222   8.848   5.729  37.624 -0.0530  0.0184  0.1055
 6023W        W 8223   1.415   0.420   2.956  0.3056  0.1254 -0.2926
 6024W        W 8224   5.937   2.398  12.200  0.2823  0.1041 -0.3177
 6025W        W 8225  19.597   4.649  31.502 -0.0704  0.0020 -0.1935
 6026W        W 8226  17.439   2.786  42.757 -0.1791  0.1056  0.0986
 6027W        W 8227  18.459   2.824   0.473  0.0045  0.0186  0.5866
 6028W        W 8228   7.396   3.349  17.484 -0.2784  0.1011 -0.0899
 6029W        W 8229  13.499   0.929   6.301 -0.1148 -0.2825  0.0946
 6030W        W 8230   8.884   1.030  14.405  0.1538 -0.0933  0.1396
 6031W        W 8231  21.095   4.320  28.364  0.0086  0.1816 -0.0459
 6032W        W 8232  10.955   3.281  14.744 -0.4155  0.2670 -0.1131
 6033W        W 8233   8.682   6.469  14.085  0.0225 -0.1865 -0.1560
 6034W        W 8234  14.469   5.797   7.183 -0.3431 -0.2114  0.1723
 6035W        W 8235  15.305   3.879  39.768  0.1783  0.1669  0.0342
 6036W        W 8236  15.838   1.404  42.559 -0.0569  0.5612 -0.1853
 6037W        W 8237   3.831   4.704  37.161  0.0295 -0.0271 -0.0965
 6038W        W 8238  12.333   1.596  11.181  0.0441 -0.2982 -0.0972
 6039W        W 8239   5.439   2.987   6.233  0.1693  0.1146 -0.1398
 6040W        W 8240   8.459   3.200  43.856  0.2085  0.3583  0.1159
 6041W        W 8241  16.777   0.962  28.276  0.1280  0.2502 -0.3016
 6042W        W 8242   0.252   0.549  27.568  0.0963 -0.0625 -0.1338
 6043W        W 8243  16.407   4.460  11.793  0.0046 -0.0104  0.1995
 6044W        W 8244  12.162   3.992  40.445 -0.0560  0.1398  0.1216
 6045W        W 8245  11.433   2.264  10.866  0.1086 -0.3054  0.1072
 6046W        W 8246  12.018   4.939   8.775  0.0907 -0.1339 -0.2301
 6047W        W 8247   8.083   3.808   8.208  0.2464 -0.2715 -0.1212
 6048W        W 8248  16.965   1.011  15.842  0.0716 -0.1804  0.3009
 6049W        W 8249  17.082   4.129   8.210  0.2278 -0.0745  0.1272
 6050W        W 8250   3.816   4.723  34.390 -0.0861 -0.1038  0.2145
 6051W        W 8251  11.885   1.199  18.115 -0.2988 -0.0023 -0.1251
 6052W        W 8252  14.906   5.603  43.370 -0.0725 -0.2050  0.1985
 6053W        W 8253   8.570   6.134  40.207  0.1547 -0.0157 -0.0775
 6054W        W 8254  19.460   3.124  12.759 -0.1214 -0.1638  0.0383
 6055W        W 8255  14.849   3.082  44.407  0.2839  0.2520 -0.0338
 6056W        W 8256  20.109   5.269  42.099 -0.2417 -0.0903 -0.1102
 6057W        W 8257   1.063   4.008  33.334  0.1819  0.0582 -0.2032
 6058W        W 8258  12.815   0.559   0.725 -0.1039 -0.0462 -0.1352
 6059W        W 8259  13.724   3.888  30.577 -0.0024  0.1918 -0.0334
 6060W        W 8260  16.258   0.944  39.466 -0.1216 -0.0492 -0.1243
 6061W        W 8261   7.738   4.328  13.583  0.0214  0.1086  0.0290
 6062W        W 8262  15.989   0.235   8.842 -0.2216  0.0210 -0.1021
 6063W        W 8263   4.385   5.623  37.382 -0.0618  0.0083  0.2784
 6064W        W 8264  12.022   6.404  14.147 -0.0320  0.0860 -0.1951
 6065W        W 8265  11.958   2.727  29.322 -0.2773  0.1903  0.1540
 6066W        W 8266   8.972   5.513  21.735 -0.0196  0.2504 -0.1420
 6067W        W 8267  20.166   0.683  31.822  0.3363 -0.0825 -0.1433
 6068W        W 8268   2.150   2.923  44.186 -0.1178  0.0658  0.1359
 6069W        W 8269  12.721   3.096  31.127 -0.2675  0.2727  0.1017
 6070W        W 8270   9.503   5.363  38.669 -0.0893  0.0593  0.1033
 6071W        W 8271   6.013   0.552   0.446 -0.0277 -0.1620  0.0199
 6072W        W 8272   3.324   6.366  14.582 -0.0932  0.0640 -0.2329
 6073W        W 8273  12.237   4.113  41.446 -0.2241  0.1962  0.1099
 6074W        W 8274  18.556   1.239  38.168  0.0324  0.3603 -0.0797
 6075W        W 8275  14.354   5.450  14.191 -0.0189  0.1450 -0.0400
 6076W        W 8276  12.705   1.016  43.384 -0.0846  0.0438  0.0107
 6077W        W 8277   3.570   3.355  32.676 -0.1923  0.0206 -0.0964
 6078W        W 8278   9.069   0.886   1.553 -0.2335  0.0508  0.2346
 6079W        W 8279  17.434   5.711  44.282  0.2951 -0.1774  0.1681
 6080W        W 8280  12.105   2.982   4.664  0.0344  0.0813  0.1055
 6081W        W 8281  16.720   1.625  34.676  0.1094  0.0363  0.1049
 6082W        W 8282  20.288   5.636  22.178 -0.1418 -0.2092  0.0523
 6083W        W 8283  11.790   5.801  10.838 -0.0382  0.1898  0.0741
 6084W        W 8284   7.682   1.296   1.228  0.0003 -0.2822 -0.1634
 6085W        W 8285   9.575   0.553   3.754  0.1243  0.1911 -0.1412
 6086W        W 8286  10.014   1.110   0.125 -0.0075  0.0064  0.0043
 6087W        W 8287   7.243   5.129   8.488 -0.1925  0.0059  0.2183
 6088W        W 8288   8.735   6.303   3.429 -0.0961 -0.0263 -0.0946
 6089W        W 8289   0.873   5.148  22.905  0.2013 -0.2723 -0.2046
 6090W        W 8290  15.613   3.171  28.867 -0.2120 -0.3619 -0.0056
 6091W        W 8291  20.098   4.061   7.638  0.2139 -0.0667  0.0038
 6092W        W 8292   6.120   2.532  43.343  0.1182  0.1224  0.0707
 6093W        W 8293   8.798   5.267   4.468 -0.0288 -0.2841  0.3636
 6094W        W 8294   6.886   5.762  14.629 -0.1196 -0.0854 -0.3819
 6095W        W 8295  16.492   1.411  36.078  0.2952 -0.1239  0.1394
 6096W        W 8296  16.413   2.425  30.096  0.0152 -0.1789 -0.1526
 6097W        W 8297  11.268   1.870  43.007  0.2493  0.0131 -0.1961
 6098W        W 8298  17.758   5.123  11.831 -0.1583  0.0880 -0.2121
 6099W        W 8299  14.209   5.376   0.602  0.2153 -0.0083 -0.0733
 6100W        W 8300   8.063   3.571  13.909  0.1868  0.0199 -0.3649
 6101W        W 8301  12.845   6.578  27.871 -0.0944  0.0632 -0.1551
 6102W        W 8302  11.907   4.551  37.006  0.2680 -0.3813  0.2105
 6103W        W 8303   9.330   4.216  40.100 -0.0823  0.2741  0.0773
 6104W        W 8304  20.110   6.371  32.455 -0.0445  0.2197  0.1066
 6105W        W 8305   0.620   4.041  36.156  0.0421 -0.1011  0.1862
 6106W        W 8306   8.797   5.089  20.067 -0.0039 -0.0849  0.1371
 6107W        W 8307  20.441   2.927   8.278  0.0468  0.1363  0.1456
 6108W        W 8308  20.376   4.889  37.995 -0.0863  0.0889 -0.0241
 6109W        W 8309   3.203   4.297  43.884 -0.0211  0.4265 -0.3648
 6110W        W 8310  20.517   3.804   8.164  0.4231 -0.2841  0.3203
 6111W        W 8311   4.388   2.506  38.458  0.0938 -0.0424 -0.1204
 6112W        W 8312   4.402   0.110  44.898  0.0697  0.2219  0.1328
 6113W        W 8313   8.166   1.508  31.558 -0.2191 -0.0061 -0.0709
 6114W        W 8314   5.672   2.779  31.288 -0.1522 -0.0535 -0.0804
 6115W        W 8315   4.321   1.913  12.492 -0.4727  0.0456 -0.1707
 6116W        W 8316  15.373   1.121   1.407 -0.1974  0.0339  0.3135
 6117W        W 8317  11.507   2.994   6.452  0.3323 -0.0017 -0.1470
 6118W        W 8318  18.735   5.592  15.809 -0.1131 -0.0071  0.0045
 6119W        W 8319  21.132   3.344  23.241  0.2407 -0.1770 -0.0240
 6120W        W 8320  20.930   5.335  28.290  0.1546 -0.4115  0.1790
 6121W        W 8321  12.419   0.123  34.303  0.0727  0.2609 -0.0484
 6122W        W 8322   7.862   2.130   4.324  0.0979  0.2622  0.0104
 6123W        W 8323  15.827   1.612   5.296 -0.1044 -0.1622  0.1401
 6124W        W 8324  18.470   3.544  44.000  0.0719  0.2678 -0.1440
 6125W        W 8325  20.362   5.324   1.545  0.1283  0.0207 -0.0672
 6126W        W 8326   6.479   6.149  31.293  0.3010  0.4733 -0.1988
 6127W        W 8327   7.949   4.805   4.573  0.0810  0.1625 -0.1037
 6128W        W 8328  12.891   3.234   7.506  0.1661 -0.2138  0.1204
 6129W        W 8329  19.606   4.880  24.587  0.1004 -0.0642 -0.0204
 6130W        W 8330  18.130   2.748  30.512  0.1159  0.1224 -0.0660
 6131W        W 8331   3.588   4.396  42.750  0.1382  0.0104 -0.0362
 6132W        W 8332   0.923   2.789  30.336 -0.3007 -0.0174 -0.0830
 6133W        W 8333  10.245   6.149  37.401  0.0140  0.1452 -0.0654
 6134W        W 8334  12.123   6.584   4.270  0.2493  0.2525 -0.1854
 6135W        W 8335  14.303   5.745  15.519 -0.0872 -0.1449 -0.0751
 6136W        W 8336   4.840   4.942  16.883 -0.0585  0.1269  0.2003
 6137W        W 8337  18.771   1.880  24.472 -0.1095 -0.2942  0.0031
 6138W        W 8338   3.510   1.418  29.829  0.0999  0.2005 -0.0170
 6139W        W 8339  16.115   3.778  29.174 -0.3536 -0.2351  0.3106
 6140W        W 8340   2.870   5.322  36.403  0.1965  0.0757  0.1025
 6141W        W 8341   9.986   6.080  20.939  0.1189 -0.1942 -0.0976
 6142W        W 8342   5.045   4.993  10.344 -0.1035  0.0146  0.1907
 6143W        W 8343  12.229   5.411  15.565  0.4391  0.0950  0.0931
 6144W        W 8344  14.116   5.521  18.152 -0.1195  0.2584  0.0624
 6145W        W 8345  20.102   2.339   5.259  0.3843 -0.0795 -0.2193
 6146W        W 8346  17.577   2.037  32.166 -0.2522  0.1224 -0.1438
 6147W        W 8347  15.046   6.590  10.484  0.1153  0.1090 -0.0199
 6148W        W 8348   8.165   4.400   5.603 -0.0009  0.2269 -0.1428
 6149W        W 8349   0.593   0.464  30.287 -0.0408  0.2959 -0.1576
 6150W        W 8350  15.359   4.052  26.878  0.1287 -0.0425 -0.2042
 6151W        W 8351   5.879   0.448  16.967  0.1701 -0.1171 -0.0697
 6152W        W 8352  17.346   2.215  37.167  0.1706 -0.0442  0.3354
 6153W        W 8353  13.305   2.695   5.796  0.1932  0.0561  0.3405
 6154W        W 8354   7.449   6.215  43.264  0.1145  0.0348 -0.1682
 6155W        W 8355  17.422   0.157  37.545  0.2944  0.0070  0.1576
 6156W        W 8356  18.510   2.035  32.035  0.1207  0.0174  0.1479
 6157W        W 8357  15.388   5.643   1.461  0.1871  0.0469 -0.2099
 6158W        W 8358   0.352   2.301   5.684 -0.3468 -0.0794  0.1971
 6159W        W 8359   7.796   0.471   6.780  0.1861  0.1157 -0.0161
 6160W        W 8360  12.707   1.593  15.574 -0.1406  0.1113 -0.0810
 6161W        W 8361   3.540   0.286  12.270 -0.0900 -0.1362 -0.1189
 6162W        W 8362   4.656   5.248  17.223 -0.0307 -0.1295  0.1802
 6163W        W 8363  18.967   3.612  15.662 -0.3889 -0.0238 -0.1591
 6164W        W 8364  16.986   5.904  33.384  0.2905  0.1489 -0.0717
 6165W        W 8365   1.167   3.775  30.638  0.3267 -0.0091 -0.1575
 6166W        W 8366   6.896   3.995   8.152  0.3344 -0.3158  0.2417
 6167W        W 8367   0.413   0.223   1.354 -0.0588 -0.4582 -0.1037
 6168W        W 8368  19.610   5.377  24.716  0.0579  0.0767  0.0663
 6169W        W 8369   6.834   3.104  15.078  0.1356 -0.1224 -0.0831
 6170W        W 8370  18.986   4.065  41.741  0.0572 -0.0393 -0.1067
 6171W        W 8371  20.948   1.554   0.993 -0.2739  0.0913 -0.1920
 6172W        W 8372  13.750   1.188   8.245  0.2219  0.2538  0.1190
 6173W        W 8373   9.145   0.763  39.563  0.2660 -0.2113  0.1341
 6174W        W 8374  16.943   0.540  13.418 -0.3792 -0.1597  0.0211
 6175W        W 8375  15.497   1.399   2.539  0.1385  0.1171 -0.0657
 6176W        W 8376   6.957   2.578  41.330 -0.1003 -0.1138  0.0910
 6177W        W 8377  14.396   3.148  15.005 -0.1843  0.0741 -0.2510
 6178W        W 8378   5.660   0.619  43.983  0.0303 -0.1723 -0.0590
 6179W        W 8379   2.287   1.383   0.117 -0.2328 -0.4859 -0.1544
 6180W        W 8380   5.461   4.523  15.166  0.0997 -0.0531  0.0937
 6181W        W 8381  19.301   5.273  44.497 -0.0969 -0.0303  0.0297
 6182W        W 8382  20.783   1.064   2.938  0.1332  0.2898 -0.1534
 6183W        W 8383  14.687   5.740  10.183 -0.1604  0.0824  0.1139
 6184W        W 8384   3.109   6.031  33.539 -0.0068  0.1655 -0.0373
 6185W        W 8385  13.133   1.552  16.481 -0.4256  0.0220 -0.1808
 6186W        W 8386   1.376   4.337  37.593 -0.3039  0.0921 -0.4209
 6187W        W 8387  12.873   5.997  40.129  0.0655  0.1966  0.1623
 6188W        W 8388  11.595   2.725  39.597  0.0220  0.0193  0.1595
 6189W        W 8389   3.067   4.888  38.656 -0.1145 -0.5510  0.1017
 6190W        W 8390   4.885   3.096  40.691  0.0269  0.0323 -0.2004
 6191W        W 8391  20.559   4.034  41.218  0.0107  0.2448 -0.0606
 6192W        W 8392  19.690   1.174  41.563 -0.0368 -0.3449 -0.0714
 6193W        W 8393  10.720   1.678  19.467 -0.1885  0.0573 -0.0456
 6194W        W 8394   7.372   1.043  39.774  0.0739  0.2701  0.1396
 6195W        W 8395  17.991   6.169  26.189  0.2021 -0.1633 -0.1482
 6196W        W 8396  16.396   1.110  33.024  0.2258 -0.0938  0.0021
 6197W        W 8397  15.901   2.872  38.596  0.0665  0.1256  0.1177
 6198W        W 8398   2.386   3.801  41.512  0.1668  0.0261 -0.1211
 6199W        W 8399  10.595   4.721  12.397  0.0581  0.3022  0.0119
 6200W        W 8400  11.969   0.730  33.305 -0.0249  0.0956  0.1116
 6201W        W 8401   0.944   5.134  41.051 -0.4152 -0.3198 -0.2215
 6202W        W 8402  17.237   4.920  39.966  0.1492 -0.1996  0.0716
 6203W        W 8403  19.873   1.108   2.626  0.2602 -0.1903 -0.3098
 6204W        W 8404   5.908   2.663  19.453  0.0171  0.1447 -0.1280
 6205W        W 8405   0.322   2.211  42.999 -0.0132  0.0234 -0.0456
 6206W        W 8406   9.382   2.080   8.790  0.0206 -0.2772  0.3007
 6207W        W 8407  13.835   5.639  13.268  0.0969 -0.3723 -0.2142
 6208W        W 8408   6.610   4.111  35.884 -0.0826  0.0942 -0.2032
 6209W        W 8409   9.885   0.358  41.867 -0.0476  0.2448  0.2519
 6210W        W 8410  16.279   4.417  36.271  0.1071  0.1454  0.0342
 6211W        W 8411   7.217   5.433  10.379  0.0207  0.0757  0.4221
 6212W        W 8412   8.436   3.039  10.786 -0.0239 -0.0280  0.5712
 6213W        W 8413  10.592   0.356  29.738 -0.1992  0.0061 -0.0173
 6214W        W 8414  16.088   0.097  41.434  0.0340 -0.1945 -0.2084
 6215W        W 8415   7.747   4.475  35.268  0.3110  0.1417  0.1714
 6216W        W 8416   6.994   0.488  18.430 -0.0921 -0.2303 -0.1822
 6217W        W 8417  12.574   5.726   8.112  0.0543  0.0837 -0.0567
 6218W        W 8418   3.156   4.655  42.915  0.0625 -0.0320  0.2336
 6219W        W 8419   9.862   6.261  22.333 -0.0199 -0.0532  0.3370
 6220W        W 8420   4.271   2.772   1.670 -0.3648  0.0472  0.1243
 6221W        W 8421   1.106   0.775  38.081  0.0160 -0.2041 -0.1834
 6222W        W 8422  10.489   0.517  44.451  0.0464 -0.0033 -0.2878
 6223W        W 8423   9.427   2.280  39.709  0.0228 -0.0340 -0.0610
 6224W        W 8424  15.634   2.805   4.680  0.4321 -0.1976 -0.0473
 6225W        W 8425   5.349   4.712   0.816  0.1564 -0.0450  0.1145
 6226W        W 8426  10.013   1.435  19.639  0.2850  0.0296  0.1936
 6227W        W 8427  15.827   1.614  26.708  0.2778 -0.1827 -0.1333
 6228W        W 8428  15.566   2.029  26.822 -0.1312 -0.1377 -0.0119
 6229W        W 8429   9.064   6.322   0.983 -0.1094 -0.0475 -0.0903
 6230W        W 8430  12.005   1.816  31.375 -0.2695 -0.2943 -0.0454
 6231W        W 8431   7.417   0.603  29.808  0.1341  0.0776 -0.2070
 6232W        W 8432  14.477   4.108  39.697 -0.0151  0.2268 -0.0866
 6233W        W 8433  12.975   5.212  10.565 -0.0524 -0.0290  0.2165
 6234W        W 8434  20.906   1.125   1.929 -0.2830  0.0415  0.0235
 6235W        W 8435   9.254   5.748  23.317  0.2106  0.1110  0.0578
 6236W        W 8436   6.154   3.016  19.729 -0.3780 -0.2024 -0.1220
 6237W        W 8437   8.877   3.852  13.297 -0.0808  0.0008  0.0732
 6238W        W 8438   8.982   5.242  32.497  0.0146  0.0975  0.0380
 6239W        W 8439   1.368   3.432  10.084 -0.2653 -0.2222 -0.0549
 6240W        W 8440  17.416   1.158  15.548  0.4655 -0.1236 -0.1011
 6241W        W 8441  14.454   3.058  38.194 -0.0929 -0.0978 -0.1291
 6242W        W 8442   0.494   3.073  13.868 -0.1250 -0.0504 -0.0894
 6243W        W 8443   2.155   3.732  39.292 -0.2357  0.1676 -0.2038
 6244W        W 8444   4.752   3.567  40.512  0.2485 -0.1983  0.1984
 6245W        W 8445   9.421   3.209  11.300 -0.1826 -0.0207  0.0228
 6246W        W 8446   2.200   4.776  29.675 -0.0576 -0.0493  0.1563
 6247W        W 8447  11.147   5.964   7.674 -0.2168 -0.1587 -0.0537
 6248W        W 8448   9.348   4.621  41.969 -0.2263  0.2231  0.4568
 6249W        W 8449  11.673   3.450  43.577 -0.3317  0.1937 -0.0156
 6250W        W 8450  14.450   4.799   1.952 -0.0261 -0.2585  0.3157
 6251W        W 8451   0.054   4.690  20.876  0.1327  0.2213  0.0646
 6252W        W 8452   8.509   2.265   2.523  0.1762 -0.2713 -0.0077
 6253W        W 8453  12.234   3.684  33.716  0.3500 -0.2473  0.3481
 6254W        W 8454  15.392   3.619  27.774  0.0121  0.1053 -0.0922
 6255W        W 8455  18.291   5.055  34.845 -0.1143 -0.0844  0.2860
 6256W        W 8456  14.989   5.748   0.879 -0.4590  0.0010  0.1979
 6257W        W 8457  18.619   2.163   3.117  0.1420 -0.1098 -0.1641
 6258W        W 8458  16.815   5.229  33.970  0.0627  0.1933 -0.2022
 6259W        W 8459  16.242   3.847  13.922  0.0212  0.2917  0.0636
 6260W        W 8460  18.346   2.619  12.234 -0.0847 -0.0104 -0.0913
 6261W        W 8461   3.563   1.580  41.505 -0.0091  0.2312  0.1908
 6262W        W 8462   9.941   5.681  21.954  0.1648  0.1380  0.1996
 6263W        W 8463  19.914   3.632  34.298 -0.0425  0.2339  0.0223
 6264W        W 8464  15.863   4.392   3.803 -0.1623 -0.1508 -0.0417
 6265W        W 8465   4.042   2.604  11.849  0.1177 -0.1627 -0.0560
 6266W        W 8466   1.371   0.054  11.777 -0.0872 -0.2935  0.1896
 6267W        W 8467  12.413   1.276   0.725  0.0392 -0.0658 -0.0460
 6268W        W 8468   9.904   4.114  39.888  0.0435  0.1080 -0.0939
 6269W        W 8469  16.271   4.451   2.439 -0.0933 -0.0413  0.1848
 6270W        W 8470   0.066   2.306  44.318 -0.2144  0.4111 -0.2313
 6271W        W 8471  10.154   6.461  38.890  0.1270 -0.0938 -0.0206
 6272W        W 8472   6.960   4.906  40.582  0.2120 -0.1233 -0.2369
 6273W        W 8473   3.754   4.355  10.744 -0.2067  0.1121  0.0163
 6274W        W 8474  18.472   3.828  34.214 -0.0614  0.0724 -0.0022
 6275W        W 8475  13.377   1.581   2.450  0.0711 -0.2091 -0.0749
 6276W        W 8476   6.080   2.635   9.657 -0.0690 -0.3133  0.0863
 6277W        W 8477  18.620   3.196  42.689 -0.0347 -0.2502 -0.3212
 6278W        W 8478  16.621   5.380  44.580  0.0797 -0.2814 -0.1824
 6279W        W 8479   6.896   3.506  14.775 -0.2276  0.0569  0.1295
 6280W        W 8480  17.755   2.300  12.734  0.2212  0.2835  0.0390
 6281W        W 8481  10.297   0.332  43.815 -0.3916  0.0601  0.1181
 6282W        W 8482  17.720   3.575  10.409 -0.2461  0.0781  0.1610
 6283W        W 8483   0.585   5.570  43.583 -0.0805 -0.0718  0.1465
 6284W        W 8484  13.559   5.038  35.060  0.3735 -0.1974  0.1255
 6285W        W 8485  16.910   6.496   4.387 -0.0075  0.3252  0.2314
 6286W        W 8486  10.877   4.386  16.843 -0.1044  0.3456  0.0157
 6287W        W 8487   7.271   1.105  29.737 -0.1983 -0.0391  0.1445
 6288W        W 8488   4.739   6.590  10.297 -0.1770 -0.0425  0.1530
 6289W        W 8489   7.007   5.605   5.833  0.0537  0.0118  0.0390
 6290W        W 8490   8.530   2.587  31.547  0.0094 -0.1244  0.2237
 6291W        W 8491   5.368   4.607  32.832 -0.0303  0.0882 -0.1440
 6292W        W 8492   3.193   5.656  13.986  0.2479 -0.0703  0.0415
 6293W        W 8493  15.922   1.255  37.866  0.2100 -0.0363  0.2068
 6294W        W 8494  18.755   5.150  12.405  0.2766 -0.1516 -0.1586
 6295W        W 8495   9.875   2.361   2.338 -0.0352  0.0208 -0.1567
 6296W        W 8496   6.704   6.011  35.159  0.1292 -0.0935 -0.0883
 6297W        W 8497  15.278   3.259  26.270  0.3662 -0.3090  0.2094
 6298W        W 8498  19.465   2.724  32.127 -0.1816  0.2726 -0.0204
 6299W        W 8499  17.906   6.443  26.645 -0.0336  0.1719 -0.0065
 6300W        W 8500   8.999   4.479  16.213 -0.1181  0.0575 -0.0275
 6301W        W 8501   6.803   4.319  21.960  0.0706  0.0072 -0.0114
 6302W        W 8502   3.336   5.255  10.931 -0.2272 -0.1006 -0.1714
 6303W        W 8503  13.652   2.301  32.966  0.1416 -0.2388 -0.0636
 6304W        W 8504  11.063   4.038  11.296  0.1923  0.2839 -0.3322
 6305W        W 8505   3.947   5.386  30.132 -0.0705 -0.0833 -0.0247
 6306W        W 8506  20.678   5.472  33.333  0.1881 -0.0726  0.1570
 6307W        W 8507   7.228   1.645   2.391  0.2389  0.2901 -0.3780
 6308W        W 8508  18.336   3.017  44.746  0.1459 -0.2233 -0.4810
 6309W        W 8509   4.105   2.976   9.346 -0.1755 -0.1052  0.0642
 6310W        W 8510  11.775   4.961   5.659 -0.3586  0.0408  0.2540
 6311W        W 8511  15.529   1.596   3.533 -0.3083 -0.2094  0.2112
 6312W        W 8512   9.721   5.149   3.069  0.4118 -0.0150 -0.1224
 6313W        W 8513   3.056   1.984  40.709  0.0621 -0.4090 -0.1152
 6314W        W 8514  13.490   1.026   1.694  0.2019  0.1974  0.1404
 6315W        W 8515   8.460   0.073  40.989  0.0855 -0.2430  0.4539
 6316W        W 8516  20.375   4.014  23.630 -0.2354 -0.0566 -0.0131
 6317W        W 8517  19.742   5.545  31.189 -0.0365  0.1661  0.3234
 6318W        W 8518  12.399   0.408  18.644 -0.1314  0.0450 -0.2904
 6319W        W 8519   3.300   2.792  42.149  0.0620  0.1597 -0.0923
 6320W        W 8520   4.866   0.546  17.530  0.3106 -0.1095  0.1232
 6321W        W 8521   4.618   2.195  27.682 -0.4873  0.0294  0.3626
 6322W        W 8522   4.067   0.988  12.870  0.0116  0.2762 -0.0332
 6323W        W 8523   4.885   3.649  16.412  0.0719 -0.0806  0.0837
 6324W        W 8524  18.322   0.810  24.472 -0.1421 -0.1415  0.0534
 6325W        W 8525  13.581   2.133  33.598 -0.1512  0.3563 -0.1281
 6326W        W 8526   2.453   1.705   9.248 -0.0350 -0.3408  0.0489
 6327W        W 8527   6.167   4.274  34.173 -0.0492  0.2014 -0.4937
 6328W        W 8528  15.646   5.058   4.846 -0.0315  0.1213  0.4751
 6329W        W 8529   1.692   3.321  43.495  0.2568  0.0002 -0.0318
 6330W        W 8530  20.760   5.298   9.066  0.0189  0.1384  0.3214
 6331W        W 8531  15.448   1.586  44.882  0.1385  0.5881  0.3072
 6332W        W 8532   2.225   4.462  32.000 -0.1085  0.0660  0.1169
 6333W        W 8533  12.787   2.368  44.548  0.0243  0.0827 -0.2564
 6334W        W 8534  12.607   2.412  13.592  0.1024  0.2670  0.0326
 6335W        W 8535   8.983   4.237  35.558 -0.1531  0.2935 -0.0970
 6336W        W 8536  14.067   1.565  39.749  0.1668  0.0714  0.0219
 6337W        W 8537  14.514   3.630  13.738  0.1518 -0.0771  0.0017
 6338W        W 8538   4.300   3.901  14.865 -0.2522  0.2492  0.2720
 6339W        W 8539   1.769   2.514  42.881  0.0739  0.3174 -0.4468
 6340W        W 8540   5.176   5.184   1.633  0.2595 -0.0285 -0.1003
 6341W        W 8541   2.874   4.093   9.211  0.0717 -0.0071 -0.0037
 6342W        W 8542  11.039   0.132  22.466 -0.2016  0.3340  0.2734
 6343W        W 8543   4.439   3.266  16.748  0.1894  0.4942 -0.1338
 6344W        W 8544  21.083   3.851  14.426  0.2103  0.0343  0.1880
 6345W        W 8545   5.849   5.488  43.507 -0.3288 -0.0067  0.1342
 6346W        W 8546  18.164   5.967  34.693 -0.1861  0.0423 -0.1305
 6347W        W 8547  19.405   1.835  34.285  0.2341 -0.2151  0.0834
 6348W        W 8548   5.454   2.587   3.597 -0.2113 -0.0305 -0.0605
 6349W        W 8549  16.576   5.865   5.457  0.0195 -0.0216  0.0066
 6350W        W 8550   8.518   4.011  10.141  0.2347  0.0834 -0.2377
 6351W        W 8551  10.077   5.501  21.026  0.2498 -0.0974  0.0284
 6352W        W 8552   3.147   0.671   9.973 -0.0772 -0.0314  0.1181
 6353W        W 8553  12.707   0.214  11.848  0.0828  0.0530  0.0994
 6354W        W 8554  20.776   5.657   6.341  0.0756 -0.2053 -0.2487
 6355W        W 8555   5.574   6.240  16.923  0.0590  0.1126  0.2593
 6356W        W 8556   7.419   1.946  13.145 -0.0044 -0.0041 -0.0292
 6357W        W 8557  10.608   0.432   9.009 -0.1129  0.3837  0.0479
 6358W        W 8558  17.328   1.098  25.045 -0.3290 -0.1274  0.0806
 6359W        W 8559  11.960   1.172   0.189  0.0064 -0.1533  0.1319
 6360W        W 8560   5.635   1.976  17.191  0.0427  0.3858  0.0174
 6361W        W 8561   6.922   1.447   4.127 -0.0561 -0.0011  0.3007
 6362W        W 8562   2.203   0.781  24.239 -0.3145  0.2641 -0.0835
 6363W        W 8563  16.773   0.823  37.046  0.0520 -0.0719 -0.3137
 6364W        W 8564   2.949   2.809  32.782  0.1187 -0.2220 -0.1489
 6365W        W 8565  17.246   1.781   8.369 -0.0091  0.2907 -0.0400
 6366W        W 8566  16.142   6.024  32.362  0.0539  0.3823  0.0052
 6367W        W 8567   9.337   5.714  44.618  0.1438  0.0736 -0.2636
 6368W        W 8568  16.510   4.832   1.398  0.0198 -0.2461  0.3465
 6369W        W 8569   4.884   6.079   1.324 -0.0453 -0.0336  0.1553
 6370W        W 8570  16.379   4.674  27.214  0.0883 -0.0832  0.0791
 6371W        W 8571  15.155   3.028   8.116 -0.1490  0.0402  0.2155
 6372W        W 8572   4.939   3.382  16.923 -0.0988  0.0942 -0.1404
 6373W        W 8573  10.677   3.030   3.248  0.1356  0.1476 -0.1367
 6374W        W 8574  10.878   3.265  39.595  0.0557  0.1368  0.0801
 6375W        W 8575   3.045   5.234  33.809  0.1538 -0.0073 -0.1151
 6376W        W 8576   9.395   6.215  23.732 -0.0311  0.2764  0.0462
 6377W        W 8577  20.572   4.606  44.332 -0.0934  0.1147 -0.1405
 6378W        W 8578  12.134   4.387  18.914 -0.0954  0.0048 -0.1718
 6379W        W 8579  19.826   4.470  21.000  0.0029 -0.0543  0.0673
 6380W        W 8580   2.101   6.181  33.008  0.1122  0.0135  0.1934
 6381W        W 8581   7.771   1.969   9.142  0.0731  0.1607 -0.0540
 6382W        W 8582  18.508   4.709  39.676 -0.0291 -0.2100  0.3584
 6383W        W 8583   5.337   2.651  10.960  0.1668 -0.0967 -0.3203
 6384W        W 8584   2.594   6.489   0.570 -0.2974 -0.0844  0.1690
 6385W        W 8585  16.151   0.708   9.235 -0.1778 -0.1619  0.0666
 6386W        W 8586   9.015   3.537   2.639 -0.1808 -0.1546 -0.2220
 6387W        W 8587   0.816   1.091  32.145  0.0496 -0.0298 -0.2166
 6388W        W 8588  19.816   2.013  12.445  0.3244 -0.1768 -0.1111
 6389W        W 8589  10.533   3.347  29.595 -0.1446  0.1683  0.1156
 6390W        W 8590  16.961   2.949   6.539 -0.0344 -0.0345  0.0579
 6391W        W 8591  16.272   1.304   4.864  0.1489  0.0943 -0.2725
 6392W        W 8592   5.732   5.260  11.380 -0.2399 -0.0581 -0.0209
 6393W        W 8593   7.962   4.296  20.212 -0.3862 -0.0460  0.1440
 6394W        W 8594  10.082   5.504  40.469  0.1254 -0.4411 -0.0572
 6395W        W 8595   0.291   0.133  40.351  0.1985 -0.2983 -0.1533
 6396W        W 8596  12.524   4.744  31.545  0.0354  0.3268  0.0059
 6397W        W 8597  18.847   1.092  39.530 -0.1861  0.2503 -0.2821
 6398W        W 8598  14.182   4.899  29.315  0.2318 -0.0800  0.0784
 6399W        W 8599   6.454   1.679  38.076  0.2917  0.0824 -0.0744
 6400W        W 8600  15.228   3.775  33.756  0.1392  0.1260  0.0722
 6401W        W 8601  10.103   4.127  12.964 -0.3101 -0.4868  0.0409
 6402W        W 8602   0.052   5.138  12.994 -0.1582  0.5210 -0.0901
 6403W        W 8603  11.524   2.367  20.411 -0.0044  0.4783 -0.0015
 6404W        W 8604  18.854   5.631   6.059 -0.1061 -0.0513 -0.2419
 6405W        W 8605  17.782   2.746   6.224 -0.0033  0.2367 -0.1377
 6406W        W 8606   4.257   0.294  43.697  0.3511  0.3694 -0.0027
 6407W        W 8607   0.842   5.946   2.049 -0.0345 -0.0201  0.2037
 6408W        W 8608  18.238   1.430   7.786  0.1015  0.0626  0.1805
 6409W        W 8609   2.358   6.128   1.992  0.0727 -0.1133  0.2613
 6410W        W 8610   6.944   2.551   4.669 -0.1998 -0.0119  0.0449
 6411W        W 8611  12.926   5.395   3.731  0.3836 -0.4113  0.1862
 6412W        W 8612   7.737   0.767  30.241 -0.1230  0.0113  0.1560
 6413W        W 8613  13.092   3.263  11.996 -0.1346 -0.0788 -0.2073
 6414W        W 8614  15.767   2.538  39.534  0.0442 -0.4736  0.0201
 6415W        W 8615  15.830   4.246  34.618  0.0916  0.2141  0.0724
 6416W        W 8616  10.028   2.260  37.829 -0.0045 -0.4491  0.1634
 6417W        W 8617  15.172   6.383  32.113 -0.2517 -0.0128 -0.1558
 6418W        W 8618   0.595   3.229   9.010  0.1019 -0.3862  0.0200
 6419W        W 8619  12.278   1.273   9.704 -0.1648  0.1546 -0.1783
 6420W        W 8620  14.393   4.438  29.424  0.1269 -0.0590  0.1928
 6421W        W 8621  20.561   2.835  22.142  0.0534 -0.1348 -0.4095
 6422W        W 8622  19.506   0.924   1.722 -0.2153  0.2326  0.0220
 6423W        W 8623  20.232   4.523   3.728 -0.1321  0.0609 -0.2896
 6424W        W 8624   8.656   2.069  44.154 -0.2079 -0.0607 -0.0018
 6425W        W 8625   2.049   1.576   7.587 -0.0592  0.3155 -0.2012
 6426W        W 8626   9.568   5.759  23.757  0.2131  0.0790  0.0865
 6427W        W 8627  20.460   3.063  40.486  0.0096 -0.1017  0.3693
 6428W        W 8628   3.747   3.400  28.968 -0.2230 -0.1479 -0.0346
 6429W        W 8629   6.743   1.900  16.684 -0.1635  0.0915  0.1658
 6430W        W 8630   2.308   5.629  25.265  0.0021 -0.0808  0.1255
 6431W        W 8631  14.345   3.494   5.810  0.1732 -0.2578  0.0229
 6432W        W 8632  19.287   4.606   0.815 -0.2563  0.2289  0.1873
 6433W        W 8633  13.114   3.046  41.741 -0.2037  0.2254 -0.3088
 6434W        W 8634   0.357   5.976   7.959 -0.1660 -0.1675  0.0625
 6435W        W 8635  12.310   4.741  19.779  0.0977 -0.5465 -0.6192
 6436W        W 8636   0.413   3.493   0.729  0.1159 -0.3052  0.2823
 6437W        W 8637   4.743   1.980  44.764  0.0728  0.1760 -0.2067
 6438W        W 8638  15.137   2.150  37.830 -0.1452 -0.2606 -0.0501
 6439W        W 8639  18.668   5.750  43.903  0.0982 -0.2981 -0.0003
 6440W        W 8640   6.756   4.502  21.468 -0.0724  0.0467 -0.0505
 6441W        W 8641  19.315   3.520   7.215  0.0687 -0.0844  0.0806
 6442W        W 8642   8.873   6.528  43.658  0.2036  0.0611 -0.1578
 6443W        W 8643   7.752   5.566  19.344 -0.2689  0.2370  0.4391
 6444W        W 8644  19.132   5.500  30.931 -0.2420  0.2147  0.0085
 6445W        W 8645  15.013   0.562  38.221 -0.1225  0.0207 -0.1084
 6446W        W 8646  20.257   1.163  40.386 -0.2791 -0.0080 -0.2846
 6447W        W 8647   7.604   5.720  10.229  0.0940  0.3236 -0.1137
 6448W        W 8648  20.285   0.888  33.061  0.1019 -0.0016  0.2145
 6449W        W 8649   8.289   2.000   3.464  0.1116 -0.1784 -0.0171
 6450W        W 8650  19.410   2.183  27.340 -0.0815  0.1650  0.0524
 6451W        W 8651   0.255   2.636  35.801 -0.0179  0.0766  0.3184
 6452W        W 8652  15.886   2.938  15.992 -0.1646 -0.1924 -0.0566
 6453W        W 8653  14.070   1.347   5.327 -0.0509  0.4886  0.0546
 6454W        W 8654  20.208   1.811  41.568  0.0346  0.1893  0.0962
 6455W        W 8655  18.485   5.906  37.465  0.0056 -0.1074 -0.1945
 6456W        W 8656  17.432   4.081  34.360 -0.0961 -0.0149  0.1367
 6457W        W 8657  17.437   1.242  15.048 -0.0644  0.1654  0.0824
 6458W        W 8658   1.353   5.605   9.779 -0.3421  0.0763  0.0263
 6459W        W 8659  13.560   0.190  36.862  0.1460  0.1844 -0.1853
 6460W        W 8660  16.789   0.303  32.308 -0.2108 -0.1881 -0.1944
 6461W        W 8661   7.705   4.934   9.228 -0.0755  0.1462  0.0975
 6462W        W 8662  15.817   0.720  25.996 -0.1787 -0.1716  0.1812
 6463W        W 8663   3.752   1.386  18.391  0.2322 -0.0647 -0.0839
 6464W        W 8664   2.711   5.413  25.559  0.6856  0.2814  0.1010
 6465W        W 8665   4.713   5.235  44.160 -0.2554 -0.0744 -0.0569
 6466W        W 8666   4.959   0.279  12.457  0.3238  0.0193  0.1339
 6467W        W 8667   3.253   0.669  38.747  0.1510  0.0388 -0.0595
 6468W        W 8668   6.234   4.246  37.357  0.0615 -0.1981 -0.0379
 6469W        W 8669  13.680   3.148  13.290  0.3141 -0.0201 -0.3387
 6470W        W 8670  16.019   4.279  13.832  0.0121 -0.0286 -0.0994
 6471W        W 8671  19.058   1.781   4.372  0.0973  0.1851  0.2090
 6472W        W 8672  18.835   4.006  30.155 -0.1906 -0.1686 -0.2553
 6473W        W 8673   7.206   4.560   2.602 -0.1665 -0.3241 -0.3462
 6474W        W 8674   4.877   0.383  10.571 -0.0384 -0.2456  0.1036
 6475W        W 8675   6.430   3.199  42.477 -0.0161 -0.3288 -0.0126
 6476W        W 8676  12.239   5.824  27.932  0.0989  0.2519 -0.0666
 6477W        W 8677  16.062   5.962  36.498 -0.1272  0.1681  0.0690
 6478W        W 8678  11.857   5.077  28.950 -0.0578  0.0842 -0.0170
 6479W        W 8679   5.410   2.401  35.763  0.2916 -0.0736 -0.0462
 6480W        W 8680  10.491   1.711  43.091 -0.1027  0.1339  0.1749
 6481W        W 8681  13.920   0.885   1.338  0.2615  0.0814  0.0287
 6482W        W 8682   7.594   1.572  11.168  0.0415  0.0675 -0.0378
 6483W        W 8683  17.986   3.190  25.654  0.2618 -0.0602  0.2151
 6484W        W 8684   4.264   2.952   8.151 -0.2674 -0.3015 -0.1781
 6485W        W 8685  20.138   0.326  14.514 -0.1524 -0.0035  0.1016
 6486W        W 8686   1.596   0.752  36.614 -0.1883  0.0828  0.1030
 6487W        W 8687   6.654   6.351  30.850  0.0986  0.2797 -0.1102
 6488W        W 8688  17.276   0.751  36.267  0.2383 -0.1586 -0.2743
 6489W        W 8689   3.513   4.289  40.473 -0.2786  0.2554  0.3178
 6490W        W 8690   0.347   3.613  35.399 -0.1035  0.0340  0.0760
 6491W        W 8691  10.725   0.224  14.134  0.2359  0.4354 -0.3599
 6492W        W 8692  18.674   4.322  32.307 -0.0647  0.0035  0.0718
 6493W        W 8693   3.655   0.430   0.506  0.3156 -0.1303  0.1002
 6494W        W 8694  18.904   3.907   6.166  0.0887  0.2286 -0.1910
 6495W        W 8695  18.078   0.946  13.741 -0.3082 -0.0052 -0.0503
 6496W        W 8696  10.384   2.425  43.740  0.1043  0.2137 -0.1324
 6497W        W 8697   8.273   4.528  20.488 -0.1985 -0.2548 -0.2717
 6498W        W 8698  12.893   0.274  18.567 -0.0335  0.0322 -0.1279
 6499W        W 8699   9.597   4.184   2.221  0.0494  0.2873  0.1233
 6500W        W 8700  11.964   4.500   0.421  0.0074  0.4159 -0.1005
 6501W        W 8701  13.482   6.377   2.940 -0.0094  0.1310  0.2830
 6502W        W 8702  14.027   5.325  12.425  0.2975  0.0673  0.1185
 6503W        W 8703   7.707   4.276  21.589 -0.1971 -0.1146  0.1308
 6504W        W 8704  19.093   5.484  27.766 -0.0053  0.0386 -0.0404
 6505W        W 8705   8.671   5.206  13.683  0.2011 -0.1768 -0.1134
 6506W        W 8706  11.710   3.969  33.890  0.2104 -0.1258 -0.2634
 6507W        W 8707  15.763   0.753  35.083  0.1537 -0.2421  0.1618
 6508W        W 8708  16.652   0.264   6.624  0.1253  0.0251 -0.0567
 6509W        W 8709   2.266   3.469  37.273  0.0543 -0.1674 -0.1156
 6510W        W 8710  13.315   2.907   3.987 -0.0577 -0.1068  0.0553
 6511W        W 8711  10.628   6.348   1.462 -0.2504  0.3254 -0.1446
 6512W        W 8712  14.744   1.433  14.915 -0.2794  0.0574  0.1406
 6513W        W 8713  20.416   4.839  10.943  0.1075 -0.2471  0.1722
 6514W        W 8714  10.630   3.866  38.209 -0.0740 -0.1613 -0.0782
 6515W        W 8715  19.512   1.122   0.619  0.0008 -0.3165  0.0901
 6516W        W 8716   9.216   5.011  16.425  0.1002  0.1847  0.2040
 6517W        W 8717   9.153   5.181  15.479 -0.0483 -0.0636  0.3038
 6518W        W 8718  15.745   0.138  33.829  0.1633 -0.0639 -0.0959
 6519W        W 8719  20.516   1.067  27.956  0.1264  0.1808  0.2473
 6520W        W 8720  21.090   4.164  13.445 -0.1299 -0.0020  0.2527
 6521W        W 8721   9.503   4.117  21.646  0.1416  0.1001  0.2319
 6522W        W 8722   2.065   0.560   8.479  0.0969 -0.0717  0.1029
 6523W        W 8723  17.962   3.132  22.454  0.3769 -0.1022 -0.2290
 6524W        W 8724   9.883   5.451  36.727 -0.2077 -0.2745  0.1523
 6525W        W 8725  13.504   6.058  13.301 -0.0488 -0.0403  0.1147
 6526W        W 8726  11.927   2.935  40.478  0.1705 -0.1590 -0.2092
 6527W        W 8727   1.855   4.731  38.431  0.0572 -0.3064  0.2469
 6528W        W 8728   4.063   3.142   4.948 -0.3357 -0.1295 -0.0823
 6529W        W 8729  16.608   1.400  28.157 -0.1711  0.4343 -0.0088
 6530W        W 8730  16.629   6.570  16.494  0.0688 -0.1825  0.1129
 6531W        W 8731   7.284   4.748  17.040  0.3425 -0.1231 -0.2931
 6532W        W 8732  11.475   6.057  31.239 -0.0957 -0.1610  0.1141
 6533W        W 8733  13.970   3.127  43.370 -0.0726  0.1993 -0.4037
 6534W        W 8734  17.342   5.214  40.346  0.1041 -0.1758 -0.0433
 6535W        W 8735   6.167   2.167  16.128 -0.2561 -0.0919  0.2285
 6536W        W 8736   5.838   6.007  20.831  0.1345  0.2618 -0.0165
 6537W        W 8737  13.736   3.230  29.562 -0.0498 -0.1847 -0.0578
 6538W        W 8738   6.168   2.545  32.241  0.0589 -0.0386 -0.0502
 6539W        W 8739   2.121   2.430  13.596  0.2124  0.0708  0.0128
 6540W        W 8740  11.256   1.951  14.132  0.3310  0.3823  0.2381
 6541W        W 8741  20.435   0.477   1.745  0.3702 -0.0566 -0.1364
 6542W        W 8742  13.311   2.509  42.749  0.1409 -0.1515 -0.3293
 6543W        W 8743  21.032   4.608  14.910 -0.1549 -0.0558  0.1734
 6544W        W 8744   4.662   6.521   1.476 -0.0293  0.1730  0.0734
 6545W        W 8745  10.160   5.905  11.287  0.0649 -0.1171 -0.0597
 6546W        W 8746   7.778   1.034   2.857 -0.0031  0.1394  0.1659
 6547W        W 8747  11.223   0.142  36.272  0.1366 -0.1594  0.0669
 6548W        W 8748   4.506   0.633   2.753  0.0578 -0.4448 -0.3060
 6549W        W 8749   7.572   6.059  17.768 -0.0164  0.1799 -0.0238
 6550W        W 8750   0.940   2.981  40.593  0.1825 -0.1785 -0.0312
 6551W        W 8751   3.778   1.990  42.548 -0.0249 -0.0890 -0.2234
 6552W        W 8752   3.967   5.022  36.768  0.1925 -0.3512  0.0681
 6553W        W 8753  15.735   4.151  15.294  0.0812  0.2718  0.3790
 6554W        W 8754  10.691   5.917  38.278  0.0682 -0.0130 -0.1133
 6555W        W 8755  10.495   3.338   8.290 -0.0285 -0.1281  0.2698
 6556W        W 8756  16.194   3.043  36.754 -0.1664  0.1956  0.0015
 6557W        W 8757   1.869   4.778   7.493  0.0613  0.2507 -0.2462
 6558W        W 8758  16.389   4.242   3.754 -0.1528 -0.0094 -0.0992
 6559W        W 8759  11.257   4.967  17.485 -0.1325  0.2845  0.0274
 6560W        W 8760  13.401   0.698  35.889  0.1276  0.3714 -0.0409
 6561W        W 8761   9.394   0.734  38.335 -0.0905  0.3824  0.1023
 6562W        W 8762  12.435   5.945  43.573 -0.3158 -0.0602  0.2154
 6563W        W 8763   8.066   5.724   8.940 -0.0124  0.1273  0.0901
 6564W        W 8764  20.137   5.150  22.201 -0.1182 -0.4737  0.0488
 6565W        W 8765  10.638   2.347  34.113  0.2465  0.0691  0.0387
 6566W        W 8766   4.562   3.144  41.052  0.1195  0.0446 -0.0495
 6567W        W 8767  19.500   5.021  34.096 -0.0101  0.0718  0.0056
 6568W        W 8768  20.383   3.687  32.817 -0.0435 -0.2569 -0.0669
 6569W        W 8769   9.112   4.973  18.986 -0.1812 -0.3902 -0.1972
 6570W        W 8770   3.286   2.162  30.632 -0.1479  0.2149  0.2047
 6571W        W 8771  11.975   3.844   7.650 -0.0898  0.1248  0.1025
 6572W        W 8772  11.296   0.400   3.192 -0.2439  0.1958 -0.2108
 6573W        W 8773   8.226   0.901  33.757  0.1092  0.1365 -0.3703
 6574W        W 8774   1.672   6.240  24.327  0.1240  0.0539 -0.2063
 6575W        W 8775   6.865   6.134  18.451 -0.0751 -0.1585 -0.2314
 6576W        W 8776   8.312   1.321  20.488 -0.2442 -0.1476  0.0316
 6577W        W 8777  15.246   5.517   6.979 -0.0456  0.2388 -0.0818
 6578W        W 8778  16.736   2.468   7.785  0.3513  0.0514 -0.2388
 6579W        W 8779  11.125   3.211  10.248 -0.0542  0.2018 -0.0415
 6580W        W 8780  13.269   0.425  19.551  0.2116 -0.0595  0.3479
 6581W        W 8781  13.034   1.505  35.845  0.1973 -0.0302 -0.0949
 6582W        W 8782   7.353   5.144   7.066  0.0931  0.0587 -0.0990
 6583W        W 8783  16.639   6.244  15.345 -0.1335 -0.0094 -0.2044
 6584W        W 8784  12.491   5.565   1.808 -0.1625  0.0488  0.0729
 6585W        W 8785  14.578   4.807   3.981 -0.0054  0.1151  0.0649
 6586W        W 8786   8.330   0.028   4.144 -0.0663 -0.2311  0.0084
 6587W        W 8787  17.524   2.169  13.720  0.1826  0.0154 -0.2869
 6588W        W 8788  11.840   6.285  30.935 -0.1260  0.2556 -0.2267
 6589W        W 8789  20.826   2.328  27.370 -0.1024 -0.0206 -0.0425
 6590W        W 8790  20.693   3.088  42.724 -0.0177 -0.3279 -0.0045
 6591W        W 8791   0.742   3.416   8.569 -0.2323  0.2936  0.0388
 6592W        W 8792  14.767   2.016  44.198  0.1851  0.1214  0.0832
 6593W        W 8793  20.367   0.178  42.549  0.2180  0.0771 -0.1404
 6594W        W 8794  10.068   0.158  33.003 -0.1744  0.0339  0.0451
 6595W        W 8795  11.808   6.591   5.018 -0.0680 -0.0276  0.0885
 6596W        W 8796   7.017   0.272  36.854  0.1264  0.1755  0.0415
 6597W        W 8797   1.922   2.199  39.569  0.0948  0.3043 -0.0534
 6598W        W 8798   1.592   1.307  31.648 -0.0985 -0.0866 -0.2998
 6599W        W 8799  14.139   4.408  17.934 -0.0854  0.1892  0.0080
 6600W        W 8800   3.604   3.627  41.280  0.2371  0.0405 -0.2367
 6601W        W 8801   8.599   4.649   7.704  0.2177 -0.2200  0.0218
 6602W        W 8802  15.343   3.615   2.318 -0.3035  0.1419  0.0360
 6603W        W 8803  15.834   5.264  25.624  0.0013  0.0083 -0.0086
 6604W        W 8804   1.715   6.065   4.108  0.1122  0.2001  0.1949
 6605W        W 8805  11.184   5.668   8.086 -0.1393 -0.0511  0.0235
 6606W        W 8806   8.010   2.900  39.407  0.1190 -0.1623  0.1315
 6607W        W 8807  17.783   4.903  37.443  0.0210 -0.3521 -0.1186
 6608W        W 8808   9.948   3.473  11.793  0.1828 -0.3568  0.1336
 6609W        W 8809  17.758   3.357   3.318  0.0250 -0.0663  0.3224
 6610W        W 8810   5.280   6.108  42.779  0.0954 -0.2619  0.0092
 6611W        W 8811  14.674   4.256  39.243 -0.0057  0.2379  0.0107
 6612W        W 8812   3.106   4.730  30.879  0.0432 -0.0171  0.0298
 6613W        W 8813  20.753   1.337   0.066  0.2179  0.2761  0.2240
 6614W        W 8814  13.050   4.488  31.448 -0.0148  0.0233  0.3897
 6615W        W 8815  18.252   1.442  13.969  0.3150  0.0643  0.0356
 6616W        W 8816  16.459   0.770  35.923 -0.1023 -0.1679 -0.0072
 6617W        W 8817  10.501   6.522  23.022 -0.0193  0.5161 -0.2393
 6618W        W 8818   2.092   5.083   0.411 -0.1528  0.1181  0.0246
 6619W        W 8819  20.839   5.224   1.593 -0.0500  0.2629  0.2318
 6620W        W 8820   1.807   2.025  43.221  0.0308 -0.3550 -0.1454
 6621W        W 8821   9.024   3.406   4.267  0.2070 -0.2206  0.1246
 6622W        W 8822  11.421   1.251   1.651 -0.2010 -0.0301 -0.0852
 6623W        W 8823   5.015   4.261   4.473 -0.0955  0.1369  0.2168
 6624W        W 8824  20.009   2.827  35.681  0.0559 -0.3896  0.0988
 6625W        W 8825  10.212   5.664   9.161  0.0541  0.3628  0.1939
 6626W        W 8826   2.830   5.910   9.808 -0.0561 -0.0303 -0.0933
 6627W        W 8827  12.267   2.265   4.992  0.0884  0.3014  0.1680
 6628W        W 8828   4.771   6.206  42.829  0.0960  0.2442 -0.0192
 6629W        W 8829   5.709   4.601  35.529  0.1670 -0.3037  0.1143
 6630W        W 8830   7.235   5.302   7.527  0.0289  0.0427  0.3368
 6631W        W 8831   6.867   0.187  30.599  0.0307 -0.1877 -0.0703
 6632W        W 8832  18.875   2.118  32.467  0.1122 -0.2311  0.0158
 6633W        W 8833   9.543   1.118  13.220  0.1258 -0.0794  0.3612
 6634W        W 8834   3.695   2.403  11.553 -0.2024 -0.1862  0.0690
 6635W        W 8835  13.793   4.270   8.090 -0.1141 -0.1053 -0.1302
 6636W        W 8836  11.687   2.484   6.622  0.1610 -0.1337  0.3954
 6637W        W 8837  12.166   2.701  12.106  0.0396  0.3028 -0.0324
 6638W        W 8838   4.552   5.410  31.239  0.2033  0.1510 -0.3529
 6639W        W 8839   5.394   0.259  32.671 -0.3377  0.1650 -0.0496
 6640W        W 8840   6.335   5.250  29.900  0.1254 -0.1967  0.1447
 6641W        W 8841   1.265   4.683  25.559  0.2541  0.1025  0.2806
 6642W        W 8842   3.668   2.915  30.738  0.1134  0.1634  0.2317
 6643W        W 8843   7.326   2.077  38.227 -0.1569 -0.1585 -0.0079
 6644W        W 8844  10.623   6.420  14.577 -0.0342  0.0839  0.3623
 6645W        W 8845   8.639   1.952   4.601 -0.2725 -0.0546  0.0996
 6646W        W 8846   1.516   2.124  11.627 -0.0925  0.0983 -0.2436
 6647W        W 8847   1.013   6.227  34.580 -0.1516 -0.1212 -0.2282
 6648W        W 8848   3.798   2.367  15.367 -0.0311  0.0398 -0.0530
 6649W        W 8849  12.162   2.022   9.273 -0.0786  0.0043  0.0296
 6650W        W 8850   0.294   6.527  26.435  0.0995 -0.2324  0.1841
 6651W        W 8851  13.684   3.888  15.865  0.0661  0.1021 -0.1528
 6652W        W 8852   0.037   3.050  10.670  0.0888 -0.0904 -0.0706
 6653W        W 8853  18.069   6.589  33.939  0.0778 -0.0122 -0.2560
 6654W        W 8854  12.710   1.215   4.125 -0.3817 -0.1481  0.1283
 6655W        W 8855   7.389   1.741  13.647 -0.0299 -0.3761 -0.2656
 6656W        W 8856  12.211   2.686  13.076 -0.1125 -0.1206 -0.0888
 6657W        W 8857  14.959   4.983  27.607 -0.0842 -0.0789 -0.2388
 6658W        W 8858   9.740   4.438  31.595  0.1968 -0.0735 -0.0070
 6659W        W 8859   2.667   6.257  17.186  0.2585  0.2963 -0.1846
 6660W        W 8860   6.522   3.823   8.467 -0.1001  0.4997 -0.1742
 6661W        W 8861  14.508   2.416  26.736 -0.1463 -0.1315 -0.2292
 6662W        W 8862  17.222   2.059   2.798 -0.4265  0.0223  0.0709
 6663W        W 8863  13.754   6.373   0.473 -0.4248 -0.0214  0.1449
 6664W        W 8864  13.101   2.621  17.775  0.2060  0.0042  0.1911
 6665W        W 8865   1.047   2.304   4.301 -0.1703 -0.0662 -0.0908
 6666W        W 8866  20.344   4.460  32.324 -0.1126 -0.2372  0.0501
 6667W        W 8867  10.729   4.389  34.982 -0.2307 -0.1541 -0.0450
 6668W        W 8868   9.804   0.814   7.873  0.0956 -0.2640  0.1095
 6669W        W 8869  18.361   5.098   8.021  0.3416 -0.0060  0.2320
 6670W        W 8870  19.436   4.258  23.315 -0.3193  0.0548  0.0008
 6671W        W 8871   9.937   6.330  11.601  0.2448 -0.1880 -0.1085
 6672W        W 8872  14.653   1.906  41.453 -0.3020 -0.2585 -0.0089
 6673W        W 8873   0.001   4.707   0.472  0.0770 -0.0873 -0.2077
 6674W        W 8874   4.936   6.275   0.860 -0.2319  0.1602  0.0631
 6675W        W 8875   3.821   4.682  11.191 -0.1896  0.0515  0.2881
 6676W        W 8876   2.480   2.284  30.635 -0.0509 -0.1402  0.2223
 6677W        W 8877   7.032   2.732  34.393 -0.3715 -0.0024 -0.0467
 6678W        W 8878   7.076   3.007  38.561 -0.1413  0.0687  0.3530
 6679W        W 8879  16.235   4.919  40.981  0.0773 -0.0262  0.0387
 6680W        W 8880   2.507   0.903  38.887  0.0177  0.2703 -0.4122
 6681W        W 8881   5.523   5.147   6.486 -0.1115  0.1960 -0.1867
 6682W        W 8882   0.852   1.064  26.228  0.0476  0.1813 -0.1314
 6683W        W 8883   1.261   1.770  26.100 -0.1149 -0.1309  0.0585
 6684W        W 8884   3.220   2.607   1.654  0.0975 -0.3397 -0.0451
 6685W        W 8885   8.811   5.242  21.316  0.2111  0.3566  0.0028
 6686W        W 8886  19.704   5.377  24.109 -0.0897  0.0336 -0.1771
 6687W        W 8887  14.553   2.412   8.122 -0.1117  0.0817  0.1085
 6688W        W 8888  19.674   4.875  13.294 -0.5395  0.1669 -0.1033
 6689W        W 8889   4.851   3.565   7.182  0.0105 -0.3835  0.1621
 6690W        W 8890  19.674   3.722  36.594 -0.3039 -0.0556 -0.1423
 6691W        W 8891  13.523   4.441  40.838  0.0084 -0.3220 -0.2549
 6692W        W 8892   9.205   1.280  16.507  0.0658 -0.0702 -0.3379
 6693W        W 8893  19.307   2.012  28.992 -0.1047 -0.3617  0.1896
 6694W        W 8894   0.144   1.602   0.539  0.0478  0.1785  0.2142
 6695W        W 8895  15.328   0.379  36.432 -0.0225  0.1321  0.2440
 6696W        W 8896  12.312   0.383  42.606  0.3020 -0.0224  0.1428
 6697W        W 8897   8.429   6.222  16.730 -0.1868 -0.2454 -0.1074
 6698W        W 8898   7.097   4.004  42.937  0.2322  0.0918  0.1341
 6699W        W 8899  18.552   2.206  13.561 -0.2437 -0.3416  0.0065
 6700W        W 8900  10.166   1.498   6.914 -0.3855 -0.2529  0.1514
 6701W        W 8901  16.370   1.510  14.112 -0.0002 -0.1431  0.0659
 6702W        W 8902   6.445   3.901  40.034  0.1624  0.1460  0.1028
 6703W        W 8903   7.104   6.288   6.622  0.1054 -0.1974  0.4272
 6704W        W 8904  19.947   2.665  32.288  0.0717  0.0994  0.1375
 6705W        W 8905  14.045   5.029  11.992  0.1442 -0.0597  0.0701
 6706W        W 8906  14.799   0.692   4.160  0.1204 -0.0892  0.2057
 6707W        W 8907  13.302   6.008  14.311 -0.1520  0.1173 -0.2505
 6708W        W 8908  10.462   5.994  39.062  0.0675  0.2618 -0.0331
 6709W        W 8909  14.697   2.018  36.040 -0.5031 -0.1141 -0.0242
 6710W        W 8910   5.103   3.521  33.564 -0.1011 -0.1719 -0.0009
 6711W        W 8911  14.705   5.163   4.287 -0.1687  0.0828  0.0496
 6712W        W 8912   9.786   6.566  24.699  0.3803  0.2974  0.3292
 6713W        W 8913  20.251   4.418  15.843  0.0515  0.0711  0.2639
 6714W        W 8914  17.800   1.449  29.186 -0.2464  0.2183  0.0905
 6715W        W 8915   9.974   0.272   4.950  0.2774  0.0326 -0.1811
 6716W        W 8916   9.532   6.063  39.469 -0.2064  0.3562  0.0320
 6717W        W 8917  17.298   0.141  33.562 -0.2959 -0.0532  0.0355
 6718W        W 8918  18.175   1.322  38.775 -0.2702  0.1194  0.0242
 6719W        W 8919   6.806   4.838   4.902  0.0910  0.1698 -0.0412
 6720W        W 8920  16.202   2.912  35.721  0.0317  0.2651 -0.0372
 6721W        W 8921   7.202   0.662  11.033  0.1333  0.0310  0.0874
 6722W        W 8922   5.978   5.870   0.214  0.0824 -0.2116 -0.0272
 6723W        W 8923   8.838   4.686  33.814 -0.2645 -0.2067 -0.2154
 6724W        W 8924   4.138   4.396  43.051  0.0314  0.0459 -0.1047
 6725W        W 8925   7.811   0.341   9.154  0.0538  0.1045  0.2179
 6726W        W 8926  16.413   0.431   7.093 -0.1786  0.2934 -0.2815
 6727W        W 8927   0.088   5.383  43.215 -0.0973 -0.1232 -0.0224
 6728W        W 8928   7.741   6.347  22.183  0.0448 -0.0760  0.1792
 6729W        W 8929  12.821   4.626  15.984  0.2362 -0.1638 -0.2883
 6730W        W 8930  14.070   1.576  36.677 -0.0026 -0.0912 -0.2448
 6731W        W 8931  16.177   6.545  43.372 -0.0658 -0.3773  0.1904
 6732W        W 8932   8.220   3.436  42.201 -0.2325 -0.0054 -0.2321
 6733W        W 8933   7.582   4.574   1.223  0.0720 -0.0430  0.0329
 6734W        W 8934   9.288   0.218  21.228 -0.3005 -0.2490  0.1652
 6735W        W 8935  17.980   1.324  12.908  0.4032 -0.1200 -0.1472
 6736W        W 8936  13.342   5.203  10.059  0.2599 -0.1609  0.0080
 6737W        W 8937  10.629   3.910  35.276  0.2137  0.3747 -0.0363
 6738W        W 8938   0.923   1.635  41.182 -0.0299 -0.1664 -0.1121
 6739W        W 8939  12.526   5.376   4.118 -0.4118 -0.1529 -0.0815
 6740W        W 8940   6.488   6.425  17.246 -0.0477 -0.3236 -0.2389
 6741W        W 8941   9.791   0.329  39.099 -0.2339  0.2093 -0.3253
 6742W        W 8942   7.537   1.172  10.801  0.0175 -0.1024  0.1065
 6743W        W 8943   6.704   3.748  41.830  0.4123 -0.0277 -0.1964
 6744W        W 8944   7.030   4.663  38.066 -0.2985  0.1570 -0.3727
 6745W        W 8945   9.572   0.499  32.885  0.1787 -0.0648 -0.0982
 6746W        W 8946   1.334   5.847  24.116 -0.1941  0.1360 -0.0256
 6747W        W 8947   4.440   4.012  18.020  0.0457  0.5089  0.1044
 6748W        W 8948   9.807   1.882  16.856  0.1421 -0.2822  0.1090
 6749W        W 8949   6.388   5.560   7.952  0.0586  0.2310  0.2089
 6750W        W 8950   8.861   3.237  10.390  0.2972 -0.1052  0.0739
 6751W        W 8951  20.573   1.042  31.098  0.0378 -0.0354  0.0565
 6752W        W 8952  18.672   0.864   0.545 -0.3220  0.0157 -0.3706
 6753W        W 8953  13.024   4.458  15.176 -0.0725 -0.0233 -0.0218
 6754W        W 8954  14.740   0.911  39.608  0.1041  0.0902 -0.0897
 6755W        W 8955   1.513   6.469  31.599 -0.1286  0.0602 -0.1287
 6756W        W 8956  18.676   1.655  31.734 -0.3815 -0.1207  0.0378
 6757W        W 8957  18.450   4.523  44.758  0.3816  0.0210  0.1495
 6758W        W 8958   4.804   4.195  16.591 -0.0234  0.0024  0.2782
 6759W        W 8959   7.674   3.558   0.313 -0.3625 -0.1659 -0.3246
 6760W        W 8960   8.935   6.225  38.472 -0.3350  0.0457 -0.0762
 6761W        W 8961   7.655   3.518  10.769  0.2134  0.2087  0.0750
 6762W        W 8962   8.257   2.529  42.132  0.2258 -0.0085 -0.0710
 6763W        W 8963  12.851   4.789   9.351 -0.2615 -0.3082 -0.0034
 6764W        W 8964  12.901   1.991  41.871 -0.1143 -0.0763 -0.1531
 6765W        W 8965  17.185   2.124   5.034  0.0158  0.0017  0.3619
 6766W        W 8966   7.769   6.516  34.523 -0.0631  0.0248  0.3255
 6767W        W 8967   7.767   4.692  19.368  0.0100  0.2343  0.0971
 6768W        W 8968   1.874   0.889  29.032  0.0258 -0.2251 -0.1579
 6769W        W 8969  11.370   4.807  16.291  0.0674 -0.0662 -0.1821
 6770W        W 8970  16.246   1.215   0.845 -0.1050  0.1008  0.0709
 6771W        W 8971   3.842   3.094   9.768  0.3438 -0.0113  0.0516
 6772W        W 8972  12.621   2.277  20.295  0.1835  0.0728  0.1613
 6773W        W 8973  13.698   6.099  38.980  0.0538 -0.1186 -0.0013
 6774W        W 8974   5.673   0.841  37.285  0.2162 -0.2064  0.1928
 6775W        W 8975   3.110   0.099   8.611 -0.1777  0.0370 -0.0202
 6776W        W 8976   0.763   4.994  37.499 -0.0583 -0.3293  0.0728
 6777W        W 8977  13.252   4.255  39.239 -0.0628  0.2874  0.2582
 6778W        W 8978  10.369   3.987   2.332  0.3089 -0.0301  0.2299
 6779W        W 8979   3.518   3.237   8.832 -0.1570 -0.1245  0.1426
 6780W        W 8980   2.465   4.718  41.612 -0.1322  0.0560 -0.0098
 6781W        W 8981   4.607   5.908  28.090  0.1573 -0.1459  0.0284
 6782W        W 8982   0.278   1.646  44.002 -0.0354  0.0757 -0.1553
 6783W        W 8983   5.833   5.018  30.686 -0.2868  0.5115  0.3313
 6784W        W 8984  20.231   2.352  41.317 -0.0270  0.1750  0.2662
 6785W        W 8985   1.126   3.282  30.210  0.2356  0.1097 -0.2647
 6786W        W 8986  15.502   6.187   3.600  0.1179 -0.3122 -0.0520
 6787W        W 8987  11.129   4.565  22.572 -0.1069  0.0084 -0.3269
 6788W        W 8988  19.410   4.237   7.010  0.1794  0.0577 -0.1161
 6789W        W 8989  13.933   2.667  44.272  0.0494  0.2371 -0.1565
 6790W        W 8990   2.467   1.498  38.091  0.0697 -0.3954  0.0598
 6791W        W 8991   9.970   5.719  37.724  0.1089  0.1469 -0.2169
 6792W        W 8992   2.578   1.009  43.183 -0.0956 -0.0506 -0.2015
 6793W        W 8993  17.348   4.054  15.812 -0.0906 -0.1189  0.1627
 6794W        W 8994  10.059   2.123   2.776 -0.2864 -0.0099  0.1233
 6795W        W 8995  12.756   0.223  32.295 -0.1047 -0.3200  0.0939
 6796W        W 8996  16.518   6.475   0.045 -0.0674  0.0459 -0.0518
 6797W        W 8997   5.590   0.896   4.090  0.1311  0.2655 -0.2081
 6798W        W 8998  12.115   5.577  44.009  0.0921 -0.0217 -0.0264
 6799W        W 8999  13.067   4.758  39.481 -0.0570 -0.2235 -0.1146
 6800W        W 9000   5.961   3.697  18.855  0.2414 -0.0187 -0.1917
 6801W        W 9001  14.834   3.736  44.905  0.0389  0.0070 -0.1181
 6802W        W 9002   8.647   4.585  31.205  0.2729  0.5041 -0.1465
 6803W        W 9003   8.484   6.036  41.872  0.0697  0.1901  0.1827
 6804W        W 9004  14.837   6.403  28.594  0.2866  0.0559 -0.0320
 6805W        W 9005  17.187   5.656  39.461  0.3020 -0.1862 -0.2266
 6806W        W 9006  10.399   2.286  37.422  0.0140 -0.1535 -0.1073
 6807W        W 9007   4.025   1.252  35.956 -0.0105 -0.2302 -0.1193
 6808W        W 9008   6.843   3.112   7.128  0.3377  0.2215 -0.0726
 6809W        W 9009   1.378   3.164  29.251  0.1033  0.0896 -0.0817
 6810W        W 9010   6.925   4.929   2.928 -0.1108  0.2285 -0.4767
 6811W        W 9011   3.246   3.264  40.363 -0.0606  0.1531  0.1898
 6812W        W 9012  13.508   4.730   8.813 -0.0408 -0.3354 -0.2410
 6813W        W 9013  17.262   5.315  34.143  0.0335 -0.0536 -0.1970
 6814W        W 9014  13.299   5.353  18.744 -0.0309 -0.3176 -0.0410
 6815W        W 9015   9.211   4.388   0.291 -0.3224  0.0447 -0.2757
 6816W        W 9016   8.076   6.511  11.901  0.1134  0.2008 -0.2711
 6817W        W 9017   6.904   0.176  31.114 -0.0233 -0.0014  0.0461
 6818W        W 9018  21.033   5.199  40.925  0.2320 -0.0220  0.2602
 6819W        W 9019  15.138   4.941   9.691 -0.2132  0.1438  0.1019
 6820W        W 9020   5.976   5.286   7.247 -0.1384 -0.2560 -0.3283
 6821W        W 9021   1.331   1.838   6.924 -0.1123  0.2895  0.1898
 6822W        W 9022  15.498   3.038  13.566  0.0078 -0.0017 -0.1095
 6823W        W 9023  10.329   2.457   1.958  0.2176  0.2463 -0.1171
 6824W        W 9024  20.322   1.868   7.708 -0.1214 -0.0075 -0.2730
 6825W        W 9025   5.483   2.635   9.152  0.1196  0.1190 -0.0603
 6826W        W 9026   9.260   2.557   6.824  0.2113 -0.4114 -0.1292
 6827W        W 9027  18.190   5.861  43.732  0.0902 -0.1720  0.3194
 6828W        W 9028  17.596   3.699   5.771  0.0995 -0.1876 -0.0316
 6829W        W 9029  16.331   3.563  43.502  0.0681 -0.0187 -0.0449
 6830W        W 9030  13.148   1.115  28.678  0.1523  0.2051 -0.2586
 6831W        W 9031   9.966   5.355  11.859 -0.0660 -0.1034 -0.0384
 6832W        W 9032  20.089   0.453  29.176 -0.0649 -0.1031 -0.3165
 6833W        W 9033   1.643   0.642   1.639 -0.4271 -0.1802 -0.1699
 6834W        W 9034   5.521   0.147  36.255  0.1855  0.0643  0.0312
 6835W        W 9035   3.290   4.590  27.613 -0.0967  0.0197 -0.0722
 6836W        W 9036  11.804   5.140  38.340 -0.1141  0.0648 -0.3744
 6837W        W 9037  19.545   3.253  36.552  0.1157  0.2335  0.1648
 6838W        W 9038   4.622   0.570  39.227  0.1385 -0.2285 -0.0970
 6839W        W 9039   1.223   3.750  12.972 -0.0336  0.1556  0.2379
 6840W        W 9040   3.906   3.201  43.406 -0.0253  0.3230  0.0489
 6841W        W 9041  15.333   3.637  27.295  0.0597  0.1669 -0.0436
 6842W        W 9042  19.741   2.827  10.934  0.1072 -0.1287  0.0710
 6843W        W 9043   2.071   1.423  15.458 -0.1532 -0.2355 -0.0931
 6844W        W 9044  12.713   1.033   1.401  0.0579  0.0521  0.2102
 6845W        W 9045  20.259   5.136  33.371  0.3218 -0.0997  0.2141
 6846W        W 9046  13.286   6.230  42.668 -0.0949  0.1445 -0.0191
 6847W        W 9047  13.566   0.365  16.780 -0.1656  0.0775 -0.0381
 6848W        W 9048  14.841   2.973   0.418 -0.2552 -0.1181 -0.2929
 6849W        W 9049   4.430   4.250  27.939 -0.1339  0.3512  0.1359
 6850W        W 9050   3.704   4.318  13.339 -0.0945 -0.0811 -0.0034
 6851W        W 9051   8.372   4.265  10.548  0.1541 -0.0793  0.0126
 6852W        W 9052  10.844   5.940  20.947 -0.2865  0.2001 -0.0927
 6853W        W 9053  18.230   0.861  44.090 -0.1203 -0.0189  0.1269
 6854W        W 9054  17.930   0.032  38.861  0.1980  0.2264  0.0273
 6855W        W 9055   9.617   2.659  36.908  0.2261  0.1929  0.3072
 6856W        W 9056   2.035   5.631  10.657  0.1005 -0.1298  0.1745
 6857W        W 9057   5.149   2.329  31.879 -0.0916  0.2073 -0.2661
 6858W        W 9058  14.000   4.962  44.348  0.1261  0.4440  0.1396
 6859W        W 9059  15.308   6.122  44.466 -0.1734 -0.2287  0.2940
 6860W        W 9060   4.716   5.102  40.329 -0.0053 -0.1515 -0.0313
 6861W        W 9061  11.984   4.697  44.251 -0.0298  0.1505 -0.1483
 6862W        W 9062  11.211   4.844  43.715 -0.1345  0.2829 -0.3489
 6863W        W 9063   8.204   5.077  44.587 -0.2607  0.0933 -0.2754
 6864W        W 9064  12.846   1.173  40.536 -0.0275  0.3537 -0.0838
 6865W        W 9065   2.818   1.556  26.533 -0.1460 -0.2002 -0.1039
 6866W        W 9066   0.318   2.557  24.078  0.0271 -0.2326  0.2743
 6867W        W 9067   4.790   6.508   8.757 -0.4971  0.1407 -0.1202
 6868W        W 9068  20.047   6.035  24.682 -0.0432  0.0035 -0.0472
 6869W        W 9069  19.386   5.393   6.144 -0.0061  0.2773 -0.1074
 6870W        W 9070  14.133   2.499  41.792  0.4220 -0.0117  0.1168
 6871W        W 9071  15.414   3.173   5.833  0.0983 -0.3098  0.1592
 6872W        W 9072  14.496   4.900  31.112 -0.1055  0.1622  0.0964
 6873W        W 9073   5.891   0.181   2.333  0.0470  0.2974 -0.1379
 6874W        W 9074   6.348   5.709  16.735  0.0429  0.0955  0.0348
 6875W        W 9075  12.285   3.846  36.603  0.1465  0.1930 -0.1059
 6876W        W 9076   5.274   4.571  41.363  0.0540 -0.0147 -0.0168
 6877W        W 9077   6.123   5.027  38.566 -0.0801  0.2631 -0.0866
 6878W        W 9078  18.053   1.014   2.153 -0.1691  0.1485 -0.1992
 6879W        W 9079   8.411   1.049  35.928 -0.1323  0.1303 -0.1375
 6880W        W 9080  18.501   6.535  28.535  0.1564  0.0409  0.3511
 6881W        W 9081   3.614   0.933   8.313 -0.5535  0.1856 -0.0812
 6882W        W 9082   4.301   1.274  31.455 -0.0195  0.0030 -0.1523
 6883W        W 9083   3.593   4.956  16.094  0.0635  0.0356  0.0287
 6884W        W 9084  14.038   6.409   9.680 -0.1838  0.1300 -0.0150
 6885W        W 9085  20.366   0.779  13.860  0.0535 -0.2070  0.2816
 6886W        W 9086   9.709   5.485  41.727  0.0666  0.1959  0.1656
 6887W        W 9087  10.771   5.090   9.076  0.0374  0.2574 -0.2246
 6888W        W 9088  14.995   5.538  37.431  0.3327  0.3480 -0.0903
 6889W        W 9089   4.467   1.820  15.409  0.0562 -0.2888 -0.3472
 6890W        W 9090  14.700   0.836  42.826  0.2541  0.1461 -0.3244
 6891W        W 9091   9.210   1.605  12.843  0.1595 -0.0339  0.0541
 6892W        W 9092   0.209   0.685   1.626 -0.1049 -0.2472  0.1542
 6893W        W 9093   1.808   0.611  24.507 -0.1537 -0.0084 -0.1648
 6894W        W 9094   1.220   2.873  15.126  0.2205  0.1733 -0.0927
 6895W        W 9095   5.877   3.346  28.544 -0.2792 -0.0322 -0.1160
 6896W        W 9096  10.403   2.024  16.631  0.0585 -0.1570 -0.0035
 6897W        W 9097  16.743   5.705   3.671 -0.0169  0.0162  0.1348
 6898W        W 9098  16.508   3.522  24.995  0.1174 -0.1926 -0.1022
 6899W        W 9099  12.751   3.060  20.440  0.0245 -0.1165 -0.3285
 6900W        W 9100  19.061   3.469  42.474 -0.1045  0.0893 -0.1385
 6901W        W 9101   0.261   1.331  11.425  0.1253 -0.0072 -0.0436
 6902W        W 9102   2.216   1.139  28.159 -0.2101 -0.1288  0.0924
 6903W        W 9103   6.379   0.290   6.588  0.0759  0.0091  0.1561
 6904W        W 9104  13.842   4.049  32.179 -0.1274 -0.1485  0.1495
 6905W        W 9105   3.715   2.770   9.040 -0.2962 -0.1528  0.2153
 6906W        W 9106  10.397   4.128  16.973 -0.3359 -0.2413  0.1696
 6907W        W 9107   9.387   5.671  44.099  0.1166 -0.1146  0.3664
 6908W        W 9108   3.023   3.784   3.249 -0.0501  0.1375  0.2632
 6909W        W 9109   4.698   5.287   6.702 -0.3499 -0.2316 -0.2239
 6910W        W 9110   3.331   4.794  17.383  0.2281  0.2785  0.2563
 6911W        W 9111   0.527   6.276  15.447  0.2109  0.1031 -0.0997
 6912W        W 9112  11.881   5.364  31.705  0.1564  0.0900  0.1309
 6913W        W 9113   9.404   4.184  40.638  0.0895  0.0826  0.1329
 6914W        W 9114   3.794   0.770  37.409 -0.5356 -0.0044  0.1976
 6915W        W 9115   1.289   1.166  12.399 -0.1679  0.0653 -0.0252
 6916W        W 9116   1.460   4.279  28.940  0.0760  0.1065 -0.0708
 6917W        W 9117  14.850   0.536   6.285  0.2081 -0.1248 -0.1346
 6918W        W 9118  14.671   3.529  34.280  0.1226  0.0447  0.3073
 6919W        W 9119  12.303   4.001   1.642 -0.0103  0.3280 -0.0389
 6920W        W 9120  14.935   5.128  15.993  0.2529 -0.1953  0.0941
 6921W        W 9121   2.753   1.713   5.517 -0.2458 -0.1697  0.2267
 6922W        W 9122  17.216   0.464  16.080  0.0615  0.0281 -0.0928
 6923W        W 9123   2.478   1.334  41.151 -0.0022  0.1413  0.0149
 6924W        W 9124  12.584   6.291  40.502 -0.0160  0.3003  0.2258
 6925W        W 9125  15.053   1.852  44.596  0.2128 -0.0257  0.0190
 6926W        W 9126   3.428   6.359   7.647 -0.1007 -0.0054 -0.1488
 6927W        W 9127   2.591   2.590  16.625  0.2886 -0.1014 -0.0918
 6928W        W 9128  11.268   4.564  30.644  0.1755 -0.1034  0.1878
 6929W        W 9129   2.087   2.914  43.690  0.1489 -0.0942 -0.1054
 6930W        W 9130   7.355   4.299  36.324  0.1124 -0.1222 -0.0613
 6931W        W 9131   2.538   0.039  38.714  0.0882 -0.0429 -0.0220
 6932W        W 9132  18.566   1.052   1.493  0.4579 -0.2985 -0.1675
 6933W        W 9133  20.736   6.462   2.324 -0.0701  0.1142 -0.1537
 6934W        W 9134   1.063   5.119  45.007 -0.2800 -0.1426 -0.3312
 6935W        W 9135  16.065   2.450  27.758  0.2514  0.0411  0.0239
 6936W        W 9136  11.896   4.678  43.612 -0.4144  0.0938 -0.2980
 6937W        W 9137  12.690   5.493   2.294  0.0303 -0.0473 -0.1159
 6938W        W 9138  12.294   0.846  36.305 -0.0651 -0.1371 -0.2535
 6939W        W 9139  18.977   1.333  43.883  0.0770 -0.1575 -0.2297
 6940W        W 9140   1.034   2.182  28.570 -0.1850 -0.0765  0.2397
 6941W        W 9141   8.680   6.144  11.912 -0.1272  0.0871  0.2640
 6942W        W 9142   9.837   3.118  39.115  0.0940 -0.0768  0.2210
 6943W        W 9143  17.762   6.253   0.786  0.3219 -0.3619  0.0976
 6944W        W 9144   0.812   0.539   1.295 -0.1875  0.0434  0.0801
 6945W        W 9145   1.508   5.680  44.234  0.2195  0.0494  0.2976
 6946W        W 9146   4.911   5.276  32.143 -0.0764  0.2136  0.2784
 6947W        W 9147   3.454   4.485   2.788 -0.0056  0.0196 -0.0069
 6948W        W 9148   5.610   4.523  32.405  0.1861 -0.1263  0.2962
 6949W        W 9149  10.786   0.329  39.050 -0.3653 -0.2156 -0.1706
 6950W        W 9150   6.452   0.125  43.277  0.2572 -0.0191  0.1419
 6951W        W 9151  20.223   2.114  37.296  0.1474  0.3254 -0.1271
 6952W        W 9152  18.365   1.083  15.799 -0.2771  0.2143 -0.1259
 6953W        W 9153   4.840   3.839   8.698  0.2277  0.0320  0.0169
 6954W        W 9154   7.670   4.428   4.795 -0.0803 -0.0930  0.2587
 6955W        W 9155   3.868   3.960  33.412 -0.0588 -0.0688  0.0823
 6956W        W 9156  11.835   0.612  21.870 -0.1841  0.2362 -0.1453
 6957W        W 9157   6.439   4.433  39.334 -0.1455  0.0511 -0.0718
 6958W        W 9158   1.354   2.929  13.641 -0.1530  0.0889 -0.1130
 6959W        W 9159   9.600   2.254  22.107 -0.1341  0.1327  0.3271
 6960W        W 9160  18.841   5.656  20.998  0.2189 -0.1359  0.3488
 6961W        W 9161   2.045   3.854  34.560  0.2210  0.0103  0.5156
 6962W        W 9162   7.423   5.967   4.032 -0.0369  0.1134  0.3111
 6963W        W 9163  14.365   0.131   0.232 -0.2243  0.1226  0.0969
 6964W        W 9164  12.082   1.225   4.409 -0.0932 -0.1244  0.2156
 6965W        W 9165   1.400   4.588  36.842 -0.2291  0.0394 -0.0200
 6966W        W 9166  20.185   4.053  33.095 -0.0971 -0.3073  0.1031
 6967W        W 9167  20.790   2.201  36.489  0.0759 -0.2783  0.1092
 6968W        W 9168  10.328   5.027  37.679  0.1536 -0.3496  0.1026
 6969W        W 9169   5.669   1.707  34.210  0.0430  0.1817 -0.0751
 6970W        W 9170  15.227   0.477   7.953 -0.0767 -0.0232 -0.1963
 6971W        W 9171  20.901   3.998   0.079  0.3753 -0.0861 -0.1652
 6972W        W 9172   4.708   6.576  38.220  0.1574  0.0493 -0.0039
 6973W        W 9173  12.950   4.459  32.285 -0.1926  0.1099 -0.1488
 6974W        W 9174   1.347   2.652  31.073 -0.0025 -0.0706 -0.0303
 6975W        W 9175  13.288   1.289  16.927 -0.0004  0.0016  0.0840
 6976W        W 9176  15.253   0.523   3.972  0.0151 -0.4509  0.0107
 6977W        W 9177  19.090   3.093  21.931  0.0853  0.0638  0.0026
 6978W        W 9178  19.087   2.487  21.110 -0.0048  0.0716 -0.2217
 6979W        W 9179  11.418   1.230  10.915 -0.3076  0.1986  0.2828
 6980W        W 9180  20.288   2.163  35.464 -0.0242  0.1811 -0.2089
 6981W        W 9181  17.233   4.981  40.796 -0.0111 -0.0842  0.1792
 6982W        W 9182   4.540   5.888  33.122  0.2483 -0.0034  0.3285
 6983W        W 9183  11.279   2.777  17.070 -0.1183  0.0421  0.0895
 6984W        W 9184   7.531   0.984   9.823  0.0071 -0.0043  0.1091
 6985W        W 9185   8.192   4.863  17.233  0.1542  0.1115 -0.1928
 6986W        W 9186  18.761   5.381  40.047  0.3732  0.1201  0.0719
 6987W        W 9187   2.274   2.673  11.943  0.1701 -0.0727 -0.0879
 6988W        W 9188  17.098   1.476  24.852  0.0014 -0.1906 -0.2519
 6989W        W 9189  17.198   0.402   0.653 -0.3870  0.2567  0.0667
 6990W        W 9190   1.804   4.763  40.796 -0.0538  0.2817  0.1221
 6991W        W 9191   9.662   5.379  41.230  0.1307 -0.1125  0.1043
 6992W        W 9192   7.820   2.332   7.387  0.1586  0.0274  0.4866
 6993W        W 9193   0.527   5.517  33.918  0.0134 -0.2889  0.0502
 6994W        W 9194   8.436   2.272   3.013 -0.2734 -0.2465  0.2458
 6995W        W 9195  19.909   1.092  36.437  0.0628 -0.0226 -0.1714
 6996W        W 9196   0.716   3.795  22.530  0.1306  0.0619 -0.0370
 6997W        W 9197   4.068   1.088  18.662 -0.0459  0.0899  0.1932
 6998W        W 9198  16.372   0.497  38.022  0.2051 -0.2629  0.2757
 6999W        W 9199  17.162   1.981  35.953  0.1034 -0.0417 -0.1791
 7000W        W 9200  14.688   3.018  31.963 -0.1478  0.1654 -0.3761
 7001W        W 9201  11.894   1.674  29.972 -0.1462  0.0312  0.3702
 7002W        W 9202  19.706   5.686   8.144  0.0828  0.1763  0.1373
 7003W        W 9203   0.300   1.416  36.786  0.1654 -0.1108 -0.0288
 7004W        W 9204   4.930   6.503  40.323 -0.0477 -0.0875  0.0528
 7005W        W 9205   3.900   4.593  10.355 -0.1782 -0.1744 -0.0399
 7006W        W 9206  21.047   1.788  35.023  0.1539 -0.0384 -0.3463
 7007W        W 9207  19.228   3.193  40.551 -0.0400 -0.0527  0.0826
 7008W        W 9208  14.752   6.420  37.566  0.0780 -0.0269 -0.3252
 7009W        W 9209   5.549   1.482  40.202 -0.0243 -0.0710  0.1030
 7010W        W 9210  10.756   2.008   8.584 -0.1986  0.1409  0.2168
 7011W        W 9211   2.990   2.499  39.078 -0.1594  0.0880 -0.0350
 7012W        W 9212   4.788   2.102  19.236  0.0152 -0.3978 -0.1246
 7013W        W 9213  14.354   0.751  28.451  0.1396 -0.1631  0.0044
 7014W        W 9214  15.383   4.681  29.817 -0.0188  0.1874  0.1377
 7015W        W 9215  11.747   6.404  36.163 -0.3072 -0.1270  0.0212
 7016W        W 9216   6.139   5.407  17.952 -0.1789  0.3053  0.0032
 7017W        W 9217   4.378   4.299   7.551  0.1816  0.1603 -0.3328
 7018W        W 9218   2.121   1.493  44.205 -0.2502  0.0565  0.0212
 7019W        W 9219  16.812   4.692  13.190  0.2471 -0.2716 -0.2832
 7020W        W 9220   7.895   0.034   8.749 -0.3729 -0.3182  0.2910
 7021W        W 9221   4.429   2.720  34.609  0.1428  0.0271 -0.2510
 7022W        W 9222  21.031   3.336  31.764  0.3106 -0.1239 -0.1392
 7023W        W 9223  14.662   5.279  13.274  0.0346 -0.0173 -0.0654
 7024W        W 9224  13.992   2.548   2.934 -0.1524 -0.1877  0.1651
 7025W        W 9225  19.093   1.207   7.276  0.1410  0.1321 -0.1943
 7026W        W 9226   1.100   4.735  26.083 -0.2491 -0.3132  0.0163
 7027W        W 9227   1.518   2.807  27.768  0.2928  0.0032 -0.1914
 7028W        W 9228   9.386   2.334  20.981  0.0789 -0.0767 -0.3207
 7029W        W 9229   5.409   4.089   9.506  0.0322  0.1153 -0.0021
 7030W        W 9230  11.949   3.904  18.665  0.3231 -0.0482 -0.0816
 7031W        W 9231  13.834   2.432  12.641 -0.2664 -0.0936  0.0402
 7032W        W 9232  16.487   0.013   6.217 -0.1261  0.1105 -0.0738
 7033W        W 9233   8.622   1.201   2.910  0.0263 -0.1939  0.1525
 7034W        W 9234   1.961   3.944  31.080 -0.3090  0.0980  0.1382
 7035W        W 9235   0.214   1.035  32.848  0.1808 -0.1834  0.2107
 7036W        W 9236   9.884   3.354  18.316 -0.3091 -0.1770 -0.0020
 7037W        W 9237   9.227   5.878   2.898  0.1120  0.3447 -0.0960
 7038W        W 9238   7.726   1.900  15.036 -0.3093 -0.0804  0.0652
 7039W        W 9239  17.207   3.423  31.043  0.4563  0.1488  0.2144
 7040W        W 9240  12.990   6.288  17.298  0.3729  0.0674  0.0337
 7041W        W 9241   3.428   6.180  33.872 -0.1247  0.0609 -0.0047
 7042W        W 9242  13.649   2.951   4.374  0.3313 -0.0179 -0.2165
 7043W        W 9243  10.045   5.722   8.658  0.0743  0.0264  0.0571
 7044W        W 9244  14.960   2.593   9.833  0.0998 -0.0409  0.3473
 7045W        W 9245   0.101   5.532  34.947  0.2380  0.2673  0.0641
 7046W        W 9246   4.911   5.782  36.641  0.2392  0.0800  0.2517
 7047W        W 9247  14.380   3.407   1.492  0.4155 -0.0188  0.0402
 7048W        W 9248   2.881   2.493  23.594 -0.3663 -0.0168 -0.2468
 7049W        W 9249   9.349   2.779  11.614  0.0290  0.3591 -0.2118
 7050W        W 9250   6.554   4.715  17.484 -0.0683 -0.0822  0.0623
 7051W        W 9251  11.285   0.894  39.576 -0.0057  0.0016  0.0066
 7052W        W 9252  20.075   6.392   8.733  0.0238 -0.1888 -0.0729
 7053W        W 9253   0.026   4.353  30.449 -0.0805  0.1514  0.0831
 7054W        W 9254   0.582   1.365   6.562  0.0036 -0.2002  0.1682
 7055W        W 9255  12.462   1.296  29.317 -0.0641 -0.0689 -0.2922
 7056W        W 9256  18.556   5.512  15.183  0.0051 -0.0083 -0.0066
 7057W        W 9257   6.685   3.480  30.734  0.0286  0.3757 -0.4910
 7058W        W 9258   9.720   3.260   7.862  0.1782  0.0426 -0.0587
 7059W        W 9259   6.033   6.407  17.092 -0.0089 -0.1393 -0.1741
 7060W        W 9260   2.913   5.082   3.304  0.0750  0.2330  0.0517
 7061W        W 9261  20.466   2.917  21.188 -0.0427  0.0482  0.2010
 7062W        W 9262  15.593   0.700  40.438 -0.1503 -0.0043 -0.2257
 7063W        W 9263  13.499   3.031   4.980  0.0482  0.0501 -0.1419
 7064W        W 9264  20.265   3.493  11.911  0.1444  0.0133 -0.4410
 7065W        W 9265  11.463   4.409   3.950  0.3908  0.3581  0.0637
 7066W        W 9266  19.591   6.403  11.773  0.0416 -0.1284 -0.3314
 7067W        W 9267  18.674   1.962  23.956 -0.0446 -0.2617  0.0583
 7068W        W 9268  11.670   4.362  36.075 -0.1178  0.1060 -0.1432
 7069W        W 9269  18.278   2.148  43.707  0.0018  0.1347  0.0194
 7070W        W 9270  11.593   4.740  40.718 -0.0146  0.0943 -0.3111
 7071W        W 9271  11.482   2.806  28.683  0.1719 -0.0425  0.0772
 7072W        W 9272  14.989   3.311  29.697 -0.0571  0.3946 -0.1657
 7073W        W 9273   6.228   3.269  44.288 -0.0392 -0.0516  0.0058
 7074W        W 9274  14.463   0.768  14.417  0.0681  0.2125 -0.2145
 7075W        W 9275  17.516   4.778  24.198 -0.2843  0.0950  0.1328
 7076W        W 9276   4.645   5.240   7.247  0.2749  0.0520  0.3186
 7077W        W 9277  13.368   5.373  28.365 -0.0053  0.1243 -0.2297
 7078W        W 9278  20.333   4.991  35.778  0.3279 -0.1143 -0.2108
 7079W        W 9279   4.832   4.729  34.172  0.3090  0.2531 -0.3401
 7080W        W 9280   2.640   3.221  15.215  0.0203  0.0390 -0.0730
 7081W        W 9281   3.632   2.453  10.539 -0.0070  0.3301 -0.1194
 7082W        W 9282   5.907   0.463  34.909  0.3264  0.1282 -0.2908
 7083W        W 9283  20.699   4.273  43.766 -0.1855  0.2985  0.1574
 7084W        W 9284  17.064   6.506  11.658  0.0326  0.0938 -0.1415
 7085W        W 9285  11.274   3.964  31.539 -0.0318 -0.4444  0.0871
 7086W        W 9286  10.582   1.648  23.398  0.2109 -0.1235 -0.2053
 7087W        W 9287  18.183   3.027   5.965  0.2086  0.2476  0.0895
 7088W        W 9288  11.459   5.315   5.727  0.0991 -0.1276 -0.3939
 7089W        W 9289   7.046   5.625  35.161  0.2603  0.1858 -0.1010
 7090W        W 9290   7.710   2.151   1.109 -0.0312 -0.0175  0.0307
 7091W        W 9291  13.029   0.762  43.635  0.1401 -0.0467  0.0348
 7092W        W 9292   0.881   5.818  38.025  0.1782 -0.0796 -0.1959
 7093W        W 9293   8.273   3.604  11.666 -0.0834 -0.3156 -0.1048
 7094W        W 9294   8.970   1.387  23.108  0.2923  0.0961  0.0552
 7095W        W 9295  15.760   3.987  40.895  0.1568 -0.2644 -0.0966
 7096W        W 9296  15.116   3.458   0.547  0.0128  0.3060  0.2700
 7097W        W 9297  19.874   4.445   3.157  0.1038 -0.3056 -0.0684
 7098W        W 9298   0.136   5.701  42.796  0.1385 -0.1244  0.2419
 7099W        W 9299  16.534   2.247   8.294  0.0043  0.0193  0.1151
 7100W        W 9300  14.051   0.756  11.234 -0.2023  0.0194 -0.1682
 7101W        W 9301   1.155   2.727  12.706  0.0927  0.0418  0.2077
 7102W        W 9302   5.212   3.975  35.943  0.0094  0.0052 -0.1095
 7103W        W 9303   2.527   0.646  36.900 -0.1198  0.0486 -0.2658
 7104W        W 9304   6.534   6.536  35.273  0.0648 -0.0829  0.1413
 7105W        W 9305   2.719   2.260   0.153 -0.5772  0.1193  0.3422
 7106W        W 9306   9.208   3.881  11.125 -0.4822 -0.1079 -0.0974
 7107W        W 9307  19.343   4.742  10.067 -0.0019 -0.3711  0.0932
 7108W        W 9308   2.451   3.265   8.629 -0.1922 -0.1841 -0.2545
 7109W        W 9309  10.294   3.723  19.568 -0.2599  0.2898 -0.0007
 7110W        W 9310   4.409   1.746   3.127  0.2180  0.1081 -0.2423
 7111W        W 9311  19.757   1.562  38.578 -0.0128 -0.0143 -0.1078
 7112W        W 9312   0.751   3.609  11.661 -0.0547  0.3892 -0.0014
 7113W        W 9313  18.307   5.871  32.452 -0.1733 -0.1284 -0.0747
 7114W        W 9314  15.661   4.904  29.060  0.0242  0.0780  0.0634
 7115W        W 9315  14.457   1.583   0.124 -0.1823  0.1287  0.2021
 7116W        W 9316   2.184   2.395  31.452  0.2753 -0.0284 -0.2746
 7117W        W 9317   8.846   1.308   2.465  0.0205 -0.1415 -0.1081
 7118W        W 9318   0.283   3.560  31.960 -0.1436 -0.0520 -0.2257
 7119W        W 9319   1.715   2.732  29.211 -0.0391  0.2723 -0.2517
 7120W        W 9320   2.406   0.371  14.850  0.3318  0.2819 -0.0357
 7121W        W 9321  15.456   6.108  40.469  0.0727 -0.1373 -0.0631
 7122W        W 9322   6.905   3.690   4.776 -0.2218 -0.3188  0.1411
 7123W        W 9323   1.911   3.054   5.351 -0.2705  0.0067 -0.1329
 7124W        W 9324   9.525   0.531  23.187  0.2787  0.0526  0.0500
 7125W        W 9325  10.198   5.440  32.547 -0.2175  0.1268  0.1706
 7126W        W 9326  11.461   0.416  12.515 -0.3611 -0.1328 -0.0257
 7127W        W 9327  17.717   3.834   1.749  0.0260 -0.2052  0.2442
 7128W        W 9328  18.717   4.213  37.390  0.2101  0.0910  0.1266
 7129W        W 9329   0.607   4.039  38.662  0.0117 -0.2021 -0.0029
 7130W        W 9330   5.593   0.877  33.418  0.0837 -0.2113  0.0074
 7131W        W 9331   2.883   1.548  34.878 -0.0773  0.0198  0.1756
 7132W        W 9332  13.677   6.368   2.474 -0.2304  0.0417 -0.2004
 7133W        W 9333   0.579   5.951   6.269 -0.3299  0.2852 -0.0481
 7134W        W 9334  10.496   6.114  16.142  0.2734  0.3126  0.0905
 7135W        W 9335   3.863   2.975   7.540 -0.0595 -0.0002  0.0246
 7136W        W 9336   8.927   0.289  34.955 -0.1362 -0.0120  0.4010
 7137W        W 9337   3.414   1.476   0.818 -0.0762 -0.0722  0.3505
 7138W        W 9338  18.904   0.661  30.184 -0.0632  0.0932  0.0574
 7139W        W 9339   8.710   0.437  17.157 -0.0109  0.0287 -0.0491
 7140W        W 9340  10.529   6.266   2.737  0.0439 -0.1438  0.1278
 7141W        W 9341  11.558   5.152  17.978  0.1455 -0.1719 -0.2048
 7142W        W 9342   1.055   3.765  36.317  0.1883 -0.2318  0.2014
 7143W        W 9343  17.220   2.917  41.686  0.0509  0.1347 -0.1136
 7144W        W 9344  14.012   3.581  28.750  0.4734 -0.0069  0.0520
 7145W        W 9345  11.649   2.519  37.833  0.0070  0.1437 -0.1227
 7146W        W 9346   4.413   1.797  27.964 -0.1047 -0.0797 -0.1303
 7147W        W 9347   9.754   6.446  32.144  0.3827  0.2049 -0.0911
 7148W        W 9348   4.600   5.669  10.709 -0.0661  0.3050 -0.0254
 7149W        W 9349  15.761   5.294  26.400 -0.0052 -0.0182 -0.0756
 7150W        W 9350  20.049   0.948  11.205 -0.1464  0.1053  0.1240
 7151W        W 9351  18.350   2.852  11.647  0.2596  0.0654  0.0013
 7152W        W 9352   8.038   4.240  18.552 -0.0099  0.1417  0.5362
 7153W        W 9353  12.038   4.362  31.986 -0.1472  0.0197 -0.1486
 7154W        W 9354   0.294   4.514  22.700 -0.0243 -0.0500  0.0962
 7155W        W 9355  20.569   3.489  25.967  0.3508  0.1539  0.1129
 7156W        W 9356  13.075   6.515   7.780  0.1098  0.0831  0.1156
 7157W        W 9357   1.671   3.171  34.161  0.1704  0.2558  0.2152
 7158W        W 9358   2.896   6.396   3.484  0.2396 -0.3249  0.0161
 7159W        W 9359  15.861   5.420  13.828 -0.1533 -0.1119 -0.1402
 7160W        W 9360   1.420   2.319   7.314 -0.1862  0.1854  0.1375
 7161W        W 9361  20.717   1.859  15.025  0.0035  0.2860  0.0948
 7162W        W 9362  17.684   1.140  40.993 -0.0293  0.1563 -0.0427
 7163W        W 9363  16.874   3.226  10.468  0.1207  0.0584  0.0789
 7164W        W 9364  14.035   4.234  30.974 -0.2240  0.2283 -0.3562
 7165W        W 9365  20.605   0.538  32.920  0.3834  0.0868 -0.1460
 7166W        W 9366   2.854   2.280  27.366  0.1241 -0.0230  0.1286
 7167W        W 9367   9.258   5.815  22.825 -0.3079  0.0650  0.1089
 7168W        W 9368  16.126   1.607  31.315 -0.1474  0.1722  0.0692
 7169W        W 9369  10.536   2.328  24.721 -0.2402 -0.1420 -0.1423
 7170W        W 9370   3.886   0.200  42.428  0.0314 -0.0002  0.1438
 7171W        W 9371   6.235   2.915   5.125 -0.1278 -0.1123 -0.1761
 7172W        W 9372   8.916   0.464  36.236  0.1016  0.3682 -0.1088
 7173W        W 9373  20.040   4.016  28.109  0.2688  0.1334 -0.0369
 7174W        W 9374  20.891   0.194  28.124 -0.0087 -0.3044  0.0923
 7175W        W 9375   6.611   2.732  18.949  0.1687  0.0622  0.0904
 7176W        W 9376  12.549   0.057   2.327  0.2056  0.2155  0.0022
 7177W        W 9377  10.148   1.553   2.090  0.3188 -0.0600  0.0330
 7178W        W 9378   4.111   3.105  11.150 -0.1533 -0.2350  0.3362
 7179W        W 9379  18.047   5.516   8.752 -0.0768 -0.0395 -0.0958
 7180W        W 9380  10.010   1.495  16.552 -0.1395  0.0878  0.2348
 7181W        W 9381  15.257   5.335   0.627 -0.1470 -0.0384 -0.1584
 7182W        W 9382  19.278   2.382  28.125  0.1215 -0.1462  0.0209
 7183W        W 9383  11.192   3.740   9.988  0.0588 -0.1000 -0.1267
 7184W        W 9384  12.178   5.858  37.123 -0.3027 -0.0703  0.2144
 7185W        W 9385   3.764   4.975  39.989  0.0022 -0.0019  0.0387
 7186W        W 9386   2.123   1.376  40.025  0.1493  0.1249 -0.2332
 7187W        W 9387  20.699   5.638  10.115  0.1068 -0.1213 -0.3144
 7188W        W 9388   1.810   4.878  43.923  0.0228  0.0421  0.0372
 7189W        W 9389  11.017   0.140  43.077  0.0560 -0.2429  0.1510
 7190W        W 9390   1.784   0.083   5.549  0.1516 -0.1809 -0.2823
 7191W        W 9391   2.905   0.472  25.585 -0.1044 -0.0348  0.2884
 7192W        W 9392   6.083   6.180  17.625 -0.1941 -0.1422  0.2382
 7193W        W 9393   4.701   0.857  17.893  0.3516 -0.0024 -0.0426
 7194W        W 9394  19.986   4.962   7.371 -0.0754 -0.3520  0.4129
 7195W        W 9395   6.044   6.549  12.945  0.1492  0.1462 -0.0554
 7196W        W 9396   1.517   2.192  15.374 -0.1508 -0.0003  0.0340
 7197W        W 9397  10.760   3.714  39.051  0.2571 -0.1278  0.3808
 7198W        W 9398  12.248   2.718  19.330  0.2178  0.0648 -0.0423
 7199W        W 9399  10.440   1.875  30.402 -0.1138  0.0267  0.0586
 7200W        W 9400  19.390   5.331  33.607  0.2752  0.3244 -0.0350
 7201W        W 9401  18.541   4.532   9.902  0.0857  0.0126 -0.0673
 7202W        W 9402  10.988   3.399  30.795  0.0758 -0.2281  0.2856
 7203W        W 9403  11.413   0.311  18.485 -0.0904  0.1250 -0.3180
 7204W        W 9404  20.604   1.006  23.158  0.1754 -0.1840 -0.1828
 7205W        W 9405  17.796   3.465  11.369  0.2470 -0.0486 -0.2635
 7206W        W 9406   4.577   0.488  30.827  0.1902 -0.0443  0.1418
 7207W        W 9407  15.833   0.443  40.116  0.0114  0.2304 -0.1143
 7208W        W 9408  14.241   1.071   3.837  0.2444  0.1330 -0.1450
 7209W        W 9409  10.660   0.707  10.790 -0.0996  0.2214  0.0011
 7210W        W 9410  17.218   3.293  34.738 -0.0884 -0.1957 -0.0549
 7211W        W 9411   8.543   5.792  33.118 -0.1901 -0.2917 -0.2255
 7212W        W 9412   6.896   5.945  16.607 -0.0652 -0.0643 -0.0449
 7213W        W 9413   3.176   0.712   9.380 -0.0356 -0.1460  0.0003
 7214W        W 9414   8.131   4.452  33.482  0.1957  0.0576  0.0115
 7215W        W 9415   0.624   3.880   6.539 -0.0388 -0.2795 -0.0930
 7216W        W 9416   3.145   0.484  32.784  0.2210 -0.0017 -0.2960
 7217W        W 9417  19.312   0.955  25.501 -0.0607 -0.0042  0.0350
 7218W        W 9418  19.392   2.866  14.108 -0.0390 -0.1671 -0.2177
 7219W        W 9419  17.489   3.943  33.797 -0.4776  0.0492  0.1794
 7220W        W 9420  20.897   1.530  12.586 -0.2447 -0.1160 -0.2226
 7221W        W 9421  17.103   6.135  35.848  0.1873 -0.1140 -0.0480
 7222W        W 9422  12.357   4.332  36.758 -0.3165 -0.3709  0.0065
 7223W        W 9423   1.408   5.825  31.014 -0.0560  0.0276 -0.2296
 7224W        W 9424  17.822   4.190  13.779 -0.0806  0.0669  0.2243
 7225W        W 9425  19.847   2.237  34.967  0.2160 -0.1379  0.2986
 7226W        W 9426  17.270   3.801  11.252  0.0212  0.0582 -0.2271
 7227W        W 9427   2.736   1.339   4.217 -0.0369 -0.1458 -0.1253
 7228W        W 9428  16.839   5.694  32.954 -0.0962  0.0140  0.3704
 7229W        W 9429   1.519   4.247   5.783 -0.2209  0.1389 -0.0436
 7230W        W 9430   9.889   1.164  15.303  0.1476 -0.0509  0.1513
 7231W        W 9431  11.864   1.342   1.454 -0.2462 -0.0978  0.4362
 7232W        W 9432  11.987   6.593  38.449 -0.0305 -0.2132  0.0283
 7233W        W 9433   0.969   5.353   9.004  0.2916 -0.3068 -0.2169
 7234W        W 9434  17.494   1.194  44.266  0.2059 -0.0508 -0.3178
 7235W        W 9435  20.375   2.170   4.830  0.3511 -0.0786 -0.1435
 7236W        W 9436  19.225   1.062   7.770  0.1936  0.0695 -0.1030
 7237W        W 9437   0.677   6.489  37.564  0.1512 -0.1259 -0.1627
 7238W        W 9438   3.783   1.319  33.575  0.0770 -0.0338  0.4337
 7239W        W 9439  15.391   2.653   7.760  0.1433 -0.1824 -0.4393
 7240W        W 9440   5.254   4.265  14.371 -0.0961 -0.0148  0.1719
 7241W        W 9441   5.074   1.744  30.473 -0.1714 -0.0204  0.0660
 7242W        W 9442  20.241   1.138  37.615 -0.1684 -0.0901  0.1038
 7243W        W 9443  10.507   0.860  20.926 -0.0494 -0.4270  0.2136
 7244W        W 9444   7.930   3.733   3.876 -0.3268 -0.2450 -0.1072
 7245W        W 9445   5.836   5.993  44.311 -0.1102  0.0875 -0.0884
 7246W        W 9446   7.081   0.615  30.720  0.0704 -0.0277 -0.2436
 7247W        W 9447  16.159   2.667  43.552  0.0411 -0.0845 -0.0451
 7248W        W 9448  16.424   4.286   6.265 -0.1606  0.2200  0.1061
 7249W        W 9449  11.430   5.482  11.774 -0.1907 -0.0020 -0.1611
 7250W        W 9450   0.693   3.291  16.018 -0.0219  0.1347  0.1803
 7251W        W 9451   3.300   3.360   3.329 -0.0987 -0.1013 -0.0660
 7252W        W 9452  16.010   5.014  27.808 -0.4517 -0.3111  0.1906
 7253W        W 9453  15.735   4.395  44.200  0.1629  0.0441 -0.1574
 7254W        W 9454   0.844   4.680   3.481 -0.2650 -0.0289  0.1017
 7255W        W 9455   3.224   4.026  13.423  0.1562  0.1401  0.1654
 7256W        W 9456  10.317   0.743  23.549 -0.1380 -0.1155 -0.1154
 7257W        W 9457   1.963   6.259  35.582 -0.3002  0.1053  0.2527
 7258W        W 9458  11.558   0.838  35.996  0.2002 -0.0021 -0.0862
 7259W        W 9459   3.530   6.197   9.168  0.2495  0.0018 -0.1004
 7260W        W 9460   7.995   0.535   8.635 -0.0704 -0.4615  0.0174
 7261W        W 9461  10.148   5.775  43.323 -0.1946  0.1337  0.1180
 7262W        W 9462  15.277   2.071  28.327  0.1569 -0.0540  0.0134
 7263W        W 9463   4.592   4.828   2.680  0.3606  0.1555  0.2206
 7264W        W 9464   4.165   0.860  30.827 -0.1905  0.2074 -0.0045
 7265W        W 9465  17.899   4.506  37.742  0.0351  0.3612  0.2067
 7266W        W 9466   4.105   6.546  44.005 -0.1631  0.2955  0.0342
 7267W        W 9467   8.241   4.991  34.485 -0.2656 -0.0873 -0.2354
 7268W        W 9468  16.045   3.578  36.864 -0.1006 -0.1262  0.0579
 7269W        W 9469  12.854   0.118  35.166  0.0440  0.2184  0.0153
 7270W        W 9470  11.958   6.389  37.001 -0.1482 -0.0759 -0.1693
 7271W        W 9471  17.481   4.220  10.945 -0.0374  0.1122 -0.2827
 7272W        W 9472   3.085   3.468  13.449 -0.2574  0.1183  0.1309
 7273W        W 9473   8.780   0.969  42.354  0.0903 -0.2083  0.0674
 7274W        W 9474   0.764   1.233  12.281 -0.1377 -0.0110  0.0007
 7275W        W 9475  16.363   3.319  10.534 -0.1272  0.2817  0.0853
 7276W        W 9476  19.083   4.401  15.409  0.0202  0.0151 -0.0957
 7277W        W 9477  18.726   2.430  42.982  0.2461  0.2414 -0.3832
 7278W        W 9478   8.966   2.356  21.443 -0.2300  0.0742  0.0806
 7279W        W 9479  18.185   4.604  30.004 -0.1122  0.1199 -0.3080
 7280W        W 9480   9.499   4.604  21.511 -0.1469  0.2695  0.2382
 7281W        W 9481  16.169   0.445   3.946  0.2415  0.0946 -0.1354
 7282W        W 9482  12.147   1.408  14.985 -0.1075 -0.0205  0.0320
 7283W        W 9483  19.985   4.447  11.011 -0.0466  0.2515  0.2001
 7284W        W 9484   2.080   5.191  26.286 -0.1892  0.1419 -0.0818
 7285W        W 9485   1.655   6.323  33.127  0.5536 -0.3864  0.1165
 7286W        W 9486   0.804   2.789  26.676 -0.0110 -0.1408  0.0108
 7287W        W 9487   8.630   1.848  22.986  0.0675  0.0187 -0.1227
 7288W        W 9488   9.686   2.698  11.213 -0.0555  0.0090  0.1487
 7289W        W 9489  18.733   0.760   8.544 -0.0687  0.1295  0.0911
 7290W        W 9490  15.168   4.329  31.763  0.1948 -0.0426  0.2803
 7291W        W 9491   1.103   3.391  32.521 -0.0548  0.0023 -0.0788
 7292W        W 9492  10.339   1.630  16.046  0.0502 -0.0650  0.2033
 7293W        W 9493   5.667   1.830  20.396  0.0948  0.0193  0.1012
 7294W        W 9494   1.125   4.564  14.180 -0.0403  0.0912 -0.0627
 7295W        W 9495   0.068   4.311  11.461 -0.0806 -0.1249  0.0647
 7296W        W 9496   6.303   2.109  21.220  0.0618  0.1591 -0.1366
 7297W        W 9497   2.546   3.464  26.793  0.0054 -0.0305 -0.2766
 7298W        W 9498  18.617   6.519  41.698 -0.0344  0.0343  0.2733
 7299W        W 9499  12.433   4.301   8.105 -0.1712 -0.2620  0.0179
 7300W        W 9500  10.964   5.792  23.429  0.1945 -0.0121  0.0946
 7301W        W 9501  14.119   3.949  44.415  0.0092  0.1907  0.0234
 7302W        W 9502   6.933   0.203   1.001  0.0856 -0.2026 -0.1439
 7303W        W 9503  10.317   6.591   5.224 -0.1698  0.1449 -0.0248
 7304W        W 9504   9.557   3.677  39.909 -0.2232  0.2648 -0.0561
 7305W        W 9505  10.141   4.395   5.075  0.0283 -0.0571  0.1533
 7306W        W 9506  21.085   5.760   0.420  0.3114  0.1241  0.0175
 7307W        W 9507   8.198   3.666  23.096 -0.0505 -0.0203  0.0021
 7308W        W 9508  18.733   1.401   4.332  0.0339  0.1804  0.1295
 7309W        W 9509   2.882   3.826  26.005  0.1628  0.1415 -0.2065
 7310W        W 9510  14.128   5.015  11.408 -0.0773 -0.1511  0.0057
 7311W        W 9511  19.491   3.014  21.665  0.2778 -0.0469 -0.1008
 7312W        W 9512  11.163   6.168  38.545  0.2356 -0.0779  0.0553
 7313W        W 9513  18.701   5.780  13.431 -0.1285  0.1874 -0.2043
 7314W        W 9514  17.086   3.309   5.200 -0.3515  0.1887  0.2385
 7315W        W 9515  16.428   2.078  30.557 -0.2287 -0.1883  0.2267
 7316W        W 9516   2.745   3.239  39.234 -0.0240  0.0039 -0.2156
 7317W        W 9517  20.425   0.574   2.262 -0.2977  0.0102  0.1375
 7318W        W 9518  15.833   5.851  29.221  0.2144 -0.1246 -0.0046
 7319W        W 9519   5.769   5.120  29.313  0.2094 -0.0856 -0.1907
 7320W        W 9520   9.648   3.163   2.317  0.1067  0.3479  0.4159
 7321W        W 9521  20.595   1.583  28.456  0.1847  0.0744 -0.0372
 7322W        W 9522  17.369   5.929   4.809  0.0086  0.1112  0.0425
 7323W        W 9523   0.912   1.919  26.596 -0.1971 -0.0100 -0.0772
 7324W        W 9524  10.233   5.110   0.208 -0.1339 -0.4317 -0.1010
 7325W        W 9525   1.945   2.834  25.644 -0.0412  0.4363 -0.1694
 7326W        W 9526  20.776   3.953  39.043  0.0385 -0.0956 -0.2959
 7327W        W 9527   6.330   3.029  42.988  0.0735 -0.1120  0.0093
 7328W        W 9528   7.963   6.403  29.789 -0.1508  0.2271 -0.0130
 7329W        W 9529   8.930   5.038  10.423  0.1845 -0.0652 -0.1569
 7330W        W 9530  13.355   2.517  43.322  0.0450  0.0883  0.1614
 7331W        W 9531  19.857   0.520  30.133  0.0889  0.0497 -0.1918
 7332W        W 9532  12.945   3.998  14.788 -0.3193 -0.0147  0.0600
 7333W        W 9533   7.499   6.261  33.694  0.3972  0.1607  0.1649
 7334W        W 9534  13.741   5.688  37.829  0.1857  0.3306 -0.0016
 7335W        W 9535  14.389   4.401  26.843  0.3582  0.0845 -0.2514
 7336W        W 9536   1.981   6.517  38.201  0.3052 -0.3915 -0.0436
 7337W        W 9537   2.036   0.389  34.698 -0.1048 -0.0285 -0.0938
 7338W        W 9538  15.376   2.519  11.419 -0.0235  0.0307 -0.0566
 7339W        W 9539  18.730   5.072  10.756 -0.0576  0.0874  0.3239
 7340W        W 9540  14.563   6.143  34.856  0.2811 -0.0121 -0.2164
 7341W        W 9541  10.810   1.148  12.238  0.2634  0.0148  0.3076
 7342W        W 9542  15.873   5.926   9.340  0.0347  0.4078 -0.0043
 7343W        W 9543  16.133   5.735  43.731  0.0035  0.1633 -0.0045
 7344W        W 9544  15.581   1.588  17.912  0.1650 -0.0315 -0.0430
 7345W        W 9545  14.260   3.764   8.952 -0.0677 -0.1349 -0.0216
 7346W        W 9546  13.670   1.333  14.878  0.0793  0.0002 -0.0464
 7347W        W 9547  12.692   6.546  19.527  0.0600 -0.1690 -0.0711
 7348W        W 9548  18.711   2.827   4.793 -0.0981  0.0954  0.1294
 7349W        W 9549  10.918   0.268  15.651  0.0644  0.3537  0.1347
 7350W        W 9550  11.227   5.714  41.156 -0.2281 -0.2152  0.0574
 7351W        W 9551   8.573   4.250   4.348 -0.0639  0.1451  0.0612
 7352W        W 9552  16.780   5.248  28.594  0.2055 -0.0023  0.1252
 7353W        W 9553   4.915   5.389  14.285  0.0195  0.0277 -0.0478
 7354W        W 9554  10.595   5.584  32.213 -0.3428 -0.3779  0.0644
 7355W        W 9555   2.397   1.181  37.739  0.2125  0.3058 -0.3904
 7356W        W 9556  14.761   2.314  33.544  0.3489  0.1813 -0.0071
 7357W        W 9557  20.591   1.438  11.321  0.0027  0.3076  0.0067
 7358W        W 9558   8.767   4.000  21.910  0.1080 -0.0582 -0.0352
 7359W        W 9559   4.564   1.718  40.065 -0.1702 -0.1660 -0.2246
 7360W        W 9560  12.572   6.338  18.426 -0.0571 -0.2603 -0.3077
 7361W        W 9561  19.672   4.414   8.415 -0.0496  0.0818  0.2736
 7362W        W 9562  18.785   1.828  10.856 -0.0505  0.1280  0.4297
 7363W        W 9563  15.284   2.499  36.758 -0.3935 -0.0633  0.2414
 7364W        W 9564   8.357   3.247  44.728  0.1770  0.2846  0.0754
 7365W        W 9565  12.815   2.808  37.667 -0.2271 -0.1956 -0.0463
 7366W        W 9566  13.654   2.667   8.354 -0.0826  0.1405 -0.0947
 7367W        W 9567   4.970   2.067  38.342  0.0146 -0.1102 -0.2334
 7368W        W 9568  19.866   2.515   0.748  0.0909  0.0881 -0.1280
 7369W        W 9569  13.280   5.459   4.809 -0.0077  0.2103 -0.1531
 7370W        W 9570  20.245   5.622  37.116  0.0350 -0.0520 -0.1543
 7371W        W 9571  13.791   6.044  28.843  0.0585  0.1244 -0.1971
 7372W        W 9572  10.784   4.362  30.784 -0.2436 -0.0143  0.1135
 7373W        W 9573  14.098   2.392  16.485 -0.0998  0.2975  0.2943
 7374W        W 9574   6.523   3.944  43.076  0.0436 -0.2647 -0.0080
 7375W        W 9575   1.195   2.646  29.358  0.3941 -0.0388  0.0149
 7376W        W 9576  19.863   2.759  34.687 -0.0174  0.1865 -0.1127
 7377W        W 9577  10.685   2.289  31.573 -0.1379 -0.0404 -0.2284
 7378W        W 9578   9.169   4.454   5.013  0.0600 -0.2603  0.0106
 7379W        W 9579   1.828   3.682  28.020 -0.0555  0.0410 -0.1953
 7380W        W 9580   2.431   0.527   4.562  0.2338 -0.1263  0.0215
 7381W        W 9581   4.418   0.587  43.279  0.0442 -0.2327  0.2484
 7382W        W 9582   8.226   3.313  21.664 -0.0356 -0.0123  0.0799
 7383W        W 9583   6.831   3.768   5.712 -0.1697  0.0415 -0.1580
 7384W        W 9584  13.835   5.767  19.433  0.1376  0.3018  0.2507
 7385W        W 9585   0.399   4.634  30.502  0.2082 -0.2587  0.0240
 7386W        W 9586   2.176   4.281  26.395  0.0934  0.1466 -0.1830
 7387W        W 9587  11.303   0.992   5.747 -0.1109 -0.0884 -0.3012
 7388W        W 9588   3.475   3.820  27.081 -0.1052  0.0304  0.1925
 7389W        W 9589  16.358   0.014   9.824 -0.1415 -0.2261  0.0630
 7390W        W 9590  17.256   4.684  25.613 -0.2623  0.0314 -0.4851
 7391W        W 9591   6.086   6.389  10.131  0.1528  0.0303 -0.2847
 7392W        W 9592   5.023   2.182   1.074  0.1375 -0.0077 -0.4304
 7393W        W 9593  12.389   5.925  31.149  0.2851  0.1484 -0.0742
 7394W        W 9594  15.636   2.174   6.719  0.0815 -0.2905 -0.2117
 7395W        W 9595   4.542   5.759  11.733  0.0442  0.1966  0.1513
 7396W        W 9596   2.865   6.036  35.265 -0.2312 -0.1699  0.4637
 7397W        W 9597  10.036   5.056  23.973 -0.0395 -0.2450 -0.3611
 7398W        W 9598  19.976   1.908   2.908 -0.0006  0.3440  0.1979
 7399W        W 9599  14.072   5.655  42.974 -0.0044  0.3463  0.0125
 7400W        W 9600  10.407   3.947  33.032 -0.0213  0.2385  0.0802
 7401W        W 9601  11.280   4.537  14.906 -0.2799  0.2678 -0.2783
 7402W        W 9602   6.812   2.401  42.865 -0.0308  0.1130  0.1392
 7403W        W 9603  13.120   3.597  14.909 -0.0402 -0.1890  0.0730
 7404W        W 9604  16.471   5.497  35.215 -0.0440 -0.0187 -0.0244
 7405W        W 9605  15.781   2.055   9.121  0.3821  0.0345  0.0282
 7406W        W 9606   1.683   3.564  41.825  0.1845  0.0159  0.1684
 7407W        W 9607  18.991   5.413  42.973 -0.3587  0.0103  0.0343
 7408W        W 9608   4.619   5.908   5.928 -0.2749  0.1230 -0.0829
 7409W        W 9609  20.884   4.897  23.751  0.1213 -0.0750  0.2257
 7410W        W 9610   6.132   0.046   2.820 -0.1019  0.0125  0.0126
 7411W        W 9611   6.494   5.517   3.959 -0.0368  0.1585 -0.1883
 7412W        W 9612   4.564   1.071  12.669 -0.1278 -0.2487 -0.0659
 7413W        W 9613   5.495   3.641  44.153  0.1549  0.0168 -0.2497
 7414W        W 9614   9.277   4.719  10.938  0.2769  0.1133  0.0461
 7415W        W 9615   6.140   2.953   1.845  0.1877  0.1238 -0.0745
 7416W        W 9616  17.995   6.389  34.447 -0.1180  0.1233  0.0558
 7417W        W 9617   5.849   4.214   3.250 -0.1351 -0.0915 -0.2471
 7418W        W 9618   1.603   1.348   1.246  0.0445  0.0008  0.1985
 7419W        W 9619   9.318   3.179   5.580  0.0432 -0.1320 -0.0346
 7420W        W 9620   4.699   2.174   3.364 -0.0820  0.2473 -0.1906
 7421W        W 9621  16.848   1.903  12.873  0.2314 -0.1364  0.0445
 7422W        W 9622  19.714   1.438  13.672 -0.3209 -0.1286  0.1849
 7423W        W 9623  17.646   4.095  37.777  0.0196  0.1166  0.3614
 7424W        W 9624   1.349   2.384   0.557  0.2695 -0.2046  0.3737
 7425W        W 9625  11.940   3.931   6.770  0.1114  0.0648  0.2227
 7426W        W 9626  13.436   5.203  41.860 -0.2678  0.2234  0.2468
 7427W        W 9627  11.417   5.943  36.529  0.3005  0.0678 -0.0876
 7428W        W 9628   0.107   4.760  34.105 -0.1479  0.1015  0.1596
 7429W        W 9629   1.135   5.366  34.706  0.0039  0.0888  0.2630
 7430W        W 9630  19.617   1.775   5.323 -0.2622  0.0726  0.2652
 7431W        W 9631   2.828   1.175  33.290  0.1355 -0.1193  0.0518
 7432W        W 9632  19.794   3.625  25.524  0.3498 -0.2557 -0.2040
 7433W        W 9633   3.028   6.280  38.767 -0.0404  0.1874  0.1191
 7434W        W 9634  15.923   3.389  40.337  0.2125  0.0502  0.0560
 7435W        W 9635  14.473   3.291  11.703  0.0191 -0.0042 -0.1810
 7436W        W 9636   8.152   0.141  41.452  0.1682 -0.1645  0.3958
 7437W        W 9637  19.704   0.047  30.070  0.1828 -0.1629 -0.1389
 7438W        W 9638   5.685   6.021   0.663  0.0665  0.1036 -0.1344
 7439W        W 9639   2.196   5.047  30.258  0.1597 -0.1180  0.1837
 7440W        W 9640   1.044   3.657  35.262 -0.1023  0.1831 -0.0991
 7441W        W 9641   3.044   3.135   5.455  0.1384  0.0453 -0.2470
 7442W        W 9642  20.633   6.031   6.040  0.2792  0.3723 -0.1251
 7443W        W 9643   1.005   1.285  23.272 -0.1273 -0.0596  0.2139
 7444W        W 9644   2.420   1.169  30.041 -0.1938  0.3165  0.4197
 7445W        W 9645   3.279   0.364  18.482  0.0716  0.1109  0.4007
 7446W        W 9646  17.489   4.196  36.833  0.1716 -0.0403  0.1205
 7447W        W 9647  16.689   2.806  32.892 -0.0551  0.0593  0.0541
 7448W        W 9648  19.455   2.234  30.342  0.1375 -0.4802  0.3290
 7449W        W 9649   9.050   3.993  41.251  0.0698 -0.1280 -0.1029
 7450W        W 9650  19.248   1.359  44.345 -0.2283 -0.0258 -0.0081
 7451W        W 9651  14.853   2.429  27.289  0.1274 -0.0049 -0.2109
 7452W        W 9652  13.730   3.352  39.308  0.1871 -0.1292 -0.0379
 7453W        W 9653   4.363   6.057  41.007 -0.0959 -0.2837 -0.1892
 7454W        W 9654  15.857   1.327   9.710 -0.1888  0.0635 -0.2562
 7455W        W 9655  19.375   0.665  25.035  0.0393 -0.1609 -0.0312
 7456W        W 9656  21.041   1.361   6.044 -0.0184 -0.0040  0.2506
 7457W        W 9657  14.879   6.103  37.915 -0.2323  0.0657  0.0992
 7458W        W 9658  17.967   4.225   6.329 -0.2386  0.0118  0.0053
 7459W        W 9659   0.255   5.832  32.943 -0.2245  0.1443  0.0849
 7460W        W 9660  20.223   1.276   0.374 -0.0943  0.0691  0.0857
 7461W        W 9661   8.460   0.003  39.918 -0.0368 -0.2496  0.0162
 7462W        W 9662  19.238   0.490  32.147  0.1936  0.1477 -0.1603
 7463W        W 9663  12.528   2.760   5.044 -0.1305  0.2564 -0.0666
 7464W        W 9664  16.690   2.853  35.874 -0.2233  0.2197 -0.3392
 7465W        W 9665  13.114   0.750   7.584  0.2007  0.2188  0.2294
 7466W        W 9666   1.132   5.439  14.902 -0.3000  0.0350  0.2498
 7467W        W 9667  19.504   5.106  28.427 -0.0441 -0.1190 -0.2270
 7468W        W 9668  13.183   5.945  35.584  0.1194  0.0041  0.1161
 7469W        W 9669   8.047   4.958   2.631 -0.2083  0.0461 -0.2496
 7470W        W 9670   4.470   4.633   1.645  0.2751 -0.2220 -0.2408
 7471W        W 9671  17.948   1.749   9.624  0.1229  0.1408 -0.0436
 7472W        W 9672  20.910   5.789  32.938 -0.0505  0.0078 -0.1918
 7473W        W 9673  10.249   2.960  24.083  0.0495  0.1121  0.3407
 7474W        W 9674  21.096   5.230  34.150 -0.1477  0.1652  0.0613
 7475W        W 9675   4.755   6.469   8.023  0.1620  0.0971 -0.0171
 7476W        W 9676   2.173   5.820   3.392 -0.0750 -0.2298  0.0046
 7477W        W 9677   6.833   4.759  15.498 -0.1874  0.0279 -0.1242
 7478W        W 9678  10.690   1.302   8.911  0.0331 -0.0548 -0.0778
 7479W        W 9679   4.002   0.509   7.537 -0.1843 -0.0351 -0.0665
 7480W        W 9680  18.319   5.264  36.689  0.0093  0.1718 -0.0621
 7481W        W 9681  11.383   0.652  30.268  0.0482 -0.2554 -0.1181
 7482W        W 9682   1.353   6.099   1.162  0.0724  0.0320  0.0824
 7483W        W 9683   1.709   0.883   0.744  0.3096 -0.0905 -0.2920
 7484W        W 9684  15.778   4.075   2.037  0.1021 -0.0216 -0.1322
 7485W        W 9685  20.881   4.822  40.582  0.2265 -0.1136  0.0089
 7486W        W 9686   9.204   5.160   4.176 -0.1328  0.0392  0.3552
 7487W        W 9687   1.451   3.505   9.515 -0.1231 -0.1727 -0.0341
 7488W        W 9688   9.152   5.164  36.221 -0.1163 -0.0608  0.1663
 7489W        W 9689   7.033   6.149  11.987 -0.1690 -0.0345  0.0103
 7490W        W 9690  20.985   6.180   8.325 -0.1289  0.1654  0.0219
 7491W        W 9691  18.874   1.080   1.056 -0.1440 -0.0550 -0.2842
 7492W        W 9692  13.270   2.598   4.394  0.2279  0.0552 -0.0195
 7493W        W 9693  17.594   5.798  37.771  0.1068 -0.1520  0.0739
 7494W        W 9694  10.054   4.223   7.258 -0.1538  0.1843 -0.0712
 7495W        W 9695  16.082   4.299  38.211  0.0192  0.0262 -0.0597
 7496W        W 9696  19.311   5.994  21.138  0.2783  0.0928 -0.0086
 7497W        W 9697   0.198   3.170  33.467  0.2122  0.0531 -0.1955
 7498W        W 9698   8.118   3.685  41.671 -0.0748 -0.1194 -0.1202
 7499W        W 9699   7.615   4.098   6.276  0.3651 -0.0741  0.2132
 7500W        W 9700  14.268   1.018  15.988 -0.0945 -0.2646 -0.1958
 7501W        W 9701   9.579   0.442  13.437 -0.0907  0.1786 -0.0219
 7502W        W 9702   5.544   1.922  19.638 -0.0676  0.1515 -0.0414
 7503W        W 9703  16.927   6.265  38.107 -0.0247 -0.0831  0.0914
 7504W        W 9704   6.519   4.829   3.353  0.0831  0.2310 -0.0832
 7505W        W 9705  14.146   5.669  29.742  0.1849  0.1887  0.3413
 7506W        W 9706  16.188   2.937   0.681 -0.1332 -0.1319 -0.1874
 7507W        W 9707   8.575   5.465  10.202  0.0690  0.0219 -0.1366
 7508W        W 9708  18.609   3.776  40.000  0.0499 -0.3073  0.1879
 7509W        W 9709  12.749   1.150   9.632 -0.1229  0.1171  0.0737
 7510W        W 9710   1.616   4.499  15.604  0.0658 -0.2690 -0.2206
 7511W        W 9711   0.365   4.905  30.989 -0.1299 -0.0353 -0.3982
 7512W        W 9712  11.158   0.851  10.061 -0.1886 -0.1790 -0.0395
 7513W        W 9713  17.397   2.493  28.958 -0.0414  0.0182  0.1759
 7514W        W 9714  18.111   3.996  38.610 -0.0073 -0.2606 -0.0543
 7515W        W 9715   3.665   1.129  14.323  0.1736  0.1308  0.0071
 7516W        W 9716  20.318   1.774  20.505  0.2299  0.2975 -0.0295
 7517W        W 9717  15.008   2.776  13.429 -0.0503 -0.2949 -0.1864
 7518W        W 9718   7.913   4.555   6.504  0.0072 -0.0322  0.0289
 7519W        W 9719   6.122   4.728  31.044 -0.1627  0.0960  0.4010
 7520W        W 9720  11.635   1.236   2.183 -0.3731 -0.1094  0.1536
 7521W        W 9721  14.307   4.407  34.637  0.0471  0.2378 -0.1908
 7522W        W 9722  14.820   3.743   3.211 -0.0046 -0.1081 -0.1024
 7523W        W 9723  14.538   4.138  33.333  0.2232 -0.1701 -0.1837
 7524W        W 9724   8.188   4.610  30.892  0.1306  0.2217 -0.0446
 7525W        W 9725  17.091   5.995  13.304  0.1645 -0.2160 -0.0404
 7526W        W 9726   8.558   1.314  40.659  0.0021 -0.2006  0.0634
 7527W        W 9727  19.234   0.887   1.265  0.0607  0.1620  0.1291
 7528W        W 9728   3.989   6.422   8.800 -0.1487  0.0775 -0.3347
 7529W        W 9729  11.277   2.869  14.742  0.0721  0.0357 -0.0456
 7530W        W 9730   8.007   2.142  12.108 -0.0187 -0.0273  0.1357
 7531W        W 9731   9.371   4.682   8.801  0.1453 -0.2109  0.2666
 7532W        W 9732  15.271   1.536  36.082 -0.0502  0.0226  0.0544
 7533W        W 9733  18.171   2.625   1.260  0.0977 -0.0961  0.0009
 7534W        W 9734   1.293   3.895   5.260 -0.2164  0.0784 -0.4613
 7535W        W 9735   2.879   2.249  12.717  0.4351 -0.0202 -0.1253
 7536W        W 9736   6.811   0.505  12.923 -0.2250 -0.1175  0.0491
 7537W        W 9737   1.356   3.438  13.435 -0.1649  0.1843 -0.2784
 7538W        W 9738  15.286   2.816  36.364  0.0008 -0.4913 -0.4647
 7539W        W 9739  15.961   6.234  29.584  0.1894  0.3124 -0.5299
 7540W        W 9740  17.271   0.499   2.289  0.1931  0.2287 -0.0185
 7541W        W 9741  18.100   1.111  34.270 -0.1380 -0.1380 -0.0764
 7542W        W 9742  19.778   1.076  42.586  0.3642  0.0834  0.2138
 7543W        W 9743   5.551   5.405   1.333  0.2940  0.1283  0.0301
 7544W        W 9744   9.110   5.381  19.750 -0.0851  0.1891  0.1760
 7545W        W 9745   3.927   0.362  33.580  0.0607  0.0513 -0.1940
 7546W        W 9746  12.733   1.861  32.020  0.0459 -0.1032 -0.1485
 7547W        W 9747   7.493   3.561   4.801  0.1285 -0.2123 -0.3713
 7548W        W 9748  17.679   4.764  33.587  0.0571 -0.0775  0.1045
 7549W        W 9749   3.068   4.821  28.605 -0.1010  0.0115  0.2219
 7550W        W 9750   5.911   4.647  44.428 -0.1175  0.1314  0.2520
 7551W        W 9751   3.065   2.869  39.360 -0.0282  0.0152  0.0658
 7552W        W 9752   7.837   5.251   3.002 -0.2036 -0.1473 -0.0581
 7553W        W 9753  19.675   1.270  27.338 -0.3214 -0.0740  0.0253
 7554W        W 9754   0.153   2.156  15.281  0.1678 -0.0636 -0.1323
 7555W        W 9755   5.800   4.094   2.740  0.0133 -0.1915  0.1245
 7556W        W 9756  18.621   4.923  14.573 -0.0706 -0.2774  0.2417
 7557W        W 9757   5.031   5.011  43.789  0.1831  0.3531 -0.0633
 7558W        W 9758  17.410   1.913  23.581  0.0661  0.1590  0.0353
 7559W        W 9759  20.096   5.396   2.850 -0.1240  0.0603 -0.3592
 7560W        W 9760   3.655   0.030   5.058  0.3120  0.0749  0.0931
 7561W        W 9761  13.009   5.725  21.129 -0.0925  0.1866  0.0270
 7562W        W 9762  14.234   0.707  38.850 -0.0518  0.1441  0.2269
 7563W        W 9763   7.598   0.852  39.390 -0.4036 -0.1629  0.0082
 7564W        W 9764  11.550   1.788  13.393  0.1231  0.0465  0.1005
 7565W        W 9765  19.423   4.709   2.354 -0.2938  0.0499 -0.0383
 7566W        W 9766  13.311   6.145  38.691  0.1426  0.0918 -0.2120
 7567W        W 9767   9.259   6.091  30.322 -0.0798 -0.2939  0.0087
 7568W        W 9768  12.398   1.086  44.336 -0.3511  0.1371  0.0392
 7569W        W 9769   6.441   6.384  36.491  0.2752  0.0440 -0.1315
 7570W        W 9770   5.656   3.476   5.428  0.1157  0.1024 -0.0883
 7571W        W 9771   7.255   1.865   4.050  0.1279 -0.2049  0.0743
 7572W        W 9772  12.483   1.971   1.207  0.0752 -0.1168  0.1123
 7573W        W 9773   3.550   6.363  15.368  0.2227  0.0417  0.0692
 7574W        W 9774   7.666   5.637  16.733  0.0558 -0.2601 -0.0997
 7575W        W 9775  12.556   5.498  37.341  0.2111  0.0902  0.0172
 7576W        W 9776   8.846   3.640  15.915  0.4357  0.1451 -0.1402
 7577W        W 9777  20.396   1.729  14.661 -0.3112 -0.2016 -0.1686
 7578W        W 9778  10.629   3.702  28.542 -0.2104  0.1714 -0.0435
 7579W        W 9779  18.370   5.732  41.418 -0.0998  0.3794  0.2173
 7580W        W 9780   6.376   4.919  15.672  0.0508  0.0727  0.0562
 7581W        W 9781   0.729   3.511  38.735  0.1136  0.0071 -0.2782
 7582W        W 9782   3.243   0.698  41.867  0.3531 -0.2267  0.2778
 7583W        W 9783   8.839   4.370  39.967 -0.3635 -0.1562 -0.1599
 7584W        W 9784  10.035   1.922   6.100  0.1423 -0.1992  0.1117
 7585W        W 9785   6.334   2.948   6.478 -0.0102 -0.1936  0.4705
 7586W        W 9786   8.211   6.522  23.380 -0.0461  0.1710 -0.0605
 7587W        W 9787  20.077   1.413  14.950 -0.2359 -0.0184  0.3081
 7588W        W 9788   9.564   1.839  15.580 -0.4921  0.0374 -0.0081
 7589W        W 9789   0.430   0.790  38.059 -0.4192 -0.1171  0.1252
 7590W        W 9790   6.788   3.629  32.842  0.0763  0.0593 -0.2943
 7591W        W 9791  13.534   4.238  41.313 -0.2288  0.1818 -0.0083
 7592W        W 9792  18.089   2.824  39.113 -0.0123 -0.1004  0.2007
 7593W        W 9793   6.069   5.856   6.509 -0.2982  0.0183 -0.1398
 7594W        W 9794  20.755   3.765  43.259 -0.3469  0.0211  0.2662
 7595W        W 9795   5.661   2.260   6.521 -0.1654  0.0438 -0.0124
 7596W        W 9796  16.317   2.533   7.346 -0.3528 -0.2987 -0.1815
 7597W        W 9797   1.897   3.085  27.243 -0.2324 -0.1240 -0.1419
 7598W        W 9798  15.727   4.016  37.951 -0.0225 -0.1607  0.0309
 7599W        W 9799   9.234   0.159  17.677  0.0209  0.0890 -0.1502
 7600W        W 9800  10.882   1.916  16.774 -0.0067 -0.1828 -0.1579
 7601W        W 9801   0.788   3.080  23.400  0.1841 -0.2697 -0.0658
 7602W        W 9802   7.608   6.300  20.610  0.0964 -0.1049  0.0197
 7603W        W 9803   9.966   5.359  38.583 -0.2276 -0.0782  0.1008
 7604W        W 9804  20.236   3.393  41.250 -0.0481 -0.0776 -0.1914
 7605W        W 9805  13.925   0.965  32.279  0.1890 -0.0303  0.3384
 7606W        W 9806  14.161   0.664  30.166  0.1374  0.1860 -0.2652
 7607W        W 9807  12.033   0.663  15.192 -0.3152  0.1203  0.2722
 7608W        W 9808   1.601   5.397  43.805 -0.0010  0.0515 -0.1777
 7609W        W 9809  16.332   5.906  15.642 -0.2112  0.4375  0.3446
 7610W        W 9810  14.291   0.121  17.181 -0.2016  0.2059  0.0179
 7611W        W 9811  17.369   4.053   3.807 -0.2583  0.0033 -0.0955
 7612W        W 9812   3.687   1.520  35.080 -0.3400 -0.2202  0.0914
 7613W        W 9813   7.777   3.030   3.323 -0.1800 -0.1630  0.2451
 7614W        W 9814   5.271   1.662  15.809  0.1513  0.3528  0.0073
 7615W        W 9815   0.875   3.400  26.428 -0.0142 -0.0911 -0.0598
 7616W        W 9816  10.253   1.028  13.903 -0.1489  0.2814 -0.0705
 7617W        W 9817   9.972   2.156  38.273  0.1139 -0.1938  0.1862
 7618W        W 9818  17.192   3.604  29.669  0.2738 -0.4569  0.1007
 7619W        W 9819   9.206   0.415   2.896 -0.0760  0.0693 -0.1405
 7620W        W 9820   7.714   5.439   7.313 -0.2043 -0.0963 -0.0615
 7621W        W 9821  10.261   1.646   0.769  0.2069  0.0182 -0.4356
 7622W        W 9822  20.114   2.342  35.889 -0.1404 -0.2350 -0.3731
 7623W        W 9823   4.271   4.217  10.741  0.0117 -0.0094 -0.0513
 7624W        W 9824   4.253   1.712  32.897 -0.1150 -0.5434  0.1834
 7625W        W 9825   4.989   4.006  12.882 -0.1663  0.2458 -0.5018
 7626W        W 9826  20.439   3.235  21.976  0.0852 -0.2504  0.0462
 7627W        W 9827  16.591   1.360  44.273  0.0636  0.0205  0.2527
 7628W        W 9828  20.927   4.290   9.805  0.0315  0.0602  0.2634
 7629W        W 9829   7.943   5.398  12.931  0.2252 -0.2439  0.1431
 7630W        W 9830   7.216   0.314   2.586 -0.1763  0.1612 -0.0930
 7631W        W 9831   0.899   1.160   2.882 -0.2507  0.0504  0.1548
 7632W        W 9832   3.217   5.525  41.708  0.0122  0.2934 -0.1729
 7633W        W 9833  16.273   6.208  44.373 -0.0496  0.0710 -0.2210
 7634W        W 9834  12.733   6.115   2.369  0.0581 -0.2708  0.0058
 7635W        W 9835   8.927   2.818   5.553  0.0416  0.2763  0.4299
 7636W        W 9836   6.708   5.946  29.583 -0.0927 -0.1151 -0.1150
 7637W        W 9837  16.919   3.924  31.696  0.0931  0.0608 -0.0724
 7638W        W 9838   0.843   5.783   7.805 -0.0054 -0.5731  0.1085
 7639W        W 9839   8.613   2.063  21.724 -0.2431 -0.0119 -0.1703
 7640W        W 9840   3.005   1.795  40.173  0.1432  0.2435 -0.0582
 7641W        W 9841  14.776   1.494  41.153  0.0752  0.0388 -0.2277
 7642W        W 9842   0.270   4.227  12.016  0.2670 -0.0789  0.0973
 7643W        W 9843   0.501   4.038  43.456  0.2663 -0.0400 -0.1475
 7644W        W 9844   0.645   2.908   8.554 -0.2639 -0.0673  0.0713
 7645W        W 9845   2.302   0.913  11.138 -0.0418  0.0328  0.1602
 7646W        W 9846  18.258   2.800  14.811  0.0751  0.1529  0.2589
 7647W        W 9847  14.012   5.456   4.980 -0.1487 -0.1804  0.1709
 7648W        W 9848  19.716   5.763  13.965  0.3769 -0.1131 -0.0231
 7649W        W 9849  13.432   4.852  40.404 -0.0659 -0.0868 -0.0812
 7650W        W 9850   5.260   5.518  11.271  0.2521  0.0042  0.1217
 7651W        W 9851  15.799   1.091  12.021 -0.3270  0.2524  0.1211
 7652W        W 9852   4.572   4.663  37.692  0.1619 -0.1337 -0.3551
 7653W        W 9853   5.177   5.627  35.609  0.1803  0.1310 -0.1462
 7654W        W 9854  15.590   3.520  30.591  0.2658 -0.2568  0.1421
 7655W        W 9855   2.151   3.825   7.654  0.4092  0.0025 -0.1698
 7656W        W 9856   6.862   0.947  16.610 -0.1796 -0.1781 -0.2416
 7657W        W 9857   1.327   5.899  32.825  0.2247  0.0735 -0.1828
 7658W        W 9858  20.890   3.151  35.528  0.0257  0.0514  0.0810
 7659W        W 9859  19.573   4.839   1.258 -0.1003  0.0012  0.0760
 7660W        W 9860   4.517   4.351   7.104 -0.1374  0.0131  0.0767
 7661W        W 9861  15.513   0.953  39.972  0.0222  0.1539  0.1146
 7662W        W 9862   6.974   2.593  14.884 -0.3710 -0.1871  0.0053
 7663W        W 9863   1.427   1.867   9.468  0.0586 -0.0704 -0.2657
 7664W        W 9864   9.562   1.002  33.335 -0.4113 -0.0389  0.1166
 7665W        W 9865  19.360   3.964  14.802  0.1367 -0.0413 -0.1806
 7666W        W 9866   5.798   0.147  44.003 -0.3288 -0.0962 -0.0759
 7667W        W 9867  18.538   3.334  40.384 -0.1138  0.2219 -0.1138
 7668W        W 9868   8.762   2.181  32.816 -0.0902  0.0896 -0.1355
 7669W        W 9869   0.259   1.275  26.300 -0.3668  0.1650 -0.2095
 7670W        W 9870   3.624   6.160  32.764 -0.0191  0.0496 -0.1987
 7671W        W 9871  12.571   4.422  29.948 -0.0649  0.5763  0.0442
 7672W        W 9872   1.776   6.495   5.038 -0.2577  0.1272 -0.1745
 7673W        W 9873   3.970   1.062   1.585  0.0085  0.2000  0.2296
 7674W        W 9874   8.857   4.297  20.448  0.0072  0.2021 -0.3458
 7675W        W 9875  10.742   5.688  11.357 -0.0865  0.0165 -0.0033
 7676W        W 9876   0.189   5.988  38.129  0.1110 -0.0491  0.1936
 7677W        W 9877  16.637   4.890  31.863  0.0588 -0.1501  0.2911
 7678W        W 9878  15.232   5.461  31.670 -0.2064  0.0456 -0.1220
 7679W        W 9879  12.382   0.884  33.011  0.2635  0.0684 -0.1573
 7680W        W 9880  13.200   4.202  39.881  0.3079 -0.1964  0.1339
 7681W        W 9881  14.080   0.015  40.006  0.0965  0.4449 -0.0819
 7682W        W 9882   6.454   6.110  44.432  0.1660 -0.0454 -0.2689
 7683W        W 9883   8.756   4.723  24.208  0.3608  0.1361 -0.2484
 7684W        W 9884   5.198   4.344  34.384  0.1055 -0.0237  0.0541
 7685W        W 9885   0.697   0.041  32.626  0.0450  0.2775  0.0107
 7686W        W 9886  20.786   2.598  31.457  0.0139 -0.2429  0.1311
 7687W        W 9887   2.615   2.960  33.624  0.3252 -0.0250  0.0765
 7688W        W 9888  20.475   4.451  40.275  0.0366 -0.1673 -0.1572
 7689W        W 9889   2.673   0.268   7.615  0.2873  0.1134  0.0795
 7690W        W 9890   4.689   2.159   0.634 -0.1605 -0.0493  0.0393
 7691W        W 9891  12.795   4.721  41.245  0.0161  0.0952  0.2564
 7692W        W 9892   2.321   2.660  34.478  0.1940 -0.1751  0.1434
 7693W        W 9893   3.206   4.306   9.977 -0.0062  0.0245 -0.1420
 7694W        W 9894  10.132   1.705  40.741 -0.1411 -0.1270  0.0017
 7695W        W 9895  18.899   3.339   8.102  0.1522 -0.1388  0.1307
 7696W        W 9896  18.438   2.453  22.688  0.1421  0.1031  0.0269
 7697W        W 9897  16.722   5.450  38.646 -0.1099  0.0653 -0.2082
 7698W        W 9898   4.543   6.192   2.203 -0.0551 -0.0640 -0.0618
 7699W        W 9899  11.804   2.502   9.974  0.2514 -0.3417  0.1335
 7700W        W 9900  17.656   4.524  35.209 -0.1464  0.1266  0.0042
 7701W        W 9901  20.216   5.862  36.359  0.1001  0.5127 -0.3354
 7702W        W 9902   0.987   6.565  22.814  0.0786 -0.0798 -0.2187
 7703W        W 9903   2.440   2.512  14.504  0.1259  0.3429 -0.0233
 7704W        W 9904   7.681   5.009  44.268 -0.0651  0.1170  0.1900
 7705W        W 9905   7.178   2.004  21.403 -0.1465  0.2787  0.0110
 7706W        W 9906  19.124   6.258  26.349 -0.0937 -0.0021  0.1530
 7707W        W 9907   0.524   3.945  10.092 -0.1425 -0.1510 -0.0910
 7708W        W 9908  15.344   2.236  29.278  0.0590 -0.1055  0.0626
 7709W        W 9909   8.517   1.117  34.550 -0.0209  0.2376  0.0639
 7710W        W 9910   1.464   2.406  23.765 -0.2112  0.2451 -0.1092
 7711W        W 9911   7.850   2.569  35.235 -0.0989  0.0423 -0.3003
 7712W        W 9912  16.182   1.298  12.337  0.0148 -0.2483 -0.4402
 7713W        W 9913  11.504   6.089   2.762  0.0844  0.1227 -0.2497
 7714W        W 9914   8.656   3.927  44.689  0.0961 -0.1475 -0.2278
 7715W        W 9915  20.914   4.728   4.264 -0.0516 -0.0742 -0.0736
 7716W        W 9916  21.126   3.544  39.154  0.0003 -0.1417 -0.0492
 7717W        W 9917   7.625   3.797  22.744  0.0166  0.3563 -0.0062
 7718W        W 9918  10.123   4.665  29.037  0.4650 -0.0254  0.0589
 7719W        W 9919   6.289   0.101  12.058 -0.0312  0.2928  0.0985
 7720W        W 9920   5.281   2.900  35.645 -0.0215 -0.0513 -0.5388
 7721W        W 9921   0.465   3.675  36.459 -0.0003  0.2858  0.0810
 7722W        W 9922  18.162   4.743  35.245 -0.1986  0.2086 -0.0162
 7723W        W 9923  16.104   4.408   7.221 -0.0352  0.4210 -0.1595
 7724W        W 9924   7.780   5.453   0.203  0.1615  0.0998  0.1334
 7725W        W 9925   5.468   5.764  14.327  0.1063 -0.1954 -0.3634
 7726W        W 9926  20.633   4.547  43.257 -0.0282 -0.1098  0.0717
 7727W        W 9927   9.939   3.307  11.194 -0.0077  0.0789 -0.0257
 7728W        W 9928   9.339   1.938   0.671  0.1514 -0.1586 -0.1578
 7729W        W 9929   9.472   1.217   1.552 -0.0713 -0.1778 -0.4892
 7730W        W 9930  19.924   3.486   7.784 -0.2436 -0.2698  0.0319
 7731W        W 9931  13.952   5.149  41.796  0.1216  0.0726  0.1810
 7732W        W 9932   7.934   2.897  39.884  0.1171  0.0909 -0.0230
 7733W        W 9933  12.095   2.142  42.274 -0.0691  0.0199 -0.1403
 7734W        W 9934  10.156   3.509  13.646  0.2044 -0.2510 -0.4168
 7735W        W 9935   1.127   3.533   9.023  0.0319 -0.1103  0.0006
 7736W        W 9936  19.985   3.714  33.776 -0.1312 -0.4467  0.0653
 7737W        W 9937  14.064   3.072   5.649  0.0800 -0.2502  0.0724
 7738W        W 9938   1.758   5.545  36.606 -0.0196 -0.1444  0.1384
 7739W        W 9939  15.497   1.561  42.933  0.1661 -0.2307 -0.2529
 7740W        W 9940  19.320   3.960   4.285 -0.1069 -0.1359  0.1743
 7741W        W 9941   7.806   3.125   4.549  0.0279  0.0066 -0.2776
 7742W        W 9942  13.839   2.764   1.199  0.0419  0.3098 -0.2255
 7743W        W 9943  18.773   1.455  28.279  0.2135  0.0565 -0.0690
 7744W        W 9944   3.407   3.809   1.404  0.1346  0.0971  0.3247
 7745W        W 9945  15.491   3.046  40.266  0.2320  0.3980 -0.0158
 7746W        W 9946  18.416   1.168  35.169 -0.1828 -0.3495 -0.1078
 7747W        W 9947  16.967   1.390  36.984 -0.3254  0.2698  0.1875
 7748W        W 9948  16.245   6.050   3.850  0.4836 -0.0735  0.1468
 7749W        W 9949   5.476   4.450   3.023 -0.1470  0.0825  0.2077
 7750W        W 9950  11.126   1.339  24.514 -0.0336 -0.4516  0.0855
 7751W        W 9951  16.338   2.443  26.269  0.1172  0.0253 -0.1215
 7752W        W 9952  20.587   6.250  42.611 -0.0065 -0.2876 -0.2278
 7753W        W 9953  10.580   0.539   3.942  0.0699  0.1339  0.0197
 7754W        W 9954  12.867   4.749   0.770  0.3522 -0.0155 -0.3253
 7755W        W 9955   5.166   2.063   7.322  0.0198 -0.2972  0.2944
 7756W        W 9956   1.979   4.478   4.088 -0.0053  0.3657 -0.0125
 7757W        W 9957   0.637   4.103  36.718  0.1508 -0.2015 -0.1524
 7758W        W 9958  17.589   1.950  29.126 -0.2808  0.1395 -0.0570
 7759W        W 9959  16.648   0.364   8.552 -0.0348 -0.0593  0.1388
 7760W        W 9960  15.110   5.799  42.324 -0.1067 -0.1997 -0.0930
 7761W        W 9961  18.343   4.338  28.226 -0.1231 -0.0723  0.0561
 7762W        W 9962  19.415   1.826  42.154  0.0117  0.2287  0.1882
 7763W        W 9963  20.596   3.355  10.556 -0.0497  0.1293  0.1466
 7764W        W 9964  17.814   1.482  39.669 -0.0701 -0.0313  0.0903
 7765W        W 9965   3.430   5.417  38.525  0.0352  0.4094 -0.0710
 7766W        W 9966   6.326   1.759   0.322 -0.0883 -0.1566  0.3190
 7767W        W 9967  15.630   6.515  11.277  0.1079 -0.1444  0.2395
 7768W        W 9968  17.506   4.586  12.559 -0.1820 -0.0856  0.2515
 7769W        W 9969  12.943   0.302  38.350  0.0963 -0.0343  0.3464
 7770W        W 9970  16.198   1.865   8.261  0.3552 -0.2310  0.0259
 7771W        W 9971  15.454   6.090  25.950 -0.1156 -0.0938 -0.3307
 7772W        W 9972  10.563   2.357  39.168  0.0138 -0.0225 -0.0717
 7773W        W 9973  15.162   3.885   6.308 -0.2272 -0.3797  0.1080
 7774W        W 9974   3.714   4.893   0.437 -0.0683  0.1169 -0.1374
 7775W        W 9975   3.475   0.953  37.755 -0.0731 -0.2723 -0.0838
 7776W        W 9976   0.756   1.696   6.152 -0.1507 -0.0291  0.0986
 7777W        W 9977   8.368   2.549  32.141  0.1093  0.6168  0.2874
 7778W        W 9978  18.888   0.704  25.110  0.1903 -0.0719  0.1260
 7779W        W 9979   9.175   0.095   1.310 -0.0701  0.0746  0.0945
 7780W        W 9980   5.192   4.112  14.823 -0.0082 -0.1067  0.0273
 7781W        W 9981  21.094   6.148   5.738  0.2434 -0.1549  0.1522
 7782W        W 9982  12.194   3.258   1.250  0.0573  0.4722  0.2169
 7783W        W 9983  19.635   1.098  14.915 -0.2103 -0.1826  0.1004
 7784W        W 9984   8.112   6.545  38.616 -0.3785 -0.0455  0.2591
 7785W        W 9985   8.740   3.551  40.881  0.0798  0.0449 -0.2210
 7786W        W 9986   4.287   2.654  29.123  0.2110 -0.1138 -0.3560
 7787W        W 9987   7.220   1.412  40.393  0.1415 -0.1613  0.1237
 7788W        W 9988  13.471   6.356  17.628 -0.0520  0.1483  0.1217
 7789W        W 9989  11.121   1.107   2.117  0.0043 -0.2083  0.1416
 7790W        W 9990  21.129   2.423  36.188 -0.0910 -0.2059  0.0435
 7791W        W 9991  13.674   5.171  19.427 -0.2525  0.0453 -0.0037
 7792W        W 9992  12.200   2.743  30.663  0.0213 -0.3669 -0.1691
 7793W        W 9993   9.931   2.711   3.842  0.0164  0.0675 -0.0583
 7794W        W 9994  16.275   0.560  10.548  0.3464 -0.0773 -0.1246
 7795W        W 9995  17.783   5.727  36.063  0.1545  0.0160  0.0808
 7796W        W 9996   8.121   1.864  41.385 -0.3042 -0.2511  0.4075
 7797W        W 9997  16.207   3.837   3.398  0.1492  0.3568 -0.1524
 7798W        W 9998  15.644   2.768  43.554  0.0850  0.4145  0.1816
 7799W        W 9999  19.219   2.150  37.358  0.0635  0.0515 -0.0034
 7800W        W10000   2.659   1.188  25.473 -0.1779  0.2769  0.6554
 7801W        W10001  15.283   5.214   3.444  0.2810  0.1406  0.0796
 7802W        W10002   1.399   1.623  11.669 -0.2608  0.2054 -0.0279
 7803W        W10003  12.474   4.041  18.826  0.2756  0.1069 -0.0688
 7804W        W10004   7.157   2.510  40.017  0.2353  0.3427 -0.2121
 7805W        W10005   1.814   1.323  42.092 -0.1002 -0.1146  0.2245
 7806W        W10006  15.830   1.957  29.682  0.1271  0.2158  0.2097
 7807W        W10007   2.362   1.024  28.621 -0.0450 -0.2016  0.3996
 7808W        W10008  18.916   5.738   1.576  0.0612 -0.2448  0.0655
 7809W        W10009  15.208   1.940  29.661  0.0008 -0.1859 -0.0142
 7810W        W10010   5.151   3.109  39.247  0.1299 -0.1315 -0.2987
 7811W        W10011  15.246   5.210  34.184 -0.1954  0.1374  0.0594
 7812W        W10012  15.848   6.233   6.901  0.4855 -0.0882  0.3048
 7813W        W10013   8.563   3.530  38.330  0.1602  0.0183  0.1628
 7814W        W10014   1.086   3.317  12.756 -0.2101 -0.4472 -0.0448
 7815W        W10015   8.384   3.123   2.676 -0.0358 -0.0967 -0.0800
 7816W        W10016   0.979   5.831  41.763 -0.0230 -0.0702 -0.1150
 7817W        W10017  14.390   3.123  12.192 -0.1803  0.3604 -0.0182
 7818W        W10018   8.557   3.596  44.312  0.0816 -0.0152  0.2357
 7819W        W10019   7.735   3.890  20.076 -0.1646  0.0968 -0.3032
 7820W        W10020  20.779   3.832  10.132 -0.1367  0.0430 -0.0778
 7821W        W10021  16.807   1.967  32.052  0.0359 -0.0920  0.4394
 7822W        W10022   7.024   3.082   9.728 -0.2811  0.0592 -0.3878
 7823W        W10023  11.637   5.655  41.813  0.0585  0.0696 -0.2446
 7824W        W10024   7.126   1.725   8.533 -0.1427  0.0829  0.0070
 7825W        W10025   1.543   5.919  15.714 -0.0438 -0.1962 -0.2360
 7826W        W10026  14.049   3.157  33.658 -0.0681  0.1903 -0.0678
 7827W        W10027  12.301   1.874  34.743  0.6050 -0.0340  0.2286
 7828W        W10028   5.031   1.126  31.368  0.0295  0.2622 -0.3159
 7829W        W10029  14.708   4.115   6.546  0.5024 -0.0103 -0.1249
 7830W        W10030  20.937   2.503  42.600 -0.1583 -0.0389  0.2353
 7831W        W10031   2.448   5.003   6.171 -0.0131 -0.1824 -0.1813
 7832W        W10032  19.382   0.306   7.155  0.0711 -0.0175 -0.0201
 7833W        W10033   9.716   0.144  22.437 -0.2477  0.4511  0.1592
 7834W        W10034  12.672   4.492  18.759 -0.1697 -0.0409 -0.2761
 7835W        W10035  15.423   1.561  41.511  0.0947 -0.0750 -0.1804
 7836W        W10036  14.927   0.950  44.365  0.2923  0.2350  0.0152
 7837W        W10037   8.215   1.173  21.455  0.1429 -0.1634  0.1533
 7838W        W10038  16.972   5.029  24.584  0.2396 -0.0244  0.1054
 7839W        W10039  10.270   5.395  16.635  0.0481  0.1216  0.1997
 7840W        W10040  19.812   5.415  20.280  0.0789 -0.4026 -0.0081
 7841W        W10041   7.402   3.732  38.369  0.0626 -0.1596  0.2540
 7842W        W10042  16.848   5.416  28.118  0.3282 -0.1499  0.2679
 7843W        W10043  11.480   4.967   5.264 -0.1217 -0.1955  0.2454
 7844W        W10044   7.199   4.767  17.572 -0.5470 -0.2719  0.1974
 7845W        W10045  16.776   4.349   9.000 -0.0512 -0.0813  0.1548
 7846W        W10046   9.582   4.605   0.589  0.0401  0.0218 -0.2207
 7847W        W10047  10.600   4.080  11.034  0.1935 -0.2718  0.1815
 7848W        W10048  14.925   6.134  10.809  0.0239 -0.2276 -0.2244
 7849W        W10049   5.674   1.460  28.310  0.0621  0.2146 -0.0495
 7850W        W10050  17.218   1.010   7.726  0.1464  0.0680  0.0279
 7851W        W10051  15.263   0.645   5.530  0.1825  0.2225  0.1269
 7852W        W10052   7.787   0.904  43.195 -0.1982 -0.0140  0.1002
 7853W        W10053  11.222   1.867  22.033  0.0535 -0.3892 -0.1365
 7854W        W10054  15.354   2.969   5.015 -0.2521 -0.0090 -0.0424
 7855W        W10055   4.179   5.658   4.754 -0.1203 -0.1293 -0.0327
 7856W        W10056  10.277   5.815   7.232  0.4246 -0.0494 -0.0902
 7857W        W10057   0.049   0.138  22.507  0.0102 -0.0092  0.0379
 7858W        W10058  13.060   5.490  31.885  0.0905  0.0200 -0.1534
 7859W        W10059  10.607   4.267  14.329 -0.1378 -0.0588 -0.0039
 7860W        W10060  19.756   5.991  23.411 -0.0757  0.1301 -0.0594
 7861W        W10061   5.850   1.025   1.646  0.0837  0.1720  0.0313
 7862W        W10062  10.523   4.884  30.725  0.0289 -0.0778  0.0033
 7863W        W10063   7.558   2.836  29.821 -0.0613  0.1820  0.2681
 7864W        W10064   6.111   2.131  15.626 -0.0609  0.1524 -0.0269
 7865W        W10065   3.560   3.006  12.032  0.3230  0.0011 -0.0823
 7866W        W10066   2.261   2.884  10.671 -0.1292  0.1076  0.1081
 7867W        W10067   1.972   5.594  43.581  0.1733  0.1099 -0.3158
 7868W        W10068  19.963   2.271  26.221 -0.0640 -0.0835  0.2425
 7869W        W10069   2.311   2.370  29.170 -0.4192  0.1259 -0.1523
 7870W        W10070  10.533   1.743  36.533 -0.1315  0.1144  0.0100
 7871W        W10071   5.299   5.212  15.994  0.3168  0.2159 -0.1940
 7872W        W10072   0.998   5.566  37.533 -0.0364 -0.2883  0.2117
 7873W        W10073   7.525   6.128  12.209  0.2712  0.2391 -0.4103
 7874W        W10074   4.546   5.972  40.538 -0.0307  0.2549  0.1779
 7875W        W10075  17.591   5.685   5.615 -0.2619  0.4891  0.0309
 7876W        W10076   9.453   6.036  20.879  0.0858 -0.0065  0.1187
 7877W        W10077  15.265   3.194  37.740  0.0693  0.1075  0.0551
 7878W        W10078  18.389   3.794  10.783  0.2977  0.0013 -0.0541
 7879W        W10079  12.887   5.401  42.696 -0.1218 -0.4488 -0.0067
 7880W        W10080  14.558   0.043  28.950  0.0995  0.0450  0.1252
 7881W        W10081   8.045   4.769  10.805 -0.1898 -0.0290  0.2570
 7882W        W10082  11.173   3.510  32.650  0.0678 -0.3595 -0.2301
 7883W        W10083   0.454   3.220  26.146 -0.0981 -0.1915  0.0266
 7884W        W10084   5.343   0.619   2.722 -0.0166  0.1048 -0.4157
 7885W        W10085  19.473   2.306   4.504  0.1215  0.0187  0.4841
 7886W        W10086   2.202   4.934  37.565 -0.1808  0.0397  0.2364
 7887W        W10087  11.969   5.793  38.261 -0.2318  0.1889  0.0417
 7888W        W10088  10.694   2.872  16.984 -0.3090 -0.0344  0.2886
 7889W        W10089  21.030   5.762  26.376  0.3083 -0.0023  0.0049
 7890W        W10090   5.882   5.384  19.817 -0.1158  0.0641  0.1193
 7891W        W10091  15.696   2.451  44.547 -0.4080  0.0915  0.4049
 7892W        W10092  13.166   0.046  41.262  0.1240  0.2543  0.1582
 7893W        W10093   3.287   4.570  26.344  0.1042 -0.0240  0.2143
 7894W        W10094  11.100   3.288  19.634 -0.1207  0.1279 -0.1636
 7895W        W10095  14.678   2.371  42.967 -0.0391  0.1245  0.3594
 7896W        W10096  20.208   5.892  31.199 -0.2086  0.2171 -0.2927
 7897W        W10097   8.149   4.428   2.937 -0.0321 -0.1437 -0.0960
 7898W        W10098   2.742   3.073  16.509 -0.0617  0.0621  0.1032
 7899W        W10099  13.308   4.955  43.254 -0.1079 -0.0484 -0.0628
 7900W        W10100  13.199   0.523  16.416 -0.0560  0.2526 -0.0305
 7901W        W10101  20.984   5.459   4.845  0.0597 -0.0808  0.0989
 7902W        W10102  16.543   6.184  43.959  0.1640 -0.0491  0.3091
 7903W        W10103  20.470   5.736  14.418  0.0378 -0.1190  0.1668
 7904W        W10104  12.953   5.597  44.325  0.1118 -0.0007 -0.0237
 7905W        W10105   6.576   4.540  12.553  0.0287 -0.1189  0.0644
 7906W        W10106   2.095   2.732  26.281 -0.0084 -0.2605  0.1394
 7907W        W10107  18.460   1.830  14.208  0.1604  0.1879 -0.3114
 7908W        W10108   1.785   4.100   5.365 -0.1876 -0.0586 -0.0083
 7909W        W10109  18.346   6.302   8.810  0.1328 -0.1808 -0.2857
 7910W        W10110  17.126   5.358  12.045  0.1171  0.0289 -0.1293
 7911W        W10111  13.063   2.307  17.114 -0.0569 -0.2515  0.0145
 7912W        W10112   3.371   0.766  15.297 -0.2911  0.1291  0.2547
 7913W        W10113  18.547   5.927  36.477  0.2934  0.1504  0.4178
 7914W        W10114   9.176   1.236  24.304 -0.0064  0.0309 -0.4439
 7915W        W10115  16.823   1.661   0.229 -0.0790 -0.2043  0.0942
 7916W        W10116   7.384   2.002  14.292  0.2768  0.1989 -0.1959
 7917W        W10117  20.520   5.779   8.284  0.1285  0.0668  0.2775
 7918W        W10118  16.412   3.050   7.557 -0.2114  0.0186 -0.0021
 7919W        W10119  13.846   3.532  28.244  0.0584  0.0271 -0.0775
 7920W        W10120  21.053   2.333  14.495  0.0325  0.3023 -0.0516
 7921W        W10121   5.740   3.218  14.045  0.1431 -0.2027 -0.0676
 7922W        W10122  10.270   1.159   5.900  0.1894  0.0320 -0.0380
 7923W        W10123   6.041   4.038   0.061 -0.1520  0.2295 -0.0339
 7924W        W10124  12.632   4.654  44.291  0.0519 -0.0348 -0.1277
 7925W        W10125  20.439   3.352   7.904  0.1555 -0.2047 -0.0299
 7926W        W10126   4.976   6.183  29.602  0.2161  0.1961 -0.0138
 7927W        W10127  13.194   2.455  32.103 -0.0644 -0.1279 -0.2112
 7928W        W10128   1.223   4.380  23.562  0.1037  0.1144  0.4098
 7929W        W10129  14.719   3.222  29.295 -0.2178 -0.2238  0.1880
 7930W        W10130  18.567   4.339  42.158  0.1079 -0.1196  0.0314
 7931W        W10131  16.366   0.610  26.096 -0.0636 -0.1321 -0.2532
 7932W        W10132   5.236   4.648  37.010 -0.1826  0.1560 -0.0129
 7933W        W10133   0.309   3.561  38.331  0.0306  0.1140  0.2562
 7934W        W10134   1.800   4.698  13.639  0.0778 -0.1257 -0.1897
 7935W        W10135  20.006   3.409  10.989  0.2794  0.2747  0.0222
 7936W        W10136  11.363   1.467   5.500  0.2587 -0.1607  0.1439
 7937W        W10137   4.450   0.806   0.434 -0.0153  0.0462  0.0891
 7938W        W10138  16.864   6.367  40.412  0.0759  0.0154  0.3232
 7939W        W10139   7.562   5.988  20.192  0.2166  0.1827  0.1382
 7940W        W10140   3.818   4.212   6.096 -0.1550  0.0326  0.2065
 7941W        W10141   4.656   3.092  10.201 -0.1858 -0.1814 -0.0268
 7942W        W10142   1.009   0.356   5.906  0.0273 -0.0728 -0.3485
 7943W        W10143   6.222   2.162  19.617  0.1672 -0.4172 -0.0388
 7944W        W10144  15.168   1.935  42.447  0.1206  0.0607 -0.0345
 7945W        W10145  17.915   0.758  40.718 -0.1616  0.2000 -0.2836
 7946W        W10146  12.423   0.072   3.877  0.1311 -0.1158  0.0047
 7947W        W10147   7.225   0.706   0.618 -0.1269 -0.0463  0.2793
 7948W        W10148   0.444   3.010  42.329  0.0750  0.2793 -0.1926
 7949W        W10149   8.325   2.366  44.344  0.0073 -0.3126  0.2237
 7950W        W10150  14.829   0.268   3.439 -0.0961  0.2553 -0.1603
 7951W        W10151   5.219   0.241   8.889  0.0441  0.2310  0.0961
 7952W        W10152   6.978   6.071  17.911 -0.0676 -0.1742  0.3394
 7953W        W10153  13.167   5.036  35.354 -0.1696 -0.1564  0.0903
 7954W        W10154   0.912   3.324   9.414 -0.0148  0.0154  0.0947
 7955W        W10155  11.289   3.532   2.212  0.0597 -0.1335  0.1568
 7956W        W10156  11.554   0.795  10.613 -0.0235 -0.2083  0.2930
 7957W        W10157  19.161   3.470  43.618 -0.1278 -0.0218  0.2055
 7958W        W10158  18.185   3.519  38.428  0.2781 -0.2992  0.2982
 7959W        W10159   3.057   2.476  13.501 -0.1713 -0.1047  0.0653
 7960W        W10160   3.051   3.473  26.722  0.1642  0.0274 -0.3254
 7961W        W10161  18.540   5.633  25.828 -0.0883 -0.1561  0.2251
 7962W        W10162  13.117   0.377  33.953  0.1216  0.3213  0.1093
 7963W        W10163  11.390   5.833  22.019  0.2587 -0.0608 -0.2633
 7964W        W10164   1.743   3.942  26.772  0.0202 -0.0553  0.0205
 7965W        W10165  19.476   1.158  29.295  0.0217  0.1969  0.1551
 7966W        W10166  12.528   4.468  42.230 -0.0492 -0.1960  0.1617
 7967W        W10167  19.106   3.417  34.841  0.1155  0.1831  0.2332
 7968W        W10168  11.166   0.548   8.343  0.1217 -0.0188 -0.0894
 7969W        W10169   0.023   4.334  33.740  0.0820 -0.0096 -0.0856
 7970W        W10170   8.024   3.651  43.168 -0.0708  0.1333 -0.1344
 7971W        W10171  18.317   0.328  24.231  0.1599  0.2490 -0.0707
 7972W        W10172  17.722   0.598  42.004 -0.0688 -0.2231  0.0558
 7973W        W10173   3.467   0.551   8.007 -0.0848 -0.1611 -0.1056
 7974W        W10174  11.656   3.939   7.985  0.1688  0.1722 -0.0154
 7975W        W10175  20.322   0.202  10.402  0.1958 -0.1341 -0.1053
 7976W        W10176  13.382   4.737   5.249 -0.1530  0.2539  0.3780
 7977W        W10177  16.117   5.122  14.153 -0.1901 -0.2035 -0.1212
 7978W        W10178  19.728   4.174  40.519  0.2149 -0.0810  0.1558
 7979W        W10179  17.932   2.372   3.903  0.1418 -0.2068  0.0076
 7980W        W10180   9.441   1.259  42.600 -0.1657 -0.0840  0.0889
 7981W        W10181   3.163   4.726   4.901  0.1370 -0.1675 -0.2613
 7982W        W10182   9.997   6.133  21.633 -0.0933  0.1481  0.0212
 7983W        W10183  14.462   2.747   9.733 -0.1316  0.1148  0.0071
 7984W        W10184   5.776   6.113  14.552 -0.2742  0.1972 -0.3793
 7985W        W10185  11.444   2.931   9.607  0.0213  0.1048  0.0955
 7986W        W10186  20.691   3.471  38.861  0.2117 -0.1308 -0.0175
 7987W        W10187   8.797   5.730  44.833  0.0635  0.1835 -0.1246
 7988W        W10188  18.717   0.739  39.090  0.0520  0.0700  0.2975
 7989W        W10189  10.170   1.124  21.721  0.0232 -0.1395 -0.1600
 7990W        W10190  20.887   5.024   4.655 -0.0799  0.2432 -0.0894
 7991W        W10191  19.320   3.396  25.283  0.2836 -0.3162 -0.1015
 7992W        W10192   3.816   5.674   9.318 -0.0415 -0.0745 -0.0283
 7993W        W10193  18.987   2.272  43.439  0.0940  0.1709  0.1350
 7994W        W10194  17.407   2.568  24.196 -0.3857  0.1777  0.0404
 7995W        W10195   6.257   3.758  30.473 -0.1227 -0.1147  0.0318
 7996W        W10196   7.315   3.068  43.000  0.1689  0.2892  0.1710
 7997W        W10197  18.072   3.777  31.529 -0.0736  0.2801 -0.1226
 7998W        W10198   6.298   5.866  44.849  0.0267  0.0272 -0.2032
 7999W        W10199  17.262   2.699   0.404 -0.0397  0.1807  0.1203
 8000W        W10200  12.047   1.620  33.535  0.1248  0.1248 -0.0465
 8001W        W10201  18.910   1.782  18.787 -0.0630 -0.0896 -0.1233
 8002W        W10202  20.661   4.471  27.588 -0.0956  0.2916  0.1210
 8003W        W10203  11.219   6.056  12.665  0.1742  0.2364 -0.3558
 8004W        W10204   2.453   4.130  36.249 -0.0661 -0.0608 -0.3162
 8005W        W10205   7.635   4.283   2.589  0.0773  0.0407 -0.0080
 8006W        W10206  20.434   3.648  30.776  0.0363  0.1739 -0.0460
 8007W        W10207   5.077   6.199  32.447  0.0271 -0.1208 -0.0448
 8008W        W10208  18.922   0.090  10.249 -0.0948  0.0905  0.0034
 8009W        W10209  17.024   5.961  28.100 -0.3103 -0.2096  0.0394
 8010W        W10210  13.738   4.678  40.094 -0.2307 -0.0002 -0.0615
 8011W        W10211  18.791   1.258   3.767 -0.1298 -0.0557  0.1443
 8012W        W10212   0.601   2.932  27.902 -0.0669  0.1346 -0.0820
 8013W        W10213   8.999   4.183  39.515  0.4142  0.3895  0.0439
 8014W        W10214   0.608   6.015  27.282  0.4377 -0.2287 -0.1082
 8015W        W10215  10.596   3.187  34.732 -0.2784 -0.1213  0.1615
 8016W        W10216   0.219   3.974  22.649 -0.0194 -0.0585  0.0698
 8017W        W10217  17.185   2.474   7.511 -0.0038 -0.0186 -0.1938
 8018W        W10218  16.247   3.547  39.718 -0.0132 -0.1118  0.0937
 8019W        W10219   8.472   4.899   5.309  0.2740 -0.1984 -0.0026
 8020W        W10220   4.831   1.471  43.267  0.1889 -0.2234 -0.2570
 8021W        W10221  20.681   3.959  26.764 -0.1774 -0.3259  0.0892
 8022W        W10222  20.466   5.675   5.054  0.1177 -0.0702 -0.1326
 8023W        W10223   4.075   6.462   5.412 -0.3208  0.2287 -0.0801
 8024W        W10224   1.743   0.584  16.257  0.0892 -0.0126 -0.1876
 8025W        W10225  17.035   5.225  15.530 -0.0646  0.0806  0.0269
 8026W        W10226  15.937   6.037  38.136 -0.1223 -0.0850  0.2744
 8027W        W10227   1.153   5.283   7.725  0.1718  0.0045  0.0159
 8028W        W10228   5.482   3.854  17.615  0.0247  0.0306  0.2095
 8029W        W10229   5.575   2.463  30.928  0.3974  0.0891  0.1235
 8030W        W10230  11.801   5.772  20.750 -0.0339 -0.1207  0.0457
 8031W        W10231   9.526   3.551  44.362  0.0200 -0.0633  0.1987
 8032W        W10232  19.854   2.406   5.702 -0.1009 -0.0471  0.0209
 8033W        W10233   7.268   0.106  38.874  0.3139  0.0401  0.0097
 8034W        W10234  14.956   0.617  32.634 -0.1562  0.2606  0.5685
 8035W        W10235  17.323   6.106   8.961 -0.3300 -0.2378 -0.0312
 8036W        W10236   6.082   0.913   0.742  0.1716  0.0520 -0.1853
 8037W        W10237   1.573   1.431  44.603  0.0398  0.4877 -0.0343
 8038W        W10238   6.143   0.384   3.216  0.0958 -0.0326 -0.1703
 8039W        W10239  15.232   5.801  11.400  0.6666  0.3265  0.0578
 8040W        W10240  17.366   4.421   6.621  0.0638  0.3266  0.3568
 8041W        W10241   4.035   6.220  40.427 -0.0525  0.0436  0.0462
 8042W        W10242  17.301   6.084   3.617 -0.0003  0.1960  0.0544
 8043W        W10243  12.040   0.756  44.501 -0.2032  0.0848  0.1072
 8044W        W10244  11.904   4.510  14.706  0.0404  0.1097  0.1491
 8045W        W10245   3.290   1.502   4.343  0.2149  0.1115  0.0971
 8046W        W10246   0.445   4.318  41.275 -0.1184  0.0084  0.0109
 8047W        W10247  17.495   3.024  35.503 -0.0185  0.1715 -0.0754
 8048W        W10248   7.202   3.749  40.588 -0.0754 -0.0030 -0.2365
 8049W        W10249  10.540   0.033  32.991 -0.1595  0.0774 -0.0694
 8050W        W10250  15.896   2.557  34.961  0.2507 -0.0898 -0.0969
 8051W        W10251  10.164   4.757  29.567 -0.0173 -0.3031 -0.2050
 8052W        W10252  19.181   1.908   3.355  0.1871  0.0128 -0.0666
 8053W        W10253   9.934   5.448  44.810  0.2517  0.0382  0.0911
 8054W        W10254   3.304   1.023  30.282  0.2655  0.1917  0.1286
 8055W        W10255   5.008   3.047  37.228 -0.0859 -0.1730 -0.0705
 8056W        W10256  12.337   3.681   7.286  0.1230 -0.0829 -0.0579
 8057W        W10257  12.107   3.564  32.844  0.1041  0.0237  0.0558
 8058W        W10258   4.098   4.491   9.827 -0.0855  0.0995 -0.0560
 8059W        W10259  12.445   1.411   7.816 -0.1050  0.0627 -0.1961
 8060W        W10260   7.086   6.134  18.899  0.3211 -0.0306  0.0201
 8061W        W10261   1.322   1.183  23.617 -0.2833 -0.1555 -0.2781
 8062W        W10262   1.280   3.743  31.162  0.1701 -0.1982 -0.1435
 8063W        W10263  19.301   5.745  36.257  0.1636 -0.2944  0.0164
 8064W        W10264   8.573   3.105  35.925  0.1159 -0.0670 -0.0342
 8065W        W10265  14.581   3.195  39.867  0.0870  0.0108 -0.0862
 8066W        W10266   3.017   0.562  16.679 -0.0383 -0.1425 -0.2628
 8067W        W10267  11.783   4.678  30.696 -0.4818 -0.2359  0.0763
 8068W        W10268  17.157   1.365  33.049  0.0168 -0.0989 -0.0644
 8069W        W10269  10.177   2.011  42.381 -0.0849 -0.3054  0.0035
 8070W        W10270  13.741   4.354  38.974 -0.1738 -0.1279  0.0835
 8071W        W10271  11.617   2.669  20.000  0.0950 -0.0646 -0.3540
 8072W        W10272   0.564   6.131   8.810  0.0595  0.0460  0.1084
 8073W        W10273  18.984   5.605  22.303 -0.2320 -0.0612  0.1115
 8074W        W10274  16.846   0.874   8.653  0.1757  0.0101 -0.1922
 8075W        W10275   9.859   0.515   7.076  0.1542  0.2509  0.1621
 8076W        W10276   3.961   1.193  40.263 -0.2380 -0.3918 -0.1569
 8077W        W10277  11.840   0.126  19.792 -0.1911 -0.2271  0.0791
 8078W        W10278   3.466   1.420  44.445 -0.3354 -0.0342  0.0681
 8079W        W10279   8.277   2.545  33.793  0.0837 -0.1715  0.2082
 8080W        W10280  10.495   1.811  33.895 -0.1458 -0.2121 -0.1188
 8081W        W10281   1.034   2.615  39.619 -0.1416  0.2012  0.0481
 8082W        W10282  13.153   6.503  31.952  0.1155  0.0193  0.0430
 8083W        W10283   0.279   3.578  43.484 -0.3012  0.0394  0.2459
 8084W        W10284   9.529   2.621  15.230 -0.0866 -0.1841  0.0314
 8085W        W10285  13.634   5.728   6.122 -0.2265  0.0241 -0.2045
 8086W        W10286   5.120   5.916  10.747 -0.4330  0.0602 -0.1507
 8087W        W10287  13.973   4.175  26.854  0.1211  0.5357  0.1553
 8088W        W10288  19.963   4.115   8.856  0.3406  0.0418  0.0975
 8089W        W10289   7.905   4.455  38.180  0.2365 -0.0696 -0.1537
 8090W        W10290  19.849   0.844  33.336 -0.1839 -0.0573 -0.3905
 8091W        W10291  19.395   1.842  12.013  0.3646  0.2088 -0.1708
 8092W        W10292  16.089   1.444  44.128  0.0486  0.0204  0.0799
 8093W        W10293  20.190   6.094  26.847  0.1141  0.0797 -0.0298
 8094W        W10294   9.790   1.667  14.884 -0.0583 -0.0797 -0.1592
 8095W        W10295  12.015   3.904  16.694 -0.0090 -0.0571 -0.1134
 8096W        W10296  16.481   0.180   4.262 -0.1448  0.0030  0.1689
 8097W        W10297  18.806   1.654  27.642 -0.3421 -0.0945  0.3018
 8098W        W10298  11.489   2.985  11.648  0.1557  0.2812 -0.0892
 8099W        W10299   8.068   4.564  21.962 -0.3921  0.0407 -0.1768
 8100W        W10300   9.376   3.703   5.695 -0.0844  0.0795 -0.1850
 8101W        W10301   2.218   6.009  16.481  0.1651 -0.0322  0.1230
 8102W        W10302   7.575   2.300   3.980  0.1745 -0.2927  0.0209
 8103W        W10303  21.023   3.585   8.858 -0.1672  0.0033 -0.1709
 8104W        W10304   7.689   3.082  41.392 -0.0231 -0.0581  0.2594
 8105W        W10305  12.600   0.706  20.648 -0.2324  0.0124  0.1448
 8106W        W10306  12.192   1.115  43.875 -0.0181 -0.0530 -0.0050
 8107W        W10307   0.708   4.346  43.134 -0.1089  0.5705 -0.0022
 8108W        W10308   8.014   5.861  20.285 -0.2139 -0.0410 -0.1067
 8109W        W10309  19.679   1.581   1.450  0.0777  0.3407 -0.0647
 8110W        W10310  19.334   2.651  14.587 -0.1113  0.0899 -0.1241
 8111W        W10311  18.033   6.145  23.686  0.3114 -0.3085 -0.0145
 8112W        W10312  11.065   6.025  17.310 -0.0182 -0.1490 -0.3316
 8113W        W10313  18.350   0.385  39.153 -0.2218 -0.0814 -0.0963
 8114W        W10314  11.385   1.576   4.926  0.0740 -0.0996  0.3183
 8115W        W10315  17.308   0.460   7.435 -0.1383 -0.3328  0.0032
 8116W        W10316   8.369   4.555  10.127 -0.4572  0.0162 -0.1748
 8117W        W10317  17.415   0.097  39.255 -0.5244  0.0751  0.0685
 8118W        W10318  15.335   4.564  10.614 -0.0456  0.4098 -0.2737
 8119W        W10319   3.768   5.187   4.779  0.1130  0.0959 -0.0694
 8120W        W10320   1.925   3.243  26.003  0.1736 -0.0242 -0.2017
 8121W        W10321   0.808   2.036   3.194  0.4631 -0.0825 -0.2603
 8122W        W10322  17.330   4.243  44.136  0.3235 -0.0671  0.0343
 8123W        W10323  20.175   0.154  32.148  0.0042  0.1400  0.0080
 8124W        W10324  13.587   2.356  29.101  0.2651 -0.2316  0.0706
 8125W        W10325   8.107   2.753  20.348  0.0084 -0.2041 -0.1409
 8126W        W10326   1.530   6.066  37.483 -0.0087 -0.1704  0.2487
 8127W        W10327  17.478   2.557  28.076 -0.1934  0.0921  0.0881
 8128W        W10328  11.661   1.721   6.428 -0.0081 -0.1616  0.0717
 8129W        W10329   7.416   0.525  38.008 -0.1643 -0.0068  0.1889
 8130W        W10330   0.190   2.367  25.023 -0.2669 -0.1519  0.2997
 8131W        W10331   6.164   3.741  43.335  0.0553 -0.1520 -0.1174
 8132W        W10332   8.785   2.505   4.608  0.0414 -0.2287 -0.1379
 8133W        W10333  12.798   1.557  36.747  0.2116 -0.1776  0.1600
 8134W        W10334  11.291   4.789  31.437 -0.1326 -0.0662  0.1491
 8135W        W10335   7.252   1.806  15.070  0.1367  0.0155  0.1484
 8136W        W10336   6.713   3.030  32.661  0.1491 -0.2033  0.2751
 8137W        W10337  14.275   0.659   5.423 -0.1863  0.1267  0.1527
 8138W        W10338   8.796   5.922  36.671 -0.0997 -0.0168  0.0015
 8139W        W10339  12.283   2.106  28.916  0.0007  0.2185  0.1978
 8140W        W10340  19.761   2.376   1.231  0.0795 -0.2155 -0.0902
 8141W        W10341  18.115   6.168  38.592 -0.1082 -0.1245 -0.1449
 8142W        W10342  10.664   5.030  29.835  0.3612 -0.0033 -0.1911
 8143W        W10343  18.359   2.491   2.627  0.0162  0.0603  0.0724
 8144W        W10344  11.646   2.737  38.785 -0.0622 -0.0297  0.0483
 8145W        W10345   2.556   6.223  15.569 -0.0347  0.2089 -0.4046
 8146W        W10346   1.168   4.247   6.922 -0.0492 -0.2649  0.1800
 8147W        W10347  16.247   5.524  32.614 -0.3363 -0.0957  0.0569
 8148W        W10348   3.592   1.064  27.382  0.2835 -0.0955 -0.2651
 8149W        W10349  14.035   4.972  16.124 -0.0628  0.2554 -0.0567
 8150W        W10350  18.360   2.083  10.962  0.0842 -0.2736 -0.3220
 8151W        W10351  19.198   4.371  14.670  0.3232 -0.0873  0.3606
 8152W        W10352  20.069   5.025  23.710 -0.1659 -0.2420 -0.1095
 8153W        W10353  16.586   6.511   1.519  0.3808  0.0191  0.0158
 8154W        W10354   1.030   0.803   8.941 -0.1386 -0.0281  0.2258
 8155W        W10355   6.981   0.699   4.656  0.1529  0.2505  0.0954
 8156W        W10356   1.956   0.383   3.736  0.3570  0.2200  0.1256
 8157W        W10357   8.385   3.311  37.471 -0.3139  0.0425  0.0790
 8158W        W10358  16.609   1.155  41.064 -0.0158  0.0988  0.3396
 8159W        W10359   8.323   4.625  32.649 -0.1111  0.1044 -0.0716
 8160W        W10360   0.328   0.479  11.234 -0.1991  0.0683  0.1205
 8161W        W10361   4.991   4.925  17.331 -0.2467 -0.1571 -0.1737
 8162W        W10362   5.937   1.855   6.057  0.0021 -0.2882 -0.0723
 8163W        W10363   2.499   1.773  34.092 -0.2343  0.1544  0.1350
 8164W        W10364  14.824   4.472  15.256  0.0113 -0.1787 -0.0824
 8165W        W10365  15.759   4.303  36.370 -0.0500  0.0304 -0.4029
 8166W        W10366   8.592   3.287  15.044 -0.1454  0.0464 -0.3261
 8167W        W10367  12.244   2.807  41.477  0.0080  0.0658 -0.0881
 8168W        W10368  19.708   3.268  34.764  0.0634 -0.3307  0.3898
 8169W        W10369  15.158   4.089  27.311  0.3590 -0.0167 -0.0032
 8170W        W10370  20.236   3.643   2.782 -0.1259 -0.2296 -0.1166
 8171W        W10371   2.127   3.805  26.017  0.2739  0.1480 -0.0573
 8172W        W10372  14.437   3.259  30.860 -0.2266 -0.0383  0.0377
 8173W        W10373   1.656   3.190  38.149  0.0319  0.1407  0.0202
 8174W        W10374  15.913   1.907  11.566  0.2638  0.1358  0.1999
 8175W        W10375  15.658   1.439  11.657 -0.0717  0.2487 -0.2682
 8176W        W10376  13.024   2.102   9.468 -0.0073 -0.0559 -0.0809
 8177W        W10377   7.629   2.217  13.822  0.0027  0.0931  0.0460
 8178W        W10378   3.706   4.161   9.827 -0.0145 -0.2056 -0.0478
 8179W        W10379  18.230   0.966  23.923 -0.1729 -0.0677 -0.0131
 8180W        W10380  10.554   5.877  14.359 -0.0794 -0.0155 -0.0183
 8181W        W10381   3.858   4.142  45.024 -0.1081 -0.3066 -0.1110
 8182W        W10382   1.171   3.405  31.502  0.1663 -0.2610 -0.3607
 8183W        W10383  11.830   6.301  21.417  0.0013 -0.0915  0.1558
 8184W        W10384  14.230   2.511  38.498  0.1115  0.1243 -0.0466
 8185W        W10385  16.074   3.446  13.410 -0.1767 -0.1016  0.0703
 8186W        W10386   8.142   2.835  44.985  0.1915 -0.2232  0.0236
 8187W        W10387  12.186   4.027  38.118  0.4982 -0.0733 -0.1181
 8188W        W10388   0.893   5.161   0.424 -0.1738  0.0727  0.1382
 8189W        W10389  19.170   6.031   2.039 -0.1795  0.2841  0.2652
 8190W        W10390   3.225   5.554   1.114  0.1785 -0.2128  0.0167
 8191W        W10391   4.181   4.037  38.764  0.0350  0.0628  0.2396
 8192W        W10392  13.095   4.012  31.833  0.1487  0.0495 -0.2721
 8193W        W10393  11.082   0.283  30.136 -0.0622 -0.1151 -0.4830
 8194W        W10394  14.588   0.268   4.394  0.1946  0.2263 -0.1393
 8195W        W10395   8.857   0.466  38.811 -0.0166 -0.1328  0.0867
 8196W        W10396   8.756   1.831  20.325 -0.0322 -0.2516 -0.3707
 8197W        W10397  12.258   5.901  16.470 -0.1170 -0.0060 -0.3609
 8198W        W10398  13.094   3.014   0.341 -0.3194  0.0028 -0.1681
 8199W        W10399  20.669   1.660   4.953  0.2772 -0.1403 -0.2536
 8200W        W10400  11.180   0.033  29.080 -0.0652 -0.2967  0.2674
 8201W        W10401   5.336   3.049  39.900  0.3100  0.0395 -0.3787
 8202W        W10402  17.356   3.650  37.982 -0.0025  0.0511 -0.1445
 8203W        W10403  11.681   1.837  19.136 -0.1616  0.1319  0.0803
 8204W        W10404   6.621   5.284   3.474 -0.0340  0.0234  0.1056
 8205W        W10405  18.703   3.566   2.966 -0.2638  0.0368  0.0047
 8206W        W10406  16.622   0.042  30.282  0.0331  0.0387  0.1756
 8207W        W10407   1.199   3.696  15.332 -0.0435 -0.1135  0.2347
 8208W        W10408  10.688   5.236  18.536  0.0491 -0.1370  0.0791
 8209W        W10409   4.891   4.994   7.653  0.1668  0.0038  0.0855
 8210W        W10410  10.125   4.745  21.846 -0.1385 -0.1127  0.3019
 8211W        W10411   6.901   3.511  44.148 -0.0759 -0.1422  0.1153
 8212W        W10412   1.201   3.246   8.495 -0.1365 -0.0474 -0.1614
 8213W        W10413  19.361   4.019   1.679 -0.1149 -0.0554  0.0097
 8214W        W10414  16.390   1.709   0.079  0.0900 -0.0071  0.0356
 8215W        W10415  11.469   2.160  20.905  0.3206  0.2455  0.0569
 8216W        W10416  14.291   5.377  36.060 -0.2100 -0.1504 -0.0307
 8217W        W10417  12.522   2.308   6.563  0.2524 -0.6260 -0.2704
 8218W        W10418   9.822   0.533  19.429 -0.0176  0.0360 -0.0545
 8219W        W10419  17.066   3.804   7.802  0.3829  0.0526  0.0161
 8220W        W10420   0.325   2.087  12.196 -0.0023 -0.0787 -0.1212
 8221W        W10421  18.280   0.765  12.744 -0.1489  0.1778  0.0701
 8222W        W10422   0.061   2.121   6.130 -0.1228 -0.1908 -0.2140
 8223W        W10423  14.829   2.656  36.568  0.2428  0.1338 -0.2672
 8224W        W10424  14.099   3.930  14.613  0.1999 -0.0362  0.1896
 8225W        W10425   6.584   4.852  35.433 -0.2438  0.0709  0.3630
 8226W        W10426   2.277   0.722   1.006 -0.0487 -0.0169  0.0039
 8227W        W10427  11.734   6.531  34.337  0.2252  0.2744  0.1083
 8228W        W10428  20.250   1.791  31.355 -0.0637  0.1847 -0.1247
 8229W        W10429  15.915   0.020   5.594  0.0291 -0.0542 -0.2300
 8230W        W10430   1.347   4.855  35.033  0.0319 -0.4839 -0.2102
 8231W        W10431  17.780   5.508  13.487  0.0205  0.0296  0.1560
 8232W        W10432   2.179   5.456   5.368 -0.2779 -0.3816 -0.1816
 8233W        W10433  12.298   1.059  16.063  0.1709  0.1132  0.2087
 8234W        W10434   1.351   6.365  24.687 -0.3320  0.1543  0.0248
 8235W        W10435  11.765   3.997  41.535  0.1626 -0.3771 -0.3040
 8236W        W10436   6.625   2.850  33.417 -0.0544 -0.1999  0.1773
 8237W        W10437   4.162   4.780  27.884 -0.0286  0.3099  0.2534
 8238W        W10438  17.906   3.045  30.874  0.1927  0.2447  0.3079
 8239W        W10439  14.047   5.680  13.743 -0.3270  0.1857  0.2862
 8240W        W10440  18.567   2.725   9.947  0.0403  0.0450  0.2270
 8241W        W10441  19.228   4.128  37.178 -0.2978  0.1480 -0.3283
 8242W        W10442  18.112   6.166   7.459 -0.0150  0.0498 -0.0907
 8243W        W10443   7.029   4.060   3.566 -0.0319  0.0613 -0.0304
 8244W        W10444   7.729   5.209  44.815  0.2674  0.3790 -0.1480
 8245W        W10445  16.184   5.706  28.913  0.1671 -0.0511  0.0611
 8246W        W10446  17.703   0.140  34.764  0.0399  0.0828 -0.1806
 8247W        W10447   9.370   1.705  44.815  0.0529  0.1570 -0.1957
 8248W        W10448  15.547   1.246  33.284  0.1973  0.1954  0.2006
 8249W        W10449   6.186   1.064   4.068 -0.1176  0.1463  0.1544
 8250W        W10450   3.156   6.020  16.161 -0.1236 -0.1493 -0.1807
 8251W        W10451   4.067   1.214  38.740  0.0082  0.0468 -0.1243
 8252W        W10452  20.536   6.199  41.196 -0.1939  0.0123 -0.0777
 8253W        W10453  18.207   1.210  36.672 -0.1520 -0.3771  0.1348
 8254W        W10454  11.803   1.640   4.165 -0.0220 -0.1246 -0.0063
 8255W        W10455   5.736   2.877   0.605 -0.0463 -0.0034 -0.0477
 8256W        W10456   5.985   0.909  39.144 -0.2109 -0.1950  0.3838
 8257W        W10457  17.949   5.167  23.616 -0.0352  0.3524  0.0021
 8258W        W10458   9.752   2.698  40.298  0.3667  0.2419 -0.2646
 8259W        W10459  19.600   3.363  22.600  0.0882  0.2411 -0.0340
 8260W        W10460   8.117   1.828   4.648 -0.2831  0.3622  0.2097
 8261W        W10461  17.910   3.402  10.833 -0.2968 -0.0402  0.0342
 8262W        W10462  10.824   5.024   8.572  0.0260  0.0305 -0.0468
 8263W        W10463  19.570   1.546  37.293 -0.2805  0.1359 -0.1551
 8264W        W10464  15.245   0.879  27.554 -0.0120  0.2062  0.1420
 8265W        W10465  11.350   3.475  32.197 -0.0968 -0.0292 -0.0914
 8266W        W10466   6.834   6.289  40.283 -0.0032  0.0351  0.3904
 8267W        W10467   7.513   0.354   8.658  0.1941  0.0277  0.0443
 8268W        W10468  16.780   5.109  35.318  0.0452 -0.3098 -0.5309
 8269W        W10469  10.480   0.935  45.066 -0.1603  0.0187  0.2822
 8270W        W10470  16.891   3.026  11.979 -0.2656  0.1569  0.1785
 8271W        W10471  12.585   6.214  34.329  0.0066 -0.2036  0.0428
 8272W        W10472   8.970   5.143  33.972 -0.0251  0.1032  0.2438
 8273W        W10473  18.414   3.412   1.206  0.0866 -0.2791  0.0658
 8274W        W10474   4.266   1.625  43.932 -0.2279 -0.1474  0.1410
 8275W        W10475  10.266   4.641  32.408  0.2691  0.1645 -0.0752
 8276W        W10476   3.777   6.505  28.807 -0.1361  0.0206  0.0033
 8277W        W10477  16.955   0.464  11.627  0.0194  0.0777 -0.0229
 8278W        W10478   9.124   3.087  10.809 -0.1433 -0.0258 -0.1567
 8279W        W10479   3.196   3.272  17.321 -0.0800  0.0654  0.0823
 8280W        W10480  11.031   5.155  35.317  0.1395 -0.2972 -0.0188
 8281W        W10481  12.043   0.606  40.777  0.1893 -0.1707 -0.0922
 8282W        W10482  11.851   6.115   4.167 -0.0665 -0.0418  0.2108
 8283W        W10483  10.090   0.718  38.857 -0.0203 -0.0452  0.1085
 8284W        W10484   0.367   5.433   9.538  0.0354  0.0308 -0.0048
 8285W        W10485  10.071   3.697  24.609  0.2090  0.4405  0.1701
 8286W        W10486   5.563   0.953   4.788 -0.2237 -0.0126 -0.0488
 8287W        W10487   6.147   3.760  34.374  0.0903  0.1906 -0.3004
 8288W        W10488  15.332   0.396   9.267 -0.0602  0.1637  0.0824
 8289W        W10489  19.519   2.334   5.274 -0.0847 -0.0278 -0.0466
 8290W        W10490   7.657   0.892  44.958  0.1324 -0.2340  0.1633
 8291W        W10491  13.542   3.252  15.065  0.2349  0.0890  0.0299
 8292W        W10492  16.687   4.779  36.314 -0.0074 -0.1789 -0.0952
 8293W        W10493  18.863   6.013  27.581  0.0380  0.0621 -0.0819
 8294W        W10494   1.548   6.214  11.957 -0.1465  0.0563  0.2697
 8295W        W10495  12.206   0.593  35.482  0.2139 -0.2127  0.0764
 8296W        W10496   0.816   5.088  42.736  0.0261 -0.0509 -0.2460
 8297W        W10497   0.039   5.445  23.108  0.3165 -0.1192 -0.1188
 8298W        W10498  13.821   2.535  19.041  0.3086  0.1883  0.0010
 8299W        W10499   4.135   1.136  43.931  0.0740 -0.0885  0.3544
 8300W        W10500  17.280   5.215   3.066 -0.2133 -0.0382 -0.0337
 8301W        W10501  15.276   5.410  43.641  0.2678  0.2660 -0.1493
 8302W        W10502  16.641   2.309  29.552 -0.2433 -0.0481 -0.0012
 8303W        W10503   3.006   3.575  42.297 -0.0190  0.1355  0.0753
 8304W        W10504  17.278   0.220  12.020 -0.1118 -0.1202  0.0277
 8305W        W10505   7.829   3.918   0.595 -0.2544  0.1314  0.4292
 8306W        W10506  14.352   3.293   8.040 -0.1736 -0.1457 -0.1756
 8307W        W10507   4.928   3.786  40.122 -0.1873  0.2159  0.0672
 8308W        W10508  15.422   5.406  42.321  0.1889  0.0305 -0.2012
 8309W        W10509  14.903   4.961   4.748  0.1188 -0.0282  0.0755
 8310W        W10510  13.588   0.559  37.720 -0.3000 -0.2772  0.0880
 8311W        W10511   6.931   3.729  20.564 -0.0692 -0.1281  0.0614
 8312W        W10512   8.643   1.982  16.313  0.0889  0.1108  0.0083
 8313W        W10513   4.504   4.580  16.760 -0.0916 -0.1221  0.1923
 8314W        W10514  11.735   0.813  43.361  0.0744  0.2949  0.1003
 8315W        W10515  15.701   3.644   7.548 -0.1889  0.1301  0.1726
 8316W        W10516   2.007   4.856  35.640 -0.0592 -0.1394 -0.2166
 8317W        W10517  13.677   5.936  15.112 -0.1226  0.2417 -0.2235
 8318W        W10518   7.616   3.980  11.206 -0.0362 -0.0591 -0.2085
 8319W        W10519   2.474   4.060  35.778 -0.1610 -0.2035 -0.1145
 8320W        W10520  16.808   5.846   2.452 -0.2706 -0.1224 -0.0910
 8321W        W10521  15.487   3.043  43.020 -0.3314  0.2385  0.1377
 8322W        W10522   1.466   4.207  43.552 -0.0940 -0.2493 -0.1525
 8323W        W10523  10.610   4.827  39.207  0.1410 -0.1043 -0.0388
 8324W        W10524   7.978   0.882   6.489 -0.0292 -0.2469 -0.1994
 8325W        W10525  20.350   4.955   3.944  0.0115 -0.0794 -0.1167
 8326W        W10526  21.012   0.200  10.979  0.0668 -0.0287 -0.2210
 8327W        W10527   3.828   5.141   9.055  0.0625 -0.2483 -0.2312
 8328W        W10528  13.096   5.844  15.499  0.0489 -0.1159 -0.0636
 8329W        W10529   2.819   4.038  38.342 -0.0097  0.3736 -0.1023
 8330W        W10530   1.683   3.832  29.756  0.0237  0.1314  0.0854
 8331W        W10531  16.592   4.828  43.848 -0.1189 -0.1482  0.0061
 8332W        W10532  11.818   1.749  17.684 -0.1060  0.1062 -0.1043
 8333W        W10533   9.579   6.495  39.131  0.2159  0.0836 -0.0315
 8334W        W10534  11.563   2.822  13.879 -0.1180 -0.0024 -0.0224
 8335W        W10535   1.944   5.615  42.545 -0.1506 -0.2592 -0.1552
 8336W        W10536   1.510   6.312  23.258 -0.2502 -0.0029  0.1133
 8337W        W10537  17.006   3.027   1.337 -0.1578 -0.0370 -0.0326
 8338W        W10538   6.769   3.978   3.096 -0.1865 -0.0235 -0.0623
 8339W        W10539  18.999   4.790  35.953  0.0344 -0.1895  0.1176
 8340W        W10540   2.482   6.396  30.131 -0.1516  0.2079  0.0771
 8341W        W10541   7.083   2.442  12.893 -0.4096  0.0603 -0.0988
 8342W        W10542   2.008   5.549  31.654 -0.1359 -0.3790  0.1106
 8343W        W10543  15.646   4.217  41.608 -0.3001  0.1059  0.1696
 8344W        W10544   1.068   3.354  30.934 -0.1053 -0.0671  0.1804
 8345W        W10545   2.892   1.305  26.944  0.1233 -0.3243  0.0108
 8346W        W10546  11.055   6.420  20.951  0.0373 -0.0442  0.2029
 8347W        W10547   8.201   5.350   7.959  0.2328  0.1587 -0.2408
 8348W        W10548  18.779   6.257  11.557  0.2416 -0.0099 -0.3092
 8349W        W10549   8.940   6.113  19.147 -0.0788 -0.0313  0.0442
 8350W        W10550  19.356   3.075  26.067  0.0357 -0.1697 -0.1439
 8351W        W10551   4.312   0.385   0.255 -0.3742  0.1540 -0.3162
 8352W        W10552   4.266   2.479  28.243 -0.2758  0.2323  0.1920
 8353W        W10553  16.445   6.380  11.011 -0.0880 -0.0176 -0.0672
 8354W        W10554   6.410   1.708  11.091 -0.0086 -0.0794  0.0067
 8355W        W10555   3.692   5.940  27.665 -0.1341 -0.1193  0.1547
 8356W        W10556   0.699   4.700  44.844  0.1197  0.2658 -0.0097
 8357W        W10557  13.193   2.116  45.036 -0.1373 -0.0417  0.0252
 8358W        W10558   7.586   0.930  41.353 -0.0515  0.3205  0.1894
 8359W        W10559  20.093   0.733   3.629  0.2075 -0.0727 -0.0217
 8360W        W10560  12.736   0.734  11.470  0.1546 -0.1491  0.1893
 8361W        W10561  19.880   6.396  30.559  0.0900 -0.1296  0.1104
 8362W        W10562  19.639   0.832  43.124 -0.3922  0.2098  0.0234
 8363W        W10563   8.985   1.646  18.892  0.0207  0.3158  0.1329
 8364W        W10564  16.539   0.714   7.548 -0.0081  0.0306  0.0260
 8365W        W10565   6.448   0.819   9.303  0.1069  0.1358  0.1081
 8366W        W10566   3.250   3.237  41.979 -0.0976  0.0635 -0.1747
 8367W        W10567   5.114   2.902   3.293  0.2182 -0.1791  0.1307
 8368W        W10568   5.758   3.422  30.608  0.1674 -0.2645 -0.0601
 8369W        W10569   4.511   3.301  13.356  0.2029  0.1457 -0.2756
 8370W        W10570  12.190   6.366  34.057 -0.0727 -0.0659 -0.0598
 8371W        W10571   7.673   2.565  30.769  0.2174 -0.0664 -0.0545
 8372W        W10572   9.626   2.212  36.647 -0.0344 -0.3015  0.0034
 8373W        W10573   3.435   5.354  12.556  0.1546 -0.2051 -0.0832
 8374W        W10574   7.730   6.292  31.246 -0.1923 -0.0144 -0.3468
 8375W        W10575  15.303   1.549  32.402 -0.1624  0.1076 -0.2034
 8376W        W10576  12.221   1.545   8.306  0.1969 -0.0750  0.1878
 8377W        W10577  10.895   3.132   7.947 -0.1950 -0.2866  0.0602
 8378W        W10578   3.977   2.367  27.008 -0.0841  0.0713  0.1883
 8379W        W10579  17.110   5.100  32.443  0.0351 -0.0358  0.0900
 8380W        W10580   8.030   2.549   1.194  0.0055 -0.3438  0.3082
 8381W        W10581  18.792   4.950  24.624  0.0974 -0.0580  0.0405
 8382W        W10582  17.004   5.069  14.659 -0.1969  0.1189 -0.0774
 8383W        W10583   2.089   2.718  14.895  0.0860  0.1167 -0.0005
 8384W        W10584   5.545   3.275  19.003 -0.2690 -0.1203  0.1408
 8385W        W10585  13.327   3.194   2.115 -0.0352  0.0185  0.0093
 8386W        W10586  15.482   4.716  12.871  0.0979  0.0108 -0.0430
 8387W        W10587  12.052   4.023  14.911  0.2177 -0.0450 -0.1601
 8388W        W10588   0.112   3.681   9.908  0.2844 -0.0273 -0.2410
 8389W        W10589  20.929   6.201   6.638  0.0887 -0.2940  0.4787
 8390W        W10590  17.933   1.417  16.807  0.1820  0.0630 -0.1597
 8391W        W10591  17.915   0.204  32.144  0.0741  0.0765 -0.0067
 8392W        W10592   3.706   5.856  43.992 -0.1864  0.2108  0.1517
 8393W        W10593  14.685   3.578  38.511 -0.2771 -0.0510 -0.0077
 8394W        W10594   4.388   2.247  38.947  0.1552  0.0421  0.0955
 8395W        W10595   7.700   4.554  17.895  0.1959 -0.3188  0.1144
 8396W        W10596  19.598   2.354   7.804 -0.0217 -0.0964  0.1527
 8397W        W10597  12.693   5.976  37.073 -0.1867  0.2105  0.0024
 8398W        W10598   7.877   5.448  41.105 -0.0941  0.1591 -0.0148
 8399W        W10599  12.540   0.720   0.379  0.2989 -0.0001 -0.0775
 8400W        W10600   3.686   5.805  35.072  0.3769  0.2924 -0.0785
 8401W        W10601  18.743   1.717  32.741  0.0270  0.1257  0.0214
 8402W        W10602  19.076   6.431  11.894  0.3135 -0.1197 -0.1469
 8403W        W10603  12.591   6.386  14.956  0.1155  0.1580  0.1728
 8404W        W10604   8.785   3.506  11.749 -0.0046 -0.1425 -0.0903
 8405W        W10605  18.782   4.662  13.288  0.1743 -0.0720  0.1145
 8406W        W10606  10.608   0.441  30.906  0.0248 -0.0767  0.1820
 8407W        W10607   3.531   1.332  32.149 -0.2120  0.1531 -0.1805
 8408W        W10608  10.899   0.502   2.909  0.0132  0.1682  0.0061
 8409W        W10609   7.365   4.176  13.329  0.1592 -0.0729  0.2812
 8410W        W10610   3.756   6.008  28.523  0.2664  0.1379 -0.1928
 8411W        W10611  12.666   1.737  17.873  0.0190 -0.1636  0.1966
 8412W        W10612   7.853   0.712  29.505 -0.0732 -0.0241 -0.2200
 8413W        W10613   9.509   3.156  16.450 -0.0954  0.0931  0.0832
 8414W        W10614   9.928   2.233  13.685  0.3244  0.0629 -0.1618
 8415W        W10615   3.148   2.154  26.626  0.3462 -0.2311 -0.2338
 8416W        W10616   2.805   0.782  10.751  0.3620 -0.1392 -0.1826
 8417W        W10617   8.701   1.111  35.399 -0.1157 -0.0238 -0.0021
 8418W        W10618  13.100   2.738  38.769  0.0956  0.2513 -0.1858
 8419W        W10619  14.729   2.847  32.901 -0.1866  0.2741  0.0797
 8420W        W10620  10.123   2.556   6.886  0.0909  0.0198 -0.2631
 8421W        W10621  13.947   2.640   3.461  0.1248 -0.0572  0.0595
 8422W        W10622   1.029   1.352  44.766 -0.0590 -0.2942 -0.3362
 8423W        W10623  12.557   0.197  38.694  0.1847 -0.0708 -0.0983
 8424W        W10624   1.777   4.431  32.113  0.1718 -0.1449 -0.2779
 8425W        W10625   5.084   2.902  17.015 -0.1083 -0.2006  0.2006
 8426W        W10626   2.520   4.064   0.502  0.1830  0.0146  0.0802
 8427W        W10627  17.145   3.615  34.344  0.4567 -0.2950  0.1920
 8428W        W10628   2.165   1.909  15.472  0.1319 -0.1554  0.1846
 8429W        W10629   2.887   2.450  28.477 -0.0851 -0.0849  0.2967
 8430W        W10630  18.235   4.018  42.295 -0.1732  0.1188  0.2507
 8431W        W10631   0.512   4.689  28.315  0.0785 -0.0563  0.1715
 8432W        W10632  17.544   5.708  31.312 -0.0518 -0.0906  0.0962
 8433W        W10633  13.871   1.434   3.849  0.0246  0.0177 -0.1042
 8434W        W10634  11.414   4.231  12.546  0.1121 -0.1645  0.1446
 8435W        W10635   9.051   0.809  21.469  0.1063 -0.0940 -0.2133
 8436W        W10636  18.596   2.378   6.629 -0.2242  0.2206 -0.0073
 8437W        W10637  14.383   2.548  13.672 -0.1203 -0.0372  0.2045
 8438W        W10638  12.488   1.358   6.747 -0.0590  0.2341  0.0216
 8439W        W10639  10.238   4.931  30.213 -0.0214 -0.3110  0.3615
 8440W        W10640  19.948   3.630  13.656 -0.1372 -0.0275 -0.2399
 8441W        W10641  11.919   2.770  15.955  0.1012 -0.0578  0.0030
 8442W        W10642  15.379   4.571  26.691  0.1891  0.1212  0.3541
 8443W        W10643   5.197   0.314  42.681  0.1347  0.0329  0.0773
 8444W        W10644  17.493   4.700  36.696  0.0483  0.0088 -0.3322
 8445W        W10645  17.690   3.896  15.485  0.3819 -0.0864 -0.0191
 8446W        W10646  16.572   3.997  28.276 -0.0935  0.0635 -0.2342
 8447W        W10647   6.080   0.372   6.170  0.0772 -0.1881 -0.0914
 8448W        W10648   5.319   2.323  44.887  0.1939  0.0425 -0.2646
 8449W        W10649  14.994   6.193  36.476 -0.0106 -0.1659 -0.0694
 8450W        W10650   6.899   1.261  33.532 -0.0802  0.0114  0.0355
 8451W        W10651  16.070   2.725  31.681 -0.1394  0.2374 -0.0472
 8452W        W10652   0.431   5.886  22.446 -0.0556  0.0242 -0.1847
 8453W        W10653   9.800   2.268  44.822 -0.1667  0.0538 -0.2415
 8454W        W10654  11.763   0.960  29.315  0.4970 -0.0494 -0.1291
 8455W        W10655  20.651   2.924   6.425 -0.0859  0.1833  0.0038
 8456W        W10656  14.608   2.383  28.980 -0.0429  0.0154 -0.0537
 8457W        W10657   5.988   4.250  39.857  0.1263  0.1541 -0.0246
 8458W        W10658   4.442   2.401  42.307  0.1700  0.0719  0.0812
 8459W        W10659  11.095   5.295   7.571  0.2071 -0.1308  0.1898
 8460W        W10660   6.668   5.661  35.507 -0.6042 -0.1241 -0.3578
 8461W        W10661   5.029   6.017  33.103 -0.0417  0.0908 -0.0138
 8462W        W10662   4.859   2.898  13.295  0.1429 -0.0996 -0.2443
 8463W        W10663   3.177   2.651   5.979  0.0986 -0.1714 -0.1098
 8464W        W10664   6.076   0.523  44.231 -0.0540 -0.1304  0.0645
 8465W        W10665   3.816   3.435  28.367  0.0349 -0.0686 -0.1876
 8466W        W10666  12.037   5.821   5.276  0.1451  0.1760  0.1114
 8467W        W10667   8.341   1.447   1.417  0.0903  0.0414 -0.1568
 8468W        W10668   3.537   1.942  27.878  0.0098  0.5055 -0.0681
 8469W        W10669  20.358   5.161  39.371 -0.0563  0.2190  0.0281
 8470W        W10670  17.112   3.530  14.903 -0.3496  0.0635  0.0122
 8471W        W10671  14.357   1.965   6.784 -0.0569 -0.0870  0.0632
 8472W        W10672   4.203   5.044  15.450  0.0720  0.2607  0.0533
 8473W        W10673   1.487   0.924  34.230 -0.0834  0.1620  0.2150
 8474W        W10674   3.588   6.500  17.129 -0.1529  0.0251  0.2209
 8475W        W10675  10.751   1.508  18.947 -0.2865  0.1010 -0.1286
 8476W        W10676  12.925   5.014   2.237  0.2032 -0.0106  0.1264
 8477W        W10677  20.211   3.633  10.467  0.0234  0.0840 -0.0690
 8478W        W10678  10.028   3.934  32.669 -0.1509  0.1233  0.2417
 8479W        W10679  14.639   4.966  43.595 -0.2453 -0.1384 -0.0438
 8480W        W10680   9.349   0.562  20.736 -0.0901  0.3034  0.0511
 8481W        W10681   0.636   3.571  28.804 -0.0124 -0.1199 -0.0943
 8482W        W10682   0.352   2.872  28.796 -0.0483 -0.1554 -0.1306
 8483W        W10683  14.807   0.618  31.580 -0.1516 -0.2858  0.0711
 8484W        W10684  18.910   6.403   9.401 -0.0861  0.2082 -0.2416
 8485W        W10685  15.437   5.910  42.698 -0.0335 -0.0948 -0.2245
 8486W        W10686  19.601   5.089   5.696  0.2152  0.0825 -0.0521
 8487W        W10687  10.938   0.757  33.257  0.0671  0.1424 -0.2143
 8488W        W10688   2.637   3.744  39.145  0.0167 -0.0295  0.2298
 8489W        W10689  16.029   5.853  39.013  0.0224 -0.4319 -0.1579
 8490W        W10690   9.213   2.349  17.406 -0.1412  0.1199 -0.0825
 8491W        W10691  20.800   1.840  44.934  0.1962  0.1865  0.0419
 8492W        W10692  18.369   0.338  25.627 -0.0883  0.0606  0.1737
 8493W        W10693   8.505   1.479   6.887 -0.2683 -0.1966 -0.0683
 8494W        W10694   5.384   4.999  39.271 -0.2965 -0.1404 -0.0325
 8495W        W10695  19.115   6.524  21.133  0.0497 -0.0977  0.0172
 8496W        W10696   3.925   4.964  37.603  0.2532 -0.3005 -0.1451
 8497W        W10697  18.476   5.175  31.952 -0.0228 -0.1996 -0.0112
 8498W        W10698   1.950   0.320   4.445  0.1828 -0.0094  0.1389
 8499W        W10699  17.954   1.875   7.703 -0.2145 -0.3636  0.1628
 8500W        W10700   9.270   4.605  36.910  0.0465  0.2719 -0.2181
 8501W        W10701  12.969   4.047  36.576  0.1027 -0.0859 -0.0393
 8502W        W10702  10.881   2.089   0.277  0.3731 -0.0969  0.3924
 8503W        W10703   4.620   5.157  32.916  0.0707  0.1323 -0.0604
 8504W        W10704   6.592   0.461  11.970  0.0653  0.1276  0.1456
 8505W        W10705   6.515   3.833  40.956  0.0763 -0.2799 -0.3020
 8506W        W10706  11.079   2.876   3.446 -0.1816  0.1143 -0.0630
 8507W        W10707   9.788   3.197  34.658  0.1074  0.2739  0.0949
 8508W        W10708  16.121   2.294   6.942 -0.3421  0.1811  0.0096
 8509W        W10709   2.974   4.079  11.041 -0.2998  0.0580 -0.0558
 8510W        W10710   0.209   5.218  29.048 -0.0664  0.0308  0.1121
 8511W        W10711  14.884   5.385   9.851  0.0224  0.2090 -0.0003
 8512W        W10712   0.423   2.682  43.126 -0.2855  0.0405  0.0795
 8513W        W10713  18.905   6.156  23.232 -0.2058  0.0153 -0.0463
 8514W        W10714   8.907   3.322  19.975  0.2947 -0.0240  0.0327
 8515W        W10715  20.976   4.996  35.092  0.2217  0.1426 -0.0423
 8516W        W10716  10.351   3.759  30.523 -0.2718 -0.0772  0.1110
 8517W        W10717  16.542   4.167  25.598  0.0046 -0.2695  0.1979
 8518W        W10718   8.509   4.886  21.426  0.1103  0.0295  0.0403
 8519W        W10719   3.739   4.915  11.774  0.2689 -0.0011  0.1794
 8520W        W10720   1.536   6.085  37.977  0.0771  0.4851  0.4176
 8521W        W10721   1.981   6.318  29.768 -0.2067  0.0023 -0.0234
 8522W        W10722  12.395   4.627   5.704 -0.1165  0.0039 -0.3156
 8523W        W10723   0.897   5.900  42.246  0.1533 -0.2314  0.1976
 8524W        W10724   2.939   1.131  29.946 -0.3506  0.0902 -0.1261
 8525W        W10725  13.524   1.726  35.472 -0.4130 -0.2975  0.0206
 8526W        W10726  10.203   2.105   7.596  0.1965  0.0650 -0.1833
 8527W        W10727  11.383   0.416  42.817  0.0882  0.1547  0.2459
 8528W        W10728  19.765   4.916  44.962 -0.0826 -0.3270  0.1428
 8529W        W10729  20.699   5.271  14.262  0.0502  0.1997 -0.1729
 8530W        W10730  15.725   5.432   9.946  0.3397 -0.3034 -0.1510
 8531W        W10731   8.698   5.363  36.047  0.0704  0.0589 -0.1036
 8532W        W10732  19.542   2.268  25.904 -0.2264  0.0325  0.0643
 8533W        W10733   9.781   0.255  43.861 -0.0923 -0.2710 -0.0382
 8534W        W10734  19.861   6.187   7.272  0.1578  0.4055 -0.0496
 8535W        W10735   9.363   0.512  44.419  0.2316  0.1540 -0.0500
 8536W        W10736  19.253   0.918  29.895 -0.0450  0.0217  0.5142
 8537W        W10737   7.376   4.012   4.969  0.0279  0.0470 -0.0834
 8538W        W10738  12.910   5.020  42.356 -0.1915  0.0201  0.0622
 8539W        W10739  12.597   3.303  17.894  0.0020 -0.0934 -0.2427
 8540W        W10740   8.275   0.722  12.722  0.3440 -0.0388 -0.0190
 8541W        W10741   1.994   1.860   2.319  0.1720 -0.0488  0.1586
 8542W        W10742   5.912   3.292  35.100  0.1204 -0.0496  0.1856
 8543W        W10743  10.504   1.796  34.815 -0.0472  0.2768 -0.1211
 8544W        W10744   0.680   3.773  40.216 -0.0564  0.1522  0.1034
 8545W        W10745  13.249   3.575   6.983  0.0214 -0.2583  0.0168
 8546W        W10746  13.467   2.781  15.032 -0.1106  0.1969 -0.0708
 8547W        W10747  11.515   5.307  16.568 -0.0889 -0.3158  0.0315
 8548W        W10748  14.431   3.565   3.551 -0.1303 -0.1072  0.2959
 8549W        W10749   6.359   5.097   5.190  0.2896  0.1370  0.0425
 8550W        W10750   3.480   6.290   4.345  0.2714 -0.0825  0.2126
 8551W        W10751   9.040   4.728   9.962  0.1124 -0.0509  0.0857
 8552W        W10752  12.486   5.788   5.047  0.0038  0.1534 -0.0261
 8553W        W10753  18.276   3.017  34.487 -0.2466  0.1629 -0.2740
 8554W        W10754  19.110   5.790  12.531 -0.2716  0.1317 -0.5142
 8555W        W10755   3.408   6.601  31.883 -0.1397 -0.1557  0.1596
 8556W        W10756   9.405   2.659  37.386  0.1931  0.1043  0.2909
 8557W        W10757  15.256   4.543  45.020 -0.5214 -0.1148  0.0518
 8558W        W10758   0.845   6.225  13.384 -0.0856 -0.0106 -0.0804
 8559W        W10759  10.180   3.842  34.192  0.0425  0.1103 -0.1448
 8560W        W10760  20.978   0.586  40.928 -0.1773 -0.2549 -0.1283
 8561W        W10761   2.993   1.844   8.129 -0.1621 -0.0738 -0.1965
 8562W        W10762   0.029   3.639  36.299  0.1200 -0.0159  0.4825
 8563W        W10763  13.423   2.680  36.576 -0.1008  0.1128 -0.1567
 8564W        W10764   0.731   4.146  14.937 -0.0916 -0.1296  0.0496
 8565W        W10765  15.731   2.179   0.811 -0.1132 -0.0559  0.0080
 8566W        W10766   8.286   4.532   7.324 -0.2178 -0.3525  0.1730
 8567W        W10767  18.721   2.757   2.357  0.0344 -0.1318 -0.4047
 8568W        W10768   0.541   2.318  30.848  0.0416  0.1214 -0.1671
 8569W        W10769  18.479   0.913  10.374  0.2945  0.2199 -0.3126
 8570W        W10770   4.859   6.260   6.197  0.0775 -0.2515  0.1798
 8571W        W10771   4.076   4.201  11.631 -0.5703  0.1916  0.1597
 8572W        W10772  15.223   0.500  28.802 -0.3091 -0.2846  0.1581
 8573W        W10773   4.781   4.210  14.257  0.0449  0.1083  0.2569
 8574W        W10774  15.597   2.056  38.072  0.2219 -0.0885  0.0466
 8575W        W10775   0.172   1.487  43.494 -0.2690  0.0870 -0.3754
 8576W        W10776  10.074   4.007   3.368 -0.0771  0.0223 -0.1587
 8577W        W10777   8.995   5.326  15.903 -0.0444  0.1917 -0.0113
 8578W        W10778   3.298   0.856  39.407 -0.1971 -0.4123 -0.2975
 8579W        W10779  14.077   5.694  41.083  0.0740 -0.2829  0.4457
 8580W        W10780   3.865   1.884  41.228  0.1402 -0.1200  0.0708
 8581W        W10781   4.712   4.269  41.815 -0.0932 -0.0670  0.0455
 8582W        W10782  16.977   2.225  22.798 -0.0431 -0.3419 -0.0004
 8583W        W10783  21.037   1.412   9.667 -0.1228  0.4615  0.0072
 8584W        W10784  17.563   1.535   6.541 -0.1850  0.0096  0.0114
 8585W        W10785  12.356   4.073  20.395  0.4575  0.2621  0.2039
 8586W        W10786   3.656   4.905  17.832 -0.0154  0.1735 -0.2036
 8587W        W10787   3.055   2.908  43.542  0.0868 -0.1062 -0.0569
 8588W        W10788   1.735   5.178  43.288 -0.3328 -0.0828 -0.2437
 8589W        W10789   7.011   0.513  44.282 -0.0391 -0.0319  0.1920
 8590W        W10790  18.221   4.442  35.642  0.2390 -0.1481  0.1344
 8591W        W10791  19.905   2.075   7.417  0.0069 -0.1592  0.1318
 8592W        W10792   1.311   2.254  11.151  0.0379  0.3025  0.0567
 8593W        W10793  13.527   5.915   0.478  0.2949  0.0788 -0.1399
 8594W        W10794  13.901   0.470  40.263  0.0252  0.0459 -0.0341
 8595W        W10795   0.558   1.559  38.532  0.0357 -0.0394 -0.0811
 8596W        W10796  15.252   1.633  30.985  0.2027  0.1297  0.3943
 8597W        W10797  15.916   4.188  42.776 -0.0878 -0.3785 -0.3264
 8598W        W10798  14.815   5.332  31.852 -0.1138  0.1458 -0.0158
 8599W        W10799  11.898   6.092   4.865 -0.0176 -0.1398  0.1088
 8600W        W10800  12.823   6.224  42.038  0.2693  0.2766  0.3211
 8601W        W10801  17.755   3.212  34.681  0.0472  0.0323  0.1088
 8602W        W10802   4.586   1.585  12.814  0.0646  0.3031 -0.2189
 8603W        W10803   0.460   5.084  26.859  0.0994  0.0066  0.1079
 8604W        W10804  19.546   5.227   3.665  0.0836  0.0255  0.0143
 8605W        W10805   6.807   0.053  44.419  0.1380 -0.1252  0.1548
 8606W        W10806   3.278   3.678  10.119  0.0126 -0.1019  0.2086
 8607W        W10807   6.705   1.558  31.053 -0.3559  0.1221  0.0026
 8608W        W10808   0.948   2.058  14.716  0.1608  0.1478 -0.0008
 8609W        W10809  12.852   5.688   2.734 -0.2498 -0.1864  0.1527
 8610W        W10810  17.384   3.352  11.981  0.1425 -0.0955 -0.1102
 8611W        W10811   0.552   4.710  43.581  0.0140  0.1503  0.1539
 8612W        W10812   4.556   3.053   0.985  0.0777 -0.2645 -0.2101
 8613W        W10813   7.301   2.133  10.680 -0.0603 -0.1519 -0.1061
 8614W        W10814   4.820   2.554   0.306  0.2048  0.1088 -0.1552
 8615W        W10815  19.602   0.640   2.923 -0.2172  0.0833 -0.1135
 8616W        W10816   4.639   6.117  30.168  0.2941 -0.1187  0.0404
 8617W        W10817  19.221   6.381  30.880 -0.1112  0.0290  0.0129
 8618W        W10818  20.613   2.355  30.005  0.0090 -0.4115 -0.0623
 8619W        W10819   5.768   4.850  39.582  0.0474  0.0334 -0.0273
 8620W        W10820  14.242   1.561   7.043 -0.0497 -0.0794  0.1776
 8621W        W10821   8.062   1.910   2.500  0.0258  0.1310 -0.3020
 8622W        W10822  16.466   4.960  11.672  0.4156  0.0361  0.0537
 8623W        W10823  18.032   4.558  39.820  0.0341  0.0665  0.2862
 8624W        W10824  18.513   4.840  36.102 -0.1921  0.3907 -0.2338
 8625W        W10825  12.115   0.313   5.947  0.2199 -0.0244  0.1246
 8626W        W10826   1.927   4.352  43.628  0.1088  0.1273 -0.0141
 8627W        W10827  16.480   0.870   3.977  0.2695 -0.2340  0.2817
 8628W        W10828  13.491   3.280  31.029 -0.3062 -0.0747 -0.3147
 8629W        W10829   2.304   2.101  33.381 -0.0452  0.2214  0.1019
 8630W        W10830  14.906   2.542  11.713  0.0212 -0.2258 -0.0413
 8631W        W10831   6.019   0.183  11.584 -0.2157  0.0161  0.2077
 8632W        W10832  12.037   0.049  11.163 -0.0033 -0.1677 -0.0696
 8633W        W10833  20.417   0.665  42.549 -0.1483 -0.1210  0.0844
 8634W        W10834  15.238   4.371   0.388  0.1431 -0.1947  0.2179
 8635W        W10835  11.726   3.466   1.358  0.0179 -0.2360  0.0931
 8636W        W10836  17.700   0.360  16.049 -0.0177  0.4631 -0.0117
 8637W        W10837   4.345   4.313  33.413  0.1388 -0.0348 -0.1479
 8638W        W10838   8.649   5.506   2.090 -0.0971 -0.1262  0.2990
 8639W        W10839   4.986   5.240  29.575  0.1667  0.1236  0.4105
 8640W        W10840   9.320   4.499  16.621 -0.1911 -0.1619 -0.0727
 8641W        W10841   8.047   0.177   2.154  0.3186  0.0495 -0.0606
 8642W        W10842   9.055   0.425  42.221  0.2718 -0.0028  0.0810
 8643W        W10843  11.709   4.954  11.877  0.2095  0.0618  0.0340
 8644W        W10844  10.112   5.201   8.336 -0.1937  0.5183 -0.1377
 8645W        W10845   9.740   3.350   9.025 -0.0861 -0.1356 -0.2343
 8646W        W10846   7.875   0.518  20.822 -0.1488 -0.0013 -0.0343
 8647W        W10847  19.585   4.522  34.271  0.1509 -0.1585  0.2418
 8648W        W10848  15.623   3.775  11.762  0.0747 -0.1368 -0.0051
 8649W        W10849   3.573   0.792  28.367 -0.0070 -0.2930  0.0387
 8650W        W10850  20.752   3.297  30.371 -0.0796 -0.1085  0.0882
 8651W        W10851   0.682   5.361  32.287  0.4503 -0.0594 -0.2387
 8652W        W10852   0.100   6.175  13.959  0.0345  0.0737 -0.0047
 8653W        W10853  12.987   2.258  37.955  0.3263 -0.3462 -0.0780
 8654W        W10854  10.814   0.362   6.967  0.3494 -0.1673 -0.0786
 8655W        W10855   4.666   0.867   6.889  0.1763  0.0346  0.0899
 8656W        W10856   8.824   1.931   0.511  0.0046  0.0171  0.3215
 8657W        W10857  14.151   3.441   0.232 -0.0121  0.1201 -0.3077
 8658W        W10858   4.972   5.190  12.127  0.0117  0.1259  0.0111
 8659W        W10859   9.605   0.830  34.174  0.1368  0.0098 -0.1375
 8660W        W10860  14.289   1.063   7.698  0.1832 -0.0154 -0.2122
 8661W        W10861  17.928   1.832  27.414 -0.0936  0.4296  0.1019
 8662W        W10862   1.251   1.836  42.468  0.1970 -0.0739  0.1183
 8663W        W10863  18.982   0.707   6.341  0.0948  0.2020  0.1567
 8664W        W10864  16.564   2.984  31.501 -0.1889 -0.0962 -0.2465
 8665W        W10865  10.941   6.529  19.684  0.1815  0.1355 -0.2205
 8666W        W10866  19.990   1.830  34.281 -0.5421  0.1405  0.2114
 8667W        W10867  11.664   1.478  14.882 -0.1672 -0.2199 -0.0146
 8668W        W10868  14.108   5.165  29.884  0.3129 -0.0539 -0.0969
 8669W        W10869  14.694   4.240  17.201  0.1942  0.0384  0.1114
 8670W        W10870   5.469   1.663   3.856 -0.1061  0.0850  0.1142
 8671W        W10871  13.997   4.614   5.491  0.0874 -0.0243  0.0822
 8672W        W10872   6.973   2.651  31.771 -0.0190  0.3811 -0.1340
 8673W        W10873  11.351   3.085  23.840 -0.0406  0.0685 -0.0429
 8674W        W10874   1.871   4.974  42.730  0.0403  0.1180 -0.2138
 8675W        W10875   5.584   1.866   8.824  0.1829  0.1357  0.1208
 8676W        W10876   7.225   6.129   8.860 -0.3045 -0.0365  0.0877
 8677W        W10877   3.632   5.446   6.555 -0.3153  0.1594  0.2128
 8678W        W10878   2.599   1.484  28.756 -0.3881  0.1426  0.2216
 8679W        W10879  12.635   6.195  36.205  0.0604  0.1922  0.0856
 8680W        W10880   1.000   3.756  14.758 -0.3167 -0.0475 -0.4317
 8681W        W10881   7.553   1.567  16.847  0.0255  0.1979 -0.1865
 8682W        W10882   9.179   2.530  15.983  0.0556 -0.0578  0.2647
 8683W        W10883   4.175   1.678  37.874 -0.2560  0.0200  0.4284
 8684W        W10884   2.723   6.156  37.036  0.0033  0.2731  0.2808
 8685W        W10885  17.174   4.923  16.232 -0.1420  0.1285 -0.1293
 8686W        W10886   9.565   6.043   2.138  0.0153 -0.1654  0.0349
 8687W        W10887   8.334   3.043  34.587  0.0425 -0.0625 -0.0494
 8688W        W10888   0.858   2.353  39.212  0.0226  0.1525 -0.2099
 8689W        W10889   2.238   3.274  10.118  0.0540  0.2179  0.0171
 8690W        W10890  14.330   2.237  36.830  0.0568  0.1974 -0.2019
 8691W        W10891  10.618   0.455  24.602  0.0027  0.3061  0.1809
 8692W        W10892  20.014   5.423  12.353  0.0974 -0.3577  0.1510
 8693W        W10893  20.836   2.846  41.309 -0.0278 -0.1784  0.2114
 8694W        W10894  11.129   0.222  15.079  0.1249 -0.0296  0.0029
 8695W        W10895  11.643   3.682  31.691  0.0212  0.3185 -0.0450
 8696W        W10896  15.135   2.297  26.938  0.0410  0.0359 -0.1557
 8697W        W10897   9.687   5.801  45.049  0.0673  0.1458  0.2506
 8698W        W10898  19.697   5.920  33.244  0.3718  0.2101 -0.1054
 8699W        W10899   9.904   6.042   7.412 -0.0783 -0.1220  0.0975
 8700W        W10900   9.143   4.821  44.646 -0.2851 -0.5244 -0.0932
 8701W        W10901   5.086   3.744  30.608  0.2479 -0.1456 -0.0253
 8702W        W10902  17.972   0.945  42.989 -0.0347 -0.0174  0.3076
 8703W        W10903  19.379   2.847  28.871  0.1156 -0.0806  0.0848
 8704W        W10904  20.308   5.800  23.171  0.1583  0.1499 -0.1880
 8705W        W10905   1.494   1.899   8.545 -0.1372 -0.0845  0.0105
 8706W        W10906   0.980   0.761  12.520 -0.0570 -0.1027  0.3352
 8707W        W10907   2.723   5.013   2.534 -0.0093  0.1400  0.0275
 8708W        W10908  19.874   3.997  29.897 -0.3328  0.3550  0.0653
 8709W        W10909  11.355   1.904  20.430  0.1616 -0.0317  0.2038
 8710W        W10910   1.598   3.767  32.313 -0.1141  0.2069 -0.0255
 8711W        W10911   9.051   6.594   7.748  0.0531  0.1858 -0.0741
 8712W        W10912   5.775   2.599  10.085 -0.0843  0.0916  0.3291
 8713W        W10913   1.193   6.009   4.301  0.0840 -0.0889  0.0240
 8714W        W10914  17.225   5.522  30.962  0.0420 -0.0412 -0.0331
 8715W        W10915   5.164   4.782  14.265 -0.0371  0.1732  0.0830
 8716W        W10916  17.824   0.334  27.472 -0.0367 -0.0107 -0.3087
 8717W        W10917  18.802   4.041   4.723  0.0955 -0.0044 -0.0077
 8718W        W10918  17.495   3.003  23.337  0.0635 -0.6924  0.0492
 8719W        W10919  20.525   1.458  15.181 -0.1725 -0.0561 -0.0432
 8720W        W10920   9.257   4.924   6.235  0.1868  0.1609  0.2442
 8721W        W10921  10.476   1.186  35.190  0.3518  0.1758  0.0756
 8722W        W10922   2.024   4.995  34.109  0.0325 -0.1510 -0.0662
 8723W        W10923   5.712   2.114  12.588  0.0465 -0.2016 -0.2290
 8724W        W10924  12.115   0.779  33.922  0.1966  0.0074  0.0808
 8725W        W10925   7.346   5.493  12.157 -0.1400  0.1985  0.0566
 8726W        W10926   8.636   0.729   8.853 -0.1250  0.1334  0.1960
 8727W        W10927   6.164   4.132   8.306 -0.2369  0.2025 -0.1360
 8728W        W10928   3.566   2.127  38.417  0.3195  0.3595 -0.1807
 8729W        W10929  20.776   2.161  14.102 -0.1363 -0.0343 -0.1591
 8730W        W10930   2.557   4.476   2.585 -0.1130  0.0090  0.3753
 8731W        W10931   5.672   3.925  39.644  0.0783 -0.0125 -0.0375
 8732W        W10932   5.773   0.241  44.942 -0.3767  0.1290  0.3835
 8733W        W10933  10.907   2.348   1.042 -0.0242 -0.1261  0.0438
 8734W        W10934   1.485   5.662  38.413 -0.0358  0.0232 -0.2471
 8735W        W10935  19.404   3.576  34.472  0.0070 -0.0592 -0.2341
 8736W        W10936  14.821   0.184  17.291  0.2440 -0.0789  0.0596
 8737W        W10937  14.111   2.402  37.711 -0.2228  0.1562 -0.0322
 8738W        W10938   6.762   0.141  18.601 -0.1507  0.1483 -0.1556
 8739W        W10939   2.999   4.768  35.645  0.1975 -0.0087 -0.0299
 8740W        W10940   1.577   0.638  24.914  0.2366 -0.5408 -0.2595
 8741W        W10941   8.786   6.104   2.768 -0.1366  0.1435  0.0893
 8742W        W10942  10.268   1.918   5.515  0.1573 -0.1441  0.0561
 8743W        W10943   9.386   4.018  32.590  0.0008 -0.2421  0.0885
 8744W        W10944   8.386   2.685  39.754 -0.2472 -0.0816 -0.1130
 8745W        W10945   6.147   5.966   8.388 -0.2183 -0.1602  0.0079
 8746W        W10946  18.859   5.184  21.970  0.1897  0.1745 -0.0485
 8747W        W10947   1.597   3.917   4.814  0.0278 -0.1186  0.1808
 8748W        W10948  13.176   0.412   3.962 -0.1596 -0.1894  0.1233
 8749W        W10949  20.245   2.171  29.727 -0.0453  0.1876  0.0247
 8750W        W10950   8.800   0.065  12.842  0.0542  0.0656  0.1048
 8751W        W10951  17.536   2.023  14.171 -0.0296 -0.0206 -0.1755
 8752W        W10952   9.654   4.622  15.373 -0.1663 -0.0105  0.3442
 8753W        W10953  15.366   0.016  43.740 -0.0166 -0.1801  0.1575
 8754W        W10954   1.010   1.504   4.256 -0.0049 -0.0627  0.1735
 8755W        W10955  20.879   1.830  41.019 -0.0260  0.2004  0.1609
 8756W        W10956   9.487   4.909  44.073 -0.1587  0.0135  0.2083
 8757W        W10957  18.435   3.643  32.391  0.2689 -0.1459  0.0018
 8758W        W10958   9.172   3.983  18.456  0.0982 -0.1666  0.1876
 8759W        W10959  14.307   1.852  15.030  0.0443 -0.1255 -0.0451
 8760W        W10960  16.489   2.587  12.155  0.0448 -0.1334  0.2989
 8761W        W10961   4.484   3.830  10.953  0.0083 -0.0731  0.4303
 8762W        W10962  15.945   0.527  16.805  0.4044 -0.2482  0.0630
 8763W        W10963  19.678   3.043  35.200  0.1232 -0.1255 -0.5265
 8764W        W10964  16.888   6.469   9.886  0.0812 -0.3650  0.3246
 8765W        W10965  11.692   1.978  33.614  0.1973 -0.1811 -0.0734
 8766W        W10966   1.401   3.433  24.017  0.0902 -0.1359 -0.1305
 8767W        W10967  18.558   6.063  38.626  0.0290  0.1395 -0.0982
 8768W        W10968  17.043   0.312  44.243 -0.0300  0.1672 -0.1064
 8769W        W10969  20.110   5.720   5.356  0.1756  0.0540  0.0936
 8770W        W10970   7.573   1.062   6.789  0.2970 -0.1935  0.0372
 8771W        W10971   0.023   1.621   0.080 -0.3838  0.2116  0.0848
 8772W        W10972   6.638   4.965   4.419 -0.2366 -0.0011 -0.3638
 8773W        W10973   4.135   5.696  10.515  0.1160 -0.0689 -0.2711
 8774W        W10974  19.896   0.172   4.067 -0.2072 -0.2668 -0.2471
 8775W        W10975  19.727   1.667  41.685  0.3866  0.2505 -0.2733
 8776W        W10976  19.564   2.021  35.597 -0.0160  0.3757  0.2306
 8777W        W10977   5.576   5.525  35.285 -0.1183  0.1144  0.0732
 8778W        W10978  12.401   3.367  35.286 -0.3089 -0.0199 -0.1210
 8779W        W10979  16.428   3.908  14.865 -0.2354 -0.2516  0.0703
 8780W        W10980  20.723   0.055  42.848  0.1529 -0.0423  0.1680
 8781W        W10981   3.070   3.561   6.352 -0.1789 -0.1264  0.1755
 8782W        W10982  14.015   2.560  34.819 -0.0269  0.2533  0.2070
 8783W        W10983  14.761   5.502   4.686 -0.1585  0.0447  0.4317
 8784W        W10984  16.861   4.935  37.248 -0.2295 -0.0145  0.2533
 8785W        W10985   2.244   4.533   5.331  0.0691  0.0521  0.0921
 8786W        W10986  11.584   3.297  45.000  0.0110 -0.2128  0.1045
 8787W        W10987   0.952   3.621   5.533 -0.0440  0.3873  0.4035
 8788W        W10988   4.813   4.619  30.822 -0.0185  0.1307  0.0080
 8789W        W10989   4.822   6.098  43.598  0.0855  0.2487 -0.2629
 8790W        W10990  10.797   4.642  14.684  0.0651 -0.1689  0.1562
 8791W        W10991  10.695   0.979   6.069 -0.1202  0.1954 -0.0817
 8792W        W10992  10.097   0.963   2.590 -0.2273  0.1729 -0.1329
 8793W        W10993  10.394   5.288  42.296 -0.0922  0.0102  0.2618
 8794W        W10994  19.226   6.435  11.354 -0.2162  0.0188 -0.2187
 8795W        W10995  12.142   4.146  32.836 -0.1077  0.0664 -0.0693
 8796W        W10996   1.557   3.547  10.793 -0.0413  0.0859  0.4146
 8797W        W10997  16.891   5.371  12.497  0.2495  0.1769 -0.1172
 8798W        W10998   8.558   5.866  14.083 -0.1272 -0.1425  0.2016
 8799W        W10999  12.222   2.198   8.742  0.1379 -0.1937 -0.1629
 8800W        W11000  11.213   4.091  28.144  0.0198 -0.2157 -0.0560
 8801W        W11001   1.166   5.510   4.496 -0.2331 -0.2257  0.3017
 8802W        W11002  15.910   6.206  41.349 -0.1143  0.1463  0.0764
 8803W        W11003   2.562   6.095  11.123  0.1220 -0.0889  0.2781
 8804W        W11004   4.611   3.975  35.357  0.2164  0.2612  0.1483
 8805W        W11005   2.353   5.890   5.432  0.2362 -0.1545  0.1831
 8806W        W11006   3.358   2.660  26.516 -0.0360  0.0210 -0.0740
 8807W        W11007  13.733   4.385  37.098 -0.0816  0.1126 -0.0838
 8808W        W11008   9.724   4.807  17.511 -0.1447 -0.0926  0.1061
 8809W        W11009   7.469   1.817  38.749  0.0873 -0.0622 -0.2383
 8810W        W11010   8.333   2.787  20.997 -0.0622 -0.1309  0.1726
 8811W        W11011  18.174   4.749   3.639  0.1369 -0.0902  0.1752
 8812W        W11012  19.970   3.409  45.040  0.1098  0.2164  0.0900
 8813W        W11013  11.722   2.277   2.428  0.0600 -0.0979 -0.2744
 8814W        W11014  19.616   2.335   9.195  0.2427 -0.2717  0.2183
 8815W        W11015  13.451   4.632  34.810  0.0468 -0.3708 -0.0801
 8816W        W11016  11.612   3.027   7.376  0.2841  0.0125  0.1276
 8817W        W11017   8.914   2.174  24.570 -0.1262  0.0072  0.0052
 8818W        W11018   3.301   2.725  11.525 -0.0516  0.2369  0.0326
 8819W        W11019   6.059   2.686  39.827 -0.0687  0.1135 -0.2179
 8820W        W11020  11.265   0.685  30.835 -0.0336 -0.1903  0.2941
 8821W        W11021  14.646   0.799   6.779  0.1299 -0.2166 -0.0532
 8822W        W11022   7.767   1.153  36.633  0.2847 -0.0982 -0.1012
 8823W        W11023   8.867   6.595  30.311  0.2517  0.2407 -0.2796
 8824W        W11024   0.188   1.561   7.434 -0.0386 -0.0791 -0.0197
 8825W        W11025  12.042   4.875  39.343 -0.2925 -0.0599 -0.0892
 8826W        W11026  12.882   0.289  19.841 -0.0424 -0.2928  0.0402
 8827W        W11027  16.622   6.099   9.756  0.0323  0.1838  0.1056
 8828W        W11028   8.577   3.814   3.550 -0.1240 -0.0230 -0.1490
 8829W        W11029   9.292   3.671  32.187 -0.2710  0.0204  0.0969
 8830W        W11030  16.222   0.716  14.799  0.1564  0.0308 -0.1027
 8831W        W11031   1.911   1.674   9.438 -0.1598  0.0061 -0.2869
 8832W        W11032  10.548   3.851  12.874  0.0262  0.1939 -0.0230
 8833W        W11033   0.100   5.088   6.524  0.2044  0.1232 -0.0737
 8834W        W11034   7.701   0.852  32.659 -0.0852 -0.0961  0.0288
 8835W        W11035   4.217   3.632  13.082  0.0030 -0.3831 -0.0905
 8836W        W11036   5.842   2.479  29.492  0.2396 -0.2041  0.2840
 8837W        W11037   4.502   2.651  27.835 -0.1288  0.1660 -0.2245
 8838W        W11038  10.508   4.811   4.547 -0.0421  0.2807 -0.0427
 8839W        W11039  12.163   5.655  11.305 -0.0584  0.1445 -0.1423
 8840W        W11040   6.960   0.798  12.016  0.2487 -0.2385  0.0079
 8841W        W11041   2.456   0.518  43.178  0.0796 -0.0968 -0.2235
 8842W        W11042  15.080   4.749  33.326 -0.0153 -0.1287  0.1841
 8843W        W11043  20.898   0.855  32.579  0.1117 -0.0367 -0.3789
 8844W        W11044  19.765   6.312  10.724  0.1674 -0.0648  0.0616
 8845W        W11045  20.401   2.017   9.859 -0.0080 -0.1462  0.1544
 8846W        W11046   8.196   2.860  15.772 -0.3293 -0.1044 -0.0874
 8847W        W11047   9.773   0.059  42.423 -0.0458 -0.1386  0.0984
 8848W        W11048  14.684   3.237  13.042  0.1982  0.0456 -0.0723
 8849W        W11049   5.026   1.773  14.894 -0.0794  0.2093  0.0995
 8850W        W11050  20.922   3.713  32.029  0.0143  0.0561  0.0870
 8851W        W11051  20.657   4.434  12.673 -0.1849 -0.2213 -0.1182
 8852W        W11052   8.634   4.548  39.451 -0.0021 -0.2789 -0.2148
 8853W        W11053   9.569   0.582   3.249 -0.2918  0.0989 -0.0640
 8854W        W11054   2.208   0.424  41.759 -0.1453 -0.1839  0.2064
 8855W        W11055   9.864   5.683  16.555  0.0025 -0.0948  0.0222
 8856W        W11056   8.195   3.965  17.499 -0.1033 -0.1968 -0.3019
 8857W        W11057  18.741   4.743   0.937 -0.0484 -0.1414  0.1648
 8858W        W11058  12.314   2.141  22.481 -0.2528  0.1148 -0.2261
 8859W        W11059   0.315   2.512  44.758  0.0947 -0.1317 -0.0924
 8860W        W11060  20.247   6.096  28.993 -0.1804 -0.1717 -0.0485
 8861W        W11061  19.160   3.925  23.067  0.0911 -0.2725 -0.1578
 8862W        W11062   5.371   0.159   2.525 -0.0135 -0.0810 -0.1178
 8863W        W11063  13.761   0.138  27.437 -0.0109 -0.1032  0.1814
 8864W        W11064  16.604   5.703  31.786  0.1009  0.0130 -0.1322
 8865W        W11065   0.487   1.704  43.177  0.0083  0.1021  0.0239
 8866W        W11066  13.056   3.066  21.379  0.0115 -0.0927  0.2386
 8867W        W11067  12.635   3.979  12.015  0.2208  0.1813 -0.2289
 8868W        W11068   5.053   6.452  14.106 -0.1386 -0.2712 -0.0485
 8869W        W11069   8.240   0.931  15.658 -0.0489  0.1170 -0.1583
 8870W        W11070  13.509   5.032  33.923  0.1207  0.0883 -0.1412
 8871W        W11071   9.348   5.061  10.201 -0.0116  0.0584 -0.1247
 8872W        W11072  11.153   5.250  36.225 -0.1149 -0.1845  0.1044
 8873W        W11073  16.015   0.563  11.252 -0.0642  0.1041  0.0670
 8874W        W11074  20.325   3.711  20.418 -0.1149  0.2816  0.2668
 8875W        W11075   4.774   1.442   0.578 -0.3107 -0.2025  0.3795
 8876W        W11076  18.705   4.059  15.527  0.0153 -0.0660 -0.0395
 8877W        W11077   7.014   1.440  31.940  0.1019 -0.1975  0.0079
 8878W        W11078   5.035   2.974   5.892 -0.0076 -0.0560  0.1347
 8879W        W11079  17.046   1.928   3.801  0.0343 -0.0965 -0.2402
 8880W        W11080   4.439   5.330  38.697  0.1798  0.1826 -0.0859
 8881W        W11081  21.008   2.949  30.094  0.1632  0.0957  0.1378
 8882W        W11082  13.276   2.822   6.660  0.0741  0.2462 -0.0388
 8883W        W11083  13.095   0.118  32.977 -0.3863  0.2348 -0.2133
 8884W        W11084  15.332   4.645  26.213  0.2952 -0.0058  0.1509
 8885W        W11085   5.142   1.393  12.170 -0.0019  0.1134  0.2369
 8886W        W11086  10.508   4.127  43.052 -0.3337  0.3513 -0.1558
 8887W        W11087  14.531   2.426  44.439  0.1962  0.0949  0.1891
 8888W        W11088   7.427   5.794  39.327  0.0615  0.2875  0.2130
 8889W        W11089  15.008   0.362  12.257  0.1865 -0.0062  0.0204
 8890W        W11090   8.552   2.805  34.187  0.1983  0.0316  0.1324
 8891W        W11091   0.833   2.463  41.859  0.1393 -0.1599 -0.1882
 8892W        W11092  12.745   3.305  18.839  0.1892 -0.2295 -0.1731
 8893W        W11093  20.662   5.117  13.176 -0.1817  0.1776 -0.2054
 8894W        W11094   1.716   5.311  12.270 -0.1630 -0.1480  0.1387
 8895W        W11095  16.695   5.585  15.407  0.0814 -0.1635 -0.0151
 8896W        W11096  18.879   2.989  28.725  0.0417  0.1899  0.0414
 8897W        W11097  18.833   6.265   8.962  0.1741  0.1286  0.2409
 8898W        W11098   8.208   1.006  44.757  0.0823 -0.3545  0.0971
 8899W        W11099  15.334   6.367   3.148 -0.0405  0.1222 -0.0096
 8900W        W11100   6.501   2.978   8.923 -0.3463  0.2040  0.3488
 8901W        W11101  11.347   2.534  35.595  0.3837  0.2798 -0.0507
 8902W        W11102   8.386   0.777  34.961 -0.0765  0.1271  0.1503
 8903W        W11103   2.020   4.385  29.434 -0.1383 -0.1582  0.0828
 8904W        W11104   4.863   3.799  18.709  0.0938  0.0895  0.0480
 8905W        W11105   7.281   2.300  36.792  0.0935 -0.1290 -0.0729
 8906W        W11106   5.231   3.449  40.678 -0.0837 -0.1286  0.1503
 8907W        W11107  12.124   2.570   7.589  0.1024  0.3043 -0.2688
 8908W        W11108  18.133   5.286  21.369 -0.0743  0.1133 -0.1513
 8909W        W11109  17.865   4.227  43.825 -0.0799 -0.1900 -0.0377
 8910W        W11110   9.631   1.301  24.720 -0.3236 -0.1859 -0.1196
 8911W        W11111   5.964   3.316  35.947  0.1163  0.0732  0.2377
 8912W        W11112   7.218   0.949   5.014  0.3723 -0.1754  0.2470
 8913W        W11113   6.964   3.041  31.383 -0.0001 -0.0712  0.1960
 8914W        W11114   0.859   2.864   9.469  0.3039 -0.1499 -0.0351
 8915W        W11115   2.760   4.850  26.433 -0.0622 -0.2575  0.1842
 8916W        W11116  10.265   5.124  13.762 -0.0315  0.0362 -0.0420
 8917W        W11117  17.511   1.888  39.029 -0.1078 -0.0131 -0.0137
 8918W        W11118  19.241   1.075   6.575 -0.0201  0.0853  0.2093
 8919W        W11119  11.309   2.091  37.050  0.1992 -0.0454 -0.1228
 8920W        W11120  19.096   2.556  27.387  0.2983  0.2198  0.0170
 8921W        W11121   3.968   3.461  42.248  0.0505 -0.2012 -0.1963
 8922W        W11122  15.644   5.538  15.392  0.0561  0.2357 -0.0219
 8923W        W11123  19.516   3.449   9.229  0.2039  0.0918 -0.0641
 8924W        W11124  19.111   5.138  11.092 -0.1556 -0.0373  0.3129
 8925W        W11125   4.868   5.766  38.763 -0.0846  0.0165  0.2493
 8926W        W11126  10.905   3.891  37.183  0.1512  0.0780 -0.1404
 8927W        W11127  19.629   6.230  39.068  0.0772  0.2930  0.1162
 8928W        W11128   1.280   2.987  30.662 -0.1451 -0.0107  0.0838
 8929W        W11129   5.838   0.041  16.732  0.0203 -0.1289 -0.0831
 8930W        W11130  20.055   1.721   9.585  0.3248 -0.0862  0.2508
 8931W        W11131  18.940   0.097  38.609  0.3019  0.3204  0.2570
 8932W        W11132   4.763   4.786  11.180  0.2280 -0.2406 -0.1793
 8933W        W11133  12.730   4.233  44.568 -0.0549  0.3782 -0.1267
 8934W        W11134  17.035   5.217   6.060 -0.2231  0.0381  0.1762
 8935W        W11135  14.865   1.622   4.275  0.0984 -0.1971 -0.2691
 8936W        W11136   7.319   1.250  34.776  0.0622 -0.2272  0.0844
 8937W        W11137   1.526   3.970  34.685 -0.0204  0.1368  0.1817
 8938W        W11138  15.013   4.715  17.372  0.0578 -0.0349  0.0110
 8939W        W11139   7.270   5.206  33.723 -0.1957 -0.2753 -0.0292
 8940W        W11140   8.720   5.691  38.480  0.0980 -0.0726  0.4008
 8941W        W11141   4.711   0.923  32.219  0.1314 -0.0247 -0.0712
 8942W        W11142   9.423   3.169  20.074 -0.2138 -0.0087  0.0695
 8943W        W11143  16.029   0.675  29.644 -0.2873 -0.1294  0.2235
 8944W        W11144  11.769   4.473  41.270 -0.3847  0.1614 -0.1506
 8945W        W11145  18.666   0.443  29.400 -0.3542 -0.2970 -0.0391
 8946W        W11146  18.065   1.948  41.015  0.0330 -0.0241 -0.0435
 8947W        W11147   9.875   1.476  44.426  0.0751  0.2401 -0.2039
 8948W        W11148   0.276   5.257   4.637  0.1110  0.2379 -0.0747
 8949W        W11149   5.773   1.227  44.911 -0.0654  0.5290  0.1839
 8950W        W11150  18.123   4.276  35.097 -0.1130 -0.0462  0.0492
 8951W        W11151  16.604   4.194  27.658  0.1669  0.1845 -0.4324
 8952W        W11152   4.901   2.663  33.627  0.0123 -0.2649  0.0910
 8953W        W11153   3.546   5.990   6.605  0.2418  0.2066 -0.0559
 8954W        W11154   2.869   5.673  43.530 -0.3890  0.1197 -0.0572
 8955W        W11155   0.348   5.338  25.570  0.1957  0.2326  0.1135
 8956W        W11156   8.451   2.929   9.178 -0.1036  0.1379  0.1118
 8957W        W11157  15.020   1.646  16.513  0.0089  0.0719 -0.0672
 8958W        W11158  18.686   1.407  29.704  0.1428  0.1879  0.0545
 8959W        W11159  14.660   1.474  31.739 -0.1829 -0.0867 -0.0380
 8960W        W11160   6.567   0.637  41.648 -0.2902  0.0718 -0.2129
 8961W        W11161  19.961   2.146  40.413 -0.2390  0.1511  0.2672
 8962W        W11162  13.492   2.702  13.121  0.1255 -0.2211 -0.0108
 8963W        W11163   3.504   3.822  35.659  0.3459 -0.0532  0.2555
 8964W        W11164  16.101   6.275  26.652  0.2397 -0.2072  0.2676
 8965W        W11165   8.246   3.183  20.650 -0.1524 -0.4464  0.2546
 8966W        W11166  10.206   0.763   4.877 -0.1108 -0.0398  0.0759
 8967W        W11167  10.207   5.229  26.179  0.3459 -0.0749  0.1258
 8968W        W11168   4.891   3.420   4.882 -0.0752 -0.1480  0.3638
 8969W        W11169  20.214   3.276  20.908  0.3370  0.0609 -0.2461
 8970W        W11170  12.739   6.024  16.929 -0.2459 -0.0591 -0.0705
 8971W        W11171  16.918   5.789  25.779 -0.1082  0.1239  0.0976
 8972W        W11172  19.597   4.243  37.420  0.1748 -0.0660 -0.0685
 8973W        W11173  19.282   5.581   0.680 -0.0394  0.1259  0.1030
 8974W        W11174  18.310   5.498  29.319  0.1659 -0.0590  0.1306
 8975W        W11175  17.222   2.837  30.183 -0.1104  0.0302 -0.1036
 8976W        W11176  12.851   2.873  11.193  0.0838  0.0867  0.2005
 8977W        W11177  12.607   3.293  16.187 -0.1353 -0.0069 -0.0794
 8978W        W11178  14.211   1.948  11.767  0.0888  0.0435  0.1190
 8979W        W11179  10.318   6.471  29.705 -0.1361  0.3136 -0.0373
 8980W        W11180   0.216   4.601   2.158  0.2309  0.2443 -0.1829
 8981W        W11181   3.459   1.872   6.561  0.0574  0.2461 -0.1848
 8982W        W11182   0.853   5.181  38.002  0.3521 -0.4601  0.0534
 8983W        W11183   1.268   0.804  24.555  0.1408  0.1562  0.1639
 8984W        W11184   2.367   4.122  17.197 -0.0644 -0.2634  0.0720
 8985W        W11185  12.447   1.967   7.510 -0.0029  0.1296  0.1682
 8986W        W11186  19.287   2.364   8.754 -0.1233  0.0892 -0.4256
 8987W        W11187  10.020   6.059  18.033 -0.2147  0.1181 -0.2868
 8988W        W11188   8.743   5.822   5.957 -0.2512  0.2924  0.1451
 8989W        W11189  17.764   5.641  12.590  0.0975 -0.2840 -0.1450
 8990W        W11190   3.787   3.785  13.348  0.0886 -0.0468 -0.1318
 8991W        W11191   4.147   0.617  29.346 -0.3559  0.3429 -0.0101
 8992W        W11192  12.035   5.979  34.907 -0.0022  0.1684  0.2032
 8993W        W11193   4.908   2.203  36.165 -0.2516 -0.0273 -0.2942
 8994W        W11194   3.511   0.910   3.659  0.0373  0.0689  0.1187
 8995W        W11195   5.141   4.602   5.907  0.0287 -0.0521  0.1248
 8996W        W11196  19.733   5.117   2.585  0.2217 -0.0359  0.0985
 8997W        W11197  19.403   0.201   6.234  0.0608  0.0300 -0.1874
 8998W        W11198  11.746   2.891  30.416 -0.1741 -0.0159  0.1504
 8999W        W11199  10.254   1.022  42.501 -0.2062  0.0423 -0.2430
 9000W        W11200   4.334   3.128  41.758 -0.0226  0.1963  0.2390
 9001W        W11201  20.795   6.397  37.512 -0.1620 -0.0469 -0.4620
 9002W        W11202  20.845   0.089   1.908  0.0708 -0.0575  0.0660
 9003W        W11203  12.541   1.697   9.503  0.0084  0.2122 -0.1400
 9004W        W11204   7.922   2.018  44.544 -0.0785  0.0753 -0.0993
 9005W        W11205  17.258   2.246   0.636 -0.0548 -0.1226  0.1058
 9006W        W11206   3.787   1.907   0.606  0.2137  0.1262 -0.0171
 9007W        W11207  15.028   0.647   0.846 -0.1483  0.3238  0.1393
 9008W        W11208  18.492   3.367  31.956  0.1073 -0.1841 -0.1966
 9009W        W11209   4.416   4.059   6.298  0.0312  0.0670  0.1210
 9010W        W11210   3.504   6.169  15.831 -0.0922 -0.0174 -0.1954
 9011W        W11211  10.397   6.065  10.845  0.1529  0.0509  0.1574
 9012W        W11212  15.186   6.324  32.608 -0.0608  0.2171 -0.2723
 9013W        W11213  13.660   1.395  29.093  0.2413 -0.2868 -0.1220
 9014W        W11214   9.715   5.901  33.783  0.2836 -0.2558  0.0286
 9015W        W11215  13.550   2.768  29.440  0.1504 -0.1022  0.1585
 9016W        W11216   5.318   4.808  30.689 -0.0272  0.1837 -0.0850
 9017W        W11217  16.157   5.855  10.935 -0.3193 -0.4514 -0.0281
 9018W        W11218   2.977   4.740  34.064 -0.0319 -0.0149 -0.0283
 9019W        W11219  19.253   1.515   2.590  0.0883 -0.2624 -0.3132
 9020W        W11220  11.837   1.553   3.192 -0.1195 -0.3257 -0.1965
 9021W        W11221  19.292   6.139  28.479 -0.0612 -0.0154 -0.2919
 9022W        W11222   9.079   0.613  33.188  0.3848 -0.2296 -0.2731
 9023W        W11223   3.204   5.282  36.780  0.0182 -0.2734 -0.0390
 9024W        W11224   5.357   3.586  39.421 -0.1136  0.0735  0.0953
 9025W        W11225   8.602   2.293  18.930 -0.3444 -0.3783  0.0982
 9026W        W11226   0.378   4.603  31.552 -0.0822  0.3755 -0.1697
 9027W        W11227   0.371   6.492  41.615  0.0117 -0.0331  0.1576
 9028W        W11228  12.428   5.184  17.059  0.0995  0.0599 -0.2694
 9029W        W11229   6.028   3.243  36.786  0.3975  0.1823 -0.0057
 9030W        W11230  20.875   6.039  35.088  0.1681 -0.2567  0.0570
 9031W        W11231  20.183   5.788  28.572 -0.0089 -0.0540 -0.0130
 9032W        W11232  17.352   2.045  27.217  0.1877 -0.0296 -0.2439
 9033W        W11233   8.576   3.992  18.704 -0.0213 -0.0575 -0.1538
 9034W        W11234   1.086   3.942  40.980 -0.1137  0.0745  0.1516
 9035W        W11235  14.536   1.869  39.904  0.0373 -0.0511 -0.2233
 9036W        W11236   1.304   5.728   7.516  0.0375  0.2201 -0.1185
 9037W        W11237  12.533   1.136  14.762 -0.1546  0.0770 -0.0976
 9038W        W11238   1.773   2.882  35.703  0.0891 -0.1078 -0.2793
 9039W        W11239   1.081   2.029  29.886 -0.0645  0.1942  0.0385
 9040W        W11240   0.042   1.443   8.751 -0.0558 -0.1896 -0.0635
 9041W        W11241   6.295   2.188  36.813 -0.1021 -0.2187  0.0513
 9042W        W11242  19.552   2.890  12.276 -0.2529 -0.1023  0.1295
 9043W        W11243   9.275   1.105  43.851 -0.1886 -0.2450 -0.0212
 9044W        W11244   2.183   1.864  32.961  0.1191  0.0608  0.1486
 9045W        W11245  10.818   5.227  30.296 -0.1035 -0.1269 -0.1324
 9046W        W11246  15.652   5.236  39.340  0.0902  0.0606 -0.3533
 9047W        W11247   2.706   3.679   2.713  0.0451  0.1000 -0.0492
 9048W        W11248  18.062   3.984  36.933  0.0131  0.1361 -0.1636
 9049W        W11249   6.399   0.368  40.176  0.1232  0.0051 -0.2089
 9050W        W11250  18.167   0.055  15.788  0.1161 -0.1629 -0.3739
 9051W        W11251  20.314   3.360  44.594 -0.1498  0.1291 -0.0362
 9052W        W11252  12.059   0.382  38.782  0.0732  0.2384 -0.1105
 9053W        W11253  17.825   0.793   9.167  0.1954 -0.0054 -0.3548
 9054W        W11254  14.052   3.108   8.868  0.1967  0.1254 -0.1323
 9055W        W11255   3.280   3.402  44.466  0.0778 -0.1466  0.0565
 9056W        W11256   2.447   4.892   8.057  0.1625  0.2105 -0.0566
 9057W        W11257  20.900   4.525   8.094 -0.1351  0.1142 -0.0099
 9058W        W11258  11.243   5.059  20.303  0.0087 -0.1253  0.1971
 9059W        W11259  18.870   3.178   1.057  0.0850  0.0212 -0.1279
 9060W        W11260   2.361   5.099  35.173  0.0952  0.1138 -0.3215
 9061W        W11261  11.232   2.677  12.995 -0.0501 -0.1271 -0.3203
 9062W        W11262   5.165   3.575  12.646  0.0388 -0.0355  0.1212
 9063W        W11263  13.245   4.240  10.476  0.2255 -0.0245 -0.1934
 9064W        W11264   4.768   4.919  14.775  0.1956 -0.1257  0.1090
 9065W        W11265   7.768   3.705  42.269  0.0248  0.1933  0.2641
 9066W        W11266   5.413   4.001  38.729 -0.0735 -0.0481 -0.4215
 9067W        W11267   7.956   0.666  10.035 -0.1921  0.1604  0.4330
 9068W        W11268   6.710   6.428  34.281  0.0333 -0.0611 -0.2650
 9069W        W11269   0.750   0.465  11.612  0.0650 -0.1823  0.0146
 9070W        W11270   1.287   2.392   3.769  0.2097  0.1025 -0.1155
 9071W        W11271   2.507   3.617  32.289  0.1227  0.3450 -0.0928
 9072W        W11272  18.204   0.455   7.877  0.1745  0.0024  0.0404
 9073W        W11273   3.161   2.823  30.899 -0.0807 -0.3515  0.1453
 9074W        W11274  18.135   2.880  37.079 -0.4969 -0.0014  0.2083
 9075W        W11275  18.722   1.970  42.664  0.1004 -0.0803  0.3043
 9076W        W11276   1.597   3.918  41.125  0.0052 -0.0505  0.2466
 9077W        W11277   0.827   1.792  39.217  0.1181 -0.1176  0.0407
 9078W        W11278  19.117   0.428  29.056  0.0048 -0.2163  0.1036
 9079W        W11279  18.286   0.542  14.925  0.1968  0.3628 -0.0109
 9080W        W11280   4.517   4.808   4.428  0.0991  0.2104 -0.0837
 9081W        W11281  16.955   5.535  42.108  0.3334 -0.0300 -0.2935
 9082W        W11282  10.483   1.235   6.650  0.0377  0.1203 -0.2406
 9083W        W11283  18.083   3.745  43.740  0.1645 -0.0607 -0.0008
 9084W        W11284   7.521   4.248  19.282  0.1265  0.0383 -0.0608
 9085W        W11285  18.645   4.449  14.739  0.2517  0.2417 -0.1481
 9086W        W11286  10.677   5.297  34.902  0.2668 -0.1709  0.1377
 9087W        W11287   4.343   2.230  43.656 -0.3433  0.0154  0.0122
 9088W        W11288   1.932   4.109   4.411  0.2578  0.1303  0.0466
 9089W        W11289   4.121   6.038   3.802  0.1160 -0.0327 -0.0375
 9090W        W11290   3.367   3.945  33.351 -0.1400 -0.2015  0.1721
 9091W        W11291   0.064   4.645  35.404  0.0536 -0.0587 -0.1394
 9092W        W11292   0.484   1.047   3.120  0.2406 -0.1837 -0.2200
 9093W        W11293   7.288   5.519  33.339 -0.1048 -0.2586  0.0431
 9094W        W11294  16.636   2.545  44.375 -0.0836  0.1267  0.1894
 9095W        W11295   7.664   0.313   2.438 -0.1001  0.1736 -0.4123
 9096W        W11296   2.854   5.389  33.214  0.3846 -0.1534  0.2219
 9097W        W11297  10.295   1.242  31.336 -0.1429  0.1330  0.2171
 9098W        W11298   0.169   1.516  40.157 -0.2530  0.1221 -0.1851
 9099W        W11299   6.426   1.824  32.801 -0.0805  0.1719 -0.0126
 9100W        W11300  13.837   5.544  15.502 -0.1460 -0.2394 -0.1458
 9101W        W11301  17.618   3.714  29.904  0.1704 -0.0325  0.2509
 9102W        W11302  12.759   5.053  13.750 -0.0608  0.0924 -0.2492
 9103W        W11303  17.769   6.434   7.130  0.0851 -0.0895 -0.2221
 9104W        W11304  16.742   1.130  43.883  0.3319  0.0120 -0.1818
 9105W        W11305   3.769   3.956  30.752 -0.6436 -0.2264  0.1538
 9106W        W11306  20.276   4.185  34.651 -0.2504  0.2613  0.0297
 9107W        W11307  16.465   5.444  38.230  0.0969 -0.0802  0.3367
 9108W        W11308   8.375   1.488   2.515  0.0430 -0.0987 -0.0463
 9109W        W11309  17.876   5.583  44.111  0.1075  0.0749 -0.0616
 9110W        W11310  13.958   6.113  13.525  0.1341  0.0397 -0.0508
 9111W        W11311  17.880   2.727  12.079 -0.3486 -0.3305  0.2235
 9112W        W11312  10.411   2.755   4.035 -0.2110  0.0835 -0.0900
 9113W        W11313  16.927   1.393  30.345  0.3128 -0.1437 -0.2751
 9114W        W11314   9.354   0.715  19.712 -0.0812 -0.0172  0.0350
 9115W        W11315   5.079   6.135  44.031 -0.1503  0.2543 -0.0520
 9116W        W11316  11.773   0.926  39.421  0.1807 -0.0759  0.0701
 9117W        W11317   1.753   4.977  28.227  0.0408 -0.2888 -0.2324
 9118W        W11318  11.673   6.474  37.854  0.0686  0.2073 -0.1539
 9119W        W11319  16.824   4.731  26.973 -0.0374 -0.2565  0.0219
 9120W        W11320   7.084   0.431  31.597 -0.1237  0.1655 -0.2659
 9121W        W11321  15.204   2.060  28.840  0.1467  0.0966 -0.0824
 9122W        W11322  16.520   6.295   2.501  0.2896  0.0545  0.1888
 9123W        W11323   4.551   6.574  13.878 -0.2305  0.4186 -0.2890
 9124W        W11324   9.849   3.952   4.994  0.0664 -0.1467 -0.1805
 9125W        W11325   4.064   4.333  14.855 -0.1397  0.2163  0.0470
 9126W        W11326  20.835   0.398  11.795 -0.2287  0.2788 -0.1250
 9127W        W11327  19.813   4.915  30.331  0.2627 -0.0991  0.2417
 9128W        W11328  16.774   2.102  11.919  0.1428  0.1808 -0.1817
 9129W        W11329   0.704   2.776  26.133  0.0200  0.1397 -0.0905
 9130W        W11330  19.754   6.417  43.211 -0.1658  0.0420  0.2066
 9131W        W11331  14.862   1.162  15.621  0.0367  0.1258  0.2629
 9132W        W11332   0.505   4.210  22.310  0.0074 -0.0535  0.1764
 9133W        W11333  19.890   3.306   9.939  0.2295 -0.0335 -0.0066
 9134W        W11334  18.227   4.670  39.255 -0.1311 -0.1947  0.0127
 9135W        W11335  18.469   1.390   0.643  0.0190 -0.1210 -0.0375
 9136W        W11336   5.256   0.904   9.977 -0.0435  0.1440 -0.2105
 9137W        W11337   6.667   1.605  45.002  0.0756 -0.1352  0.1212
 9138W        W11338  18.420   2.143  41.419 -0.1624 -0.0436 -0.2649
 9139W        W11339  17.055   3.217   0.908  0.3395 -0.1978  0.0444
 9140W        W11340   8.694   5.974  38.031  0.0443 -0.0023 -0.2464
 9141W        W11341   4.465   2.114   2.300 -0.1206 -0.0867 -0.3896
 9142W        W11342  17.237   2.314  15.378  0.1929 -0.0290 -0.0698
 9143W        W11343   9.201   5.667  36.811  0.0989  0.0721  0.0754
 9144W        W11344  19.587   3.096  43.578  0.0869 -0.0030  0.0433
 9145W        W11345  15.828   2.544  28.260 -0.0877  0.0890  0.1832
 9146W        W11346  20.426   3.571  40.340  0.0623 -0.2660 -0.1073
 9147W        W11347   1.869   1.344  32.235  0.1688 -0.1518  0.0554
 9148W        W11348   9.363   5.307   7.936  0.2265 -0.0272  0.1658
 9149W        W11349  12.776   0.443  12.739  0.2067  0.1451 -0.2335
 9150W        W11350   9.401   2.232  34.869 -0.1476 -0.0815 -0.2963
 9151W        W11351  18.269   4.900   9.007  0.2948 -0.0009 -0.1212
 9152W        W11352  10.215   3.014  19.993 -0.1173 -0.0114  0.1141
 9153W        W11353   2.780   1.311  32.511 -0.0669 -0.1716 -0.2083
 9154W        W11354   6.822   0.129  36.431  0.1541 -0.2229  0.2724
 9155W        W11355  12.336   3.339  43.252 -0.3574 -0.0673 -0.1626
 9156W        W11356  19.318   1.032  44.932 -0.0724 -0.0329 -0.1683
 9157W        W11357   8.536   5.837  23.461 -0.1700 -0.0555  0.1694
 9158W        W11358   8.677   0.760   5.337 -0.1352  0.0691 -0.1598
 9159W        W11359  12.859   1.085   9.026  0.2293  0.0426  0.0020
 9160W        W11360   2.509   0.313  39.668  0.1258 -0.2380 -0.0286
 9161W        W11361   4.458   6.374  40.223  0.0624 -0.1223 -0.3177
 9162W        W11362  12.930   3.617  40.435 -0.0375 -0.1309  0.3730
 9163W        W11363   8.987   0.020  39.627 -0.2410  0.0329  0.2578
 9164W        W11364  15.011   2.092   6.750  0.2216 -0.3514 -0.1400
 9165W        W11365   4.986   4.284  11.105  0.1959  0.0510  0.2411
 9166W        W11366   0.360   0.846  26.184 -0.1025  0.1828  0.0606
 9167W        W11367  10.763   5.893   9.237 -0.1758 -0.2014  0.2383
 9168W        W11368   8.307   4.450  42.033 -0.0764  0.0505  0.1748
 9169W        W11369   6.839   6.415  10.605 -0.1266  0.3389 -0.1580
 9170W        W11370  10.400   1.605  31.025 -0.1769  0.2337  0.1861
 9171W        W11371   9.767   0.831  42.526 -0.1925 -0.1842 -0.0572
 9172W        W11372  12.544   3.710  41.254  0.2202 -0.0308  0.0766
 9173W        W11373  19.849   0.346  41.253 -0.3563  0.1747 -0.0305
 9174W        W11374   5.875   1.097  42.264  0.0618 -0.2363 -0.0748
 9175W        W11375  17.190   2.116   7.036  0.0073 -0.2732 -0.0536
 9176W        W11376  14.012   1.945  16.764  0.2949  0.0356 -0.1734
 9177W        W11377  15.644   5.925   7.369  0.0188  0.3993 -0.1644
 9178W        W11378  19.769   5.150   8.647 -0.3657 -0.1208 -0.0356
 9179W        W11379   7.086   6.301  29.718 -0.3046 -0.1050 -0.0064
 9180W        W11380  16.323   1.108  32.547 -0.0463 -0.3291  0.1029
 9181W        W11381  12.493   2.735  20.222 -0.1405 -0.1469  0.0210
 9182W        W11382   9.446   5.925  32.153  0.0305 -0.0883  0.1732
 9183W        W11383   1.964   4.285  41.002  0.2619 -0.0129  0.0386
 9184W        W11384   6.301   1.088   5.420  0.0294 -0.0393 -0.1678
 9185W        W11385   7.844   0.837  38.024  0.1101  0.2275 -0.0900
 9186W        W11386  18.909   4.656  26.592  0.1117  0.2375  0.0590
 9187W        W11387   4.544   1.769  13.284  0.0502 -0.1212  0.0662
 9188W        W11388   6.275   6.321  37.007  0.2401 -0.2343 -0.1325
 9189W        W11389  12.239   5.826  34.228  0.0167 -0.1022 -0.3517
 9190W        W11390  16.932   6.319  14.482 -0.2662  0.0834 -0.3518
 9191W        W11391  11.516   3.563   3.951  0.0032 -0.1033  0.2724
 9192W        W11392   0.109   2.597  37.166  0.0943 -0.0379  0.2745
 9193W        W11393  19.818   3.125  23.493  0.0727 -0.0141  0.0038
 9194W        W11394  11.455   0.658  37.344 -0.3679 -0.1303 -0.2931
 9195W        W11395   9.824   1.699  17.331  0.0818  0.0723 -0.0957
 9196W        W11396   7.271   5.338  12.858  0.0652  0.1317  0.0777
 9197W        W11397  20.317   5.962   2.818  0.0637  0.3559 -0.1724
 9198W        W11398   0.126   1.618  35.818 -0.1040 -0.2570  0.1155
 9199W        W11399   0.957   2.799  33.499  0.0316  0.2144  0.2592
 9200W        W11400   1.311   3.062   9.700  0.1049  0.1548  0.0964
 9201W        W11401  18.555   5.119  41.232 -0.1840 -0.0638 -0.1440
 9202W        W11402  11.298   6.513  34.598  0.1559 -0.1387 -0.1147
 9203W        W11403   9.315   2.229   5.885 -0.0336 -0.1686 -0.1020
 9204W        W11404   5.512   4.416  13.520  0.0349  0.0722 -0.2210
 9205W        W11405  12.146   4.755   4.629 -0.1315 -0.1684  0.2866
 9206W        W11406   7.826   5.971   7.246  0.0092 -0.0665  0.1485
 9207W        W11407   9.705   5.742  40.727 -0.4961 -0.2810  0.0624
 9208W        W11408  17.051   1.977  24.714  0.1978  0.0108 -0.3217
 9209W        W11409  10.964   0.967  17.176 -0.0496  0.1455 -0.0859
 9210W        W11410   3.061   0.747  36.229 -0.0892 -0.3445 -0.2158
 9211W        W11411   1.365   0.947   7.934 -0.3626  0.1878 -0.1161
 9212W        W11412  20.707   0.215   7.213  0.3204 -0.0365  0.2759
 9213W        W11413   8.387   4.579  34.065  0.1461  0.1422  0.0805
 9214W        W11414   2.171   1.042  32.639  0.0820 -0.2314 -0.0478
 9215W        W11415   8.807   1.255  41.729 -0.0604 -0.1142 -0.0013
 9216W        W11416   2.260   3.382  13.461 -0.3116  0.0022 -0.0521
 9217W        W11417   2.799   5.391  42.321 -0.0144 -0.1221 -0.3175
 9218W        W11418   4.801   3.111  17.409  0.2193 -0.0261 -0.0738
 9219W        W11419  12.436   3.185  19.321  0.2812  0.0669  0.1241
 9220W        W11420  17.715   3.521  30.985  0.0555 -0.1059  0.3490
 9221W        W11421   5.052   2.324  32.802  0.1335 -0.0595  0.1574
 9222W        W11422   6.083   5.731  36.872 -0.2785 -0.1732 -0.3150
 9223W        W11423  15.949   1.591  16.368  0.0868  0.2058 -0.2582
 9224W        W11424  11.690   3.037   5.313  0.0727  0.0229 -0.0195
 9225W        W11425   7.508   6.392  11.795 -0.0027  0.0045  0.3465
 9226W        W11426   9.205   2.405  19.678 -0.1110 -0.1161  0.2306
 9227W        W11427  10.011   5.520  19.959  0.1062  0.1083 -0.0645
 9228W        W11428  11.819   6.240  32.242 -0.4321 -0.1443  0.0072
 9229W        W11429  16.035   4.356  32.658 -0.2596  0.1405 -0.2970
 9230W        W11430   1.718   0.323  26.296  0.4896  0.1542 -0.1201
 9231W        W11431  15.227   4.634  27.314 -0.0738  0.3149  0.1904
 9232W        W11432   1.472   3.912  24.291  0.0487  0.2075 -0.0219
 9233W        W11433   6.622   3.220   3.504 -0.1804 -0.0493  0.0305
 9234W        W11434  18.553   0.309   0.743  0.1386  0.1191 -0.0642
 9235W        W11435   4.050   2.042  44.070 -0.2713 -0.0160  0.2092
 9236W        W11436  10.902   0.879  11.766 -0.0430  0.0972 -0.2844
 9237W        W11437  19.579   1.311  32.395  0.0113 -0.0150  0.0081
 9238W        W11438   2.426   5.628   4.458  0.4233 -0.0239 -0.0522
 9239W        W11439   3.777   3.047   3.383  0.0950 -0.3035 -0.0909
 9240W        W11440   7.610   0.971   0.819  0.0312 -0.0169 -0.0461
 9241W        W11441  14.665   0.454   1.177  0.1211  0.3096 -0.1674
 9242W        W11442  12.043   2.218  33.373 -0.2470 -0.2366  0.0476
 9243W        W11443  18.971   3.876  27.232  0.1590  0.0263  0.1909
 9244W        W11444   3.837   0.644  44.461 -0.1313  0.1631  0.0028
 9245W        W11445   8.456   0.023  22.793 -0.0861 -0.1394  0.2039
 9246W        W11446   5.801   0.988   3.251 -0.0284  0.1038  0.0173
 9247W        W11447  19.949   5.884  22.480 -0.0662  0.1446 -0.1153
 9248W        W11448   5.416   5.741  33.288  0.3189  0.0250 -0.1829
 9249W        W11449   6.462   0.023  13.568  0.0768 -0.3839 -0.2992
 9250W        W11450   7.210   2.487  16.228 -0.0328  0.0795  0.0543
 9251W        W11451   1.387   0.310   9.464 -0.1393 -0.0955  0.1491
 9252W        W11452   4.971   0.236   2.272  0.1989 -0.1666 -0.0151
 9253W        W11453   0.269   1.166  10.042  0.0943 -0.3770  0.0776
 9254W        W11454  15.157   0.818   7.590  0.3819 -0.4183  0.2368
 9255W        W11455  17.656   1.683  33.184  0.2662  0.1314  0.2366
 9256W        W11456  11.117   1.181  36.685  0.1469 -0.0904 -0.1171
 9257W        W11457  20.604   2.933  44.517  0.0823  0.0699  0.0502
 9258W        W11458  16.144   3.890  39.061 -0.1961 -0.0548  0.1330
 9259W        W11459   1.227   4.715  35.968  0.0121  0.2386  0.2234
 9260W        W11460   0.201   5.441   3.280 -0.1947  0.1091 -0.2732
 9261W        W11461   4.797   0.444   6.392  0.0731  0.1842 -0.2130
 9262W        W11462  15.124   1.785  43.349  0.0321  0.3936  0.0885
 9263W        W11463   7.276   0.620  41.080  0.0821  0.1804 -0.0581
 9264W        W11464  15.644   3.565  12.304 -0.0714  0.0657 -0.2434
 9265W        W11465   3.137   5.006  40.939 -0.1465  0.3446 -0.0919
 9266W        W11466  10.468   1.582  25.178  0.2566  0.0488 -0.1250
 9267W        W11467  19.333   1.073   9.402 -0.0049  0.1059  0.0644
 9268W        W11468  18.161   5.913  11.368  0.1891  0.0407  0.1686
 9269W        W11469  13.240   0.273  17.690  0.1908  0.0819  0.2219
 9270W        W11470  13.954   1.955  41.967 -0.1773  0.0005 -0.0428
 9271W        W11471  19.788   4.969  12.430 -0.2471 -0.0790 -0.0022
 9272W        W11472  11.147   2.843   7.416  0.1840  0.1594  0.0595
 9273W        W11473  14.708   3.178   1.771  0.0541  0.1002  0.1891
 9274W        W11474  11.030   4.678  43.326  0.0720 -0.0094 -0.0463
 9275W        W11475  11.578   3.966   2.254 -0.1384 -0.1850  0.2634
 9276W        W11476  19.077   4.820  24.262 -0.1425  0.1063 -0.2343
 9277W        W11477  15.282   0.798  39.466  0.0555 -0.0477  0.0117
 9278W        W11478  11.545   6.346  39.291 -0.0059 -0.1990 -0.2396
 9279W        W11479   8.078   4.382  39.477 -0.0770 -0.0934  0.0129
 9280W        W11480  18.254   4.382  30.518  0.1039  0.0966  0.1254
 9281W        W11481  18.591   2.548  38.643 -0.1414 -0.0981 -0.0211
 9282W        W11482  13.070   3.111  27.951 -0.1127  0.1657 -0.2163
 9283W        W11483  14.785   6.488   5.170  0.0279  0.1878 -0.1128
 9284W        W11484  15.185   5.229  37.787 -0.0588 -0.0170 -0.1860
 9285W        W11485   0.473   5.558  41.776  0.0690 -0.0970 -0.1029
 9286W        W11486  17.888   3.104  10.371  0.2028 -0.1142 -0.2815
 9287W        W11487  10.986   3.315   8.445 -0.0720 -0.2268 -0.0374
 9288W        W11488  19.149   1.984   5.396 -0.0129 -0.1111  0.0039
 9289W        W11489  18.770   0.728  33.677 -0.2588  0.1542 -0.1796
 9290W        W11490   9.950   4.969  25.369  0.2049 -0.1349  0.0566
 9291W        W11491   5.125   3.945  18.355 -0.2513  0.0276  0.0671
 9292W        W11492   8.597   3.665  11.320 -0.1114 -0.0724  0.0629
 9293W        W11493  15.197   6.109   1.245  0.2959  0.1003 -0.2259
 9294W        W11494   2.105   3.470   6.157 -0.0939 -0.1323 -0.0773
 9295W        W11495  14.425   4.203   1.968  0.1672  0.1709  0.1412
 9296W        W11496   0.337   2.983   7.624 -0.2751 -0.1137  0.0226
 9297W        W11497  15.513   1.418   3.059  0.1729 -0.3072  0.0273
 9298W        W11498   9.539   5.386  37.107  0.2688 -0.0007  0.2859
 9299W        W11499   4.214   1.942   2.698 -0.1626 -0.0173  0.1841
 9300W        W11500   8.775   5.422  42.279  0.0140 -0.0793 -0.2897
 9301W        W11501  19.532   6.594  29.589  0.1627  0.3910  0.0141
 9302W        W11502   4.818   1.405  34.933 -0.3959 -0.2765  0.3104
 9303W        W11503  15.820   0.569  40.909 -0.1673 -0.1919 -0.0532
 9304W        W11504   7.770   4.686   8.774 -0.1196 -0.0863 -0.0800
 9305W        W11505   0.469   2.759  37.535 -0.0445 -0.3775  0.0151
 9306W        W11506  13.007   4.395   3.064  0.1841  0.1559 -0.0429
 9307W        W11507   7.201   4.516   6.330  0.1114  0.0959  0.0648
 9308W        W11508   1.521   5.136  39.929 -0.3983  0.0257 -0.3389
 9309W        W11509   4.472   6.210  31.613 -0.1047 -0.0999  0.2472
 9310W        W11510   9.348   3.426  42.185  0.0688 -0.0438  0.1358
 9311W        W11511  10.378   3.180  23.571 -0.3352  0.0322  0.1448
 9312W        W11512  19.831   5.590  30.705 -0.0315  0.3156  0.2091
 9313W        W11513  16.936   4.031  23.521 -0.0621  0.0027 -0.0906
 9314W        W11514   1.646   1.074   9.933  0.0219  0.1219 -0.0209
 9315W        W11515  19.033   0.171  41.245  0.1530 -0.2199  0.2716
 9316W        W11516   9.236   0.118  25.000  0.4129  0.1066  0.0868
 9317W        W11517   9.724   1.423   4.291  0.1288 -0.0797 -0.1015
 9318W        W11518   5.102   6.354  13.458  0.1476 -0.4547  0.1182
 9319W        W11519  19.606   1.280   5.267  0.1754 -0.0942 -0.1789
 9320W        W11520   9.666   0.439  43.434 -0.0423  0.0395 -0.0177
 9321W        W11521   2.205   1.585  28.451  0.2181 -0.1804  0.3523
 9322W        W11522   4.254   5.978   6.301  0.0460 -0.1600  0.1356
 9323W        W11523   0.659   0.212  22.521 -0.0174 -0.0102 -0.0176
 9324W        W11524   3.645   1.485   0.044 -0.0453  0.1724  0.0843
 9325W        W11525  16.267   5.976  34.192 -0.1077  0.1905 -0.0410
 9326W        W11526  20.138   5.741   7.074  0.1185  0.1438 -0.0326
 9327W        W11527   0.534   3.559  36.954 -0.0491 -0.0179 -0.0621
 9328W        W11528   5.711   2.032  30.801  0.0156 -0.1421  0.0901
 9329W        W11529  11.361   5.674  33.348 -0.1105  0.1415  0.0652
 9330W        W11530   7.201   4.639   5.751  0.1479 -0.0489 -0.0241
 9331W        W11531   0.090   6.136  39.530 -0.1596 -0.0407 -0.1918
 9332W        W11532  18.438   4.384  40.239  0.1541 -0.1670 -0.0277
 9333W        W11533   7.938   1.737  13.642  0.1532  0.0349 -0.1770
 9334W        W11534   0.852   0.056  11.888  0.1399 -0.1490 -0.0030
 9335W        W11535   4.568   1.635  13.945 -0.1139  0.0278  0.1127
 9336W        W11536  17.080   0.274  30.578  0.1210  0.0517 -0.1338
 9337W        W11537  10.407   3.881   9.513  0.0139  0.3155  0.2367
 9338W        W11538   9.221   3.532  13.402  0.0855 -0.0986  0.0183
 9339W        W11539   3.672   5.777   6.073  0.0294 -0.0775  0.0177
 9340W        W11540  15.647   2.337  28.776 -0.1522 -0.1793 -0.1178
 9341W        W11541  13.125   3.575  31.178  0.0435  0.1002 -0.1115
 9342W        W11542  18.286   2.666  37.777  0.0353  0.0902  0.0803
 9343W        W11543   9.318   5.192   4.762 -0.3476 -0.0095 -0.0578
 9344W        W11544  14.658   2.051  17.170  0.0463 -0.0119  0.1811
 9345W        W11545   1.607   1.368   7.775  0.1353  0.0855 -0.2443
 9346W        W11546   0.299   4.238   8.109  0.0886 -0.4243 -0.2001
 9347W        W11547   0.881   5.910  40.147 -0.0597  0.1054  0.1993
 9348W        W11548  10.231   1.118  32.869  0.2171 -0.4017 -0.0157
 9349W        W11549  12.222   4.798  37.944 -0.0656  0.1477 -0.1644
 9350W        W11550  16.231   6.198  10.024  0.3616  0.4704 -0.1772
 9351W        W11551  19.792   4.489  19.312 -0.1410 -0.2919 -0.0415
 9352W        W11552   2.505   3.369  41.301 -0.1730  0.1537 -0.1093
 9353W        W11553  18.525   4.445  23.572 -0.5015 -0.0246  0.1019
 9354W        W11554   8.257   1.014  37.699 -0.0084 -0.1819 -0.1816
 9355W        W11555   6.780   2.295  21.043 -0.0116  0.1587 -0.0124
 9356W        W11556   2.248   4.422  24.628 -0.0999  0.2105  0.0882
 9357W        W11557   5.012   1.157   7.055  0.0632  0.0761  0.1089
 9358W        W11558  15.782   3.427  13.789 -0.6817  0.3559  0.1973
 9359W        W11559  18.833   1.738  23.046  0.1600  0.2007 -0.1332
 9360W        W11560   0.467   5.939  39.852  0.1846 -0.3993  0.1901
 9361W        W11561   9.226   2.370  36.879 -0.0424 -0.0675 -0.1632
 9362W        W11562   8.457   0.333  14.077  0.1113  0.3301  0.2787
 9363W        W11563  10.489   1.064  11.155  0.0322  0.1023  0.2597
 9364W        W11564  20.979   2.654   9.089  0.1635  0.0596 -0.3041
 9365W        W11565  20.720   1.113  44.674 -0.1365 -0.0206 -0.1289
 9366W        W11566   1.642   5.874  33.411  0.0110 -0.0912 -0.2800
 9367W        W11567  19.769   0.095  20.097 -0.2502 -0.0272  0.0497
 9368W        W11568   6.309   0.556  21.264  0.1359 -0.0832  0.0670
 9369W        W11569  18.839   5.254  39.103 -0.2477 -0.0509  0.0488
 9370W        W11570  18.294   3.996  12.915  0.2343  0.0113 -0.3499
 9371W        W11571  16.665   4.557  35.366  0.0475 -0.1749 -0.1360
 9372W        W11572   0.143   1.760  27.681  0.3844  0.2056 -0.2272
 9373W        W11573  19.177   0.110  22.460  0.0202  0.2745 -0.0160
 9374W        W11574  13.651   2.880   3.172  0.0606  0.0447  0.0229
 9375W        W11575  13.794   1.926  43.464 -0.2276  0.1603 -0.1558
 9376W        W11576   0.653   1.990  42.746 -0.0055 -0.1514 -0.0401
 9377W        W11577  17.820   3.124  33.296  0.2531  0.2787 -0.0861
 9378W        W11578  10.296   0.626  25.072 -0.0645 -0.1603 -0.0999
 9379W        W11579   8.304   0.901  10.295 -0.1312 -0.1058 -0.0865
 9380W        W11580  16.873   3.709  14.470 -0.2766  0.1966  0.1121
 9381W        W11581  20.266   3.862  24.610  0.1719  0.1871  0.1440
 9382W        W11582  14.047   4.014  18.258 -0.0103 -0.3945  0.0376
 9383W        W11583   0.878   0.870  44.486 -0.1184  0.2345  0.0414
 9384W        W11584   1.747   5.639   7.057 -0.4236 -0.2246 -0.0514
 9385W        W11585  15.392   4.238  10.311 -0.3224 -0.0300  0.0009
 9386W        W11586  12.724   2.476  37.260  0.1095 -0.0727  0.0377
 9387W        W11587   4.256   6.068   7.249  0.0673  0.0203  0.2321
 9388W        W11588   5.001   0.023  28.057  0.0147  0.0757 -0.0168
 9389W        W11589   5.597   4.856  37.527  0.2903  0.0597  0.0714
 9390W        W11590   7.384   1.098  10.304 -0.1756  0.1828 -0.3042
 9391W        W11591  17.613   1.990   6.829  0.0708 -0.0597 -0.2843
 9392W        W11592  13.973   4.962  35.214 -0.2429  0.0690 -0.1425
 9393W        W11593  11.584   0.483  15.188 -0.2326  0.1454 -0.0450
 9394W        W11594  20.518   5.623   7.779  0.0735 -0.2295 -0.0059
 9395W        W11595   2.444   0.307  34.981  0.1221  0.1062  0.2417
 9396W        W11596   8.369   5.277  17.100  0.3129 -0.2137 -0.1505
 9397W        W11597  12.377   0.810   9.240 -0.4523 -0.0461  0.0709
 9398W        W11598  18.929   5.687   3.651 -0.1589 -0.0862  0.1612
 9399W        W11599  14.393   2.863  44.079  0.0214 -0.1719  0.0683
 9400W        W11600   7.262   4.841  40.198  0.3090 -0.1931 -0.1387
 9401W        W11601   6.400   4.010   2.106 -0.2125 -0.1212 -0.0485
 9402W        W11602   7.217   1.660   4.561 -0.0721 -0.1834 -0.1743
 9403W        W11603   2.396   6.346   9.179  0.0330 -0.1197  0.0208
 9404W        W11604  15.768   6.042  13.429  0.2888  0.1168 -0.0318
 9405W        W11605   0.292   4.307   7.200 -0.1625  0.5695 -0.1162
 9406W        W11606   6.075   4.996  44.778  0.4356  0.2067 -0.2354
 9407W        W11607   0.718   1.962   9.633  0.2648  0.0645  0.2101
 9408W        W11608  17.056   6.242  29.126  0.2408  0.4502  0.0882
 9409W        W11609  20.822   2.013  27.746  0.1762  0.0733 -0.1102
 9410W        W11610  10.979   1.123  16.546 -0.2397  0.0080  0.1627
 9411W        W11611   0.635   5.730   9.228 -0.1980  0.1344  0.1643
 9412W        W11612   3.374   3.735  13.052 -0.2172 -0.0097  0.2625
 9413W        W11613  16.770   0.222   9.467  0.1157  0.0823  0.3246
 9414W        W11614  11.196   1.092  14.607 -0.0070  0.0934 -0.2761
 9415W        W11615  12.275   2.372  15.938  0.3786  0.1251 -0.2225
 9416W        W11616   2.044   5.531  39.413  0.0785 -0.2634 -0.1014
 9417W        W11617   9.188   2.688  29.845 -0.2527 -0.1608  0.2248
 9418W        W11618   4.849   3.221   4.344 -0.0696  0.0357  0.0615
 9419W        W11619  21.110   6.377  12.307  0.1052 -0.0569  0.1188
 9420W        W11620   7.266   1.352   0.655 -0.2808  0.0371 -0.0561
 9421W        W11621   2.115   6.226   0.688 -0.0496  0.1880 -0.2883
 9422W        W11622  18.991   2.929  42.946 -0.2366 -0.1991  0.3370
 9423W        W11623  20.837   0.361  36.760 -0.1865 -0.1091 -0.1896
 9424W        W11624  16.516   2.107  13.399  0.1857  0.2359 -0.0455
 9425W        W11625  20.526   1.859  15.486 -0.0610 -0.2255 -0.1095
 9426W        W11626  13.985   6.246  12.497 -0.2555 -0.3636 -0.0992
 9427W        W11627  21.132   4.790  10.209 -0.0426 -0.0325  0.1191
 9428W        W11628   6.360   5.341  45.076 -0.1438 -0.0426 -0.0278
 9429W        W11629   5.397   2.971   2.462 -0.1522 -0.3401  0.2384
 9430W        W11630  19.730   3.153  20.366 -0.1204  0.2424  0.3372
 9431W        W11631   9.063   2.314   2.399  0.0452 -0.3975 -0.1297
 9432W        W11632   2.035   6.052  26.608  0.2689 -0.0274 -0.2865
 9433W        W11633  18.813   2.574  33.235 -0.0095  0.0537 -0.0441
 9434W        W11634   4.212   1.587  36.496  0.0007  0.0048  0.1178
 9435W        W11635   1.339   2.064  15.847  0.0488 -0.0607 -0.0294
 9436W        W11636   6.091   4.855  35.772 -0.2958 -0.2242  0.0328
 9437W        W11637   6.832   4.641  32.989 -0.4452 -0.4392 -0.0148
 9438W        W11638   7.708   4.951  15.974 -0.1051 -0.0868 -0.0442
 9439W        W11639   7.238   2.293  20.738  0.1040 -0.1679 -0.2437
 9440W        W11640  12.632   6.405   8.425 -0.0821 -0.1812  0.1836
 9441W        W11641  17.054   6.120  26.183 -0.1103  0.3191  0.0062
 9442W        W11642  10.638   4.581  29.319  0.0292  0.2417 -0.0716
 9443W        W11643  20.638   4.677  37.133  0.0233  0.3277 -0.3346
 9444W        W11644   2.165   0.270  10.158 -0.1782 -0.2806  0.0280
 9445W        W11645  18.168   4.764  27.974  0.2586  0.2883  0.2872
 9446W        W11646  18.402   4.863  23.798  0.3999  0.1985 -0.0339
 9447W        W11647  15.661   5.950  38.518  0.0905 -0.3401 -0.0966
 9448W        W11648  20.944   6.396  30.619 -0.1356  0.2877  0.0815
 9449W        W11649   8.005   3.152  19.772 -0.0151 -0.1381 -0.1155
 9450W        W11650   6.742   6.115  30.068 -0.0907  0.1882 -0.0242
 9451W        W11651   4.755   2.631   5.488  0.0827 -0.0348 -0.1479
 9452W        W11652  12.544   6.580  15.716 -0.0558  0.3655 -0.0917
 9453W        W11653   4.726   2.717   4.396 -0.1118  0.0344 -0.0485
 9454W        W11654  14.716   2.481  15.054 -0.1103  0.0976 -0.1272
 9455W        W11655  13.114   5.027   9.677  0.0042 -0.0228  0.1053
 9456W        W11656  13.171   3.491  34.912  0.1527 -0.1032  0.2100
 9457W        W11657   7.842   1.682   6.613 -0.0474  0.0629 -0.3118
 9458W        W11658  13.540   3.705  33.360  0.1016 -0.1152 -0.0074
 9459W        W11659   0.119   3.060  42.877 -0.5512  0.1407 -0.1898
 9460W        W11660  17.910   6.575  39.372 -0.0402  0.0973 -0.1289
 9461W        W11661   3.941   5.469   8.274  0.1542  0.0820 -0.0673
 9462W        W11662   7.817   0.193   5.132  0.1346 -0.2015  0.1479
 9463W        W11663  11.730   3.742  16.329  0.1726  0.3840 -0.2550
 9464W        W11664  20.198   6.245  33.257  0.1173  0.2563 -0.0295
 9465W        W11665  15.054   4.084   5.469  0.0590 -0.0189  0.1538
 9466W        W11666  19.307   1.387   0.196 -0.0806 -0.0249 -0.1319
 9467W        W11667   0.308   4.971  38.475 -0.2615  0.3226 -0.1427
 9468W        W11668  19.652   6.248   3.837 -0.0092 -0.2521  0.1551
 9469W        W11669   2.024   6.503  42.968 -0.3422 -0.1669  0.1166
 9470W        W11670   3.435   4.779  29.511  0.1747  0.2257 -0.2351
 9471W        W11671  20.044   5.114  30.749 -0.2362 -0.0196 -0.2334
 9472W        W11672  19.767   6.471  20.571  0.2052 -0.0296  0.2547
 9473W        W11673   9.322   1.340   2.836  0.1860 -0.3891 -0.0815
 9474W        W11674   5.433   3.788  29.410  0.1892  0.1113 -0.1664
 9475W        W11675   8.236   0.301  35.617  0.0247  0.0115  0.1026
 9476W        W11676  13.395   4.148   4.344 -0.0893 -0.0442  0.0992
 9477W        W11677   1.925   1.081  38.260  0.0439  0.1459 -0.2046
 9478W        W11678  17.374   4.195  29.170 -0.4194 -0.2417  0.0957
 9479W        W11679  20.806   6.595  21.579 -0.1394  0.1119  0.1442
 9480W        W11680   1.822   5.852  32.385  0.2210  0.3259 -0.2055
 9481W        W11681  11.751   3.421  37.522  0.3654 -0.0488 -0.0428
 9482W        W11682   4.199   4.217  36.229 -0.0671  0.0797  0.1457
 9483W        W11683  13.200   0.637  30.789 -0.4787  0.1978  0.1823
 9484W        W11684  16.963   1.304  12.196  0.0963 -0.1151  0.0037
 9485W        W11685   2.671   0.964   2.899  0.1765 -0.1356 -0.2948
 9486W        W11686  15.367   2.953  30.531  0.2463  0.0868  0.1352
 9487W        W11687  13.362   5.670   1.810 -0.1310  0.0090 -0.1175
 9488W        W11688  19.826   2.980  29.778  0.0355 -0.0227 -0.0731
 9489W        W11689   7.684   1.771   1.488  0.2310 -0.0129  0.0492
 9490W        W11690  13.535   5.809   4.442 -0.0350  0.2968 -0.0142
 9491W        W11691   1.581   1.973  30.348 -0.2547  0.1523  0.2492
 9492W        W11692   5.930   3.025  43.430  0.0546 -0.1182  0.0604
 9493W        W11693   9.731   6.471  30.806  0.0015 -0.0917  0.0678
 9494W        W11694  19.812   1.124   8.189  0.0724 -0.0492  0.0204
 9495W        W11695   0.001   2.220  38.804 -0.2763 -0.0034  0.2480
 9496W        W11696  17.768   5.366  33.233 -0.2224  0.0243  0.4050
 9497W        W11697   7.359   5.093  18.491 -0.0885  0.3666  0.1767
 9498W        W11698  18.045   3.681  43.038  0.2749  0.3844 -0.3454
 9499W        W11699  17.159   2.374  10.055  0.3495 -0.2390 -0.1241
 9500W        W11700  18.899   5.427  22.839  0.0379  0.3970  0.1223
 9501W        W11701   4.440   5.236  33.895  0.0439 -0.0384  0.1030
 9502W        W11702  19.544   4.151  13.620 -0.0726  0.1120 -0.0406
 9503W        W11703  17.938   1.023   4.376 -0.3706 -0.0746  0.3037
 9504W        W11704   8.813   1.298  21.341  0.0621  0.0565 -0.2939
 9505W        W11705  15.922   4.353  26.819  0.3064  0.0423 -0.0973
 9506W        W11706   3.991   2.335  16.104  0.1403 -0.0131  0.1191
 9507W        W11707  15.242   4.051   7.819 -0.1566 -0.0084  0.0123
 9508W        W11708  12.465   0.856   1.025 -0.2665 -0.0404  0.0487
 9509W        W11709   9.234   5.642  35.305  0.0854 -0.0015  0.4551
 9510W        W11710  18.774   4.794   3.952 -0.3803 -0.0509  0.0919
 9511W        W11711   7.858   3.559  35.719  0.0153 -0.1068  0.1283
 9512W        W11712  13.719   0.565  32.534  0.0989  0.1534 -0.2034
 9513W        W11713   2.740   0.281  10.115 -0.4018 -0.1115  0.1539
 9514W        W11714   3.191   0.527   2.750 -0.0998 -0.0027  0.0143
 9515W        W11715   9.053   2.306   5.439 -0.2957 -0.0413  0.1543
 9516W        W11716  10.231   1.870  36.925  0.1735 -0.0865  0.0672
 9517W        W11717   2.717   3.580  10.435  0.2573 -0.1025  0.0209
 9518W        W11718   8.033   4.133  40.449 -0.1058  0.0887  0.2731
 9519W        W11719   6.751   6.359  14.783 -0.2249 -0.0857  0.1498
 9520W        W11720  13.283   4.328  28.091 -0.1168  0.2450  0.1620
 9521W        W11721   7.508   5.013  41.706 -0.2345 -0.0972 -0.2931
 9522W        W11722  18.063   2.747  39.715  0.0703 -0.1339  0.1493
 9523W        W11723   6.617   0.988  12.988 -0.0462 -0.3370  0.3006
 9524W        W11724  10.788   5.631  34.154 -0.2378  0.0113  0.0599
 9525W        W11725   5.231   3.030  32.266 -0.2960  0.2006 -0.3436
 9526W        W11726  14.840   6.106  43.202  0.0670  0.1337  0.2290
 9527W        W11727   9.424   1.428  31.708 -0.0102 -0.2714  0.1080
 9528W        W11728  11.662   5.934  11.977 -0.3975  0.1158  0.2231
 9529W        W11729  15.141   5.593  15.217  0.1074  0.0188  0.1691
 9530W        W11730   4.275   5.032   3.105 -0.0331 -0.1661 -0.1015
 9531W        W11731  14.093   2.380   5.070 -0.1355  0.3402  0.0301
 9532W        W11732  15.931   5.067  37.302 -0.0910 -0.3604  0.0026
 9533W        W11733   6.881   1.071   9.612 -0.0438  0.0987  0.1556
 9534W        W11734   1.376   3.905   3.060  0.0052 -0.0193 -0.2692
 9535W        W11735   5.576   2.661  42.499  0.2286  0.0332 -0.1082
 9536W        W11736   4.825   6.461  43.263  0.0587  0.3482  0.0603
 9537W        W11737   1.703   3.566   0.051 -0.0269 -0.2567 -0.0156
 9538W        W11738  12.187   4.990  43.905 -0.1464  0.2532 -0.1375
 9539W        W11739  15.775   4.407   2.402 -0.0383 -0.2145 -0.3252
 9540W        W11740  15.689   4.658  43.656  0.1245 -0.0615 -0.1916
 9541W        W11741   1.284   2.909   3.969 -0.0478  0.2205  0.0230
 9542W        W11742  13.930   1.230  30.683  0.0820 -0.5054  0.1527
 9543W        W11743   8.718   5.889  18.200  0.0299 -0.3583  0.4079
 9544W        W11744   7.727   0.644  14.837 -0.1627 -0.1526 -0.2284
 9545W        W11745  14.321   5.267  16.392 -0.0553 -0.1659  0.1757
 9546W        W11746  10.237   4.863  17.855 -0.0394 -0.0865  0.2667
 9547W        W11747  16.420   0.131  32.025  0.3849 -0.1876 -0.3698
 9548W        W11748  18.684   1.020  24.111  0.0068 -0.2418  0.1970
 9549W        W11749   1.662   4.870  24.519 -0.1270 -0.1772 -0.0785
 9550W        W11750  13.938   4.843  31.585 -0.0736 -0.3684 -0.0271
 9551W        W11751   9.242   5.611   4.366 -0.0291 -0.0166  0.1404
 9552W        W11752   6.868   6.317  43.387  0.0483 -0.2102  0.0600
 9553W        W11753  20.398   3.125  35.603 -0.0481  0.1765  0.0976
 9554W        W11754  10.023   0.395  22.172  0.0273 -0.0894  0.1818
 9555W        W11755   6.599   4.936  41.192  0.1938  0.0171 -0.2427
 9556W        W11756   2.439   2.481   6.572 -0.1402 -0.1694 -0.0739
 9557W        W11757   3.507   0.804  29.242  0.1704 -0.0394 -0.0570
 9558W        W11758  21.050   0.076  43.826 -0.1737 -0.0973  0.1901
 9559W        W11759  16.068   0.121  10.304 -0.0142 -0.4058 -0.0849
 9560W        W11760  12.828   0.764   5.467 -0.1305  0.2297  0.2175
 9561W        W11761   8.074   0.087  13.292  0.2124  0.0914  0.2390
 9562W        W11762   2.292   2.244  14.908 -0.4033  0.3537  0.0218
 9563W        W11763  20.920   5.975  40.159 -0.3001 -0.1169  0.1963
 9564W        W11764   8.687   4.423  15.823  0.3256 -0.1457 -0.0650
 9565W        W11765   3.649   4.025  37.673 -0.1855  0.0113 -0.0929
 9566W        W11766  16.800   2.884  39.020 -0.0415 -0.2309  0.0680
 9567W        W11767  20.385   6.344   9.509 -0.1234  0.0986  0.1294
 9568W        W11768  17.171   4.541   0.653 -0.1385 -0.0117 -0.2462
 9569W        W11769  20.562   2.880  20.654  0.1709 -0.1895 -0.1529
 9570W        W11770  20.317   4.546  33.193  0.0438 -0.1510 -0.0981
 9571W        W11771   7.030   5.922  10.441  0.0511 -0.2220  0.1326
 9572W        W11772  19.142   4.706   5.923 -0.0460 -0.2748 -0.1955
 9573W        W11773  16.109   4.982  33.274  0.0932  0.1890 -0.1023
 9574W        W11774  14.322   6.304   2.238 -0.0878  0.2061 -0.0229
 9575W        W11775   4.003   3.220  29.761  0.0859 -0.1066  0.0364
 9576W        W11776   2.350   3.067   3.081 -0.1367 -0.2076  0.0539
 9577W        W11777   5.942   5.618  12.449  0.0510 -0.0061  0.2487
 9578W        W11778   5.555   0.120   4.056 -0.0881 -0.0801 -0.0405
 9579W        W11779   8.983   0.851  14.966  0.2968  0.0419  0.4213
 9580W        W11780   1.265   1.008  27.708 -0.0524 -0.4554  0.2986
 9581W        W11781  19.632   0.649  29.031  0.1408  0.2048 -0.1135
 9582W        W11782  20.185   1.556  28.770 -0.0096  0.1376  0.0622
 9583W        W11783  16.209   6.485  12.362  0.1881 -0.1324  0.1421
 9584W        W11784  15.990   4.024   1.384  0.0331 -0.2577 -0.0299
 9585W        W11785   7.813   4.732  36.794  0.0702  0.0790  0.1584
 9586W        W11786  12.347   0.668  20.067 -0.1048  0.4606  0.0339
 9587W        W11787   2.473   2.277  36.797  0.1438  0.0109 -0.0330
 9588W        W11788   9.004   3.163  29.834  0.0632 -0.1576 -0.0244
 9589W        W11789   6.396   2.094  20.223  0.0510 -0.1212 -0.0835
 9590W        W11790  10.155   0.546  15.373  0.0168 -0.1730  0.1521
 9591W        W11791  17.896   2.926   4.162 -0.1619  0.0777  0.0511
 9592W        W11792  15.139   4.171  34.000 -0.1024  0.3785  0.3239
 9593W        W11793  10.256   0.383   9.740  0.0408  0.0953 -0.1565
 9594W        W11794  17.462   1.192  39.393 -0.0651  0.0671 -0.1208
 9595W        W11795   3.242   1.918   0.452  0.2323 -0.1955  0.2323
 9596W        W11796   3.025   6.268   9.045  0.0912  0.0567 -0.0878
 9597W        W11797  15.420   0.012   6.876  0.2073 -0.0505  0.0408
 9598W        W11798  13.738   3.373  14.270 -0.2294 -0.0897 -0.3956
 9599W        W11799   4.721   5.037  42.612 -0.1949 -0.2457  0.1955
 9600W        W11800   1.013   5.215   6.895 -0.1570 -0.2479  0.2509
 9601W        W11801  20.074   2.242  24.287  0.0860  0.0036 -0.2066
 9602W        W11802  14.846   4.364   3.925  0.1242 -0.1952  0.1157
 9603W        W11803   1.762   2.068   6.096  0.0795  0.1055 -0.1786
 9604W        W11804   7.068   2.298  39.037  0.0057  0.1187  0.0516
 9605W        W11805  10.559   3.725  15.840  0.0216 -0.0687  0.0515
 9606W        W11806  14.627   3.380  31.311  0.0529 -0.4632  0.0779
 9607W        W11807  15.701   4.039  43.815 -0.1822 -0.1058 -0.3000
 9608W        W11808  11.298   3.368  40.907  0.1022  0.0746 -0.2312
 9609W        W11809  16.207   4.509  36.791  0.1547 -0.0261 -0.1015
 9610W        W11810  15.917   3.563  37.878  0.0566 -0.1336  0.0187
 9611W        W11811  16.466   3.623  33.141 -0.1616 -0.2417  0.2550
 9612W        W11812  16.804   5.245  36.402  0.3469 -0.0821 -0.1541
 9613W        W11813   4.151   1.324  29.932 -0.0944  0.0028 -0.2723
 9614W        W11814   2.778   0.771  25.229  0.1855 -0.0931  0.0129
 9615W        W11815   7.976   3.670  13.413 -0.1173  0.2663 -0.1198
 9616W        W11816  13.625   0.412  30.935  0.2035 -0.0393 -0.0753
 9617W        W11817   6.820   5.447   4.319 -0.2188 -0.0322  0.2510
 9618W        W11818  15.251   3.634  25.329  0.2413 -0.2935  0.1277
 9619W        W11819  18.625   2.032  14.677  0.1874  0.1121  0.0162
 9620W        W11820   4.144   2.058  13.468 -0.1076 -0.0716  0.3742
 9621W        W11821  11.117   4.379  10.017 -0.0809  0.0587  0.0898
 9622W        W11822  13.423   2.400  30.942  0.0695  0.2120 -0.0605
 9623W        W11823   8.997   6.185  30.827  0.0704 -0.3789 -0.3452
 9624W        W11824  11.587   0.805   1.919 -0.1864  0.2411 -0.0741
 9625W        W11825  13.322   0.924   8.885 -0.0003 -0.1340 -0.0541
 9626W        W11826  10.226   5.615   0.166 -0.1879 -0.0056  0.2036
 9627W        W11827  18.808   5.485   9.865 -0.0531 -0.0637  0.1968
 9628W        W11828   7.195   2.162   0.956  0.0373  0.0624  0.1512
 9629W        W11829   7.012   3.355  29.437 -0.3932  0.0273  0.2026
 9630W        W11830   2.752   1.907  44.723  0.1145  0.4014 -0.0012
 9631W        W11831  18.860   1.617   6.386  0.0284 -0.2750 -0.2636
 9632W        W11832  14.091   0.232  43.502  0.1475 -0.0856 -0.2221
 9633W        W11833  19.792   3.097   1.474  0.0331 -0.1188  0.0783
 9634W        W11834   6.227   2.435  13.416  0.2576  0.0926  0.2130
 9635W        W11835  20.721   5.392  21.393 -0.0936 -0.1578 -0.3931
 9636W        W11836   8.444   3.104  33.674 -0.3579 -0.3164 -0.0972
 9637W        W11837   8.969   5.790  36.195  0.0966 -0.0768 -0.2661
 9638W        W11838   4.797   0.283   8.390 -0.1821 -0.4657 -0.0465
 9639W        W11839   3.430   5.452  32.112  0.1434 -0.1735 -0.3018
 9640W        W11840   8.150   3.883  22.560  0.1343  0.1353 -0.2090
 9641W        W11841   9.267   1.606   3.291 -0.0993 -0.0022 -0.1401
 9642W        W11842   7.568   4.028  40.783  0.3757 -0.0454 -0.0787
 9643W        W11843   1.869   0.562  12.326 -0.1379 -0.0395  0.3149
 9644W        W11844   0.240   2.241  11.331  0.0480  0.0916 -0.3169
 9645W        W11845  11.414   0.869  19.389 -0.1954  0.0561 -0.1544
 9646W        W11846  16.908   5.835  34.979 -0.1179  0.0604  0.0929
 9647W        W11847  16.312   2.555   8.587  0.0145 -0.0317 -0.2274
 9648W        W11848   9.513   6.144  35.066 -0.0764  0.0130  0.1350
 9649W        W11849  10.344   6.017  29.502 -0.0063 -0.0977 -0.1218
 9650W        W11850   6.401   3.149  16.629 -0.0276  0.2171  0.4586
 9651W        W11851  13.231   0.084  33.508  0.0726  0.1388 -0.0375
 9652W        W11852  11.462   1.652   6.942  0.0324 -0.0508 -0.0918
 9653W        W11853  15.253   5.604  41.180  0.3310  0.1175  0.0752
 9654W        W11854  12.294   0.257  32.414  0.0023  0.1531 -0.2436
 9655W        W11855   1.333   4.954  42.915  0.2369 -0.1388 -0.3971
 9656W        W11856  17.686   0.002  13.706  0.0054  0.0296  0.1020
 9657W        W11857  11.564   1.101   7.313  0.1558  0.2001  0.2687
 9658W        W11858   7.485   2.594  29.287 -0.0233  0.2879  0.1910
 9659W        W11859   6.306   3.339  33.990  0.2068 -0.2253 -0.1868
 9660W        W11860   2.815   2.721  25.798 -0.1356 -0.1658 -0.2443
 9661W        W11861   4.160   2.824   6.822 -0.0198  0.3983  0.0636
 9662W        W11862  16.241   0.299  13.544  0.0427  0.1606  0.0742
 9663W        W11863  16.675   2.515  16.362 -0.4645 -0.0134  0.0567
 9664W        W11864  18.043   6.487   4.325  0.0559 -0.0341  0.0793
 9665W        W11865  17.661   3.481  23.132 -0.2451  0.4659 -0.1499
 9666W        W11866  15.113   6.205   2.660  0.2694 -0.3797  0.5565
 9667W        W11867  11.419   2.775   6.910 -0.1060 -0.2062 -0.2645
 9668W        W11868   8.866   2.865   6.826  0.0581 -0.1063  0.1723
 9669W        W11869  17.464   6.100  15.745 -0.3881 -0.1779  0.0966
 9670W        W11870  12.955   0.913  12.376  0.2714 -0.0530  0.2883
 9671W        W11871   9.912   3.789  23.630  0.5379  0.0498 -0.1373
 9672W        W11872   1.400   1.297  15.263 -0.3141 -0.2787 -0.1852
 9673W        W11873  20.746   0.382   1.089 -0.1694  0.0658  0.1130
 9674W        W11874  17.638   2.387   1.113  0.0212  0.0411  0.0475
 9675W        W11875   7.037   0.761  29.493 -0.1711 -0.0810 -0.0724
 9676W        W11876  12.373   1.489  18.598 -0.0475  0.0100 -0.0902
 9677W        W11877  17.594   6.407  31.378 -0.0632  0.0772 -0.0808
 9678W        W11878  15.302   5.289   4.505  0.4425  0.0810  0.1597
 9679W        W11879  19.549   5.109   9.701  0.0940 -0.1663 -0.0042
 9680W        W11880   7.468   1.946  20.413  0.0706  0.2538 -0.1975
 9681W        W11881   9.595   5.667   3.974 -0.0766  0.1616 -0.1026
 9682W        W11882   0.382   2.465  40.284 -0.1678 -0.1927 -0.2230
 9683W        W11883  10.716   6.198  40.016 -0.0256 -0.0103  0.0629
 9684W        W11884  11.500   2.102   3.215  0.3842  0.0752 -0.0330
 9685W        W11885   3.625   1.161   1.317 -0.1037  0.2817 -0.0110
 9686W        W11886  14.952   1.222   0.507 -0.1766 -0.2049  0.3049
 9687W        W11887  18.815   2.393  40.158 -0.1566 -0.0720  0.1548
 9688W        W11888   6.967   4.547  42.905  0.0533  0.0701 -0.1528
 9689W        W11889  12.949   5.753   5.112 -0.0950 -0.1360 -0.2738
 9690W        W11890   1.730   3.827  30.320  0.3083 -0.2132  0.2415
 9691W        W11891  21.103   2.435  27.791 -0.1491  0.0037  0.2618
 9692W        W11892   9.991   0.856  35.171  0.2018 -0.1351 -0.0826
 9693W        W11893   4.337   4.640  39.469 -0.1320 -0.1870  0.0095
 9694W        W11894  10.552   3.916  18.920  0.2258  0.0874  0.2984
 9695W        W11895   9.336   2.115  35.534 -0.2005 -0.2412 -0.1209
 9696W        W11896  13.367   0.344   8.059 -0.3960  0.3007  0.0450
 9697W        W11897  19.874   2.580  41.624  0.0601  0.2012  0.1407
 9698W        W11898  12.556   0.392  16.852  0.4708 -0.2029  0.1137
 9699W        W11899   1.315   3.099  36.873 -0.1016  0.0683  0.0126
 9700W        W11900  13.976   2.988  15.825 -0.0649  0.3421 -0.0032
 9701W        W11901   7.864   2.566  22.252  0.2055 -0.1685 -0.2891
 9702W        W11902   8.569   0.908  31.409 -0.2365 -0.4060  0.0444
 9703W        W11903   5.913   2.787  37.770  0.0461 -0.0741  0.1506
 9704W        W11904  16.585   5.019  23.747  0.2678 -0.3718  0.1857
 9705W        W11905   5.728   2.493  30.396 -0.1655  0.1997  0.1960
 9706W        W11906  10.573   0.048  13.631 -0.0981  0.0653 -0.2610
 9707W        W11907  19.552   0.606  28.068 -0.2216 -0.1269  0.0776
 9708W        W11908  16.435   2.148  10.710  0.1665 -0.1376 -0.0487
 9709W        W11909  11.681   1.947  44.228 -0.0676 -0.1599 -0.3425
 9710W        W11910   9.271   4.594  33.167  0.2173 -0.1073 -0.3882
 9711W        W11911  20.523   2.666   0.163 -0.1238 -0.2640  0.0153
 9712W        W11912   4.300   1.210   0.603  0.2568  0.0589 -0.0575
 9713W        W11913  21.033   0.026   2.873  0.0216 -0.2400  0.0757
 9714W        W11914  15.340   3.409  34.587  0.0756  0.0059  0.1582
 9715W        W11915   2.460   2.399  25.669 -0.1867  0.0024 -0.2396
 9716W        W11916   4.876   2.527  17.286  0.2840  0.1195 -0.0186
 9717W        W11917  15.218   4.096  37.772  0.1052 -0.1399  0.1758
 9718W        W11918  12.377   2.792  44.699  0.0412  0.0898 -0.0014
 9719W        W11919   7.219   3.160   6.281 -0.1692 -0.1165 -0.0031
 9720W        W11920  16.569   0.140  40.632  0.3238  0.2153  0.1852
 9721W        W11921  15.486   0.094  38.109  0.4911  0.0522  0.0352
 9722W        W11922   7.900   6.014  43.146  0.2449  0.0253 -0.2312
 9723W        W11923   1.878   2.260  27.203 -0.0564  0.0034 -0.4131
 9724W        W11924   7.470   3.740  16.686 -0.0281  0.1271 -0.3970
 9725W        W11925  15.015   3.899   0.278  0.2592 -0.0818  0.0454
 9726W        W11926  20.974   0.443  39.640  0.1025 -0.3144 -0.0123
 9727W        W11927  13.116   3.366  15.303 -0.3860  0.0747 -0.3141
 9728W        W11928  20.878   4.839  26.435 -0.1195  0.0839  0.1300
 9729W        W11929  19.097   2.475  15.570  0.0445  0.0282  0.0906
 9730W        W11930   7.232   6.509  42.196  0.3461  0.1026 -0.0152
 9731W        W11931  20.558   5.515  25.418 -0.1965  0.0909  0.1007
 9732W        W11932  18.458   0.871  33.232  0.1156 -0.0733 -0.1429
 9733W        W11933  13.987   1.588  17.216  0.1418 -0.2474  0.1936
 9734W        W11934  18.776   0.446  31.843  0.0314  0.4178  0.0614
 9735W        W11935   6.318   0.628  32.492 -0.0547  0.0321  0.1904
 9736W        W11936   5.585   0.649  32.451  0.0880  0.0198  0.1004
 9737W        W11937  16.357   3.700  40.257 -0.1823 -0.3942  0.1023
 9738W        W11938  16.352   2.658  25.737 -0.0391 -0.2047 -0.1368
 9739W        W11939  15.016   6.461  12.235  0.5712  0.0604 -0.1929
 9740W        W11940   9.356   2.539  35.877 -0.1700  0.2324 -0.1702
 9741W        W11941  18.041   1.462  27.091  0.1693  0.1921 -0.0432
 9742W        W11942   4.070   0.094  18.262 -0.1627  0.0582 -0.4450
 9743W        W11943  14.359   6.181  31.910 -0.0286 -0.0657  0.1912
 9744W        W11944  14.982   5.342  33.118 -0.0496 -0.1727 -0.0610
 9745W        W11945  16.446   5.005   0.399  0.1413 -0.1994  0.0935
 9746W        W11946  20.734   0.657  40.189  0.1510 -0.0588 -0.2832
 9747W        W11947   6.519   5.949   7.479  0.1603  0.1816  0.0819
 9748W        W11948   7.715   0.002  43.021 -0.1564  0.1705 -0.0187
 9749W        W11949  11.939   3.397   8.442  0.1248 -0.1357 -0.1177
 9750W        W11950  19.549   1.604  38.985  0.0042  0.1665  0.2652
 9751W        W11951   0.051   2.943  31.493 -0.4037 -0.0796 -0.1662
 9752W        W11952  10.452   0.188  42.495 -0.2711  0.0044  0.0813
 9753W        W11953   6.643   6.229  10.196 -0.2245 -0.0224  0.1683
 9754W        W11954  13.372   4.264  34.350 -0.3582 -0.2652  0.0639
 9755W        W11955   8.454   6.096  38.506  0.0667  0.0510 -0.1413
 9756W        W11956   0.501   0.639  29.799 -0.3256 -0.1391 -0.1577
 9757W        W11957  20.336   4.465   0.727 -0.2774  0.1768  0.1476
 9758W        W11958   8.776   1.604   2.022 -0.1551 -0.1385  0.5171
 9759W        W11959   6.875   4.530  40.204  0.1623 -0.0386 -0.2689
 9760W        W11960  17.517   6.432  44.778 -0.0896 -0.1348 -0.0091
 9761W        W11961  11.291   5.270   8.472  0.2241 -0.0484  0.2199
 9762W        W11962   8.466   4.310  17.733 -0.1427  0.1996  0.1072
 9763W        W11963   0.071   2.740  26.055  0.0271  0.0499 -0.0152
 9764W        W11964   0.656   5.421  29.087  0.1127 -0.0208  0.1856
 9765W        W11965   7.944   2.346  43.718  0.1143 -0.2190  0.0646
 9766W        W11966  18.863   6.299  12.724 -0.1290 -0.0184 -0.0495
 9767W        W11967  19.713   6.500  11.251  0.3522 -0.1497 -0.3561
 9768W        W11968  12.374   4.240  17.049 -0.2073  0.2466  0.2951
 9769W        W11969   4.390   0.002  15.386 -0.2496  0.1207  0.1190
 9770W        W11970   5.426   5.458  40.937  0.0344 -0.1406 -0.1350
 9771W        W11971   2.415   1.650   2.008  0.0790  0.1220  0.1584
 9772W        W11972   7.944   1.739  18.785  0.3614 -0.2347  0.0205
 9773W        W11973  13.911   4.603  40.539  0.0687  0.0731  0.2873
 9774W        W11974   5.345   1.605  12.569  0.5193 -0.2112 -0.1434
 9775W        W11975   6.718   5.447  20.580  0.0282  0.2309 -0.0528
 9776W        W11976  17.570   3.596  30.513  0.1773  0.2006  0.0937
 9777W        W11977  10.048   5.878  36.442 -0.0204  0.1684 -0.1186
 9778W        W11978  10.756   5.043  38.710  0.1037  0.1017  0.1245
 9779W        W11979  17.826   5.678  28.068  0.3499  0.0367  0.0537
 9780W        W11980   9.214   1.914   4.712  0.2018  0.0586 -0.4219
 9781W        W11981  10.277   1.600  39.448  0.0384  0.1599 -0.1086
 9782W        W11982  19.709   0.167  41.699 -0.0253 -0.1032 -0.0954
 9783W        W11983   6.406   1.202  37.669 -0.0186 -0.1042  0.2747
 9784W        W11984  15.586   4.147  37.425  0.1474  0.0539 -0.2523
 9785W        W11985  15.498   4.050   5.878  0.0119  0.2433  0.0270
 9786W        W11986  14.674   5.861   8.263 -0.0897  0.1990 -0.0231
 9787W        W11987   9.187   2.101   9.307  0.4478 -0.2894 -0.3265
 9788W        W11988   3.525   0.519  42.243  0.1778 -0.3073  0.2076
 9789W        W11989  12.867   3.578   4.801  0.3920  0.2957 -0.1283
 9790W        W11990  11.184   2.884   8.300 -0.0316  0.1864  0.0058
 9791W        W11991  13.025   5.867  38.342 -0.0433 -0.1046  0.0255
 9792W        W11992   8.829   5.599  10.837 -0.0467 -0.0089  0.1105
 9793W        W11993  12.876   0.403  42.672  0.2516  0.1587 -0.1057
 9794W        W11994   3.154   0.144  27.701  0.0051  0.0396  0.1117
 9795W        W11995   6.764   5.109  30.050  0.0609 -0.0409 -0.2291
 9796W        W11996   0.025   5.764  11.669  0.1613 -0.2156 -0.5102
 9797W        W11997  16.494   4.712   3.916 -0.0096 -0.3904 -0.0296
 9798W        W11998  11.032   1.518  14.818 -0.0541  0.0327 -0.1239
 9799W        W11999   4.391   1.053  14.714  0.0987  0.1514  0.1727
 9800W        W12000  16.221   0.661  39.849  0.0084 -0.0416 -0.0341
 9801W        W12001   4.818   6.195  11.031 -0.3073  0.0021 -0.2432
 9802W        W12002   4.096   0.333  17.645  0.0620 -0.0836  0.0379
 9803W        W12003  17.224   4.562  29.586 -0.2024 -0.3546 -0.1439
 9804W        W12004  11.188   1.761  15.925 -0.2685 -0.2309  0.0839
 9805W        W12005  12.681   1.013  13.808  0.3145 -0.0505  0.0899
 9806W        W12006   5.301   0.864  30.031 -0.1843 -0.4834  0.0706
 9807W        W12007   8.346   0.375  15.358 -0.2893  0.2202 -0.3024
 9808W        W12008   7.661   1.608   7.499 -0.0120  0.0444  0.2743
 9809W        W12009  10.509   0.989   5.363  0.0824  0.0521 -0.0658
 9810W        W12010  10.713   2.839   2.816 -0.1101 -0.5300 -0.0498
 9811W        W12011   4.954   0.948  18.823 -0.1612  0.1483  0.0716
 9812W        W12012  11.034   5.496  44.326  0.0850 -0.0142 -0.1375
 9813W        W12013   6.238   0.819   3.559 -0.1221 -0.4420  0.2771
 9814W        W12014   6.970   5.626  44.465 -0.0604 -0.1185  0.0022
 9815W        W12015  17.117   1.483  14.773 -0.0684  0.0129 -0.0639
 9816W        W12016   7.238   4.629  12.051  0.3054 -0.1013 -0.2073
 9817W        W12017  18.110   4.533  33.230 -0.1933 -0.1472 -0.2826
 9818W        W12018  15.869   0.325  15.775 -0.0630 -0.0542 -0.3010
 9819W        W12019   6.419   3.467   3.152  0.1158 -0.0016  0.0848
 9820W        W12020   7.021   1.402   8.175 -0.1210  0.0731 -0.0238
 9821W        W12021   7.155   5.705  19.884  0.2337  0.1925  0.0570
 9822W        W12022   4.683   1.711   0.135  0.3086 -0.0022  0.0144
 9823W        W12023  14.157   1.783  12.205 -0.2663  0.1848  0.1176
 9824W        W12024   5.376   3.809  10.102  0.1222 -0.3034  0.1367
 9825W        W12025  20.401   2.622  27.400  0.2851  0.3083  0.1921
 9826W        W12026  17.628   0.558   1.908 -0.4144 -0.1001 -0.1455
 9827W        W12027   1.363   3.037  34.516 -0.1686 -0.1773  0.0736
 9828W        W12028  14.321   3.775  26.985  0.0993 -0.1373 -0.1315
 9829W        W12029   5.306   3.925   8.544  0.1996  0.2939  0.2729
 9830W        W12030   3.024   0.854   0.220 -0.2079 -0.0212 -0.3656
 9831W        W12031  13.037   3.484   1.267  0.3135 -0.2025  0.4043
 9832W        W12032   6.379   0.056  17.729 -0.1099 -0.3106  0.1210
 9833W        W12033   5.858   1.637  11.167 -0.0890  0.0946 -0.0132
 9834W        W12034   5.662   6.079  12.390  0.0881  0.0659  0.1305
 9835W        W12035   4.131   5.625  14.595 -0.0106  0.1678  0.0945
 9836W        W12036   7.455   3.069  43.494  0.1521 -0.0611 -0.0108
 9837W        W12037  18.386   4.100  15.018  0.1989  0.0573 -0.0279
 9838W        W12038  19.984   3.932  37.608  0.0511 -0.3619 -0.2345
 9839W        W12039  18.163   5.049  22.245 -0.0648  0.1377  0.2775
 9840W        W12040   7.005   3.551   3.629 -0.0767 -0.0700 -0.0208
 9841W        W12041  10.150   3.788  36.722 -0.2891  0.1635  0.0552
 9842W        W12042   8.740   4.049  40.803 -0.1827  0.0439  0.0595
 9843W        W12043  18.993   6.182  27.113  0.1392  0.3116 -0.1021
 9844W        W12044   8.623   2.712  43.678  0.0812 -0.4798 -0.0872
 9845W        W12045   0.251   0.058  29.448  0.2271  0.1241  0.3631
 9846W        W12046   7.219   0.982  21.427  0.0795 -0.1010 -0.2346
 9847W        W12047   2.277   6.047  26.153  0.1775 -0.4250  0.2877
 9848W        W12048   7.415   5.757  32.469  0.0333  0.1720  0.3176
 9849W        W12049  19.980   0.589  12.552 -0.0062 -0.3463  0.0715
 9850W        W12050   0.106   2.702   4.836  0.2276 -0.4086 -0.1671
 9851W        W12051   3.585   5.206   9.775  0.3918 -0.1939  0.1180
 9852W        W12052  20.067   4.902   2.877  0.1480 -0.1901 -0.3116
 9853W        W12053  12.545   6.237  33.452  0.1563  0.2723 -0.1943
 9854W        W12054   3.327   2.864   7.495  0.2003 -0.0240  0.2578
 9855W        W12055   7.114   2.194   9.812 -0.1775  0.0984 -0.2310
 9856W        W12056  17.317   5.544  43.348 -0.3475  0.0404  0.1824
 9857W        W12057  13.522   3.388   3.942  0.0791  0.2820 -0.0664
 9858W        W12058   5.415   1.051  31.024  0.0189 -0.2132  0.4857
 9859W        W12059   0.250   3.533  34.828  0.3693 -0.0904 -0.0566
 9860W        W12060  11.365   3.424  42.948 -0.0943  0.0526  0.1090
 9861W        W12061  19.384   2.341  21.540  0.0575 -0.0600 -0.1182
 9862W        W12062  16.430   3.180   5.900  0.0691  0.0407  0.1479
 9863W        W12063  15.139   1.531  13.548 -0.0825  0.0592 -0.0904
 9864W        W12064  16.760   2.507  40.202  0.0631 -0.2514 -0.2467
 9865W        W12065   7.156   4.267   8.968  0.1421  0.0670 -0.1758
 9866W        W12066   8.990   2.786  34.516  0.0096  0.2159  0.2810
 9867W        W12067   6.758   0.981   8.417  0.2828 -0.2593  0.3184
 9868W        W12068   4.792   0.283  33.212 -0.2187  0.1902  0.1593
 9869W        W12069   0.998   6.455  43.183  0.2353  0.3508 -0.0362
 9870W        W12070   6.527   5.962  37.210 -0.0813  0.2069  0.1292
 9871W        W12071   3.125   6.348   8.021  0.4398  0.1654 -0.1665
 9872W        W12072   7.436   0.947  37.068  0.2163  0.0113  0.3152
 9873W        W12073   2.713   6.579  27.022  0.0271 -0.0100 -0.1072
 9874W        W12074  14.147   2.910   1.561  0.1682 -0.0852 -0.1363
 9875W        W12075   5.521   0.548   4.415 -0.1229  0.3234  0.2725
 9876W        W12076  16.861   5.276  40.237 -0.0246 -0.1706 -0.2039
 9877W        W12077  15.511   0.317   7.415 -0.5171 -0.0228  0.3400
 9878W        W12078   0.284   1.373  30.594 -0.1909  0.2448 -0.2752
 9879W        W12079  19.429   0.422  44.050 -0.0148 -0.1627  0.0431
 9880W        W12080  11.039   5.736  16.406  0.1765  0.1615 -0.0758
 9881W        W12081  18.272   5.319  31.074 -0.0184 -0.3889 -0.0972
 9882W        W12082  15.432   3.465  44.363  0.2913  0.0124 -0.1144
 9883W        W12083  19.975   5.452  38.356 -0.4196  0.5446 -0.1021
 9884W        W12084   0.473   0.578  38.867 -0.0917  0.1533 -0.0366
 9885W        W12085   2.068   2.345   4.707  0.0729 -0.0819 -0.1745
 9886W        W12086   2.603   3.691   6.651 -0.1591  0.0769 -0.1529
 9887W        W12087  17.626   2.097  23.154  0.0279  0.0297  0.0678
 9888W        W12088  10.389   5.540   6.816 -0.0370 -0.1193 -0.0193
 9889W        W12089  16.159   3.685  24.243 -0.0964  0.1513 -0.0163
 9890W        W12090   0.630   2.147   6.070  0.0418  0.0885  0.1724
 9891W        W12091   6.598   5.589  15.817 -0.0762  0.3065  0.0168
 9892W        W12092   4.780   0.882   1.408 -0.1323  0.0609 -0.1225
 9893W        W12093   2.228   3.824   0.888 -0.0120 -0.1087 -0.2422
 9894W        W12094  10.941   2.692  35.297 -0.5291  0.2230  0.1110
 9895W        W12095   5.561   2.624  34.333 -0.3192 -0.1895 -0.0540
 9896W        W12096  10.320   1.086   7.141  0.0900  0.1871 -0.0492
 9897W        W12097   9.795   6.043  16.962 -0.1095  0.2898 -0.0806
 9898W        W12098  20.376   4.164   7.249  0.4893  0.2676  0.0342
 9899W        W12099   0.516   0.072  25.571  0.1964  0.3843  0.0251
 9900W        W12100   2.822   6.343  37.730  0.2033 -0.0379  0.0776
 9901W        W12101   1.484   2.679  32.607 -0.1626 -0.2062  0.0189
 9902W        W12102   2.269   2.945  37.503 -0.1399  0.4656 -0.3568
 9903W        W12103  12.933   3.817  43.896 -0.2594  0.1098  0.0474
 9904W        W12104  13.114   2.028   2.213  0.2155 -0.0308 -0.0908
 9905W        W12105  15.830   6.167  36.060  0.0202  0.3389  0.2074
 9906W        W12106   1.217   4.391  31.228  0.0342  0.2036 -0.0134
 9907W        W12107   5.009   5.727  29.385 -0.2663  0.0190 -0.0872
 9908W        W12108  14.756   0.216   1.595  0.1354 -0.1041  0.1781
 9909W        W12109  10.434   3.903  37.298 -0.0556  0.3654 -0.0202
 9910W        W12110   2.105   0.935  12.020 -0.3204  0.1352  0.1428
 9911W        W12111   4.610   3.892  13.236 -0.0028  0.0578 -0.0164
 9912W        W12112   2.291   2.192  27.464 -0.3365  0.2243 -0.0583
 9913W        W12113   2.887   2.819  43.057  0.1895  0.1502  0.1357
 9914W        W12114  17.319   1.117  34.938 -0.0406 -0.1384 -0.1154
 9915W        W12115   4.840   2.384  43.605 -0.4713 -0.4489  0.2077
 9916W        W12116   7.425   2.283  32.448 -0.0934 -0.1656  0.0802
 9917W        W12117  12.332   1.161  14.221  0.1780 -0.0934  0.0739
 9918W        W12118   3.115   2.391  34.219 -0.0077 -0.1494  0.0387
 9919W        W12119   0.477   5.165   2.807  0.4372  0.2745  0.1682
 9920W        W12120   1.566   4.106  30.849  0.2615 -0.0153  0.1265
 9921W        W12121  14.586   4.888  37.845  0.0513 -0.0670 -0.0691
 9922W        W12122  15.297   5.312  43.132 -0.1377  0.2275  0.0720
 9923W        W12123   9.074   6.064  31.818  0.1188 -0.3101  0.0555
 9924W        W12124  17.635   2.675  13.034 -0.2004  0.0191  0.0437
 9925W        W12125   4.887   0.791  43.459  0.1245  0.0997 -0.0041
 9926W        W12126  18.557   1.586  42.968  0.0568 -0.0523  0.1839
 9927W        W12127  20.038   3.311  22.325 -0.2412 -0.1259  0.0088
 9928W        W12128  14.637   1.353  33.595 -0.1126 -0.2678  0.0633
 9929W        W12129   5.025   2.400   7.650 -0.2604  0.2119  0.0689
 9930W        W12130  20.571   6.224   1.935  0.0148  0.0329 -0.0102
 9931W        W12131  16.000   0.820  38.130 -0.2331 -0.0662 -0.3068
 9932W        W12132   8.368   0.738  37.212 -0.0667  0.1335 -0.0658
 9933W        W12133  10.410   3.992  18.042 -0.1182 -0.2979 -0.2248
 9934W        W12134  19.177   1.928  36.011  0.0122  0.2512 -0.1189
 9935W        W12135  14.853   0.167  11.843 -0.5199  0.0885 -0.0647
 9936W        W12136   9.689   1.902  42.526 -0.1035 -0.2173 -0.0846
 9937W        W12137   1.916   0.785  42.361  0.1181  0.1191 -0.0982
 9938W        W12138  17.077   0.836  15.279  0.0828 -0.1568 -0.1043
 9939W        W12139  19.466   2.406  23.496  0.1426  0.0621  0.1071
 9940W        W12140  18.957   1.538   2.964  0.0971  0.1623 -0.3071
 9941W        W12141  15.070   1.667   2.537 -0.1512 -0.1595 -0.1032
 9942W        W12142  20.174   5.280  27.839  0.2750 -0.2104 -0.0166
 9943W        W12143   4.140   5.142  17.261 -0.2386 -0.1785  0.0600
 9944W        W12144   9.158   2.691  11.132 -0.2853  0.1971  0.2244
 9945W        W12145  14.879   0.240   6.728  0.2339  0.0852  0.3768
 9946W        W12146   0.578   4.594  26.155  0.3999 -0.2409 -0.1358
 9947W        W12147  12.521   5.999   0.587 -0.2240  0.2523  0.1356
 9948W        W12148  18.161   0.677  30.590  0.1905  0.1780 -0.0519
 9949W        W12149  17.450   0.408  38.685  0.0293  0.1505 -0.0494
 9950W        W12150  20.721   5.264  29.550  0.0632 -0.2807 -0.0100
 9951W        W12151   4.334   6.450  10.041  0.0448 -0.0541 -0.2006
 9952W        W12152   7.944   0.254  36.540 -0.0011 -0.0147  0.2696
 9953W        W12153  19.878   6.541  39.847 -0.2759 -0.0528  0.1170
 9954W        W12154  13.594   3.156  38.283 -0.2629 -0.0020  0.0628
 9955W        W12155   8.401   1.197  29.868  0.2533  0.0186 -0.0149
 9956W        W12156  20.662   5.885   2.303  0.0414  0.0915  0.0913
 9957W        W12157   5.204   3.297   5.418  0.4563  0.0557  0.0389
 9958W        W12158  20.057   3.753   5.557 -0.0690  0.0294 -0.1019
 9959W        W12159   7.012   3.734   0.509 -0.0417 -0.2701  0.1075
 9960W        W12160  15.546   1.675  10.010 -0.0243  0.0151  0.0968
 9961W        W12161   3.188   2.352   3.865  0.0538 -0.1490  0.4196
 9962W        W12162   8.797   5.654  39.882  0.2083 -0.1102 -0.1526
 9963W        W12163   8.817   0.674  14.029 -0.1655 -0.1387 -0.1284
 9964W        W12164   7.650   2.221   5.287  0.3937 -0.2362 -0.2726
 9965W        W12165   1.066   6.274  30.802 -0.0253 -0.2956 -0.0073
 9966W        W12166   8.886   3.867  40.380  0.0497 -0.0289  0.0950
 9967W        W12167  20.079   6.137  22.036 -0.2604  0.0314 -0.1529
 9968W        W12168  11.874   0.315   1.934 -0.1069  0.0825  0.2432
 9969W        W12169   2.018   3.890   9.771  0.0334 -0.0828  0.0707
 9970W        W12170  18.759   6.064   8.484 -0.2951  0.0405  0.1495
 9971W        W12171  15.768   1.480   9.248  0.3409 -0.0894 -0.0946
 9972W        W12172   6.437   1.830  15.878  0.0678 -0.2411  0.1347
 9973W        W12173   3.375   1.488   9.671  0.3195  0.3940 -0.1337
 9974W        W12174  20.691   5.375  39.020  0.4205 -0.3092  0.0871
 9975W        W12175  14.156   0.946  13.096 -0.0343 -0.0202  0.0599
 9976W        W12176   1.648   1.458  36.098  0.0172  0.2786  0.2411
 9977W        W12177   5.112   5.465   6.520  0.1311  0.1289  0.3470
 9978W        W12178   7.178   4.603  19.488  0.0908  0.0825  0.2405
 9979W        W12179  14.357   1.888   8.277  0.1962  0.3071  0.1351
 9980W        W12180   2.468   5.488  45.040  0.0392 -0.1761  0.0908
 9981W        W12181  18.793   2.652  25.829 -0.0187  0.3746 -0.0509
 9982W        W12182   7.362   3.073  39.722 -0.0630 -0.2902  0.1157
 9983W        W12183  14.141   6.595  19.250 -0.0656 -0.2602 -0.2130
 9984W        W12184   9.801   0.803  13.981 -0.1488  0.0407 -0.2517
 9985W        W12185   1.261   2.481  36.750 -0.0383 -0.1101  0.0890
 9986W        W12186   3.008   5.082   6.275 -0.4477  0.2892  0.0716
 9987W        W12187  10.799   5.875   6.829  0.0649 -0.3257  0.1136
 9988W        W12188   3.598   1.842  32.250 -0.0246  0.1019  0.3605
 9989W        W12189  20.186   3.325  38.780 -0.1773  0.2258 -0.1158
 9990W        W12190  14.661   6.562  31.881  0.2485 -0.0668 -0.0275
 9991W        W12191  16.055   5.402   6.628 -0.0765  0.0277  0.0777
 9992W        W12192  15.510   0.288  30.251  0.1339  0.1211  0.3099
 9993W        W12193  14.390   0.056   1.183  0.2839 -0.0062  0.1432
 9994W        W12194  12.799   2.883  15.993  0.1418  0.0316 -0.1403
 9995W        W12195   9.625   4.964  40.321  0.4427 -0.1256 -0.1894
 9996W        W12196   8.236   4.397  38.581  0.0512 -0.0384 -0.3525
 9997W        W12197   9.778   0.762   9.157  0.0596 -0.3010  0.0670
 9998W        W12198  18.968   0.482  30.690  0.2461  0.1965  0.0704
 9999W        W12199  13.189   5.062  11.762 -0.0838  0.0899  0.2124
10000W        W12200   5.597   6.457   5.993 -0.0858 -0.0045 -0.1777
10001W        W12201   1.692   1.801  36.512 -0.1357 -0.4718 -0.2041
10002W        W12202   2.209   1.744   1.478 -0.2828 -0.1434 -0.1185
10003W        W12203  13.303   6.478  38.307 -0.1151 -0.0755 -0.2666
10004W        W12204   1.863   2.443  27.624 -0.0992 -0.0850 -0.2452
10005W        W12205   7.994   0.383  29.149  0.1473  0.2431 -0.1771
10006W        W12206  14.279   2.224  10.839  0.0333 -0.1631  0.2161
10007W        W12207   2.428   0.770  44.468  0.1968 -0.0876  0.0858
10008W        W12208  13.025   2.514  13.085 -0.3071 -0.4561  0.0444
10009W        W12209  11.031   2.076  42.594  0.1167  0.0596 -0.2938
10010W        W12210   8.265   1.662  22.700  0.0520 -0.1007 -0.0188
10011W        W12211   5.317   5.749  30.734 -0.0195  0.1082  0.0585
10012W        W12212  10.231   5.531   1.052 -0.0412 -0.0196 -0.1153
10013W        W12213   8.789   4.842  12.937  0.0263 -0.2301 -0.0070
10014W        W12214   5.145   1.353  39.475  0.1715 -0.0481 -0.1439
10015W        W12215   7.292   6.165  14.806 -0.1387  0.4934 -0.2474
10016W        W12216  20.990   1.019  40.507  0.0856  0.1350  0.1909
10017W        W12217  17.184   4.308  15.419 -0.2722 -0.2636 -0.2138
10018W        W12218   7.417   2.987  10.870  0.2113 -0.0317 -0.2433
10019W        W12219   9.720   5.187  36.160 -0.2636 -0.0883  0.1842
10020W        W12220  16.241   3.174   9.561 -0.0880  0.0189  0.0733
10021W        W12221  12.815   4.721  43.834  0.2668 -0.1074  0.2577
10022W        W12222   6.303   1.481  14.778  0.6429  0.0032 -0.0731
10023W        W12223   1.314   5.600  35.545 -0.2682  0.0703 -0.2202
10024W        W12224  11.152   6.585  42.190 -0.1556 -0.2741  0.0809
10025W        W12225  17.883   1.529  36.469 -0.0717  0.3085 -0.2149
10026W        W12226   8.355   4.528  16.742  0.0098  0.0516 -0.1124
10027W        W12227   3.481   0.330  37.859 -0.1948 -0.0893 -0.0342
10028W        W12228   8.419   3.616  43.524  0.0316 -0.1084  0.2677
10029W        W12229   1.055   0.524  34.943 -0.2099  0.0085  0.3970
10030W        W12230  15.612   4.916  16.772  0.3089 -0.0638 -0.2989
10031W        W12231  13.376   4.924   8.376 -0.0040  0.1037  0.1867
10032W        W12232  14.867   0.791  37.761  0.1365  0.0625  0.0200
10033W        W12233  10.907   5.060  25.530 -0.1033 -0.2314  0.0123
10034W        W12234   7.879   5.248  13.866  0.2916  0.1454  0.2323
10035W        W12235  19.890   3.971   0.285  0.0166  0.0257 -0.0718
10036W        W12236   4.745   3.141  38.042 -0.0519 -0.1970  0.2918
10037W        W12237   1.396   0.154  32.611 -0.3142  0.2963  0.1455
10038W        W12238   8.294   5.902   4.224  0.0376 -0.1579 -0.2611
10039W        W12239   5.938   5.712  18.709  0.1205  0.0106 -0.1004
10040W        W12240  16.055   0.305  37.694 -0.1240  0.2914 -0.1963
10041W        W12241   3.766   1.950  36.356 -0.3128 -0.0503 -0.2416
10042W        W12242   8.851   3.037  24.471 -0.3319 -0.1681 -0.1810
10043W        W12243  10.828   0.700  11.243 -0.2144  0.1084  0.2195
10044W        W12244  10.477   5.073  11.800  0.0342 -0.2399 -0.1669
10045W        W12245  13.526   5.358   9.616  0.2018  0.2561  0.0788
10046W        W12246  11.743   5.199  34.653  0.1574 -0.0284 -0.0651
10047W        W12247  15.870   5.396   1.608  0.0596  0.0392  0.0759
10048W        W12248  15.987   1.402  43.604  0.0365 -0.2615 -0.2073
10049W        W12249  19.458   6.059  38.196  0.1301  0.0081 -0.1383
10050W        W12250   2.625   0.678  40.303  0.0424 -0.0596 -0.1734
10051W        W12251   4.513   1.118  43.195  0.1244 -0.0478  0.2598
10052W        W12252   1.928   0.947   4.627 -0.0772  0.2796  0.2094
10053W        W12253  15.169   3.366  14.890 -0.2307 -0.1123 -0.0954
10054W        W12254   0.078   1.965  14.824 -0.0882 -0.0254 -0.2618
10055W        W12255   4.721   4.105  30.645  0.1579 -0.3186 -0.0976
10056W        W12256   4.195   6.458  16.706  0.1188  0.1204 -0.1641
10057W        W12257   6.083   5.604   2.160  0.1317 -0.1758 -0.0181
10058W        W12258   6.216   5.935   3.822 -0.2275  0.0991  0.0118
10059W        W12259   3.714   2.647  15.818 -0.2602 -0.0228  0.2603
10060W        W12260  19.279   5.143  12.333 -0.0603  0.0231 -0.0499
10061W        W12261  13.684   3.773  18.634  0.2243 -0.1331  0.0639
10062W        W12262  19.186   4.072  27.640  0.0863  0.1780  0.0445
10063W        W12263  17.910   5.083  10.207  0.2913  0.1889  0.1050
10064W        W12264  13.278   0.392  41.619  0.0681 -0.0204 -0.1124
10065W        W12265   1.745   1.769   8.040 -0.1589  0.2896 -0.1330
10066W        W12266  12.958   1.781  38.135 -0.1727 -0.2470 -0.2127
10067W        W12267  16.196   6.320  30.535  0.3240  0.1538  0.2308
10068W        W12268  10.079   3.055  23.182 -0.0337 -0.3828 -0.1762
10069W        W12269  11.348   6.239  31.670  0.0535  0.1648  0.0723
10070W        W12270   6.801   2.682   3.764  0.2912  0.0320 -0.1561
10071W        W12271   5.053   4.687   3.454  0.4466  0.0836  0.2405
10072W        W12272   5.180   2.188   4.559 -0.3270 -0.1613 -0.0619
10073W        W12273  10.898   5.268  17.734  0.0982 -0.1680  0.4565
10074W        W12274   5.604   5.883  43.834 -0.5299  0.0077 -0.0123
10075W        W12275  14.469   3.307   5.340  0.1199 -0.1748 -0.2245
10076W        W12276   6.229   4.517   5.631  0.1672  0.1501 -0.2328
10077W        W12277  10.306   3.020  42.976 -0.0719  0.0044  0.0507
10078W        W12278   3.647   5.812  41.637  0.0755  0.1310 -0.0801
10079W        W12279  17.950   4.227   7.775 -0.0729  0.1422  0.1514
10080W        W12280  15.443   3.411  12.778 -0.5706  0.0707  0.0612
10081W        W12281  18.672   3.204  35.085  0.2856 -0.1860 -0.0309
10082W        W12282   6.592   5.868  21.596  0.0303  0.0806 -0.2216
10083W        W12283  17.393   5.765  32.988  0.1180 -0.0932 -0.1427
10084W        W12284  10.691   1.235  43.932 -0.2501  0.2581  0.2916
10085W        W12285   2.108   0.257  38.497  0.2136  0.1382 -0.0827
10086W        W12286  11.537   1.327  11.418 -0.0910  0.1258 -0.3935
10087W        W12287  10.249   0.697   6.799  0.0529  0.1003 -0.1306
10088W        W12288  10.081   1.287   1.183 -0.0914  0.0711  0.2877
10089W        W12289  11.328   5.558  12.616  0.1099 -0.1669  0.0689
10090W        W12290  13.947   3.596   8.196 -0.2924  0.1087  0.0693
10091W        W12291  10.878   3.783   2.266  0.2394  0.0993 -0.2959
10092W        W12292  16.360   2.092  32.373 -0.0034 -0.5305 -0.0967
10093W        W12293  20.374   6.390  39.736  0.0716 -0.0663 -0.3907
10094W        W12294   3.183   5.570   9.764  0.0914 -0.0034  0.1097
10095W        W12295  17.148   5.640  31.584  0.2692  0.0191 -0.0143
10096W        W12296   5.958   1.059   0.280 -0.0890 -0.0849  0.0399
10097W        W12297   9.511   5.385  22.606 -0.1146  0.0719 -0.1529
10098W        W12298   4.117   6.279  33.057  0.1728  0.2100  0.2223
10099W        W12299   0.499   2.990  31.284  0.0591  0.0166 -0.0996
10100W        W12300   6.828   4.964  12.784 -0.2480  0.0271  0.0315
10101W        W12301  20.325   5.155  11.374 -0.0875  0.0083  0.1490
10102W        W12302  12.153   2.763  33.381 -0.0718 -0.1100 -0.3124
10103W        W12303  19.443   3.619  26.519 -0.3182 -0.2411 -0.1289
10104W        W12304  18.295   0.487  13.874  0.1925  0.4233  0.3072
10105W        W12305   5.837   0.056  10.898  0.1805 -0.0961  0.1348
10106W        W12306  17.757   4.512  32.136  0.2048  0.2713 -0.1393
10107W        W12307   2.087   2.153  38.794 -0.0888 -0.0191  0.4952
10108W        W12308  11.969   3.167  44.605  0.1000  0.2845  0.1518
10109W        W12309   7.647   5.289  18.866 -0.2267  0.3506  0.1677
10110W        W12310   2.282   2.243   9.773 -0.0416  0.1741 -0.1998
10111W        W12311   7.851   5.826  38.140 -0.1705 -0.2891 -0.2211
10112W        W12312   7.982   6.030  16.544  0.1057 -0.1000 -0.0387
10113W        W12313   7.143   5.976  11.482 -0.0421 -0.1057 -0.2441
10114W        W12314   6.904   6.498  16.661 -0.1645  0.1184  0.0669
10115W        W12315  11.152   2.533  37.769  0.0781  0.0401  0.0159
10116W        W12316  18.659   2.892  31.984  0.2273 -0.1849  0.1414
10117W        W12317   0.270   5.572  27.087 -0.5704  0.3303  0.3726
10118W        W12318   2.737   4.236  42.847  0.2304  0.1657 -0.1320
10119W        W12319  18.573   4.642  22.968 -0.2842 -0.0230 -0.0783
10120W        W12320  18.216   2.875   2.359 -0.3767  0.0600  0.0928
10121W        W12321   3.590   3.055  26.309 -0.0844 -0.1243 -0.2909
10122W        W12322   2.463   3.773  38.686  0.0724 -0.0338  0.1937
10123W        W12323   4.046   4.366   4.888  0.0475 -0.1495  0.1589
10124W        W12324  12.303   5.768  31.673 -0.2372  0.2699  0.1540
10125W        W12325   2.702   5.010  16.009 -0.1673  0.1508  0.0767
10126W        W12326   4.824   1.300  40.350 -0.0346  0.1839 -0.1308
10127W        W12327   2.529   5.488  40.602 -0.0444 -0.2195  0.1168
10128W        W12328   7.205   4.260  40.452 -0.1125 -0.0414  0.0073
10129W        W12329   0.578   0.126   2.471  0.3582  0.2781 -0.1153
10130W        W12330  16.721   1.358   8.798 -0.1457  0.1300 -0.1594
10131W        W12331  19.127   4.980  14.578  0.0694  0.0191 -0.1686
10132W        W12332   6.747   4.416   6.577 -0.0051 -0.1684  0.0839
10133W        W12333   5.356   2.317  41.121  0.1589  0.0671  0.0111
10134W        W12334  19.671   0.788   7.812 -0.2184 -0.3934 -0.3733
10135W        W12335  19.993   5.930   1.503 -0.0431 -0.0126  0.1006
10136W        W12336  14.661   0.407   0.639  0.1840  0.1421 -0.1605
10137W        W12337   1.978   3.423  40.273  0.1009  0.2322  0.2347
10138W        W12338  18.408   4.471   6.437  0.0834  0.0740 -0.0484
10139W        W12339   6.694   2.212  21.549 -0.0378  0.0044 -0.3937
10140W        W12340  13.422   2.773  27.871 -0.0887  0.2213  0.1271
10141W        W12341   1.922   0.186  44.994 -0.1028  0.0799 -0.2749
10142W        W12342   2.116   1.594  35.203 -0.1411  0.1024 -0.3778
10143W        W12343  15.071   6.116   5.590  0.1180 -0.3257 -0.1461
10144W        W12344   3.907   1.469  36.997  0.0228  0.1400 -0.0153
10145W        W12345  12.809   5.180  31.588  0.1124  0.0931  0.0824
10146W        W12346   6.801   5.163  10.217 -0.1374 -0.2226  0.1843
10147W        W12347  16.619   4.040   8.140  0.1181  0.0544 -0.1156
10148W        W12348   0.874   5.423   9.579  0.0478 -0.1894  0.1081
10149W        W12349   2.012   5.475  35.402  0.2227 -0.2243 -0.3484
10150W        W12350   3.553   1.103  39.845  0.0413 -0.1900  0.0998
10151W        W12351  20.347   2.293  26.635 -0.1159 -0.1069  0.1813
10152W        W12352  18.655   0.339  32.780  0.3118  0.0144 -0.0437
10153W        W12353  20.301   4.485  35.551 -0.2247 -0.0204 -0.0043
10154W        W12354  15.290   5.762   6.541  0.2311  0.0150 -0.2966
10155W        W12355   4.983   3.085  30.222 -0.0196 -0.1535 -0.2097
10156W        W12356   6.834   5.466  33.138 -0.3921 -0.2379 -0.1375
10157W        W12357  10.461   0.784  29.449 -0.2895  0.0248  0.2077
10158W        W12358  21.019   6.084  36.741 -0.1932  0.0086 -0.3078
10159W        W12359   8.739   1.398  17.991 -0.0334 -0.0996  0.0298
10160W        W12360   8.303   1.240  12.459 -0.1877 -0.1371  0.3716
10161W        W12361  20.920   0.534   3.500  0.0487 -0.0037  0.2978
10162W        W12362  17.478   5.031  35.038  0.1488  0.2975 -0.0575
10163W        W12363   5.069   1.745  40.006 -0.1034 -0.1915 -0.0184
10164W        W12364   7.487   5.328  19.848 -0.1415  0.0820 -0.0027
10165W        W12365  20.778   2.696  34.719  0.1313  0.3294  0.1284
10166W        W12366   7.601   3.951  40.282 -0.2413 -0.1780  0.2931
10167W        W12367   8.657   4.368  13.446 -0.0437 -0.1504 -0.0194
10168W        W12368  15.965   2.145  10.524 -0.2407 -0.1936  0.0673
10169W        W12369   3.673   0.659   6.977 -0.1007  0.2437 -0.2578
10170W        W12370  10.520   5.383  40.730  0.0551 -0.1699 -0.1354
10171W        W12371   3.985   0.900   5.447 -0.3232 -0.1130 -0.0956
10172W        W12372   9.018   5.590   8.855 -0.1881  0.1562 -0.1934
10173W        W12373  16.088   6.395  25.604  0.1894 -0.1121 -0.1012
10174W        W12374   0.252   4.743  40.399  0.2071  0.0686  0.1731
10175W        W12375  12.264   1.959  17.642 -0.1126 -0.0710 -0.4830
10176W        W12376  20.757   3.196  36.916 -0.1705 -0.0025  0.0748
10177W        W12377   7.671   5.296  35.666 -0.1587 -0.0664 -0.2846
10178W        W12378  19.403   2.483  19.758  0.2468  0.1440  0.1099
10179W        W12379   0.384   6.533  12.001  0.1185 -0.0354  0.1429
10180W        W12380  15.072   1.566  40.746  0.0153  0.0352 -0.1351
10181W        W12381   5.442   3.243   6.652 -0.1732 -0.1953  0.2950
10182W        W12382  10.385   4.263  12.143  0.0280 -0.2232 -0.0154
10183W        W12383   5.882   0.929  32.996  0.0534  0.0386 -0.1788
10184W        W12384  20.906   5.021  23.299  0.1338 -0.2094 -0.2049
10185W        W12385   6.200   4.854  34.300 -0.0765 -0.1149  0.1858
10186W        W12386  13.198   0.881  33.987  0.1310  0.0045 -0.0982
10187W        W12387   0.762   1.675  23.041  0.3176  0.0667  0.1237
10188W        W12388   7.927   5.429  39.420 -0.3949 -0.0132 -0.0156
10189W        W12389  10.578   6.272  14.062  0.1099 -0.1490  0.0690
10190W        W12390   9.302   0.229  19.815 -0.2607 -0.1342 -0.2040
10191W        W12391  18.457   0.308  22.208 -0.0548  0.1929 -0.0429
10192W        W12392  19.604   5.956  37.218 -0.4219  0.1532  0.2006
10193W        W12393   9.631   3.903  38.393  0.0045  0.1182 -0.1847
10194W        W12394   2.084   1.676   8.930 -0.0082 -0.0071  0.1645
10195W        W12395  19.157   5.637  14.988  0.2062 -0.1094  0.0620
10196W        W12396   1.148   1.346  39.237  0.0358 -0.0459  0.3364
10197W        W12397  14.213   1.501  16.823 -0.0323 -0.2353  0.1271
10198W        W12398  17.195   4.143   9.902  0.2119 -0.0530  0.1398
10199W        W12399  15.819   5.320  36.461 -0.3288 -0.0262  0.2341
10200W        W12400  18.732   1.498  24.168  0.0771 -0.1165 -0.1844
10201W        W12401  17.761   2.055  43.691 -0.0547  0.1878 -0.3743
10202W        W12402  13.035   5.795   7.286  0.3358  0.3986 -0.0205
10203W        W12403  12.822   2.689  42.622  0.3112 -0.1597  0.1005
10204W        W12404  15.437   6.415  33.601  0.0044  0.0713  0.1418
10205W        W12405  17.436   2.221   3.796 -0.2888 -0.0587 -0.0262
10206W        W12406   9.186   2.158   6.575 -0.1999 -0.0584  0.3006
10207W        W12407  13.385   1.772  13.816 -0.0893 -0.0915  0.1162
10208W        W12408  14.829   3.588  37.045  0.0090 -0.2449 -0.0818
10209W        W12409   3.968   5.312   2.760 -0.0840  0.1072 -0.0165
10210W        W12410   4.667   6.170  35.864 -0.0354 -0.2404  0.0633
10211W        W12411  14.727   5.940   3.878 -0.0023 -0.0779 -0.4632
10212W        W12412  16.521   4.955   7.846  0.2380  0.0144  0.0021
10213W        W12413   4.846   0.581   5.823  0.1011  0.0085 -0.1862
10214W        W12414   9.877   0.755  23.868 -0.2045  0.0636  0.1114
10215W        W12415   7.206   3.815  34.153  0.1198 -0.1364  0.1853
10216W        W12416  20.480   4.665  39.548 -0.1353 -0.0609 -0.1400
10217W        W12417  18.791   2.677  29.557  0.0384 -0.1725 -0.0087
10218W        W12418   7.079   6.207   9.337 -0.0750  0.1042  0.1536
10219W        W12419  14.733   2.664  17.495  0.0358 -0.0436 -0.0237
10220W        W12420  18.346   5.828  15.595  0.2730 -0.1277 -0.0044
10221W        W12421  11.790   2.300  21.314  0.2203 -0.2187 -0.0003
10222W        W12422  16.269   6.235   1.102 -0.4338  0.0031 -0.0563
10223W        W12423  10.683   5.371  39.658 -0.3104  0.1224  0.0362
10224W        W12424  11.257   4.368   6.621 -0.1330  0.0078 -0.1741
10225W        W12425   7.694   1.308  32.535  0.1139 -0.2752  0.3164
10226W        W12426  10.279   4.653  43.904 -0.2229  0.0084 -0.0699
10227W        W12427  18.067   3.639  39.819 -0.2693  0.0691  0.1404
10228W        W12428  13.384   1.641  38.232 -0.1927 -0.1843  0.3395
10229W        W12429   6.648   1.138   2.853 -0.0240 -0.1945  0.0446
10230W        W12430  11.171   5.317  32.685 -0.2978  0.0784 -0.1829
10231W        W12431   9.866   3.385  10.186 -0.1247 -0.0300 -0.0711
10232W        W12432   2.994   0.305  18.025  0.0351 -0.3454  0.0096
10233W        W12433   5.805   1.234  31.326  0.0604  0.3951 -0.0767
10234W        W12434  15.917   2.891  40.540 -0.1023  0.0440  0.0397
10235W        W12435  19.062   1.766   3.843 -0.0697  0.0865 -0.2090
10236W        W12436   2.550   6.005   0.707  0.1735 -0.2681 -0.0964
10237W        W12437  19.606   0.743   2.393  0.1086 -0.2056 -0.2299
10238W        W12438   4.278   2.698   9.930  0.2004  0.1679 -0.1047
10239W        W12439  13.350   0.206   9.070  0.1660  0.1293  0.3573
10240W        W12440   0.538   6.029  10.152  0.0747  0.1513 -0.3555
10241W        W12441   8.889   3.053  36.708  0.0894 -0.0527 -0.1274
10242W        W12442  16.873   0.873   9.886  0.0610  0.0244 -0.0731
10243W        W12443   3.095   3.336   1.950  0.0498 -0.0029  0.2266
10244W        W12444   6.566   6.372   3.640  0.0824  0.3599 -0.0957
10245W        W12445   8.371   4.026  16.476 -0.2160  0.2478  0.0915
10246W        W12446   2.831   5.703  30.830 -0.0558 -0.3026 -0.1116
10247W        W12447  14.672   0.537  27.576  0.2321 -0.2021 -0.0329
10248W        W12448  14.710   1.364  34.707  0.2549  0.0984  0.0421
10249W        W12449   7.400   1.956  35.379  0.1839  0.1917 -0.0424
10250W        W12450  12.925   1.873   5.541 -0.2628 -0.2303 -0.2340
10251W        W12451  14.444   2.336   7.661  0.0562  0.3505  0.0305
10252W        W12452  18.876   3.765  39.153  0.0177  0.1577  0.1154
10253W        W12453  12.604   1.623  34.412  0.0514 -0.0634  0.0932
10254W        W12454  20.369   3.445   9.486 -0.1050  0.0760 -0.0981
10255W        W12455   3.554   4.108  33.780 -0.2998 -0.1853 -0.0611
10256W        W12456   0.510   0.222  31.513  0.2191 -0.1115  0.3121
10257W        W12457   1.489   6.436   9.691 -0.1141 -0.0931 -0.0154
10258W        W12458  19.715   3.753  31.415 -0.0684  0.0572 -0.3290
10259W        W12459   7.062   1.978  44.723  0.1649  0.3322  0.2320
10260W        W12460  11.954   3.867   9.524  0.0818 -0.1388  0.1235
10261W        W12461   8.646   0.851  19.677 -0.0524 -0.3692 -0.2048
10262W        W12462   2.429   1.567  13.800  0.1349 -0.2671 -0.0017
10263W        W12463   7.545   6.008   4.506  0.1478 -0.3131 -0.1472
10264W        W12464   3.817   4.897  41.663 -0.0071 -0.1209 -0.0647
10265W        W12465  11.406   6.174   3.789  0.1667  0.0800 -0.1277
10266W        W12466   5.197   2.404   2.779  0.1910  0.2774 -0.1548
10267W        W12467   7.606   1.481   3.616  0.1207 -0.2281  0.1486
10268W        W12468   7.048   5.891   7.484  0.0974 -0.1167 -0.0473
10269W        W12469   1.767   2.074   0.010  0.2737 -0.1414 -0.0889
10270W        W12470   3.780   1.576   7.527  0.1539  0.1703  0.0865
10271W        W12471   5.884   4.775   7.206 -0.0759  0.2994  0.3300
10272W        W12472  13.078   5.055  44.100 -0.1750 -0.0873 -0.1375
10273W        W12473   0.226   2.112  35.814 -0.0254 -0.0230  0.1438
10274W        W12474  13.792   6.475   2.011 -0.1375  0.0578  0.0428
10275W        W12475  18.299   3.231  13.692 -0.1474 -0.0759  0.0570
10276W        W12476  13.301   1.776  38.727  0.0756  0.0774  0.0382
10277W        W12477  14.203   2.515  11.251  0.1352 -0.3309 -0.0724
10278W        W12478  19.463   3.073  37.978 -0.0549 -0.0783 -0.2831
10279W        W12479   2.985   6.341  30.008 -0.1754 -0.0666 -0.0387
10280W        W12480   8.700   5.275  40.195  0.0230 -0.0277  0.0354
10281W        W12481  14.797   2.895  28.020  0.1898  0.1896 -0.3451
10282W        W12482   7.036   0.427   7.823  0.3008 -0.1412  0.2391
10283W        W12483  11.186   6.117   9.041  0.2343  0.0729 -0.0527
10284W        W12484   8.722   2.123  12.819 -0.0641  0.1919 -0.1748
10285W        W12485   2.009   0.342  39.441  0.2493 -0.2749  0.0033
10286W        W12486  18.461   2.254  25.599  0.1484 -0.1934  0.0297
10287W        W12487  12.882   3.647  19.160 -0.1164  0.2879  0.0853
10288W        W12488   5.785   1.580   7.853  0.0008  0.1371  0.2691
10289W        W12489  17.030   0.598  25.106  0.1908 -0.2009 -0.1105
10290W        W12490   9.408   5.870   9.284  0.0847  0.1639  0.4158
10291W        W12491  18.790   3.979  36.338  0.1812  0.0472 -0.1929
10292W        W12492   0.005   3.298  38.701  0.1474  0.0292 -0.1744
10293W        W12493  11.254   1.433   8.234 -0.3225  0.0901  0.0789
10294W        W12494  20.208   2.485  38.719  0.2069  0.3037 -0.0788
10295W        W12495  11.597   2.903  28.024  0.1621  0.0981  0.0765
10296W        W12496  14.779   5.053  16.503 -0.0710 -0.0870  0.0340
10297W        W12497  10.040   4.688   1.607 -0.0464 -0.0360 -0.0420
10298W        W12498   6.041   1.610  36.993 -0.1840  0.2090 -0.1950
10299W        W12499  16.295   3.866   0.615 -0.0508 -0.2836 -0.2176
10300W        W12500   8.845   2.048  14.863  0.4086  0.1829  0.1176
10301W        W12501  18.788   0.851  26.132 -0.0976 -0.1379 -0.2621
10302W        W12502   6.967   1.384  39.965 -0.1085 -0.1185  0.1854
10303W        W12503   3.500   0.188  18.058  0.0341 -0.2762 -0.3336
10304W        W12504  17.727   4.437  14.714 -0.1189  0.0659  0.0878
10305W        W12505   6.525   0.405   7.853  0.1096 -0.1216 -0.0279
10306W        W12506   0.217   5.074  34.569 -0.2406 -0.3694  0.1269
10307W        W12507   9.315   2.279   7.583  0.0724  0.4019 -0.0514
10308W        W12508  17.282   5.775  25.314 -0.0443  0.0448  0.1326
10309W        W12509  16.562   5.105  24.995  0.1100 -0.0577 -0.0184
10310W        W12510  17.396   6.316  36.330  0.1635  0.1389  0.0564
10311W        W12511   0.148   1.161  33.962  0.1818 -0.0963 -0.2786
10312W        W12512   5.833   4.024  20.222 -0.2172 -0.0540  0.1178
10313W        W12513  15.437   5.461  30.040  0.1027 -0.0910  0.4008
10314W        W12514  15.176   6.063   1.721 -0.0045 -0.2759  0.1364
10315W        W12515   0.469   2.250   8.309 -0.0965 -0.2418 -0.1157
10316W        W12516  14.583   6.227  19.428  0.0803 -0.0188  0.0806
10317W        W12517  17.079   0.792  32.249 -0.5273 -0.0180 -0.1890
10318W        W12518   6.154   5.322   9.666  0.1046 -0.1482 -0.1274
10319W        W12519  11.930   1.866  12.228  0.1335  0.0312 -0.0480
10320W        W12520   5.485   2.255  20.356  0.3253  0.1230 -0.1416
10321W        W12521  17.225   2.763  38.479  0.0827  0.1710 -0.0339
10322W        W12522  10.736   3.190   6.006 -0.1178  0.0601 -0.1333
10323W        W12523  19.975   5.193  36.907  0.0048 -0.1263  0.0839
10324W        W12524   2.023   3.113  36.064 -0.2214  0.1788 -0.2160
10325W        W12525  18.067   5.575  31.937 -0.0131  0.2671 -0.1356
10326W        W12526   9.395   3.181  21.808  0.2828 -0.1586  0.0584
10327W        W12527  13.473   1.763   1.162  0.0520 -0.0074  0.0620
10328W        W12528   0.262   2.753  22.563  0.0725  0.2205 -0.0662
10329W        W12529  18.805   0.487  33.245  0.0458  0.0709  0.3738
10330W        W12530  13.712   5.062  19.986 -0.1142  0.1836  0.0454
10331W        W12531  14.131   3.291  29.870  0.0506 -0.0815 -0.0913
10332W        W12532  14.377   3.432  10.428 -0.0130  0.0970  0.1886
10333W        W12533  20.880   2.202  15.584  0.1698 -0.2127  0.0100
10334W        W12534   4.671   1.082  14.183  0.2450  0.1201 -0.4185
10335W        W12535   5.040   2.529  36.527  0.0159 -0.2048  0.1200
10336W        W12536  12.956   0.536  10.281  0.2768 -0.0544 -0.2062
10337W        W12537   1.132   0.323   6.359  0.0464 -0.2050  0.1322
10338W        W12538  10.012   0.152  40.651 -0.2327 -0.0513 -0.1119
10339W        W12539  16.260   4.997  30.987  0.0094 -0.0825 -0.2207
10340W        W12540   1.474   2.353  26.923 -0.0523 -0.0031 -0.1429
10341W        W12541   0.649   1.381  11.072 -0.0123  0.1387 -0.2729
10342W        W12542  12.161   0.848   8.008  0.0055 -0.1545 -0.1451
10343W        W12543  17.968   3.284  29.892  0.0081 -0.1734  0.1171
10344W        W12544   3.692   1.508  38.070 -0.0980  0.0045  0.0094
10345W        W12545   8.792   0.202   0.908 -0.1876  0.3248  0.2622
10346W        W12546   9.364   5.775  30.747  0.4806 -0.1488  0.1306
10347W        W12547  17.619   1.966  26.076 -0.0268  0.3045 -0.0597
10348W        W12548  13.351   6.379  29.532  0.2074  0.0111 -0.2479
10349W        W12549  13.660   0.648  34.172 -0.1119 -0.0870  0.1236
10350W        W12550   8.635   6.355  19.449 -0.0794 -0.0813 -0.0276
10351W        W12551  10.558   5.689   2.752 -0.2628 -0.3524 -0.1178
10352W        W12552   7.502   2.215  12.195  0.0377 -0.1054  0.1806
10353W        W12553  20.463   6.376   5.731  0.0125 -0.0849 -0.1108
10354W        W12554   3.279   6.324  37.856 -0.1318  0.3127  0.0341
10355W        W12555   9.818   4.553  25.669  0.0093 -0.0292 -0.3161
10356W        W12556   1.734   5.100   3.372 -0.1862 -0.0765 -0.0764
10357W        W12557   1.342   3.594  13.943  0.0211 -0.3032  0.0335
10358W        W12558   9.981   3.636  34.703 -0.3767 -0.1158  0.1570
10359W        W12559  12.485   2.553  30.039  0.1066 -0.1102 -0.2189
10360W        W12560   6.420   3.365   7.379 -0.2087  0.3119 -0.1837
10361W        W12561  20.026   2.420  33.082  0.2545 -0.0090  0.1189
10362W        W12562   2.287   0.055   1.932  0.0065 -0.1699 -0.0875
10363W        W12563  13.945   5.140  40.535  0.0663  0.0783  0.1786
10364W        W12564  17.727   2.142   9.366 -0.0019 -0.1370 -0.0426
10365W        W12565   0.605   0.897  11.220 -0.3814  0.0776  0.1108
10366W        W12566   5.811   2.318  13.017 -0.1463  0.1263  0.1628
10367W        W12567   0.163   6.200  14.552 -0.2169  0.2060 -0.1695
10368W        W12568  19.718   0.703  24.073 -0.4535 -0.1988  0.0249
10369W        W12569   6.954   3.408   8.376 -0.2034 -0.1870  0.6076
10370W        W12570  10.907   3.648  12.655  0.0821  0.1874 -0.2291
10371W        W12571  12.990   6.390  28.363  0.0197  0.1187  0.0885
10372W        W12572  11.438   2.509  40.093  0.1028  0.1285  0.1270
10373W        W12573  19.763   2.608  40.603  0.2526  0.5056  0.2486
10374W        W12574  14.170   6.174  35.926 -0.1090 -0.1433 -0.0531
10375W        W12575   2.236   4.461  12.331 -0.0282 -0.0068 -0.2008
10376W        W12576  16.946   3.236  32.951 -0.1223  0.0725  0.1144
10377W        W12577   0.272   1.028  27.465 -0.1242  0.3687  0.1096
10378W        W12578  11.658   2.952  38.143 -0.0412  0.2529 -0.4045
10379W        W12579  13.389   3.213  28.321 -0.1764 -0.3396  0.2375
10380W        W12580   6.725   1.948  39.062  0.1403  0.0726  0.1382
10381W        W12581  19.012   1.912  27.262 -0.1968 -0.0939  0.0146
10382W        W12582   7.723   6.406  21.138  0.2341  0.3405  0.0494
10383W        W12583   9.463   0.043  32.980  0.1646 -0.4254  0.2717
10384W        W12584   2.363   0.920   2.119 -0.0797 -0.1480  0.1794
10385W        W12585  20.566   2.481  27.867  0.0469 -0.2461  0.1087
10386W        W12586   8.404   6.416  44.304  0.0721  0.0146  0.0541
10387W        W12587  14.813   3.771  42.543 -0.0452 -0.0671 -0.1193
10388W        W12588   3.166   2.099   1.740 -0.0447 -0.2977 -0.0006
10389W        W12589   4.064   6.199   9.236 -0.1795 -0.0908  0.0462
10390W        W12590  16.493   2.391  25.331 -0.1155 -0.2631 -0.1044
10391W        W12591   4.080   0.895  43.431 -0.5509  0.1322 -0.2767
10392W        W12592   6.056   5.899  18.094 -0.0854 -0.2559  0.0428
10393W        W12593  15.797   4.182  31.176 -0.1972 -0.0481  0.0824
10394W        W12594  18.077   6.480  38.185  0.0694 -0.0582  0.3707
10395W        W12595   7.943   0.797  35.612 -0.1808 -0.2882  0.1325
10396W        W12596  14.813   2.022  32.617  0.0735 -0.0101  0.0943
10397W        W12597  15.748   5.617  28.329 -0.0551 -0.2395  0.1194
10398W        W12598  20.290   1.312   4.912 -0.0641 -0.1686 -0.0034
10399W        W12599   3.618   3.577  27.511 -0.2725  0.0480 -0.0334
10400W        W12600   9.428   4.263  14.432  0.0607 -0.2325 -0.1090
10401W        W12601  19.166   6.114   3.975 -0.2535  0.0277  0.0339
10402W        W12602  17.128   3.570  38.880  0.4428 -0.3432  0.1964
10403W        W12603   6.461   3.794  31.009  0.0223  0.0520 -0.0595
10404W        W12604  13.747   2.500   7.918  0.2055 -0.2957 -0.1098
10405W        W12605   5.445   1.585  43.110  0.0798  0.1878 -0.2458
10406W        W12606  14.880   0.591   2.103 -0.1518 -0.1208 -0.2536
10407W        W12607   5.678   6.377  41.957 -0.2229  0.0963 -0.1100
10408W        W12608   8.766   2.354  12.367  0.2411  0.2640  0.0144
10409W        W12609  16.044   5.005   3.949 -0.0769  0.0178 -0.1625
10410W        W12610   6.900   3.303   7.610  0.1416 -0.1860  0.0479
10411W        W12611   6.651   2.536  34.188  0.1780  0.0974 -0.0588
10412W        W12612  20.544   5.912   4.585  0.1264 -0.0022  0.0549
10413W        W12613   7.389   2.378   4.876  0.1467 -0.0918 -0.0203
10414W        W12614  20.856   0.177  30.293  0.0652 -0.2604 -0.0618
10415W        W12615  10.853   2.793  39.323  0.3304 -0.0004  0.0175
10416W        W12616  17.324   4.193  23.149 -0.2649  0.0725 -0.0888
10417W        W12617   8.023   2.489  30.355 -0.1404 -0.0511  0.1286
10418W        W12618  10.924   6.167  34.449  0.0229  0.0700  0.1688
10419W        W12619   7.570   3.798  19.025  0.1086  0.2239 -0.1660
10420W        W12620  14.331   5.531   8.002  0.0780  0.1172 -0.2429
10421W        W12621  12.653   3.450  32.978  0.0422  0.0616  0.2474
10422W        W12622   8.962   3.634   5.332  0.1358 -0.1445  0.1521
10423W        W12623   5.028   2.823  32.743 -0.1170  0.1830 -0.1403
10424W        W12624  16.006   4.637  37.802 -0.0366 -0.0659 -0.4837
10425W        W12625  13.537   3.019   8.700  0.0169  0.0291  0.1786
10426W        W12626  19.808   5.649  22.051  0.0718 -0.0935 -0.3691
10427W        W12627  19.972   4.331   6.034 -0.1218 -0.1333  0.2007
10428W        W12628   6.403   1.769  31.936 -0.0156  0.3547  0.0215
10429W        W12629  10.801   2.638  13.483  0.3613 -0.0223 -0.0190
10430W        W12630   9.255   6.391  20.095 -0.0220 -0.0720  0.0098
10431W        W12631   2.698   5.710  26.044  0.0558  0.0737 -0.1074
10432W        W12632  17.649   4.600  29.915  0.0130 -0.0547 -0.0686
10433W        W12633  17.017   6.528  42.537  0.0251 -0.0841  0.0204
10434W        W12634  19.095   3.035   6.446  0.2491  0.0333  0.1033
10435W        W12635  14.191   4.547   4.233 -0.0523 -0.2914 -0.5169
10436W        W12636  19.216   4.571  21.714 -0.0914 -0.3332 -0.2509
10437W        W12637  13.303   4.260  15.973 -0.0788  0.1001  0.0369
10438W        W12638   9.099   1.350  17.037 -0.2123  0.0482 -0.1003
10439W        W12639   6.521   3.468  35.155  0.0400 -0.0988 -0.0224
10440W        W12640  19.318   4.806  33.647  0.1217  0.0791 -0.0180
10441W        W12641  16.457   4.337  34.401 -0.0144  0.2955  0.1436
10442W        W12642   5.554   6.193  31.261 -0.0822 -0.1284 -0.3405
10443W        W12643  13.972   6.027  30.071 -0.1333 -0.2241 -0.0912
10444W        W12644   3.767   3.187  39.555  0.0364 -0.1083 -0.4748
10445W        W12645   7.182   3.331  32.826 -0.0441  0.0399  0.1457
10446W        W12646   5.633   0.480  13.166  0.0518 -0.1555 -0.0596
10447W        W12647   2.300   2.662  41.931  0.2154  0.3124 -0.0657
10448W        W12648   9.778   4.699  23.667  0.1410 -0.2527  0.0995
10449W        W12649  17.079   3.954  36.548 -0.0421 -0.3487 -0.3118
10450W        W12650   6.085   3.237   3.529 -0.0724  0.1455 -0.0024
10451W        W12651   5.595   4.022  34.412 -0.1809 -0.0629 -0.0609
10452W        W12652   5.251   4.970  13.118  0.1766  0.4221 -0.1605
10453W        W12653   7.747   4.994  40.448 -0.1001 -0.2368  0.1375
10454W        W12654  12.017   3.601  28.119  0.0754 -0.0968  0.1478
10455W        W12655  13.038   1.423  30.682 -0.2229 -0.0708  0.0543
10456W        W12656  20.974   3.028  30.812  0.0235 -0.0764 -0.2497
10457W        W12657   2.715   1.509  39.854  0.0586  0.1957 -0.0194
10458W        W12658   2.116   0.964   3.672  0.2021 -0.3377 -0.3307
10459W        W12659  16.385   5.479  27.068  0.0866 -0.1138  0.0157
10460W        W12660   3.338   1.109  44.066 -0.0568  0.0391  0.0992
10461W        W12661   7.955   4.189  16.157  0.0289  0.0708 -0.1627
10462W        W12662   5.087   4.704  13.512  0.0909 -0.0124  0.2491
10463W        W12663  13.813   3.413   9.194 -0.1825  0.0797 -0.1019
10464W        W12664   2.556   5.790  13.347 -0.4622 -0.3138  0.1308
10465W        W12665   9.453   2.909   0.233 -0.0054 -0.1558 -0.1097
10466W        W12666   5.509   5.792   6.568  0.0797  0.2186 -0.0476
10467W        W12667   2.429   2.087   8.801 -0.2096 -0.0062 -0.3825
10468W        W12668   7.242   1.951  10.236  0.2225  0.0375 -0.0026
10469W        W12669   6.348   1.711  30.201 -0.0250 -0.1876 -0.1938
10470W        W12670   0.927   3.248   4.717  0.1533  0.0124 -0.1671
10471W        W12671  16.105   6.150  44.948  0.3636 -0.2272 -0.0073
10472W        W12672   1.377   0.454  10.946 -0.1219 -0.0280 -0.3253
10473W        W12673  16.384   3.251   8.026 -0.1589 -0.0799  0.1268
10474W        W12674   0.817   0.848  27.445  0.0617  0.1286 -0.1043
10475W        W12675   2.202   2.001  44.111  0.1824 -0.0325  0.1656
10476W        W12676  19.461   1.731   3.015  0.0820 -0.1066  0.0870
10477W        W12677   9.367   2.762  13.920 -0.2383  0.3259  0.1630
10478W        W12678  18.047   5.812  35.153 -0.0662 -0.0459  0.0008
10479W        W12679  11.514   3.725  40.655 -0.1029  0.0604 -0.0428
10480W        W12680   4.772   2.609   3.113 -0.0472 -0.0297  0.0224
10481W        W12681   1.764   0.161  30.998 -0.2386  0.0643  0.1091
10482W        W12682  17.872   5.442  10.561 -0.3237 -0.0743  0.2078
10483W        W12683  10.820   4.643  30.353 -0.2652  0.1932 -0.0517
10484W        W12684  17.979   6.383  44.580 -0.0692  0.1249 -0.0708
10485W        W12685  14.391   0.416  10.988  0.0989 -0.2694 -0.0261
10486W        W12686  16.571   4.563  44.716  0.0294 -0.0782  0.1885
10487W        W12687   3.809   2.761  16.325 -0.4365  0.3052 -0.1246
10488W        W12688  18.355   1.455  25.122  0.0458  0.1857 -0.1920
10489W        W12689   9.096   0.867  29.358  0.0936 -0.0587 -0.1678
10490W        W12690   7.795   2.601  19.876 -0.2468  0.2259 -0.0154
10491W        W12691   4.339   1.777  31.747 -0.0642  0.1808  0.1999
10492W        W12692  17.412   4.037  39.008  0.1888  0.1122 -0.0431
10493W        W12693   7.096   1.705  14.606  0.1613 -0.2702 -0.0472
10494W        W12694  18.152   4.876  11.318 -0.0102 -0.2337  0.0107
10495W        W12695   7.504   0.198  38.402  0.0159  0.0832  0.3863
10496W        W12696  10.138   2.940  12.005  0.0945 -0.2177  0.0903
10497W        W12697   2.018   4.954   3.988  0.0875 -0.1186 -0.3078
10498W        W12698  19.579   2.911   9.198 -0.0295  0.0191  0.0111
10499W        W12699   7.462   0.957  32.050 -0.2405 -0.3883  0.1676
10500W        W12700   9.631   0.344   1.029 -0.1398 -0.1083 -0.1816
10501W        W12701  11.966   1.044  18.567 -0.3638  0.1130  0.0868
10502W        W12702  16.869   6.420  27.809 -0.0532  0.0935  0.2198
10503W        W12703  18.440   4.069  31.431  0.0780  0.0834  0.0426
10504W        W12704  12.895   2.011  32.457 -0.1859 -0.0304  0.0449
10505W        W12705  12.877   4.819   5.387 -0.0391  0.0709  0.0898
10506W        W12706   6.852   1.334   5.881 -0.2828  0.0306 -0.1048
10507W        W12707  16.154   1.904  27.912  0.0832 -0.1256 -0.2607
10508W        W12708  18.664   1.886  44.778 -0.2741  0.2834 -0.1214
10509W        W12709   7.807   2.901  38.672  0.0627 -0.0033 -0.0126
10510W        W12710  10.268   0.727  10.506 -0.0408 -0.2158 -0.0037
10511W        W12711   8.844   5.794  23.066 -0.1237 -0.0252  0.2467
10512W        W12712  17.740   6.130   2.669 -0.0769  0.0002  0.1251
10513W        W12713  15.800   3.318  39.815 -0.0093  0.1533  0.0010
10514W        W12714  17.828   0.469  24.466 -0.1575 -0.2358  0.0644
10515W        W12715   3.534   6.261   8.569  0.0174 -0.0448  0.0762
10516W        W12716   8.938   1.862  38.496  0.2393 -0.0079 -0.1047
10517W        W12717   9.905   5.504   5.227 -0.3660 -0.0177 -0.1240
10518W        W12718  11.919   5.117  16.856  0.0001  0.1836  0.0678
10519W        W12719  14.404   6.389   8.719 -0.0700  0.1906  0.1955
10520W        W12720   1.420   0.127   3.621  0.1025 -0.0041 -0.1889
10521W        W12721   5.008   5.821  19.353  0.2099 -0.3416 -0.1403
10522W        W12722  18.818   5.124  44.446 -0.3703 -0.0205 -0.0983
10523W        W12723  11.347   5.099  22.174 -0.0720 -0.0332  0.0968
10524W        W12724  19.066   3.259  15.352  0.4487  0.0030 -0.0502
10525W        W12725  20.610   4.463  10.128 -0.0196 -0.0552 -0.1730
10526W        W12726  15.223   1.518  30.476  0.2469 -0.1412 -0.2206
10527W        W12727   8.349   2.259  12.518  0.4127  0.0148 -0.2846
10528W        W12728  13.238   5.105   5.648  0.0629  0.1531  0.0704
10529W        W12729   6.006   1.222  19.058  0.2644  0.0566  0.1770
10530W        W12730   3.084   1.740  29.074  0.4540  0.1189 -0.1194
10531W        W12731  11.250   5.299  42.003  0.0214  0.0029  0.0169
10532W        W12732  10.708   4.605  34.521 -0.0144 -0.0893  0.1732
10533W        W12733  18.006   2.321   0.297  0.0297 -0.0470 -0.2291
10534W        W12734  17.410   0.113   5.348  0.1331  0.2001 -0.0869
10535W        W12735   1.660   2.264  41.333 -0.1092  0.0981  0.2697
10536W        W12736  14.672   0.960  40.079 -0.1063 -0.2104  0.1437
10537W        W12737  19.295   1.403   1.236  0.0175 -0.0265 -0.3560
10538W        W12738  19.100   6.377  28.004 -0.0522  0.2306  0.2324
10539W        W12739  15.648   2.863   4.171 -0.0289 -0.0452 -0.0603
10540W        W12740  15.526   5.032  13.951 -0.2215  0.0398 -0.0431
10541W        W12741  15.757   5.251   3.564 -0.0192 -0.3966  0.0715
10542W        W12742  15.028   4.923  35.609  0.1553  0.1888  0.2786
10543W        W12743  12.850   2.285   0.353  0.0476 -0.0769 -0.2183
10544W        W12744   0.739   6.434  30.519 -0.0030 -0.1410  0.0134
10545W        W12745  17.039   3.720  28.420  0.1896  0.1565 -0.1301
10546W        W12746   4.497   3.633  40.982 -0.1312 -0.0316  0.0408
10547W        W12747   8.831   6.105  14.412  0.0914 -0.3748 -0.1580
10548W        W12748  11.121   1.666  29.345  0.0999 -0.0032 -0.0413
10549W        W12749   4.831   3.695   7.725 -0.1363  0.0278  0.2160
10550W        W12750   6.312   5.690  20.697  0.3797 -0.1144 -0.1545
10551W        W12751   6.841   2.590   9.639 -0.1508  0.2147 -0.2859
10552W        W12752  21.037   1.981  32.728  0.0473 -0.0372 -0.2405
10553W        W12753   3.780   0.659  36.287  0.1212 -0.0149  0.2020
10554W        W12754  10.694   6.429  29.342 -0.2003  0.3499 -0.1317
10555W        W12755   4.410   1.783   7.153  0.1821  0.3412  0.0894
10556W        W12756  17.159   2.620  39.902  0.1112 -0.0820 -0.0843
10557W        W12757   4.352   1.331  17.826  0.1146  0.0921  0.2762
10558W        W12758  15.008   6.198   2.174  0.4515  0.1462 -0.0604
10559W        W12759   3.836   2.758   2.827 -0.0430 -0.0694 -0.3086
10560W        W12760   8.531   2.712   0.807 -0.0292 -0.1665  0.1483
10561W        W12761  20.681   3.683  38.069 -0.0039  0.1970 -0.1487
10562W        W12762   2.490   6.588  43.919  0.1974 -0.0197 -0.1823
10563W        W12763  20.470   1.219  22.712 -0.0797  0.1523  0.0335
10564W        W12764   5.930   3.200  38.472  0.1811 -0.0135 -0.0902
10565W        W12765  12.288   5.888  10.801 -0.1908  0.0155  0.3180
10566W        W12766   1.129   3.993  42.011  0.2108  0.1130 -0.2748
10567W        W12767  16.367   1.357   9.838  0.0073 -0.1136 -0.2933
10568W        W12768  16.352   5.011  39.486  0.1351 -0.4619  0.0227
10569W        W12769   4.312   3.887   0.714  0.0776  0.0946 -0.0662
10570W        W12770   9.705   0.763   5.043 -0.0755  0.3091  0.1906
10571W        W12771  16.311   5.858  29.697 -0.0360 -0.0079 -0.1778
10572W        W12772  20.214   5.553  25.754  0.0372 -0.0498 -0.1033
10573W        W12773  20.976   2.699   6.767  0.0339  0.0283 -0.0331
10574W        W12774   9.280   0.448  43.115  0.0381 -0.4734 -0.1123
10575W        W12775  15.057   5.486  34.537 -0.0332  0.0766 -0.2495
10576W        W12776   1.293   4.141  15.560 -0.3549 -0.1707 -0.2060
10577W        W12777  19.978   2.951  33.048  0.1703 -0.0892  0.0476
10578W        W12778  12.827   1.256  17.113  0.0989 -0.0423 -0.0173
10579W        W12779  14.359   6.027  33.006 -0.0183  0.0622 -0.0484
10580W        W12780  19.201   2.289  13.000 -0.3769  0.0647  0.1376
10581W        W12781   5.742   0.330  38.268  0.1624  0.0462 -0.1360
10582W        W12782   7.878   3.969  31.083 -0.0908 -0.0435 -0.0523
10583W        W12783  11.576   2.025  32.090 -0.1291 -0.3658 -0.3801
10584W        W12784  10.675   4.596  37.715  0.1153  0.0084 -0.1204
10585W        W12785   1.222   2.559  44.555  0.1076 -0.2081 -0.2076
10586W        W12786  11.463   3.998  10.305 -0.0248 -0.0936 -0.1283
10587W        W12787   6.141   2.110  44.585 -0.0067 -0.0457  0.1077
10588W        W12788  19.971   2.502  37.405  0.0649 -0.2374  0.1705
10589W        W12789   5.056   1.847  42.848  0.0059  0.1501 -0.2095
10590W        W12790  12.020   4.983  11.192  0.1254  0.1641  0.1065
10591W        W12791  13.020   2.094  35.647  0.1209 -0.0128 -0.0469
10592W        W12792   2.201   5.364  12.036 -0.0775  0.0944 -0.2044
10593W        W12793  20.230   4.107  13.860  0.1481 -0.0401  0.0051
10594W        W12794  13.720   2.965  19.472  0.0536 -0.0757  0.2413
10595W        W12795  16.580   3.735  30.353 -0.1020 -0.1116  0.2243
10596W        W12796   8.091   1.565  36.887 -0.1490 -0.2573  0.0110
10597W        W12797   9.452   6.263  32.512 -0.1324 -0.0521 -0.3584
10598W        W12798  18.205   4.065  39.993  0.3372 -0.0631  0.2011
10599W        W12799   3.279   2.284  41.043 -0.3607  0.4101  0.3053
10600W        W12800  11.823   2.970  34.668  0.0786 -0.0824  0.0587
10601W        W12801  18.050   2.862  41.688 -0.0291 -0.0874  0.1040
10602W        W12802   8.240   4.385  41.521  0.1629 -0.2395 -0.0629
10603W        W12803  20.993   6.209  26.758 -0.1298 -0.4868  0.0963
10604W        W12804  11.137   1.280  33.441  0.0748 -0.0556  0.1752
10605W        W12805   1.036   5.318   4.028 -0.0709 -0.0270  0.0759
10606W        W12806  12.370   4.695   7.817  0.3421  0.0883  0.0659
10607W        W12807  18.627   2.741  27.352  0.0905 -0.0539  0.0346
10608W        W12808   6.241   6.435   9.064 -0.0628 -0.0561  0.1982
10609W        W12809  13.675   1.116  31.729  0.3159 -0.0397 -0.2616
10610W        W12810   3.736   0.139   7.823 -0.4186 -0.1636  0.0919
10611W        W12811   3.631   4.394  33.330 -0.2323 -0.0653  0.1630
10612W        W12812   3.856   5.155  16.814 -0.0890 -0.0746 -0.0538
10613W        W12813   8.181   3.390  36.722  0.0637 -0.2021  0.1407
10614W        W12814  12.277   1.373   5.425  0.0088  0.1963  0.0414
10615W        W12815   6.828   3.239  16.173 -0.0478 -0.0414 -0.0636
10616W        W12816  12.736   4.257  43.988  0.0484 -0.1277 -0.1850
10617W        W12817  19.339   3.691  14.402 -0.2848  0.0728  0.1786
10618W        W12818  17.454   0.286  11.445 -0.2129 -0.1207  0.2787
10619W        W12819  11.526   0.761   4.448 -0.0253  0.2611 -0.0542
10620W        W12820  17.213   0.259  34.720 -0.0498  0.0002  0.1618
10621W        W12821  20.804   5.432   9.546  0.1424  0.0185 -0.1172
10622W        W12822   4.295   4.151  36.780  0.1510 -0.1285 -0.2063
10623W        W12823   0.149   6.409   3.621 -0.0844  0.1139 -0.0001
10624W        W12824   0.944   2.277  26.972  0.1859  0.1710 -0.1627
10625W        W12825   1.470   3.705  36.000 -0.0026 -0.0224 -0.2481
10626W        W12826   4.979   2.540   3.735  0.0112  0.1084  0.2393
10627W        W12827   4.237   5.077  37.187  0.0453  0.0832  0.3818
10628W        W12828  12.603   1.265  40.006 -0.0787  0.0227 -0.0280
10629W        W12829   3.721   1.018   7.334  0.2434  0.1691  0.0478
10630W        W12830  16.487   6.368  15.813 -0.4130  0.1504  0.0317
10631W        W12831   4.512   2.624  41.533 -0.1955  0.1861 -0.1353
10632W        W12832   1.078   1.377  35.983  0.2678 -0.0385 -0.1701
10633W        W12833  13.774   2.800  37.762 -0.3921 -0.0190 -0.0252
10634W        W12834   6.730   0.540  40.481 -0.4289  0.2600  0.0276
10635W        W12835  12.426   6.590   7.895  0.0314  0.0913  0.0943
10636W        W12836   2.529   5.321   1.459  0.2012  0.1933 -0.0967
10637W        W12837  20.409   4.068   5.758 -0.0469 -0.1540 -0.0359
10638W        W12838  18.884   4.062  21.724  0.0704  0.0967  0.2606
10639W        W12839  19.690   0.999  35.362 -0.1019 -0.1667 -0.1302
10640W        W12840   0.230   5.230  37.493 -0.1928  0.0154 -0.0132
10641W        W12841  20.852   4.037   1.559  0.0600  0.0745 -0.2657
10642W        W12842   6.657   3.141  43.839 -0.0455  0.0290  0.0339
10643W        W12843   4.706   2.859  39.076  0.0363 -0.1233 -0.0305
10644W        W12844  10.911   5.961  42.750 -0.1605 -0.0100  0.1152
10645W        W12845  10.519   2.100   6.153 -0.1761 -0.2361  0.0708
10646W        W12846  19.258   1.295  39.899 -0.2716  0.0621  0.0430
10647W        W12847  20.551   2.501  37.488  0.0844 -0.0567  0.4607
10648W        W12848  19.576   0.621   0.297  0.0266 -0.0288 -0.0534
10649W        W12849  10.631   2.984  24.822 -0.0492  0.1043 -0.0000
10650W        W12850  14.524   2.107  37.274 -0.1800  0.0475 -0.2563
10651W        W12851   8.524   1.237  37.251  0.2751 -0.1183 -0.0222
10652W        W12852  11.824   0.785   6.940  0.2549 -0.0730 -0.2787
10653W        W12853  11.279   0.738   0.602 -0.1832 -0.0338 -0.0830
10654W        W12854   6.889   0.350  40.933 -0.0194  0.0426 -0.1832
10655W        W12855  13.415   2.551  30.368  0.0324 -0.1405 -0.1442
10656W        W12856  12.101   3.909  17.414  0.1752 -0.0466  0.2463
10657W        W12857   4.145   2.781  30.771  0.0823  0.0471  0.0103
10658W        W12858  16.932   5.458  40.709  0.4007  0.0610  0.3143
10659W        W12859  19.235   6.195  37.022  0.1176 -0.1146  0.3640
10660W        W12860   0.817   3.081  32.039  0.1131 -0.1612 -0.1312
10661W        W12861  16.449   6.339  37.207 -0.2565  0.3107 -0.0182
10662W        W12862   9.220   3.416  35.333  0.0177  0.2993  0.1578
10663W        W12863   9.291   2.190  31.588  0.4214  0.0899  0.4510
10664W        W12864  19.910   2.735  43.290  0.1456  0.1753 -0.0063
10665W        W12865  20.058   2.421  36.861 -0.1251 -0.0857  0.1710
10666W        W12866  17.423   2.933   1.716 -0.1668  0.1016  0.0902
10667W        W12867   2.085   0.965  33.956  0.2569  0.0368  0.2446
10668W        W12868   7.500   0.303  42.013  0.0417  0.1266 -0.2584
10669W        W12869   6.914   2.819  11.628 -0.0470 -0.2588 -0.0735
10670W        W12870  18.722   3.703  35.033 -0.1120 -0.1137 -0.1381
10671W        W12871   5.816   6.482  40.012  0.3141  0.3053  0.0423
10672W        W12872   2.148   6.153   7.571 -0.0710 -0.3000 -0.0472
10673W        W12873   2.441   4.893   1.162 -0.1851 -0.0268  0.0349
10674W        W12874   5.974   1.070  11.153 -0.1507  0.3313 -0.0348
10675W        W12875   2.008   2.050  10.877  0.0647 -0.1647 -0.1713
10676W        W12876  15.274   2.111  43.777 -0.2679  0.0500  0.1187
10677W        W12877   1.933   0.132  10.951  0.1385 -0.1004  0.1158
10678W        W12878   1.493   4.698  42.519 -0.1055 -0.0074  0.1895
10679W        W12879  17.094   6.396  29.577 -0.4034  0.0731 -0.3860
10680W        W12880   2.775   6.354   6.446 -0.1525 -0.1289 -0.0911
10681W        W12881   9.056   4.325  37.274  0.2503  0.0221 -0.3985
10682W        W12882  13.410   3.579  11.687  0.2786 -0.2206 -0.3621
10683W        W12883   1.726   0.440  15.434 -0.3501 -0.2335 -0.0655
10684W        W12884  19.746   1.925  22.315  0.0767  0.0580  0.1730
10685W        W12885  19.897   4.098  10.470  0.0214  0.1308  0.2543
10686W        W12886  18.288   1.307  33.451  0.1486  0.0344  0.3195
10687W        W12887  10.747   3.523   3.338 -0.0574  0.0814 -0.1375
10688W        W12888  10.993   1.534  23.138  0.0475  0.0221 -0.5400
10689W        W12889   6.275   5.554  10.905  0.0290  0.2035  0.0386
10690W        W12890   9.064   2.506  40.615 -0.2058  0.1831  0.1561
10691W        W12891   1.559   0.348  44.741 -0.3005 -0.3474  0.0140
10692W        W12892   4.627   2.647  33.003  0.0824 -0.1602  0.2004
10693W        W12893   3.638   6.181  29.168  0.2539  0.0066  0.1725
10694W        W12894  14.887   5.638   9.053  0.0767  0.0510  0.2252
10695W        W12895  20.957   2.119  25.736  0.1536 -0.0095  0.3377
10696W        W12896  15.910   6.099  42.792  0.0044 -0.0156  0.0710
10697W        W12897   6.598   2.854   7.552  0.0913 -0.0765  0.0859
10698W        W12898  20.325   1.372  29.233  0.3951  0.1881 -0.0200
10699W        W12899  12.411   6.159  17.957 -0.0117  0.1203 -0.0293
10700W        W12900   8.249   5.459   3.352  0.0232  0.0372 -0.0236
10701W        W12901   1.361   4.977  24.109  0.0222 -0.1357  0.2519
10702W        W12902  19.859   2.748  28.074 -0.1486  0.0493  0.1989
10703W        W12903   3.916   5.414  44.394  0.1322  0.0690  0.0948
10704W        W12904  11.173   2.775  38.627 -0.0079  0.1156  0.0353
10705W        W12905   0.333   2.333   8.781  0.0078 -0.1258  0.0875
10706W        W12906   6.763   4.068  18.463 -0.0618 -0.0959  0.0776
10707W        W12907  11.030   6.423  17.724  0.0534  0.1115  0.0179
10708W        W12908   7.047   3.853  43.440 -0.0977 -0.1616  0.2483
10709W        W12909  20.810   4.679  22.854 -0.1286  0.0176  0.0571
10710W        W12910  16.927   0.715  31.324 -0.0155  0.1251  0.0785
10711W        W12911  11.030   1.145   8.575 -0.2249  0.0964  0.0237
10712W        W12912   2.354   1.847  25.955  0.1946  0.0104  0.0445
10713W        W12913  16.267   4.127   1.784 -0.0802 -0.1891  0.1548
10714W        W12914   6.363   1.558  21.006  0.2150 -0.2655  0.2162
10715W        W12915   0.547   5.988  38.453 -0.1463  0.2461  0.0837
10716W        W12916  19.498   3.048   7.255  0.1532 -0.0915 -0.3282
10717W        W12917  16.401   2.442   2.957  0.2271 -0.0359  0.0907
10718W        W12918  15.434   2.227  34.826  0.0458  0.0547  0.0825
10719W        W12919   2.967   2.192  38.238  0.2916  0.2045 -0.1755
10720W        W12920  10.784   5.319  37.491  0.0036 -0.2294  0.1345
10721W        W12921  15.182   1.337  25.546  0.1300 -0.1464  0.1151
10722W        W12922   7.561   0.161  43.488 -0.1602  0.1492  0.1648
10723W        W12923  13.180   5.667   2.320  0.1981  0.3169 -0.0508
10724W        W12924  21.079   6.439   8.746 -0.2304  0.1593 -0.0022
10725W        W12925   0.626   3.393  35.091 -0.1892 -0.1786 -0.1813
10726W        W12926  11.055   0.436  31.635 -0.1739 -0.0207  0.0932
10727W        W12927  11.371   6.444  30.902  0.0838 -0.0595 -0.4146
10728W        W12928   1.323   0.418   5.562  0.1040  0.2505 -0.2306
10729W        W12929   9.334   0.633  38.956  0.1375  0.1211  0.1298
10730W        W12930   7.465   2.203   7.825  0.1593  0.1551  0.1245
10731W        W12931   3.643   0.180  35.971  0.0455  0.3102  0.2080
10732W        W12932  12.232   4.274   6.315  0.3865  0.0179  0.0191
10733W        W12933   5.576   0.274  44.472  0.0252 -0.0226 -0.0560
10734W        W12934  19.943   2.599  39.476  0.0418 -0.1825 -0.0075
10735W        W12935  20.654   1.498   4.459 -0.1787 -0.3614  0.1116
10736W        W12936   6.307   2.870  33.023  0.2771  0.3271 -0.1900
10737W        W12937   1.461   0.619  30.657  0.0007 -0.1716  0.1626
10738W        W12938   9.675   2.281   6.742  0.0907  0.2288 -0.1843
10739W        W12939  20.740   0.589  31.209  0.0317 -0.2864 -0.3252
10740W        W12940  11.057   1.784  34.902  0.0607  0.0442 -0.1405
10741W        W12941   3.625   3.168  37.161  0.1841  0.2224  0.0967
10742W        W12942  13.837   4.519  13.054  0.1308  0.0262 -0.3228
10743W        W12943   9.837   0.540  16.431 -0.1701  0.3160  0.1247
10744W        W12944   2.165   1.632  39.011  0.2014 -0.2452 -0.1142
10745W        W12945  13.889   0.237  16.208 -0.1633  0.1227 -0.0868
10746W        W12946   8.647   5.369  30.967 -0.2526 -0.0103 -0.4348
10747W        W12947   9.158   5.116  31.720 -0.1029  0.0659 -0.2294
10748W        W12948  16.613   4.806  29.060  0.2571  0.1951 -0.3191
10749W        W12949  14.606   4.233  14.341 -0.0192 -0.1524  0.1209
10750W        W12950  16.678   3.093  42.395 -0.0099 -0.3012 -0.2687
10751W        W12951   1.203   3.507  40.807 -0.1415  0.0615  0.2272
10752W        W12952   5.317   1.619  36.112 -0.1180  0.0250 -0.0601
10753W        W12953  19.754   2.971   0.040  0.1576  0.2096 -0.0288
10754W        W12954  15.948   2.353  35.424  0.0362 -0.0400 -0.0268
10755W        W12955   2.984   4.255  31.734  0.0621  0.0763  0.0913
10756W        W12956  10.337   3.399  36.170 -0.1860 -0.1064  0.2017
10757W        W12957  18.020   1.130  26.591 -0.0744  0.3189 -0.1823
10758W        W12958   8.358   5.032  37.647  0.1342  0.1248 -0.3621
10759W        W12959   6.768   1.936   1.506  0.0165 -0.0769 -0.0309
10760W        W12960   6.592   3.443  43.250 -0.1238 -0.0551 -0.0350
10761W        W12961   8.124   4.677  14.660 -0.1042  0.0656 -0.0083
10762W        W12962   4.408   5.314  13.263 -0.1790 -0.1416 -0.1187
10763W        W12963   5.706   4.364   7.592  0.0915 -0.0659  0.1187
10764W        W12964   3.091   2.821  33.375 -0.0260  0.1407 -0.0717
10765W        W12965  12.746   4.388  39.726  0.1705  0.3062 -0.2504
10766W        W12966   3.196   3.185  37.524 -0.1876 -0.1503  0.0084
10767W        W12967   5.044   2.422  34.037 -0.0499 -0.1337  0.2211
10768W        W12968   4.822   1.237  33.530  0.0298 -0.0544 -0.0402
10769W        W12969   6.337   2.250   8.086 -0.0892 -0.0882  0.0407
10770W        W12970   6.435   3.116  36.533 -0.0057 -0.0548 -0.1394
10771W        W12971  11.179   0.203   7.224 -0.1666 -0.0827 -0.1522
10772W        W12972  20.783   6.218  20.565 -0.0992 -0.1299  0.1074
10773W        W12973  18.903   1.734   7.392  0.1043 -0.1273  0.1948
10774W        W12974  15.485   1.262  13.784  0.0753  0.1605  0.0752
10775W        W12975   6.731   0.957  43.301  0.1598 -0.0641  0.2147
10776W        W12976   4.987   5.795   9.636 -0.0819 -0.1254  0.0821
10777W        W12977  13.966   5.372  37.488  0.0373 -0.4814  0.1171
10778W        W12978   7.834   0.223  21.894  0.0453  0.3821 -0.0032
10779W        W12979  14.709   2.614  33.996  0.3319 -0.1627 -0.0157
10780W        W12980  20.354   0.461  36.933  0.2177  0.3141 -0.1047
10781W        W12981   5.761   0.260   9.644 -0.3366  0.1457 -0.2299
10782W        W12982   7.008   3.533  31.643 -0.1717  0.2094 -0.0405
10783W        W12983   8.360   6.327  11.531  0.1541 -0.0733  0.1145
10784W        W12984  19.175   0.823  23.973 -0.1432  0.0522 -0.0949
10785W        W12985  10.844   0.010  41.522 -0.1729 -0.0797  0.1629
10786W        W12986   2.931   6.033  36.218  0.1696 -0.1158  0.0993
10787W        W12987   8.086   4.598  21.428  0.0921  0.6476 -0.2260
10788W        W12988  15.639   5.936  28.699  0.0687  0.0528 -0.0680
10789W        W12989  12.731   0.538   8.997 -0.1567  0.0864  0.1293
10790W        W12990  20.746   4.789  39.088  0.4448  0.3530  0.3122
10791W        W12991  12.067   1.372  19.477  0.1057  0.1004 -0.0575
10792W        W12992  17.051   5.366  24.931  0.1045 -0.3189 -0.1371
10793W        W12993  14.635   0.756   4.651  0.3428 -0.1751  0.1550
10794W        W12994   1.669   2.039  42.692  0.2311 -0.0950 -0.2002
10795W        W12995  10.327   3.114  39.518 -0.5733 -0.1275  0.0496
10796W        W12996   9.518   1.761  17.991  0.1553  0.2040 -0.2823
10797W        W12997   4.613   1.975  30.312 -0.0101  0.0340 -0.0259
10798W        W12998   3.172   3.242  12.950 -0.0186 -0.0062  0.1119
10799W        W12999  20.034   5.558  24.742 -0.1414 -0.2094  0.1317
10800W        W13000  15.588   6.548  42.172  0.0547  0.0852 -0.0659
10801W        W13001  11.269   2.456   9.778  0.1788  0.1000  0.0870
10802W        W13002  14.307   3.208   2.206  0.1538  0.2410  0.2352
10803W        W13003  10.545   4.728  32.947 -0.0260  0.0239  0.0640
10804W        W13004  16.351   5.433  14.552  0.0326 -0.0988  0.0121
10805W        W13005  16.157   0.429  35.652 -0.3607 -0.0313 -0.1918
10806W        W13006  15.192   5.287   8.911  0.0276  0.2026  0.1036
10807W        W13007  20.513   5.951   9.220 -0.1667  0.0115  0.1523
10808W        W13008  11.821   0.455  31.591  0.0357  0.2726  0.0781
10809W        W13009   1.810   3.602   1.052 -0.0838  0.3311  0.0695
10810W        W13010   1.769   0.872  27.487 -0.2166 -0.0090  0.0149
10811W        W13011   6.320   0.402  37.537 -0.0802  0.2314 -0.1260
10812W        W13012  19.344   4.601  37.060 -0.2486  0.0256 -0.0466
10813W        W13013  15.477   1.210  38.113 -0.3036  0.2614 -0.2885
10814W        W13014  19.389   4.632  44.121 -0.1309  0.1532 -0.3192
10815W        W13015   4.293   3.655  30.478 -0.1301 -0.0708  0.1532
10816W        W13016  16.152   0.623   8.016  0.2329 -0.1552  0.1084
10817W        W13017  12.339   3.615  18.987  0.0377 -0.0150  0.0362
10818W        W13018  10.139   3.152  38.018  0.1166 -0.2663  0.1872
10819W        W13019   2.112   0.950  43.329 -0.0487  0.0436  0.0072
10820W        W13020   3.981   1.311  14.703  0.0220 -0.1278 -0.2833
10821W        W13021   9.475   2.856  40.879  0.1632 -0.1155 -0.1157
10822W        W13022  12.255   5.319   6.363  0.2571  0.0084  0.4034
10823W        W13023   3.962   1.055   2.086  0.0819 -0.1467 -0.0259
10824W        W13024   1.170   2.717   2.684 -0.2337 -0.0150  0.2631
10825W        W13025  10.228   2.529  42.980  0.0535 -0.0608 -0.1556
10826W        W13026  13.783   0.424   2.339 -0.0491  0.1776 -0.2828
10827W        W13027   4.189   4.951  11.966 -0.1386  0.0957  0.0464
10828W        W13028  20.441   1.712   6.407 -0.0334  0.0475 -0.1264
10829W        W13029  19.535   4.744  13.777 -0.0463 -0.1963 -0.4458
10830W        W13030   4.796   3.959  33.284 -0.4119 -0.1749  0.1235
10831W        W13031  11.665   1.835  42.136 -0.0867 -0.3831 -0.0795
10832W        W13032  14.025   4.169  29.683 -0.1883  0.3069  0.0334
10833W        W13033  15.882   4.596  10.519 -0.0840 -0.3287 -0.0206
10834W        W13034  10.710   1.920  41.563  0.1883 -0.0482 -0.1228
10835W        W13035  15.952   2.680  41.823  0.3695  0.0361 -0.3448
10836W        W13036  14.872   5.678  38.392  0.1051  0.0511 -0.0279
10837W        W13037  16.858   1.652  43.490  0.0743 -0.0984 -0.1537
10838W        W13038  20.479   1.371  33.217  0.1117  0.0517  0.1844
10839W        W13039   9.455   3.667   4.260 -0.1045  0.1470 -0.2404
10840W        W13040  17.216   1.059  44.795 -0.0331 -0.1816 -0.2520
10841W        W13041  15.714   5.751  40.115 -0.4119 -0.0548 -0.1972
10842W        W13042  20.630   3.045  31.672 -0.0027  0.2450 -0.2415
10843W        W13043   4.573   4.956  29.588  0.1899  0.1746  0.1620
10844W        W13044   3.274   6.378   1.266 -0.1386 -0.1418  0.3194
10845W        W13045  15.898   2.752  16.815  0.1897  0.0982  0.2189
10846W        W13046  19.650   3.845   2.075  0.2440  0.2004 -0.0691
10847W        W13047  12.944   1.936   4.983  0.1348 -0.2275  0.1245
10848W        W13048   1.629   5.221  38.553 -0.0317 -0.2031 -0.2128
10849W        W13049  10.173   4.635  33.777  0.1805  0.0747 -0.3781
10850W        W13050   6.467   4.811  45.067  0.0679 -0.0554  0.0123
10851W        W13051  15.649   2.777  29.224 -0.0912  0.3000  0.1529
10852W        W13052   1.746   2.365  35.738  0.1470 -0.0458 -0.1920
10853W        W13053  20.512   0.754  10.574  0.1119  0.1010 -0.1953
10854W        W13054   8.020   0.693  31.096 -0.1140 -0.2814 -0.0343
10855W        W13055  13.668   6.319  10.205  0.0843 -0.1265  0.1853
10856W        W13056   7.557   0.487  23.759  0.3135  0.2749 -0.1020
10857W        W13057   0.308   4.160  14.186 -0.1930 -0.0202 -0.1416
10858W        W13058   1.345   4.757  28.728 -0.0209 -0.4110 -0.1727
10859W        W13059  18.659   5.135  28.424  0.0509 -0.1869  0.1217
10860W        W13060   8.058   3.685  30.692 -0.1043 -0.0096  0.0223
10861W        W13061   4.307   5.223  35.539 -0.1114 -0.2329  0.1516
10862W        W13062   7.679   4.382   0.316  0.0799  0.1032 -0.2488
10863W        W13063   8.042   1.848  33.357 -0.1823 -0.0214  0.0204
10864W        W13064  11.831   0.940  19.119  0.1833 -0.0877 -0.0464
10865W        W13065   0.426   2.224  33.461 -0.1471 -0.0467  0.2659
10866W        W13066   6.937   0.777   2.625  0.0320 -0.2972  0.0519
10867W        W13067   8.627   2.668  32.779  0.0808 -0.1156  0.0883
10868W        W13068  15.730   5.454  37.616 -0.0821 -0.3355 -0.1024
10869W        W13069  15.695   5.802  14.493  0.0505 -0.2652 -0.0258
10870W        W13070   5.744   5.694  39.806 -0.1303 -0.2375  0.1647
10871W        W13071  14.110   3.874  12.758  0.1805  0.1119 -0.1095
10872W        W13072  18.364   3.531  22.400 -0.0403  0.2734  0.1232
10873W        W13073  16.572   4.493  25.229  0.0392  0.0078  0.2101
10874W        W13074  12.733   5.846  16.252 -0.0172  0.1353  0.0685
10875W        W13075   2.366   5.309  10.874  0.4810 -0.0144 -0.0013
10876W        W13076   5.330   3.135  37.636  0.0451 -0.1554  0.1006
10877W        W13077  20.222   0.888   7.886 -0.0557  0.1969  0.0026
10878W        W13078  17.231   4.195  41.223 -0.0189  0.0737  0.2633
10879W        W13079   0.099   5.613  14.166  0.1613 -0.3325 -0.1028
10880W        W13080   4.334   3.447  38.186  0.0935  0.4542 -0.0074
10881W        W13081   5.155   2.202  15.123 -0.2031  0.2904 -0.0483
10882W        W13082   9.634   3.289   6.316 -0.3344  0.1397  0.0217
10883W        W13083   0.665   1.917  16.008  0.0185 -0.3447 -0.2822
10884W        W13084   0.404   5.433  22.767  0.2670 -0.0542 -0.0479
10885W        W13085   4.204   5.572  29.015  0.1391 -0.0525  0.1124
10886W        W13086  10.619   3.350   2.866 -0.2158  0.1259  0.1471
10887W        W13087   6.435   1.826   8.533 -0.0142 -0.0286  0.0575
10888W        W13088  13.902   2.284   5.906 -0.1049  0.2541 -0.0590
10889W        W13089  19.401   5.695  25.664 -0.0994 -0.1606  0.1716
10890W        W13090   7.007   5.350  20.183 -0.0446 -0.2811 -0.0937
10891W        W13091  20.333   2.184  42.410 -0.1547  0.0372 -0.4821
10892W        W13092  12.860   1.887  14.715  0.3681 -0.1280 -0.1618
10893W        W13093  13.590   0.099  35.087 -0.0969 -0.0099  0.0001
10894W        W13094  14.004   1.076  36.832  0.0380 -0.1607 -0.1615
10895W        W13095   5.578   0.530   3.251 -0.0510  0.2610 -0.1090
10896W        W13096  14.794   2.852  16.065 -0.0395  0.1554 -0.0060
10897W        W13097   1.036   4.538  29.935  0.2527 -0.2880 -0.0570
10898W        W13098  14.127   2.774  40.404 -0.1495 -0.1070 -0.1566
10899W        W13099   9.938   4.084  24.902  0.0058 -0.1605 -0.1580
10900W        W13100   2.371   1.285  10.106 -0.1005  0.0489 -0.0280
10901W        W13101  13.118   0.029  42.406 -0.1549 -0.0196  0.3008
10902W        W13102  19.508   4.332  15.117  0.1038 -0.1828 -0.0063
10903W        W13103  14.349   3.320   6.617 -0.1136 -0.0601  0.1143
10904W        W13104  16.742   4.241   0.756 -0.3493 -0.3038  0.2505
10905W        W13105  20.536   0.784  26.235 -0.1258  0.1604 -0.2011
10906W        W13106   7.423   0.169  39.841 -0.2638  0.1168 -0.0858
10907W        W13107  12.835   6.000  28.767 -0.0603  0.0105 -0.1558
10908W        W13108   4.789   0.087  41.128  0.2151 -0.0108 -0.0878
10909W        W13109   9.917   4.480  19.114 -0.1213  0.0165 -0.1099
10910W        W13110  15.063   2.340  13.145  0.3194 -0.2012  0.2769
10911W        W13111   6.820   2.900  22.701 -0.0152 -0.0878 -0.1685
10912W        W13112  11.974   5.172  40.784 -0.1746  0.1384 -0.1507
10913W        W13113   0.385   2.715  11.212 -0.0382  0.0535 -0.0521
10914W        W13114  12.325   4.875  16.625 -0.0080  0.0120 -0.2819
10915W        W13115  16.841   5.437  43.102 -0.1442  0.2163  0.1847
10916W        W13116  11.038   6.280   0.154 -0.2276  0.1773 -0.3423
10917W        W13117  21.012   5.554  25.608 -0.1849  0.0827 -0.1246
10918W        W13118   0.567   6.532  25.061 -0.2298 -0.2851  0.0158
10919W        W13119  15.365   6.340  10.104  0.1893  0.0557  0.0523
10920W        W13120  16.381   2.155  40.104 -0.1046  0.0148  0.2048
10921W        W13121  19.308   1.461  15.318  0.0915 -0.1843 -0.3300
10922W        W13122  10.423   1.983   9.481  0.4116 -0.1004  0.0106
10923W        W13123  12.371   5.942  40.045  0.0391 -0.2075 -0.2200
10924W        W13124  14.634   4.907  38.800  0.0973  0.1720  0.1790
10925W        W13125  13.363   3.737   5.721  0.0869 -0.4060  0.3285
10926W        W13126   3.489   2.358  14.341 -0.0795  0.1599 -0.2066
10927W        W13127   1.659   2.067  40.866  0.0139 -0.1218  0.4293
10928W        W13128  13.988   6.146  10.573  0.0167 -0.1231 -0.1791
10929W        W13129  10.758   2.911  10.444  0.2913  0.0126  0.3253
10930W        W13130  15.648   2.671   0.726 -0.0765  0.0834 -0.2311
10931W        W13131   1.695   6.569  43.584 -0.0061 -0.1123  0.0950
10932W        W13132  21.110   2.416  37.683  0.3122 -0.0481 -0.0597
10933W        W13133  17.431   3.639  37.514 -0.1854 -0.2047  0.1201
10934W        W13134   3.372   6.159   6.197 -0.1740 -0.0432  0.0653
10935W        W13135  18.464   6.363  23.563 -0.1245 -0.1990  0.0825
10936W        W13136  12.268   2.042  11.396 -0.2189 -0.1683  0.3684
10937W        W13137  13.514   0.612  36.360  0.0173 -0.0847 -0.3815
10938W        W13138  13.361   1.709  42.672 -0.0551 -0.0205 -0.1528
10939W        W13139  12.380   0.294   2.828 -0.0214 -0.1263 -0.1943
10940W        W13140  19.242   0.559  43.085  0.0690 -0.1960 -0.0057
10941W        W13141  20.161   1.943   8.645 -0.0264  0.2317 -0.1646
10942W        W13142  15.728   5.057  11.987 -0.3054  0.0107  0.0299
10943W        W13143   5.046   0.295   4.440  0.0132 -0.0111  0.1120
10944W        W13144  10.665   5.243  32.795  0.0890 -0.2042 -0.2428
10945W        W13145   7.998   4.689  34.878 -0.1756  0.3185 -0.3369
10946W        W13146   6.076   2.094  42.738 -0.1070  0.0939  0.1657
10947W        W13147  19.333   0.625  24.418 -0.0800 -0.3420 -0.1872
10948W        W13148   7.690   0.144   0.442 -0.0857 -0.0501  0.1455
10949W        W13149   7.204   3.538  36.765  0.1294  0.0348  0.1668
10950W        W13150  17.639   1.706  40.974  0.1721 -0.1239 -0.2671
10951W        W13151   4.352   5.230  43.017 -0.2979  0.0087  0.0063
10952W        W13152   5.980   1.915  19.977  0.1161  0.4181  0.3181
10953W        W13153  20.426   0.993  23.638  0.1077  0.3116 -0.0130
10954W        W13154   0.705   3.074  39.744 -0.1022  0.0428 -0.0508
10955W        W13155  10.214   2.626  20.314 -0.1527  0.0849  0.0618
10956W        W13156   8.130   1.284  23.449  0.2578 -0.0065 -0.0436
10957W        W13157   7.795   0.350   7.761 -0.0480  0.2597 -0.0653
10958W        W13158  14.250   1.349  44.447  0.0494 -0.2890 -0.2427
10959W        W13159  20.548   4.347   1.993  0.0232 -0.0848  0.4550
10960W        W13160  10.074   4.097  16.501 -0.2946 -0.2170  0.1673
10961W        W13161  20.113   0.976  22.370 -0.0248  0.2727  0.1158
10962W        W13162   9.102   1.950  35.139  0.2097  0.1762 -0.1299
10963W        W13163  15.721   0.063  30.739  0.0612 -0.4334 -0.1597
10964W        W13164  16.321   1.926  44.233 -0.0395 -0.0070 -0.1323
10965W        W13165  11.613   2.880  44.332  0.2166 -0.1415  0.1343
10966W        W13166  12.782   2.212  15.074 -0.2004  0.1509  0.1033
10967W        W13167   2.061   5.727   6.644 -0.0798  0.0362  0.2062
10968W        W13168  21.023   1.462  14.770  0.1054  0.1532 -0.2387
10969W        W13169   8.491   4.292  31.829 -0.0549  0.2205  0.1284
10970W        W13170   3.997   4.412  32.550 -0.0808 -0.1445  0.1825
10971W        W13171  11.393   4.511  22.081 -0.1802 -0.4880  0.1122
10972W        W13172  13.606   2.725   9.644 -0.1425 -0.0912  0.1227
10973W        W13173   3.521   6.419  35.688  0.0904 -0.0205  0.2153
10974W        W13174   7.927   5.912   5.555  0.0680 -0.0407 -0.0019
10975W        W13175   7.346   0.535  13.122 -0.0920 -0.1457  0.1102
10976W        W13176  19.889   1.419   3.071  0.1849 -0.1054  0.1412
10977W        W13177  15.808   2.278  43.681  0.2896  0.1378  0.1655
10978W        W13178  20.377   0.374  41.056 -0.0177  0.1602  0.1530
10979W        W13179  10.063   3.127   9.323 -0.1731  0.2398  0.0940
10980W        W13180  19.421   2.560  39.618 -0.0910  0.2723  0.1881
10981W        W13181  14.528   6.042   3.403  0.0613  0.0109  0.1982
10982W        W13182   0.528   3.072  15.610 -0.0157 -0.0119 -0.0355
10983W        W13183  18.756   3.176  14.990  0.0811 -0.1226  0.1639
10984W        W13184   6.842   0.265   5.818 -0.1158  0.0361  0.1212
10985W        W13185  13.213   5.911   3.924 -0.2101 -0.0180 -0.6127
10986W        W13186  14.974   3.174  38.739  0.1532 -0.1395  0.1631
10987W        W13187  13.546   1.336  17.821  0.0274 -0.0419  0.1560
10988W        W13188   0.153   0.086  31.954 -0.5689 -0.2994  0.0237
10989W        W13189  16.006   1.824  43.807 -0.0729 -0.0415  0.2308
10990W        W13190   7.491   5.794  10.718 -0.0861  0.0285 -0.2313
10991W        W13191   9.473   5.535  33.002  0.0266  0.1709  0.0556
10992W        W13192   9.793   4.484  33.461 -0.1426  0.0592  0.0529
10993W        W13193  18.344   2.566  24.641  0.5133  0.0154 -0.0055
10994W        W13194   5.573   3.675  29.843  0.0215 -0.0588  0.0108
10995W        W13195   6.645   3.998  21.423 -0.2544  0.0868  0.0381
10996W        W13196  16.232   1.299  27.490  0.2264 -0.4181  0.2417
10997W        W13197   4.242   4.196  13.943  0.1611  0.3590  0.0904
10998W        W13198   3.251   5.463  35.503  0.1849 -0.0471 -0.0949
10999W        W13199   2.701   5.245  34.825  0.2862 -0.1482  0.4068
11000W        W13200  13.449   3.730  32.472 -0.1886  0.0365  0.0353
11001W        W13201  12.482   2.151  38.804  0.1294 -0.0867  0.1525
11002W        W13202  13.165   5.226  20.035 -0.5225  0.1715 -0.0416
11003W        W13203   5.741   2.814   1.154  0.0585 -0.0574  0.1355
11004W        W13204  11.608   6.252  29.520 -0.1210 -0.2175  0.0730
11005W        W13205  10.054   5.472   7.475  0.1051 -0.0447  0.0076
11006W        W13206  15.839   4.316  10.036 -0.0202 -0.0913 -0.1179
11007W        W13207   2.024   2.274   3.349  0.2697  0.2388  0.4624
11008W        W13208   0.226   2.863  39.304 -0.1388  0.0572 -0.1241
11009W        W13209   5.031   0.728  30.501 -0.1431 -0.0758  0.1358
11010W        W13210  15.026   1.414  27.892 -0.1773  0.0103 -0.1012
11011W        W13211  15.456   4.220   8.921  0.2920  0.0062 -0.4434
11012W        W13212   2.887   3.787   5.851 -0.0687 -0.1220  0.0223
11013W        W13213  13.163   6.039   7.797  0.1428 -0.0837  0.4037
11014W        W13214  12.759   6.130  11.756 -0.2440 -0.0509 -0.2738
11015W        W13215   5.419   0.949  12.005  0.0726 -0.1064 -0.2363
11016W        W13216   3.954   2.886  27.142  0.2694 -0.0699 -0.1169
11017W        W13217   1.896   2.390  30.404 -0.0504 -0.3282  0.0455
11018W        W13218  16.703   5.818  34.555  0.2104 -0.1219  0.1044
11019W        W13219  13.994   2.939  11.875  0.2330 -0.0938  0.0279
11020W        W13220  19.249   1.918  32.762 -0.2885 -0.0283  0.3325
11021W        W13221  18.262   0.567  11.801  0.1867  0.0343 -0.2017
11022W        W13222  16.691   2.656  13.773  0.0268  0.0329 -0.3138
11023W        W13223  17.830   1.580   8.164 -0.3455  0.1077 -0.3164
11024W        W13224  15.295   5.117  16.348 -0.0646  0.2456 -0.2332
11025W        W13225  18.134   1.186  44.433 -0.3173  0.0022 -0.0762
11026W        W13226   2.111   1.869  27.112  0.1664 -0.1570  0.0013
11027W        W13227  13.670   0.223   3.678 -0.0087  0.0361 -0.2918
11028W        W13228   7.201   0.734  36.105  0.0442  0.2551 -0.2277
11029W        W13229   3.560   6.271  32.235  0.1658 -0.0584 -0.1217
11030W        W13230   3.400   5.398   2.454 -0.2301  0.0219  0.0647
11031W        W13231  12.508   1.414   0.190  0.1412 -0.1428 -0.1819
11032W        W13232  14.259   5.805  18.696 -0.1257  0.1756 -0.3068
11033W        W13233   3.814   6.357   6.429  0.0686  0.3898  0.2955
11034W        W13234   9.851   3.564  42.082 -0.4282  0.1798  0.0707
11035W        W13235  13.784   2.411  42.144  0.0818  0.0355  0.2894
11036W        W13236   2.729   4.086   2.970 -0.2014 -0.2988 -0.1543
11037W        W13237  20.872   4.297   6.512 -0.2372  0.0451 -0.1300
11038W        W13238   2.644   4.923  38.984 -0.2902  0.0219 -0.1586
11039W        W13239  16.373   0.246  15.843  0.2762 -0.1226 -0.1161
11040W        W13240  12.889   0.233  37.001 -0.2459 -0.0928 -0.0807
11041W        W13241  13.092   1.560   3.268  0.0060  0.0634 -0.1214
11042W        W13242   5.242   4.205   1.237  0.0530 -0.0788  0.0666
11043W        W13243  16.201   2.494  13.823 -0.1071 -0.3005 -0.2589
11044W        W13244  14.960   4.383  26.956  0.0460  0.3070 -0.2399
11045W        W13245  19.313   4.065  13.117 -0.1124 -0.1536 -0.1627
11046W        W13246  20.040   2.589   4.633 -0.1032  0.0681  0.0270
11047W        W13247   9.970   1.690  31.469  0.2700  0.0811  0.0724
11048W        W13248   8.782   1.051  23.872 -0.0657 -0.3054 -0.0194
11049W        W13249   9.489   2.229  43.978 -0.1215  0.0479  0.3447
11050W        W13250  11.131   5.192  31.177 -0.0023  0.2593  0.2337
11051W        W13251   3.479   1.700  11.853 -0.1055 -0.0089 -0.2017
11052W        W13252  20.274   3.326  31.394 -0.0872  0.0595  0.1221
11053W        W13253   3.807   1.919  43.555 -0.1371  0.2579  0.2836
11054W        W13254  15.251   6.090  13.463 -0.0041  0.0282  0.2766
11055W        W13255  19.221   4.397   1.302  0.2265  0.0286 -0.2486
11056W        W13256  18.384   2.305  33.434  0.1713 -0.1772  0.0283
11057W        W13257  19.297   5.140  39.376 -0.2084  0.0608 -0.4388
11058W        W13258  17.379   0.694   6.141  0.3079  0.1027  0.0211
11059W        W13259  16.352   4.435  30.014  0.0298 -0.0534 -0.3083
11060W        W13260  18.618   6.099  38.027  0.0434  0.1490  0.1205
11061W        W13261   1.304   1.901  12.472  0.2748 -0.5124  0.2052
11062W        W13262  15.452   5.876   0.471 -0.0050 -0.0143  0.1803
11063W        W13263  20.137   2.971  28.536  0.0061  0.0066 -0.0665
11064W        W13264   1.324   5.305  24.548 -0.0553  0.0487 -0.1958
11065W        W13265  18.139   4.867  29.149 -0.0606  0.1915  0.1957
11066W        W13266   6.566   5.612  42.313 -0.1385  0.3585 -0.1908
11067W        W13267   0.885   0.428  31.973  0.4030 -0.2428 -0.1008
11068W        W13268   2.711   6.401   5.412  0.0088 -0.3161 -0.1011
11069W        W13269  15.895   5.184  38.156 -0.0319  0.0717  0.3881
11070W        W13270   4.193   0.229  16.181  0.0977 -0.1914  0.0327
11071W        W13271  11.520   0.840  40.045 -0.1427 -0.1093 -0.0422
11072W        W13272  19.317   1.494  34.758 -0.0942  0.1189  0.1408
11073W        W13273   6.258   2.780  15.394  0.0204  0.0390  0.0746
11074W        W13274  18.156   3.262  39.354  0.0146  0.0854 -0.0399
11075W        W13275  10.632   0.221  41.149 -0.0018 -0.1323 -0.0601
11076W        W13276   3.014   2.188   5.749 -0.0852 -0.0681  0.3213
11077W        W13277   1.872   4.168   1.056 -0.0002 -0.2440 -0.0163
11078W        W13278   9.294   4.000  43.037  0.0283  0.0196 -0.0769
11079W        W13279   0.741   5.439   3.148 -0.0924 -0.1517  0.0848
11080W        W13280  16.364   0.038  35.364 -0.1590 -0.0527 -0.1805
11081W        W13281  17.349   1.542   3.992 -0.2676  0.2136 -0.0664
11082W        W13282  16.213   5.206   0.781 -0.2610  0.0122 -0.2930
11083W        W13283   6.318   3.870  33.882 -0.2164  0.2505 -0.0062
11084W        W13284   6.996   2.048   4.786  0.1782 -0.2550  0.1451
11085W        W13285  10.027   2.054   7.098  0.0017  0.0035  0.1338
11086W        W13286  13.679   3.160  18.677 -0.1892  0.0819 -0.2438
11087W        W13287   3.257   1.345  16.175 -0.0129 -0.1161 -0.0388
11088W        W13288   6.635   2.476  33.077 -0.0524  0.1032 -0.0277
11089W        W13289   8.610   0.310  22.207  0.4795 -0.0583 -0.2751
11090W        W13290  12.830   1.807  41.135 -0.1655 -0.0858 -0.0952
11091W        W13291  19.021   4.953  37.387  0.3296  0.0062  0.0202
11092W        W13292   9.331   5.227  13.070  0.0517  0.0063  0.0604
11093W        W13293   0.995   0.527  15.690 -0.0868  0.1510  0.2165
11094W        W13294   0.077   3.375  37.482 -0.0831  0.2674  0.0689
11095W        W13295  15.971   3.976   5.968 -0.2003 -0.1204 -0.0011
11096W        W13296  16.134   3.641   8.327  0.4072 -0.3353 -0.1500
11097W        W13297  20.234   1.256  41.628  0.0974  0.0385  0.0802
11098W        W13298  14.844   6.385   3.108  0.3678 -0.1145 -0.0287
11099W        W13299  17.887   2.965  13.369  0.0296 -0.1204  0.1050
11100W        W13300  13.705   5.421  33.690 -0.2579  0.1550 -0.0216
11101W        W13301   7.507   2.463  37.738 -0.0800 -0.1548  0.0145
11102W        W13302   4.262   4.231  14.436  0.2272 -0.1617  0.1127
11103W        W13303   1.291   5.592  33.243  0.0080  0.2615  0.2785
11104W        W13304   5.317   4.255  42.855 -0.0987  0.2336  0.0758
11105W        W13305  17.412   4.703   4.911  0.1385 -0.1664 -0.0546
11106W        W13306  17.237   6.324  33.295  0.0887 -0.0708 -0.0482
11107W        W13307   2.692   4.484   1.301 -0.2004  0.1127 -0.1177
11108W        W13308   1.368   5.236   3.032 -0.3430  0.0647  0.0911
11109W        W13309   1.880   2.620  38.063  0.0742  0.0146  0.0758
11110W        W13310  20.620   5.647  31.559  0.1543 -0.2266  0.2052
11111W        W13311  20.787   2.080   5.183 -0.2061 -0.3168 -0.0872
11112W        W13312  18.467   5.425  38.668  0.1228  0.0854  0.0182
11113W        W13313   5.342   5.642  44.986  0.1988 -0.1885 -0.2735
11114W        W13314  11.383   6.431  36.577  0.0181  0.1841  0.2217
11115W        W13315  20.556   6.104  22.067 -0.2558 -0.0992 -0.1306
11116W        W13316   6.462   2.642   6.928  0.0764 -0.2400 -0.2109
11117W        W13317   8.266   6.253  38.976 -0.3730 -0.0617 -0.1058
11118W        W13318  18.265   2.436  41.798 -0.3107 -0.0175  0.1099
11119W        W13319   8.049   4.875  21.091  0.0331  0.1359  0.0945
11120W        W13320   9.334   1.836  11.349  0.2736  0.1520 -0.1481
11121W        W13321   6.371   3.914   1.551  0.0576 -0.1110  0.1596
11122W        W13322  14.282   2.012  39.412 -0.1825 -0.0875  0.0892
11123W        W13323   6.211   0.417   8.849 -0.0233  0.1988  0.2282
11124W        W13324   6.096   0.611  14.421  0.1619 -0.0206  0.0922
11125W        W13325  10.869   0.656   5.534 -0.1090  0.0455  0.1448
11126W        W13326   6.337   3.907   5.736  0.1068  0.0926 -0.1805
11127W        W13327  21.014   3.335  43.218 -0.0488  0.2980 -0.0917
11128W        W13328  10.585   3.079   0.975  0.1732  0.0232 -0.0080
11129W        W13329  19.168   5.561  21.435  0.0244 -0.1194 -0.0958
11130W        W13330  10.557   0.625   4.511  0.2282 -0.0997  0.1745
11131W        W13331  20.108   0.561  38.409  0.0347  0.0167  0.3176
11132W        W13332  12.409   3.909  30.083  0.1425  0.0290  0.2155
11133W        W13333   0.948   2.885  13.306 -0.0759 -0.0004  0.1255
11134W        W13334  17.406   1.423  30.342  0.2273 -0.0950  0.1299
11135W        W13335   0.305   1.664   2.483 -0.2088  0.3324 -0.1366
11136W        W13336   9.238   2.354  38.912  0.1120  0.4099  0.2107
11137W        W13337   7.620   5.333   7.784 -0.0102 -0.1857  0.0479
11138W        W13338  15.232   4.631  44.484 -0.1657 -0.0504  0.1773
11139W        W13339   7.635   0.674  42.743 -0.1236  0.0583 -0.0705
11140W        W13340  15.258   4.906   6.809  0.0041  0.0257 -0.1953
11141W        W13341  13.664   1.879  28.839 -0.2335 -0.0120 -0.0252
11142W        W13342   7.568   3.282  37.832  0.1242  0.1186 -0.2720
11143W        W13343  18.475   5.387  26.241 -0.0312  0.2446 -0.2452
11144W        W13344  14.036   5.475  19.062  0.1316 -0.1716 -0.0174
11145W        W13345  12.036   1.367  42.653  0.2089  0.3200 -0.1925
11146W        W13346   7.490   6.005   1.049 -0.0682 -0.2788 -0.2872
11147W        W13347  13.978   6.585  12.938  0.5306 -0.0958 -0.0616
11148W        W13348  13.248   2.547   0.202 -0.1383 -0.1400  0.0064
11149W        W13349  16.918   4.304  15.937 -0.0815  0.0843  0.0207
11150W        W13350   6.624   1.082  29.478  0.4002 -0.0483  0.4022
11151W        W13351  20.683   3.284  13.249  0.0846  0.0885 -0.1005
11152W        W13352   1.668   0.153  30.542 -0.0316  0.0592 -0.2175
11153W        W13353  10.218   4.689   0.463  0.0781 -0.1318 -0.1174
11154W        W13354   7.521   2.035   8.651  0.0512 -0.0117 -0.0147
11155W        W13355   2.853   3.928  43.785 -0.2857  0.0217  0.2790
11156W        W13356  17.983   1.265  40.595 -0.0219 -0.0042 -0.1660
11157W        W13357  19.809   2.282  30.774  0.2004  0.1997  0.0947
11158W        W13358   4.086   0.536   6.750 -0.0959  0.1873 -0.1201
11159W        W13359  16.248   1.532  35.655  0.0348 -0.2676 -0.0407
11160W        W13360  14.892   5.710  11.804  0.0606  0.2594  0.2380
11161W        W13361  10.150   2.658  44.492  0.2587  0.0620 -0.1890
11162W        W13362  17.235   5.028  42.230 -0.0402 -0.0205  0.1678
11163W        W13363  19.128   5.289   9.367 -0.0130 -0.4157 -0.0417
11164W        W13364   4.104   4.688  26.665 -0.0128  0.1022 -0.0036
11165W        W13365  10.653   3.452  13.156  0.3617 -0.0783 -0.0130
11166W        W13366  12.153   2.297  37.635  0.0345  0.0736 -0.3342
11167W        W13367  20.094   4.814  25.937  0.0527 -0.1096 -0.0868
11168W        W13368  12.503   0.575  33.415 -0.0012 -0.4551  0.1545
11169W        W13369   9.392   3.486   1.391  0.0825 -0.2636  0.2536
11170W        W13370  13.397   3.588   6.179 -0.0825 -0.1709 -0.0796
11171W        W13371  18.768   2.335   8.034  0.0924  0.2244 -0.2054
11172W        W13372   0.510   3.071  11.918 -0.0096 -0.2261 -0.2370
11173W        W13373  13.024   1.159   7.965 -0.3345  0.1855 -0.1871
11174W        W13374  20.588   1.358  41.263  0.0298  0.2512  0.0014
11175W        W13375   6.015   2.993  44.976  0.2580 -0.0735 -0.1694
11176W        W13376   6.082   0.992   4.960 -0.0823 -0.1505 -0.0906
11177W        W13377  15.213   2.603  43.688 -0.0627 -0.0477  0.0476
11178W        W13378  20.270   5.706  38.658 -0.1731 -0.0404  0.0671
11179W        W13379  14.646   0.354   5.007 -0.1281 -0.0622  0.1183
11180W        W13380   1.614   6.115  29.959 -0.0548 -0.1535 -0.0080
11181W        W13381   4.572   3.328  43.034  0.1645 -0.1954  0.3729
11182W        W13382   7.621   4.065  37.465 -0.0855 -0.1271 -0.1727
11183W        W13383   1.941   2.469   1.845 -0.2589 -0.0487 -0.0402
11184W        W13384  10.339   5.730  35.049  0.0724  0.2185 -0.0476
11185W        W13385  17.695   2.227  13.241 -0.2015  0.4111  0.1229
11186W        W13386   5.292   4.644  38.341 -0.0420 -0.0278 -0.0172
11187W        W13387  20.982   1.817  36.685  0.0854  0.2760  0.1026
11188W        W13388  18.257   0.620  43.271 -0.1044  0.2064  0.0289
11189W        W13389   6.088   6.224   7.345 -0.1182  0.2168 -0.0521
11190W        W13390   2.036   1.181  36.408  0.0459  0.1577 -0.1505
11191W        W13391   7.112   6.018  36.947 -0.0670 -0.2632 -0.1551
11192W        W13392   3.158   5.467   7.510  0.1342  0.2261 -0.2905
11193W        W13393   2.441   0.280   8.619 -0.1411 -0.1496  0.2612
11194W        W13394  19.633   3.357   0.992  0.1682 -0.0349  0.0512
11195W        W13395   7.979   5.990  19.428 -0.1578 -0.2321  0.1957
11196W        W13396   8.774   3.313  16.280 -0.1334  0.0124  0.3660
11197W        W13397  10.862   5.253  14.982  0.2453  0.2279  0.0500
11198W        W13398   7.054   0.761  42.954  0.4189 -0.0087  0.3037
11199W        W13399   1.841   2.303  33.607 -0.1544 -0.0255  0.1502
11200W        W13400   7.506   5.463  21.068 -0.2335 -0.1515  0.1131
11201W        W13401   9.742   6.468  31.320  0.0973 -0.0845 -0.2702
11202W        W13402   3.336   5.719  14.447 -0.1148 -0.3393  0.1074
11203W        W13403  17.583   1.376  12.642 -0.0818 -0.1156  0.0111
11204W        W13404  19.251   2.965   0.785 -0.1791 -0.1621  0.0682
11205W        W13405   8.815   2.120   1.970  0.2136  0.0025  0.0064
11206W        W13406  13.387   2.744  12.605 -0.1179  0.3608  0.3297
11207W        W13407   6.314   2.029  31.114  0.0937  0.0922  0.2069
11208W        W13408  18.993   5.651  27.241  0.2549  0.1407  0.0842
11209W        W13409  11.649   3.283  16.111  0.1740 -0.1022 -0.1686
11210W        W13410  15.925   0.360  27.459  0.2315  0.2269  0.1458
11211W        W13411  20.813   3.552   9.699  0.0369 -0.0507 -0.0285
11212W        W13412   7.579   3.161  35.654  0.0131 -0.0301  0.0857
11213W        W13413   9.343   5.036  18.246  0.1255 -0.2909 -0.1043
11214W        W13414   8.058   3.019  18.695 -0.0819  0.0352 -0.2918
11215W        W13415  14.836   2.134  33.975 -0.1760 -0.1191  0.2352
11216W        W13416   8.678   0.831  36.403 -0.1837  0.1505 -0.2194
11217W        W13417   1.946   5.617   7.985  0.0829  0.1469  0.2290
11218W        W13418  13.697   4.172  33.484 -0.0690 -0.0831 -0.0691
11219W        W13419  17.354   5.900  15.334 -0.0345  0.0903  0.1791
11220W        W13420  13.841   0.494  41.978  0.4402  0.0345  0.0982
11221W        W13421   0.283   6.334  43.792 -0.1062 -0.1707  0.2261
11222W        W13422   1.052   0.195  36.272  0.1695 -0.0983 -0.1647
11223W        W13423   5.447   0.132  11.780  0.0118 -0.0340  0.0825
11224W        W13424  20.900   5.095   0.208  0.0269  0.0031  0.0157
11225W        W13425  10.991   3.599  15.378 -0.1362 -0.1591  0.0042
11226W        W13426   6.874   5.427  43.301  0.2863 -0.4592  0.0271
11227W        W13427   8.870   3.946  32.604  0.1220  0.0101  0.2827
11228W        W13428   9.322   3.746   3.057 -0.1032 -0.3664  0.2025
11229W        W13429  13.894   3.759   4.663 -0.4056 -0.0456 -0.2999
11230W        W13430  18.987   2.828  33.666  0.2560 -0.1264 -0.0566
11231W        W13431  19.174   3.531  14.952 -0.0620 -0.4361 -0.0427
11232W        W13432   8.981   1.713  36.430 -0.2545  0.2003 -0.1404
11233W        W13433   5.904   5.914  34.504 -0.1956  0.3701  0.2093
11234W        W13434   0.171   5.924  12.941  0.1822 -0.0730 -0.1138
11235W        W13435  17.687   2.562  15.337 -0.1685  0.0605  0.0441
11236W        W13436  15.584   3.423  32.934  0.0875  0.2214 -0.0726
11237W        W13437   0.442   2.565  35.286 -0.0382  0.0027 -0.2255
11238W        W13438  20.503   6.299  24.398  0.0327  0.1969  0.4594
11239W        W13439   6.654   1.120  41.391  0.3239  0.0396  0.1322
11240W        W13440  19.076   3.739   1.952  0.1599  0.1159 -0.0149
11241W        W13441   8.732   2.906  15.966  0.1638  0.0438 -0.1551
11242W        W13442  11.895   1.692   5.600  0.0158  0.0700  0.0652
11243W        W13443   6.908   3.953  30.798  0.1381  0.2066  0.1304
11244W        W13444  19.897   2.108  32.160  0.0259  0.1793  0.1759
11245W        W13445  10.997   4.393  13.718  0.0183  0.2145 -0.1889
11246W        W13446  15.651   1.001  16.907  0.0293  0.0915  0.0106
11247W        W13447   5.344   4.072  37.096  0.2247  0.1915  0.2871
11248W        W13448  12.770   5.396   4.664  0.1394 -0.3723  0.0941
11249W        W13449   4.170   5.168   0.287  0.2192 -0.0258  0.0022
11250W        W13450  12.558   4.605   8.932  0.1721  0.1571  0.0179
11251W        W13451  13.992   1.533  38.043 -0.0683 -0.1433  0.0557
11252W        W13452  18.886   4.623  33.755  0.3642 -0.1010 -0.3079
11253W        W13453  19.164   5.946  28.964 -0.0201  0.1448  0.1922
11254W        W13454  16.383   2.191   0.337 -0.1321  0.0675  0.1065
11255W        W13455   2.779   1.603  27.382 -0.0220 -0.1163 -0.0099
11256W        W13456  10.322   3.883  24.126 -0.1470  0.0117  0.1624
11257W        W13457  19.022   0.350   9.777 -0.0066 -0.0024 -0.3705
11258W        W13458  19.051   6.208   4.947  0.2799 -0.2797 -0.0909
11259W        W13459  14.401   4.350  43.085  0.0250  0.0784 -0.4090
11260W        W13460  19.095   5.025  40.407 -0.2200 -0.1356 -0.2501
11261W        W13461   6.440   5.654  14.870 -0.0459 -0.0289  0.2895
11262W        W13462   4.723   0.412  44.590  0.1924  0.0079 -0.1211
11263W        W13463   1.214   0.938  34.673 -0.2643  0.0325  0.1392
11264W        W13464  10.639   3.373  40.819  0.1444 -0.0342 -0.0743
11265W        W13465  11.572   3.268  34.952 -0.0383 -0.2129  0.3430
11266W        W13466   7.481   4.994  11.192  0.2121  0.0269 -0.0028
11267W        W13467  20.389   6.252  27.567 -0.0354 -0.1654 -0.1073
11268W        W13468   6.457   3.167  11.850 -0.0414  0.3814 -0.1158
11269W        W13469  17.977   5.037  39.499  0.1580 -0.2100  0.2022
11270W        W13470   1.465   0.515  36.152 -0.0310 -0.0920  0.0999
11271W        W13471  13.152   2.190   3.167  0.0173  0.1214  0.0954
11272W        W13472  18.301   0.181  42.736 -0.1272  0.0614  0.0166
11273W        W13473   3.026   6.214  28.527 -0.0104 -0.0608  0.3239
11274W        W13474   6.552   1.491   5.496  0.2220  0.2824  0.0340
11275W        W13475   6.050   6.181  18.546 -0.0576 -0.0244 -0.1842
11276W        W13476  11.836   5.050   4.923 -0.3346  0.0966 -0.0597
11277W        W13477  20.097   4.442  29.471  0.3722 -0.1047 -0.0329
11278W        W13478  20.006   5.454  27.208 -0.0352  0.0707 -0.1260
11279W        W13479   7.020   0.760  12.547 -0.2173  0.3434  0.1257
11280W        W13480  11.120   0.648   6.070  0.4706 -0.3283 -0.2132
11281W        W13481  10.328   2.532  17.363 -0.2520  0.2564 -0.2393
11282W        W13482   9.273   4.974  21.925  0.0895 -0.3441 -0.1427
11283W        W13483   0.806   6.152   3.800  0.0638 -0.1753  0.1116
11284W        W13484  19.653   4.050  26.754  0.0247  0.2180  0.3797
11285W        W13485  18.797   1.859  41.534 -0.2160  0.2122 -0.4051
11286W        W13486  19.958   4.669  14.472 -0.0925  0.0063  0.2947
11287W        W13487   2.849   5.883   2.064  0.0794 -0.4355  0.3897
11288W        W13488  17.073   3.300  35.755  0.2977  0.1756 -0.0398
11289W        W13489   0.068   6.255   3.137  0.2083  0.0536  0.1281
11290W        W13490   6.151   3.097  10.904 -0.2570  0.1425 -0.0336
11291W        W13491   1.854   5.027  41.290  0.2656 -0.1744 -0.3434
11292W        W13492   0.482   0.649  15.014  0.0211  0.2440  0.0596
11293W        W13493   3.572   1.831  39.963 -0.0560  0.3770  0.2732
11294W        W13494  13.795   3.209   2.265  0.0895 -0.0268 -0.2953
11295W        W13495   8.218   1.302  18.646  0.3278  0.1867  0.2683
11296W        W13496   3.787   5.639   5.195  0.2910  0.1047 -0.3036
11297W        W13497  20.669   1.605  26.541  0.1498  0.4148 -0.0153
11298W        W13498  19.003   5.979   9.755 -0.1926 -0.0230 -0.1038
11299W        W13499   8.810   5.404  35.153 -0.0125 -0.0836  0.0461
11300W        W13500   5.963   2.099  30.156 -0.0190  0.0737  0.1568
11301W        W13501   7.500   1.670  22.231 -0.0928  0.0816 -0.0836
11302W        W13502  16.501   1.499   5.322 -0.1501  0.2732  0.1915
11303W        W13503   6.002   1.562  19.645 -0.1440  0.0795  0.1055
11304W        W13504  18.358   4.750  41.681  0.2490 -0.0038 -0.0167
11305W        W13505  19.723   3.268  28.775  0.1036  0.0323  0.0070
11306W        W13506  16.791   5.992  42.613 -0.1812  0.0403 -0.0942
11307W        W13507  11.928   2.432  21.752 -0.0428  0.0440  0.0372
11308W        W13508   9.519   1.371  36.981 -0.1861  0.0082 -0.4135
11309W        W13509   2.455   1.111  26.636 -0.0026  0.1263  0.1080
11310W        W13510  19.516   0.339  33.547  0.3214 -0.1472  0.1601
11311W        W13511   0.160   5.659   4.316 -0.2527  0.0337 -0.1148
11312W        W13512   1.024   0.741   7.619 -0.3352 -0.1110 -0.1640
11313W        W13513  12.950   2.693  34.668 -0.1911  0.0625  0.0051
11314W        W13514   4.190   5.393  39.212 -0.1114  0.2369 -0.0959
11315W        W13515  13.192   0.210  15.472  0.1703  0.3007 -0.3789
11316W        W13516  16.712   5.889  12.483  0.0384  0.0460 -0.0105
11317W        W13517   7.033   1.836   3.165 -0.2237  0.0246 -0.0649
11318W        W13518  18.160   5.006  33.418  0.0176 -0.2539 -0.0609
11319W        W13519  12.933   4.285  17.147 -0.0355 -0.0399 -0.1040
11320W        W13520  17.683   0.670  10.981 -0.2024 -0.1315  0.0601
11321W        W13521  16.295   5.016   7.046 -0.3323  0.0999 -0.1504
11322W        W13522  11.316   0.906  16.304  0.1361  0.0982  0.7382
11323W        W13523   9.590   1.772  13.819 -0.0697 -0.0295 -0.3704
11324W        W13524  19.123   4.616  39.462 -0.3003 -0.0080 -0.0247
11325W        W13525   0.050   4.925  25.606 -0.0801  0.1252  0.1775
11326W        W13526  20.134   4.556  31.237 -0.2899  0.0433  0.3635
11327W        W13527  12.600   6.440   2.782 -0.2050  0.2592 -0.0494
11328W        W13528  14.295   1.894  18.530  0.1734 -0.0352 -0.1502
11329W        W13529   3.572   2.070   0.115 -0.2628 -0.0898  0.3948
11330W        W13530  14.729   2.876   7.970 -0.1477 -0.0874 -0.0081
11331W        W13531   6.605   3.581  17.453  0.3351  0.0334 -0.1656
11332W        W13532  16.255   1.696  28.372  0.0672  0.0747 -0.2029
11333W        W13533   1.573   3.529   3.349 -0.1375  0.4292 -0.3749
11334W        W13534   2.324   4.421  30.406 -0.1231  0.1251 -0.0888
11335W        W13535   6.510   5.499   8.723  0.0780  0.0089 -0.1039
11336W        W13536   1.617   1.200  11.799 -0.0431 -0.1087  0.0993
11337W        W13537  13.280   5.316  42.320  0.0935  0.1326 -0.0637
11338W        W13538  20.965   5.185  44.505 -0.2091  0.0894 -0.2370
11339W        W13539  14.955   1.124  30.305 -0.3248  0.2245 -0.3144
11340W        W13540  20.357   1.160  21.443  0.1651  0.0620  0.0525
11341W        W13541  18.656   3.505  30.069  0.2243 -0.1043 -0.0022
11342W        W13542   3.549   3.432  40.769  0.1207 -0.0703 -0.1007
11343W        W13543  16.313   1.711  26.743  0.2812  0.1218  0.2280
11344W        W13544  14.435   1.023  28.875  0.1276 -0.0299  0.1335
11345W        W13545   3.352   2.185  26.118  0.1077 -0.0253  0.0273
11346W        W13546  15.498   1.696   0.296  0.0032 -0.0507  0.1519
11347W        W13547  10.907   0.899  40.152  0.0754  0.1857 -0.0411
11348W        W13548  11.477   3.051   0.488  0.1479  0.1504  0.0630
11349W        W13549  11.626   2.539   1.351  0.2496  0.0394  0.0808
11350W        W13550   2.749   1.324   9.014  0.1799 -0.2257 -0.1592
11351W        W13551   7.000   5.310  42.451  0.0346  0.1195 -0.0176
11352W        W13552   4.082   3.950   2.610  0.0509  0.1903  0.0729
11353W        W13553   8.246   6.326  10.144  0.1078 -0.0017 -0.0853
11354W        W13554  11.933   5.818  35.520 -0.1436  0.0915 -0.0351
11355W        W13555   2.656   0.774  35.960 -0.0103  0.1855 -0.2212
11356W        W13556  19.461   1.239  30.229 -0.0499  0.3919  0.0759
11357W        W13557   0.409   6.150   5.873  0.0158 -0.1171 -0.1010
11358W        W13558  16.317   3.196  40.595 -0.3712 -0.0600  0.0543
11359W        W13559   3.451   3.267  14.568 -0.1253 -0.0017  0.1194
11360W        W13560  20.080   4.451  27.603  0.0492 -0.0094 -0.0768
11361W        W13561  18.046   0.783  37.970 -0.0546  0.0356  0.1252
11362W        W13562  11.981   3.700  34.202 -0.0128 -0.0058  0.0311
11363W        W13563  14.592   6.044   5.959  0.3034  0.2427 -0.0414
11364W        W13564   1.873   1.169  28.490 -0.2327 -0.0810  0.3592
11365W        W13565  17.144   3.779  40.911 -0.0783 -0.0945 -0.1609
11366W        W13566  13.019   5.034  20.471 -0.0880  0.3005  0.2227
11367W        W13567  14.464   1.344   9.928  0.5409  0.0965 -0.5031
11368W        W13568   4.509   3.400  12.829  0.2016  0.1877 -0.1193
11369W        W13569   7.393   6.322  13.919 -0.0897 -0.0954  0.0433
11370W        W13570  19.154   2.167  24.277 -0.0830 -0.0211 -0.2256
11371W        W13571  20.237   4.848  42.436  0.1638 -0.2327 -0.1036
11372W        W13572   7.494   6.309   3.071 -0.1102  0.3162 -0.2399
11373W        W13573  14.253   0.080  44.340  0.0171 -0.0518 -0.1771
11374W        W13574   7.888   1.435  41.914  0.3084  0.0144  0.0207
11375W        W13575  12.068   4.185  33.603 -0.0530  0.0677  0.0114
11376W        W13576   0.301   0.233  37.863 -0.1018 -0.0847 -0.3440
11377W        W13577  20.443   3.598  23.885  0.0893 -0.0228  0.1150
11378W        W13578   2.298   3.453  37.853 -0.3528 -0.0127 -0.0007
11379W        W13579   1.793   5.130  16.386 -0.1033 -0.1483 -0.2358
11380W        W13580   7.675   3.963  36.040  0.0286 -0.3046  0.1492
11381W        W13581  17.876   5.301  40.413  0.1004 -0.2021 -0.1511
11382W        W13582  18.412   1.890  22.550  0.0757 -0.0613  0.2793
11383W        W13583  11.246   5.573  17.986  0.0129  0.1407  0.1297
11384W        W13584   3.477   4.536  32.841  0.0687  0.0235  0.1245
11385W        W13585  19.364   0.136  19.806 -0.0499  0.2451  0.0070
11386W        W13586   6.738   3.930  39.129 -0.2134  0.2420 -0.1779
11387W        W13587  13.563   1.280   5.432 -0.0349 -0.1055  0.1478
11388W        W13588  13.240   5.349  28.845  0.1888  0.0188  0.1936
11389W        W13589   4.501   1.638  10.171 -0.2835  0.0343 -0.3041
11390W        W13590   8.105   5.117  36.763  0.0928  0.0924 -0.3220
11391W        W13591   8.455   0.594  19.067 -0.3980  0.0216  0.0018
11392W        W13592  18.586   4.181  23.153 -0.4648  0.2035  0.0582
11393W        W13593   5.426   3.447  28.715  0.0675  0.3413 -0.0220
11394W        W13594   2.315   0.901  34.368 -0.0568 -0.0772 -0.1098
11395W        W13595   3.433   4.260  12.964  0.2062  0.1859  0.3897
11396W        W13596  12.499   1.865  13.787 -0.1572  0.0227  0.1640
11397W        W13597   8.827   2.297  44.553  0.0519 -0.0280 -0.2562
11398W        W13598  20.538   3.324  43.648 -0.0026  0.2125  0.0519
11399W        W13599   3.661   2.282   1.786 -0.0612  0.2243  0.1399
11400W        W13600  14.283   4.224  35.405 -0.0855 -0.0361 -0.1332
11401W        W13601  17.610   5.003   5.475  0.0848 -0.0806 -0.0122
11402W        W13602  13.236   2.871  32.513 -0.2133  0.0313  0.0822
11403W        W13603  13.273   4.132   7.973  0.0890 -0.1976  0.2621
11404W        W13604   0.560   3.878  42.146  0.2565  0.0707 -0.0648
11405W        W13605   1.371   0.233  43.323 -0.1822 -0.1143 -0.3258
11406W        W13606  14.818   3.851   0.781  0.1406  0.0936 -0.0058
11407W        W13607   7.701   1.117   3.311  0.3272 -0.0591  0.1199
11408W        W13608  17.677   1.379  42.336  0.3204  0.2888 -0.0453
11409W        W13609  14.563   2.528  38.092 -0.0089  0.0522  0.5143
11410W        W13610  15.058   3.294  42.546  0.0541  0.1049  0.0796
11411W        W13611  13.577   3.891  31.760 -0.1412  0.1220 -0.1893
11412W        W13612  13.821   6.449  11.613 -0.2491 -0.2237 -0.1387
11413W        W13613  18.965   6.417  32.182 -0.0668 -0.1993  0.4349
11414W        W13614  16.636   5.952   2.969 -0.0049 -0.0037  0.0488
11415W        W13615  11.885   2.891  37.572 -0.0408  0.1763  0.4033
11416W        W13616   5.312   1.357   3.401 -0.0641 -0.0250  0.0630
11417W        W13617  13.240   0.112  39.808 -0.1987 -0.0260  0.4307
11418W        W13618   9.318   4.114  22.091  0.0340 -0.0373  0.1316
11419W        W13619  18.726   2.774   7.849  0.0266 -0.0927 -0.3280
11420W        W13620  17.227   1.032  32.672 -0.0490  0.0902 -0.3201
11421W        W13621  12.255   5.041  21.072  0.1900  0.2068  0.0817
11422W        W13622   2.699   0.427  44.044  0.1815 -0.1675  0.0526
11423W        W13623  18.353   6.442  11.343 -0.1104 -0.4315 -0.0248
11424W        W13624   2.717   2.073  14.687 -0.2912 -0.0300  0.0462
11425W        W13625  12.291   0.729   2.622  0.0146 -0.0970  0.4799
11426W        W13626  16.691   1.709   7.459  0.0064 -0.1879 -0.0210
11427W        W13627  19.368   3.622  35.867  0.2279  0.0017 -0.0055
11428W        W13628  12.157   1.407  40.183 -0.4904  0.1975 -0.0908
11429W        W13629  18.827   3.056   3.970 -0.1543  0.2064  0.2261
11430W        W13630  16.218   5.596  16.255  0.0481 -0.0078 -0.1549
11431W        W13631   0.409   6.430   2.819 -0.2527  0.1934  0.1854
11432W        W13632  19.200   2.044   7.901  0.2081 -0.2245 -0.0033
11433W        W13633   3.754   5.365  27.184 -0.0069  0.3887  0.1719
11434W        W13634  15.331   3.552   8.066  0.1196 -0.2504 -0.2902
11435W        W13635   2.334   2.191   2.062  0.0120 -0.1205  0.0977
11436W        W13636   7.701   0.101  18.648  0.2948  0.1738 -0.0562
11437W        W13637  16.330   0.872   1.665 -0.0873 -0.1173  0.1513
11438W        W13638  11.118   1.621  11.290 -0.0947 -0.0396  0.0543
11439W        W13639  12.643   2.992  39.343  0.1544 -0.0047  0.0226
11440W        W13640  13.739   4.704  34.231  0.0453 -0.3218  0.0574
11441W        W13641  16.416   0.833  35.014 -0.4465  0.0262 -0.1422
11442W        W13642  11.938   3.717  29.837 -0.0477 -0.0942  0.4338
11443W        W13643   9.902   5.741  20.461  0.1909 -0.1964  0.0715
11444W        W13644   6.756   5.234  37.287 -0.0378 -0.1420 -0.0936
11445W        W13645   0.514   5.940  39.333 -0.0088 -0.0290 -0.1289
11446W        W13646  19.178   1.311   4.060  0.2372  0.2577  0.0263
11447W        W13647  17.445   2.949   2.557 -0.2574  0.0465  0.1028
11448W        W13648   0.213   1.595  38.074  0.1359  0.0585  0.0080
11449W        W13649  17.789   0.120   0.518  0.0063 -0.0669 -0.2565
11450W        W13650   2.362   4.907  37.087 -0.0260 -0.2858  0.1681
11451W        W13651  17.118   3.140  31.494  0.1717  0.2205  0.3010
11452W        W13652  19.906   5.594  12.783  0.0591 -0.3144 -0.2689
11453W        W13653  12.379   5.632   3.678  0.0704 -0.0055 -0.0849
11454W        W13654  12.644   5.676  43.133  0.1969  0.0059 -0.3635
11455W        W13655  10.490   3.007  44.396 -0.1137 -0.1285  0.1206
11456W        W13656   2.004   6.421   7.202 -0.1260 -0.2767  0.1530
11457W        W13657   9.110   4.298   6.987  0.3583 -0.0603 -0.2017
11458W        W13658  19.465   2.693  13.169 -0.0412  0.0538  0.2264
11459W        W13659  20.130   0.014  10.891  0.2420 -0.0236 -0.3332
11460W        W13660  11.221   1.825  19.962  0.1274  0.2303 -0.1223
11461W        W13661   7.618   3.202   8.949  0.2442 -0.0382 -0.1010
11462W        W13662  18.938   4.467  38.688  0.0010 -0.0652  0.1703
11463W        W13663   0.414   2.382  25.892 -0.0322 -0.1066  0.1912
11464W        W13664   4.073   4.215  12.441 -0.1585 -0.3253 -0.2486
11465W        W13665   0.701   3.277  44.836  0.3241 -0.2743  0.0289
11466W        W13666  17.624   2.015  15.380 -0.1321 -0.2377 -0.0333
11467W        W13667   7.815   2.436  29.603 -0.0465  0.2005  0.0881
11468W        W13668   0.412   5.667  33.425  0.4496  0.1497  0.1035
11469W        W13669  11.638   6.009  43.219  0.2263  0.2476  0.2020
11470W        W13670   5.453   1.222   0.247 -0.1235  0.2005  0.0406
11471W        W13671   5.340   1.951  32.586 -0.0330 -0.1287  0.2880
11472W        W13672  13.452   4.119   0.133  0.2681  0.0328 -0.0868
11473W        W13673  16.352   4.148   1.024  0.3043 -0.2000 -0.0226
11474W        W13674   1.684   0.268  15.896  0.0130  0.1133 -0.0158
11475W        W13675   3.248   4.860  44.045 -0.0749  0.1274  0.1687
11476W        W13676   2.113   0.876  13.327 -0.0252 -0.1901 -0.0768
11477W        W13677  10.638   5.376  42.750  0.2869  0.0061  0.2405
11478W        W13678  13.846   1.790  14.909 -0.0728 -0.0602 -0.2902
11479W        W13679  19.605   2.578  35.833 -0.1031  0.6092  0.0324
11480W        W13680  18.672   1.423  28.805  0.0319  0.0231 -0.2333
11481W        W13681  16.609   3.799  36.703  0.0155 -0.1599 -0.1600
11482W        W13682   2.344   0.741   7.010 -0.1784 -0.0330 -0.2307
11483W        W13683   5.661   4.449   0.179 -0.1091  0.0701  0.2413
11484W        W13684   2.843   1.053  10.329  0.1715  0.1040 -0.0970
11485W        W13685  10.217   4.921  17.366 -0.5456  0.2035  0.1326
11486W        W13686  13.291   4.844  28.983  0.0637  0.1937  0.0737
11487W        W13687  11.331   6.096   6.101 -0.3450  0.0609  0.0714
11488W        W13688  11.572   3.020  19.615  0.1886 -0.0065 -0.0676
11489W        W13689   3.586   5.411  41.358 -0.3147  0.3488 -0.2301
11490W        W13690   8.251   1.207  38.784 -0.2965 -0.0373  0.0388
11491W        W13691  19.475   2.489  10.546 -0.0922 -0.0429 -0.3334
11492W        W13692  11.640   6.495  42.460  0.1565 -0.2370 -0.1879
11493W        W13693   4.128   5.448  42.074  0.0735 -0.1283  0.0730
11494W        W13694  20.541   0.510  35.114 -0.1588  0.1513  0.0878
11495W        W13695   8.991   2.971  35.273 -0.0723 -0.1645 -0.0686
11496W        W13696  17.622   4.266  41.505 -0.1370  0.0928 -0.3312
11497W        W13697   9.995   0.841   3.970 -0.0641 -0.0129  0.0593
11498W        W13698   6.145   1.352   2.903  0.0804 -0.1485  0.2308
11499W        W13699  17.442   4.033  26.779  0.1043 -0.0784 -0.1601
11500W        W13700  19.833   5.528  35.173 -0.1832  0.3807 -0.2854
11501W        W13701   1.835   3.874  37.251  0.2616 -0.0602 -0.1234
11502W        W13702   3.047   2.476  35.542 -0.3442 -0.2728  0.0014
11503W        W13703  18.156   5.743   3.997 -0.3654 -0.1371 -0.0582
11504W        W13704   2.086   0.951  27.032  0.2257  0.1097 -0.0943
11505W        W13705  11.304   0.156  13.005 -0.1081  0.1578 -0.1589
11506W        W13706   1.073   1.004  33.434  0.1476 -0.1580  0.1188
11507W        W13707  20.815   3.228   9.275  0.0602 -0.0309  0.0703
11508W        W13708   3.322   6.424   6.636  0.1736  0.0776  0.3044
11509W        W13709  20.357   2.139  32.740  0.0565  0.1861 -0.2339
11510W        W13710   4.140   0.929  36.515 -0.2440  0.0026 -0.2741
11511W        W13711   3.017   1.046   2.073 -0.0892 -0.0655 -0.0470
11512W        W13712   3.438   2.969  38.987  0.3433 -0.0665 -0.0750
11513W        W13713   1.308   4.751  38.413 -0.1559 -0.1495 -0.0973
11514W        W13714   2.112   4.271  42.319 -0.0201  0.0355 -0.4706
11515W        W13715   9.105   1.105   9.881  0.0121 -0.0900  0.2109
11516W        W13716  17.151   6.546   5.766 -0.1266  0.0632  0.0207
11517W        W13717  10.280   3.828  40.806 -0.0475 -0.1819  0.0223
11518W        W13718  15.609   0.221  39.197  0.0018  0.1608  0.0709
11519W        W13719  19.685   2.757   8.758  0.2667 -0.1015  0.3372
11520W        W13720   9.940   6.542  16.904  0.2211 -0.1774  0.0767
11521W        W13721  16.745   3.816  27.376  0.3721  0.4276  0.1170
11522W        W13722   0.934   1.502  15.248 -0.1082 -0.1011  0.0150
11523W        W13723   2.300   3.974  37.140  0.1816  0.0636  0.4062
11524W        W13724  19.433   5.503  14.587  0.4048 -0.3406  0.1524
11525W        W13725  17.112   1.249  31.348  0.2513  0.0138 -0.1258
11526W        W13726  10.454   3.361   5.050  0.1771 -0.1380 -0.0968
11527W        W13727  12.545   1.987  41.450  0.2850 -0.1166 -0.0449
11528W        W13728   6.847   5.007  37.819  0.0672  0.4101 -0.2375
11529W        W13729  10.076   2.595   7.493 -0.1483  0.4278  0.1952
11530W        W13730   4.573   3.393  37.189  0.1738  0.1444  0.1245
11531W        W13731   1.751   0.182  39.831 -0.0814 -0.2272 -0.1272
11532W        W13732  17.758   3.105  43.003  0.2757 -0.2685 -0.2059
11533W        W13733   2.091   0.989  39.598  0.0841  0.0227  0.0094
11534W        W13734   4.793   6.172  30.725 -0.1351  0.1227 -0.1201
11535W        W13735  17.850   4.152   2.469  0.0146  0.0253  0.0141
11536W        W13736  18.143   3.991   8.682  0.1218 -0.0372  0.1439
11537W        W13737  15.403   5.056  12.492 -0.1426  0.2537  0.1068
11538W        W13738   7.242   6.091   5.257 -0.1528 -0.0717 -0.2228
11539W        W13739  10.137   2.000  29.206  0.1423 -0.3706 -0.0991
11540W        W13740  18.389   5.828  32.989 -0.0380  0.2289  0.0481
11541W        W13741  17.492   2.768  12.524  0.1147  0.0268 -0.2235
11542W        W13742  18.026   3.883   9.791  0.1628 -0.0899  0.1848
11543W        W13743  14.764   1.674  35.665  0.0718 -0.0842  0.2207
11544W        W13744  16.735   3.900   0.409 -0.1682 -0.1949 -0.1809
11545W        W13745  19.653   3.187  27.778  0.0438  0.0787  0.0883
11546W        W13746  13.710   0.152  33.401 -0.1479  0.2044 -0.0518
11547W        W13747   1.221   2.055  43.452  0.0586 -0.0984  0.1863
11548W        W13748   6.897   0.221  34.194 -0.0350 -0.0964  0.1227
11549W        W13749   7.664   5.311   8.291  0.1715 -0.0066  0.0824
11550W        W13750   1.018   3.844  35.737 -0.0734 -0.3065  0.1464
11551W        W13751   0.785   1.491  37.596  0.2133  0.1578 -0.1202
11552W        W13752  18.858   0.863  14.349 -0.3784  0.0832  0.2120
11553W        W13753  16.717   6.328  12.301 -0.0691 -0.1045 -0.1416
11554W        W13754   8.928   3.062  38.116 -0.0830  0.1646 -0.1025
11555W        W13755  19.875   4.925  35.987  0.2096  0.0746 -0.0263
11556W        W13756   3.962   1.064  10.221 -0.0304 -0.0638 -0.5460
11557W        W13757  18.030   0.888  15.179 -0.2726  0.0161 -0.2670
11558W        W13758   1.421   5.607  37.838 -0.3557 -0.1352 -0.1972
11559W        W13759  12.341   6.317  20.977  0.0038  0.1153 -0.0204
11560W        W13760   0.135   3.321  28.741  0.0388  0.0776 -0.0970
11561W        W13761  11.083   5.432  13.516  0.1686 -0.1329 -0.0507
11562W        W13762   8.665   2.106  15.362  0.1572  0.2715  0.2778
11563W        W13763  13.162   1.733   8.515  0.2219  0.1321 -0.2112
11564W        W13764  13.947   6.217  11.097 -0.1031 -0.2111  0.0362
11565W        W13765   7.402   3.393  12.479  0.1374  0.2019 -0.1590
11566W        W13766   8.137   6.489  19.453 -0.0157 -0.0034 -0.0456
11567W        W13767   1.828   2.016  15.052  0.0374  0.2052  0.0554
11568W        W13768   1.273   2.249   0.103 -0.2082 -0.1345 -0.0902
11569W        W13769   1.231   4.090  14.386  0.0000 -0.2588  0.2228
11570W        W13770  13.407   0.244  31.361  0.0856  0.1140  0.1996
11571W        W13771   2.083   0.618  26.602 -0.0464  0.0411  0.0566
11572W        W13772  10.378   3.311  43.367  0.2241  0.1444  0.1746
11573W        W13773   0.040   1.375  10.440 -0.1993  0.1825  0.0216
11574W        W13774   0.783   4.966  34.921 -0.1753 -0.3065 -0.0084
11575W        W13775  10.462   2.085  30.864  0.1314  0.1526  0.0667
11576W        W13776   0.463   1.502  39.416 -0.3829 -0.2276  0.0309
11577W        W13777  20.608   4.809  41.564  0.2639  0.1441 -0.0751
11578W        W13778  18.293   3.038  36.095 -0.0066  0.0160 -0.0189
11579W        W13779   7.137   6.088  41.333  0.1765 -0.1820  0.0098
11580W        W13780   2.077   4.036  32.212  0.2927 -0.1300  0.0208
11581W        W13781  18.367   5.692   9.741  0.0512 -0.0759  0.0080
11582W        W13782   0.470   1.504  11.944 -0.0315 -0.2022 -0.0713
11583W        W13783  16.207   1.032  43.868  0.1230 -0.0922  0.2181
11584W        W13784  13.440   2.583  31.595  0.0925  0.2619 -0.0199
11585W        W13785  20.155   2.518  21.177  0.2670  0.1510  0.1730
11586W        W13786  18.897   1.476  11.200  0.3135 -0.1528 -0.2887
11587W        W13787  19.536   1.061  33.596  0.1386  0.0392 -0.3893
11588W        W13788  11.569   5.601   6.611  0.0206 -0.2835 -0.2161
11589W        W13789  11.504   3.471  28.095  0.0376 -0.2701  0.2074
11590W        W13790  18.549   1.683   3.838  0.2497 -0.0461 -0.1336
11591W        W13791  20.795   4.928  35.588  0.1701  0.1852  0.2461
11592W        W13792  16.495   0.887  10.185  0.2294 -0.2816  0.1502
11593W        W13793   0.446   1.257   0.296 -0.4587 -0.1207  0.3346
11594W        W13794   9.293   0.413  14.954  0.1201 -0.0987 -0.0728
11595W        W13795  14.261   4.057  13.927  0.0088  0.1618  0.0204
11596W        W13796  10.169   2.197  40.925 -0.1091  0.2913 -0.0153
11597W        W13797  15.630   6.137  11.675 -0.1143 -0.2051 -0.0219
11598W        W13798  20.694   3.833   2.016  0.1607 -0.0533 -0.1554
11599W        W13799   1.634   5.029  44.770 -0.1857  0.1033 -0.1478
11600W        W13800  17.433   2.830  14.472  0.2258  0.0826 -0.1166
11601W        W13801  18.482   5.827  22.395  0.2009 -0.1640  0.0594
11602W        W13802   4.636   3.048  16.037  0.3760  0.0809  0.2522
11603W        W13803   1.652   1.969  33.931 -0.0359  0.4689 -0.1840
11604W        W13804  16.314   0.962  38.471  0.1927  0.2865 -0.1278
11605W        W13805  16.098   0.197  15.002 -0.0778  0.0048 -0.0894
11606W        W13806  15.838   5.462  14.891  0.0189 -0.2463 -0.0882
11607W        W13807   9.865   3.021   4.899  0.2767  0.1564  0.1017
11608W        W13808  10.099   5.045  18.316 -0.1966 -0.2886  0.0178
11609W        W13809   6.215   1.954   1.480 -0.0149  0.0294  0.0121
11610W        W13810  18.955   0.244   7.409  0.1772  0.2446 -0.0937
11611W        W13811  20.020   3.265  19.458  0.3686 -0.1675  0.0708
11612W        W13812   9.144   2.731   0.996  0.1215  0.2226 -0.0846
11613W        W13813  18.976   6.591  31.659 -0.1410 -0.1004 -0.0618
11614W        W13814   7.335   4.960  31.768  0.0057 -0.1461  0.0927
11615W        W13815   9.050   3.208  35.762  0.2751 -0.0314  0.0564
11616W        W13816  10.003   2.106  18.530 -0.2765  0.0172  0.0782
11617W        W13817  16.320   5.408  26.514  0.0996 -0.1628 -0.0611
11618W        W13818   6.698   6.172   7.002 -0.1785 -0.0170 -0.2927
11619W        W13819   2.299   1.260  14.230  0.0754  0.0636  0.2763
11620W        W13820  13.027   1.547  17.571  0.1674  0.0398 -0.0352
11621W        W13821  13.389   4.170  32.213  0.4057 -0.1228 -0.0451
11622W        W13822   6.679   3.715  14.402 -0.1787  0.0075 -0.2284
11623W        W13823  17.535   3.991   8.449 -0.1292 -0.2074 -0.1108
11624W        W13824   8.869   2.779  13.018 -0.0089  0.1971  0.1631
11625W        W13825   2.521   3.892  30.332  0.0221  0.0489  0.1620
11626W        W13826   9.542   5.040  19.487 -0.2592 -0.0440  0.0126
11627W        W13827  13.335   1.333  33.039 -0.2234 -0.1259  0.1475
11628W        W13828   6.806   3.199  42.780  0.1037 -0.1580 -0.0275
11629W        W13829  12.476   1.347  37.682 -0.0734 -0.3057 -0.0994
11630W        W13830   6.246   6.508  20.483 -0.2192  0.0692  0.1062
11631W        W13831  20.733   0.789  21.885  0.0068 -0.3807 -0.0941
11632W        W13832  18.888   2.970  14.356 -0.2130 -0.0607 -0.1184
11633W        W13833   8.605   0.646   1.705  0.1331  0.1847 -0.2013
11634W        W13834  18.490   5.044   0.599 -0.0484  0.1217  0.0468
11635W        W13835  15.925   0.206  29.736 -0.1828  0.0405  0.0430
11636W        W13836  19.219   5.630  34.066  0.1534  0.0175  0.1344
11637W        W13837  17.547   2.060  27.828 -0.0297 -0.2206 -0.0412
11638W        W13838   1.176   2.681   5.354 -0.1370  0.1893  0.0606
11639W        W13839  12.096   0.401  17.804 -0.3339  0.0779 -0.1352
11640W        W13840   4.017   2.448   0.302  0.1486 -0.1805 -0.2119
11641W        W13841  20.207   5.444  11.846  0.0826 -0.2101  0.3617
11642W        W13842  15.729   2.247   7.239  0.3156 -0.0811  0.2800
11643W        W13843   4.830   2.477  44.866  0.2885  0.2007 -0.1067
11644W        W13844   1.526   5.501  26.203 -0.0980  0.1353 -0.0317
11645W        W13845   1.251   1.412  13.275  0.0393 -0.1460 -0.1221
11646W        W13846  13.923   5.157  17.759  0.2750  0.1036 -0.3507
11647W        W13847   6.804   3.956  17.186  0.2002  0.4227 -0.0595
11648W        W13848  15.881   6.434  37.883  0.2728 -0.2416  0.2062
11649W        W13849  19.242   3.006  31.194 -0.0455  0.1269 -0.2971
11650W        W13850  10.161   4.107  15.622 -0.2204 -0.0409  0.0828
11651W        W13851  14.466   2.901   7.488  0.2071 -0.0807  0.1622
11652W        W13852  11.043   2.383  36.734  0.0560 -0.2283 -0.0433
11653W        W13853   0.452   2.099  13.055  0.7618  0.0034 -0.1809
11654W        W13854  20.756   2.414  39.695  0.2742 -0.1777 -0.0542
11655W        W13855  10.432   4.780   8.291 -0.0439  0.1076  0.1080
11656W        W13856  19.326   6.385  43.447 -0.0558 -0.2068 -0.5176
11657W        W13857   6.297   3.172   4.320 -0.0318  0.0329 -0.0376
11658W        W13858   7.610   6.497   7.450 -0.0929  0.0163 -0.0221
11659W        W13859   5.877   5.110  13.606 -0.1127  0.1303  0.0579
11660ION     NA13860   2.628   1.268  40.768  0.2189 -0.1377 -0.0232
11661ION     NA13861  17.377   5.161  29.369 -0.1571 -0.4827  0.0100
11662ION     NA13862  17.119   0.981  31.030 -0.1772  0.2131  0.0520
11663ION     NA13863  17.832   4.682   4.920  0.2046  0.3303  0.2925
11664ION     NA13864  19.191   2.778  28.516  0.0607  0.4369 -0.0448
11665ION     NA13865   5.069   6.018  32.037  0.1033  0.0649 -0.0047
11666ION     NA13866   5.622   4.411  12.541  0.1022 -0.0988 -0.1906
11667ION     NA13867  11.494   6.438  32.012  0.2050 -0.3836  0.3009
11668ION     NA13868   5.416   5.194  12.795  0.1627 -0.0841  0.3352
11669ION     NA13869  18.296   2.962  40.447  0.1063 -0.0857 -0.0842
11670ION     NA13870  15.983   0.909   2.371 -0.1202  0.4401 -0.0634
11671ION     NA13871  20.791   3.534  12.379 -0.1201 -0.4154 -0.2118
11672ION     NA13872   9.408   0.328  11.892  0.0085  0.0001  0.1186
11673ION     NA13873   0.304   2.915  11.618  0.0335  0.2910 -0.0166
11674ION     NA13874   9.828   5.761  39.315 -0.0146 -0.1023 -0.2333
11675ION     NA13875   0.156   4.307  40.545 -0.0737 -0.1948  0.2774
11676ION     NA13876   4.369   4.036  42.984  0.2458  0.3258  0.0512
11677ION     NA13877  18.371   1.249  24.372  0.0277 -0.0155  0.0409
11678ION     NA13878  10.855   1.151   9.332  0.3089 -0.3216  0.1083
11679ION     NA13879   7.117   2.345  19.770 -0.1674  0.3353  0.1362
11680ION     NA13880   9.803   2.232  34.274  0.3069  0.0271 -0.2641
11681ION     NA13881   6.026   0.886  37.053  0.0290  0.2787  0.0242
11682ION     NA13882  14.208   2.509  12.792 -0.5436 -0.5396  0.0575
11683ION     NA13883  15.540   4.230  11.470  0.1602 -0.2037 -0.1980
11684ION     NA13884  11.859   5.520   8.177 -0.2924 -0.0022  0.0944
11685ION     NA13885   7.386   2.087  18.294 -0.1212 -0.4771  0.0420
11686ION     NA13886   5.855   2.896  30.308 -0.1301 -0.3095  0.0473
11687ION     NA13887  11.559   6.470  31.370  0.5470 -0.0388 -0.0670
11688ION     NA13888  14.296   1.901  17.098  0.1739 -0.4276  0.3609
11689ION     NA13889  13.645   3.399  35.711 -0.4399 -0.2876 -0.0197
11690ION     NA13890   3.718   3.124   0.850  0.1087 -0.1041 -0.1476
11691ION     NA13891   5.216   0.122  11.454  0.3124  0.3007 -0.1670
11692ION     NA13892  12.289   1.684   0.795  0.0592 -0.3782 -0.0190
11693ION     NA13893   5.307   5.539  34.547 -0.2419 -0.1522 -0.0494
11694ION     NA13894   3.200   1.900   4.400  0.1601  0.1024 -0.6551
11695ION     NA13895  19.453   5.147  43.594 -0.3717  0.1316 -0.2490
11696ION     NA13896   0.807   4.913   4.934  0.2745 -0.5362  0.0641
11697ION     NA13897  11.680   4.192  42.839  0.0873 -0.2043 -0.1973
11698ION     NA13898   1.211   4.551   1.350 -0.5327 -0.0393 -0.4865
11699ION     NA13899  19.420   1.092  10.428 -0.3719 -0.2951 -0.1763
11700ION     NA13900  13.629   3.125   9.495  0.0576 -0.0528 -0.2382
11701ION     NA13901   4.379   0.109  36.410  0.1552 -0.2146  0.1026
11702ION     NA13902   5.809   4.769   6.402 -0.0506  0.3663 -0.1720
11703ION     NA13903  19.304   2.266   6.125  0.1674  0.2370 -0.1629
11704ION     NA13904  11.215   5.325  14.749  0.0839 -0.1528  0.3905
11705ION     NA13905   0.580   2.883  40.415  0.0953  0.0461 -0.1588
11706ION     NA13906   9.721   2.510  18.636  0.1709 -0.0195  0.1920
11707ION     NA13907   1.908   6.484  12.554 -0.4230 -0.1880  0.4049
11708ION     NA13908   1.500   2.133  42.306  0.3440  0.0260 -0.0466
11709ION     NA13909   9.708   0.767  18.003  0.0440  0.0288  0.4709
11710ION     NA13910   8.826   4.326  38.017 -0.1574 -0.4550  0.0316
11711ION     NA13911   0.934   3.289  33.905 -0.3355  0.3097  0.1825
11712ION     NA13912  19.176   1.492  12.088  0.3473 -0.1834  0.4848
11713ION     NA13913  11.642   1.809   5.280  0.0900 -0.2680 -0.0328
11714ION     NA13914   3.230   2.200  16.065  0.3775  0.1086  0.3920
11715ION     NA13915   6.171   1.623  14.375  0.1145 -0.1411  0.0534
11716ION     NA13916   0.143   6.132  10.442 -0.2605  0.3020  0.3848
11717ION     NA13917   7.430   0.136   2.928 -0.0560  0.0012  0.1627
11718ION     NA13918  11.237   0.480  15.441 -0.1559  0.0190 -0.0569
11719ION     NA13919  10.339   2.669  30.529  0.1268  0.2232  0.3388
11720ION     NA13920  10.698   1.000  32.008  0.0168 -0.0278 -0.1467
11721ION     NA13921  14.227   1.453  10.799  0.2779  0.4499  0.1565
11722ION     NA13922   2.005   6.183   9.007  0.5289 -0.0219 -0.0769
11723ION     NA13923   5.880   2.210   4.159 -0.0674  0.3127 -0.5124
11724ION     NA13924  18.323   1.417   4.137  0.4256 -0.0875 -0.0736
11725ION     NA13925  15.402   3.275   7.286  0.2789  0.4519 -0.0979
11726ION     NA13926  10.358   4.395   8.937  0.1359 -0.5661  0.1323
11727ION     NA13927  13.664   1.632   6.458 -0.1269 -0.1757  0.2193
11728ION     NA13928  17.593   3.820  41.591  0.2048 -0.0581  0.1864
11729ION     NA13929  10.825   1.923  43.013  0.6855 -0.0461 -0.1170
11730ION     NA13930   4.617   2.192  38.551  0.2108 -0.1106  0.4118
11731ION     NA13931  12.712   2.125  21.085 -0.0213  0.1123 -0.1124
11732ION     NA13932   8.402   0.104  20.395  0.0003  0.2129  0.1052
11733ION     NA13933   9.342   0.082  42.247  0.3049 -0.3653 -0.7450
11734ION     NA13934  18.898   3.738  44.843  0.1353  0.1347 -0.0446
11735ION     NA13935   6.901   3.948  10.963  0.2423  0.0985  0.1790
11736ION     NA13936   5.119   1.741  32.196  0.1767 -0.1981  0.3132
11737ION     NA13937   6.562   4.738  39.622  0.2102 -0.0850  0.4543
11738ION     NA13938   4.394   5.211  36.778 -0.3563 -0.0434 -0.0334
11739ION     NA13939   9.560   3.131  13.980 -0.0451  0.2614  0.0985
11740ION     NA13940  12.878   5.873  36.311 -0.0024  0.0374 -0.1271
11741ION     NA13941  19.698   3.449   7.434  0.2369  0.0031 -0.8354
11742ION     NA13942   5.236   4.547  29.668  0.1313  0.3925 -0.0203
11743ION     NA13943  19.180   3.905  33.789  0.2724  0.1015  0.2092
11744ION     NA13944   0.788   5.770  13.777  0.2550  0.1524 -0.0958
11745ION     NA13945   4.398   5.157   1.177 -0.0924 -0.0395  0.3379
11746ION     NA13946   5.003   5.050  28.174 -0.3545 -0.0255  0.5807
11747ION     NA13947   3.789   6.367   0.060  0.2024  0.0172  0.3227
11748ION     NA13948   2.571   0.960  13.370  0.1184 -0.0011  0.1858
11749ION     NA13949   6.896   3.806  31.188  0.1153  0.3499 -0.1126
11750ION     NA13950   4.007   1.212  32.161  0.1757 -0.4290 -0.2404
11751ION     NA13951  11.997   2.335  32.501 -0.0990 -0.0379 -0.3488
11752ION     NA13952  10.635   4.535   0.419  0.2958 -0.3976  0.2035
11753ION     NA13953   0.740   1.637   6.836 -0.2990 -0.0785 -0.2135
11754ION     NA13954   5.180   0.122  36.905  0.0032  0.0184  0.2712
11755ION     NA13955   2.187   2.931  33.597  0.1327  0.0311  0.1445
11756ION     NA13956   2.447   6.201   3.609 -0.1049  0.1600  0.2442
11757ION     NA13957   1.893   0.972  11.317  0.0348 -0.0741  0.2147
11758ION     NA13958   6.779   5.478  19.495 -0.1109 -0.1936  0.3014
11759ION     NA13959   1.181   4.722  12.084 -0.1959  0.0975  0.1047
11760ION     NA13960  19.830   0.335  43.982 -0.1031  0.2775 -0.3442
11761ION     NA13961   5.376   6.294   0.582  0.2018  0.3326  0.1407
11762ION     NA13962  10.354   5.894  23.836 -0.8570  0.1168  0.4618
11763ION     NA13963  15.093   6.411  38.095  0.2074  0.3009  0.2926
11764ION     NA13964  13.840   5.348  34.920  0.1489  0.2721  0.1413
11765ION     NA13965   3.815   6.140  28.082  0.1855 -0.0205  0.4629
11766ION     NA13966   1.573   0.619  41.117 -0.0562 -0.0955  0.2282
11767ION     NA13967  17.980   5.771  28.492 -0.0805  0.2046  0.1332
11768ION     NA13968   3.955   1.136   0.155 -0.1277  0.0050  0.1406
11769ION     NA13969   4.960   4.594  43.877  0.1249 -0.2346 -0.1570
11770ION     NA13970  14.530   6.142  30.836 -0.3631 -0.1295  0.1106
11771ION     NA13971   0.767   6.456  36.352  0.2656 -0.4391 -0.2890
11772ION     NA13972  13.383   5.799  18.815  0.1014 -0.1290 -0.0098
11773ION     NA13973  18.838   1.073  32.494 -0.1370 -0.0228 -0.2651
11774ION     NA13974   3.753   4.146  15.191 -0.1022 -0.3001 -0.1730
11775ION     NA13975  14.020   1.152  35.673 -0.4872 -0.2093 -0.1784
11776ION     NA13976  12.866   1.962   1.369 -0.4670  0.2746  0.0511
11777ION     NA13977   5.790   2.216  41.887  0.1349  0.2838  0.1841
11778ION     NA13978  20.698   1.026  10.321 -0.4212 -0.1210  0.2340
11779ION     NA13979   1.226   6.056   1.925  0.0773 -0.1719  0.0060
11780ION     NA13980  15.352   0.338  39.505 -0.1923 -0.3525  0.3038
11781ION     NA13981  17.011   2.523   7.082  0.1141  0.0652  0.2198
11782ION     NA13982  19.852   4.562  42.253  0.2184 -0.1072  0.1565
11783ION     NA13983  14.471   2.482  35.490 -0.1661 -0.2792 -0.3747
11784ION     NA13984   9.344   0.963   1.234 -0.4980  0.2438 -0.0046
11785ION     NA13985   7.994   3.163  37.685  0.2746 -0.1727 -0.3890
11786ION     NA13986  17.709   2.258   2.805  0.1037 -0.1217  0.2407
11787ION     NA13987   9.597   3.858   3.428 -0.2367 -0.4643  0.4614
11788ION     NA13988  11.061   4.142   2.919 -0.5221  0.2431  0.1123
11789ION     NA13989  13.945   5.919   1.239  0.0604 -0.3505 -0.3386
11790ION     NA13990   1.717   5.898   5.723 -0.3089 -0.3647 -0.0526
11791ION     NA13991   1.843   0.672  30.455 -0.2070  0.1383 -0.1309
11792ION     NA13992   5.386   0.997  10.859 -0.0029  0.0482  0.0595
11793ION     NA13993   8.822   2.830  40.435  0.2510  0.0239 -0.1629
11794ION     NA13994   5.960   5.067  10.126  0.0632  0.1629  0.1164
11795ION     NA13995  11.048   2.884  34.325 -0.3531 -0.1181  0.2006
11796ION     NA13996  16.446   0.963  10.622 -0.0877 -0.1036  0.4088
11797ION     NA13997   4.823   4.393  16.200  0.2313  0.0690  0.3191
11798ION     NA13998  16.588   3.339  13.118 -0.2515  0.4679  0.5403
11799ION     NA13999   7.022   5.974  34.271 -0.5001 -0.2757 -0.2412
11800ION     NA14000   3.212   3.232  12.153  0.1647 -0.0965 -0.2852
11801ION     NA14001  14.326   6.053  43.827 -0.4747 -0.1617  0.3048
11802ION     NA14002  12.916   4.392  31.854  0.1822  0.1955 -0.1936
11803ION     NA14003   5.895   2.278   6.151 -0.0290 -0.0297  0.3678
11804ION     NA14004  12.003   3.366  39.293  0.0013 -0.1164  0.0346
11805ION     NA14005   1.985   4.697  39.229  0.3277  0.0374  0.0962
11806ION     NA14006  20.567   0.498  27.444  0.3029  0.3310  0.3068
11807ION     NA14007  11.146   3.635   9.569 -0.1233  0.2289 -0.2870
11808ION     NA14008  11.118   0.701   2.028  0.0160  0.0251 -0.1435
11809ION     NA14009   8.594   5.665  30.098 -0.1329 -0.0416  0.2421
11810ION     NA14010   2.061   3.733  38.860  0.0958 -0.3111  0.0382
11811ION     NA14011  11.584   0.505  33.255  0.2736  0.0912 -0.1971
11812ION     NA14012   6.784   5.338  14.454 -0.1312 -0.1011 -0.4638
11813ION     NA14013  15.521   2.700  11.088  0.0983  0.3005  0.1022
11814ION     NA14014   5.646   5.100  38.648  0.1493  0.1306  0.1494
11815ION     NA14015  20.041   5.199  12.698 -0.0385 -0.4732  0.2345
11816ION     NA14016   1.837   2.339  31.876 -0.0042 -0.1345  0.2879
11817ION     NA14017  17.126   6.075  25.556 -0.1604 -0.2764  0.1764
11818ION     NA14018  17.591   2.048   5.137 -0.2083 -0.1490 -0.2540
11819ION     NA14019  18.777   0.941  41.289 -0.4054 -0.0689 -0.0662
11820ION     NA14020   4.714   4.048  18.370  0.0380  0.0116  0.1553
11821ION     NA14021  18.246   2.673   1.677  0.2650 -0.1996  0.2565
11822ION     NA14022  17.316   0.014  44.429 -0.1942  0.3319 -0.0018
11823ION     NA14023  19.693   3.297  40.604 -0.4711  0.6078 -0.0824
11824ION     NA14024   1.300   5.827  39.675  0.0757 -0.4136 -0.0374
11825ION     NA14025   5.811   5.313  42.261  0.4534  0.1724 -0.1604
11826ION     NA14026  18.303   5.452  32.298 -0.3560 -0.0686 -0.5820
11827ION     NA14027   8.951   2.844  42.511  0.0304  0.2787  0.1958
11828ION     NA14028  12.949   0.600  44.028  0.6936 -0.3757 -0.0449
11829ION     NA14029  18.876   2.587   9.548  0.0507 -0.4072  0.3052
11830ION     NA14030  19.960   0.277  39.559 -0.4081  0.2119  0.0248
11831ION     NA14031   4.802   6.584  15.384 -0.1624  0.0158 -0.1138
11832ION     NA14032   7.409   0.139  44.842 -0.0904 -0.1743 -0.0422
11833ION     NA14033  14.932   6.410  43.685 -0.2910 -0.0021 -0.0637
11834ION     NA14034  18.340   3.006   1.087 -0.0652  0.0627  0.0461
11835ION     NA14035   3.012   1.185  34.678  0.0986 -0.1907  0.1603
11836ION     NA14036   9.942   0.225  18.706 -0.2663  0.1033 -0.1502
11837ION     NA14037  16.218   6.064   9.570  0.1571  0.1519 -0.0444
11838ION     NA14038   1.571   4.058  34.263 -0.0248 -0.1535  0.1992
11839ION     NA14039   7.427   3.071   4.353  0.4961 -0.1129 -0.1487
11840ION     NA14040  21.047   4.407  15.834 -0.4261 -0.2423 -0.0050
11841ION     NA14041   8.130   1.360  35.862  0.3540  0.3140 -0.2283
11842ION     NA14042   4.407   4.919  18.377 -0.0719  0.0820  0.0811
11843ION     NA14043  16.903   2.528   0.559  0.3948  0.2948 -0.1189
11844ION     NA14044   2.518   0.063   6.773  0.0880  0.1387 -0.3518
11845ION     NA14045   5.988   0.526  43.735  0.0622  0.1356 -0.0526
11846ION     NA14046  12.115   2.914  31.557  0.0189  0.3770  0.1786
11847ION     NA14047  18.985   5.546  11.179 -0.2690  0.0252  0.6210
11848ION     NA14048   3.209   2.760  35.298  0.0166 -0.0075 -0.0465
11849ION     NA14049   4.035   2.475  18.179  0.4061 -0.0499  0.1166
11850ION     NA14050  13.332   3.471  14.199 -0.1758  0.1526 -0.2177
11851ION     NA14051   9.056   2.790  35.644 -0.1468  0.1487  0.2203
11852ION     NA14052   6.901   4.796  12.280 -0.0208 -0.1391 -0.1926
11853ION     NA14053   9.016   5.205  34.434  0.4023 -0.3903 -0.1631
11854ION     NA14054  16.114   1.573   9.517 -0.0811  0.0521 -0.1916
11855ION     CL14055  15.255   0.355  16.484  0.0577 -0.2777  0.1057
11856ION     CL14056   4.133   4.782   0.525  0.1636  0.1058  0.0950
11857ION     CL14057   9.277   5.855  43.056 -0.2363 -0.0331 -0.2189
11858ION     CL14058  11.471   0.510  11.572  0.0191  0.2397  0.1344
11859ION     CL14059  16.993   4.964  36.086  0.1359 -0.2731 -0.0013
11860ION     CL14060   5.923   2.422  42.492 -0.2306  0.3710 -0.1356
11861ION     CL14061  12.354   2.706   1.538  0.0863  0.0534  0.2381
11862ION     CL14062  15.737   3.967  29.099  0.4864  0.3346  0.1783
11863ION     CL14063   4.007   6.362  15.260 -0.1133 -0.4413  0.0173
11864ION     CL14064   7.372   2.409  18.362  0.0663  0.0808  0.1409
11865ION     CL14065   6.296   6.506  34.535  0.1884  0.1506 -0.5805
11866ION     CL14066  20.481   1.581  44.867  0.0764 -0.1399  0.2101
11867ION     CL14067  19.499   5.673  12.810  0.4779 -0.1410  0.0036
11868ION     CL14068   2.916   2.148  35.000 -0.2596  0.3388  0.0668
11869ION     CL14069  20.396   4.541  39.135 -0.1443  0.5202 -0.3122
11870ION     CL14070  12.613   5.434  31.849  0.6290 -0.2949 -0.4244
11871ION     CL14071   7.985   1.209   6.770 -0.3323 -0.1273  0.3173
11872ION     CL14072  18.776   6.578   9.827  0.2830  0.0582 -0.2702
11873ION     CL14073   5.672   4.923  11.108  0.0429  0.0411 -0.4400
11874ION     CL14074   7.496   6.114   9.269  0.2848  0.1924 -0.1917
11875ION     CL14075  10.225   6.193  18.447  0.1285  0.2694 -0.2385
11876ION     CL14076  15.987   3.265  10.861 -0.5465  0.3688 -0.6248
11877ION     CL14077   5.535   4.268  19.636 -0.2983  0.5787 -0.5400
11878ION     CL14078   0.374   4.409  35.571  0.0555 -0.3582 -0.4399
11879ION     CL14079  19.431   0.832  37.547  0.3942  0.1330  0.0469
11880ION     CL14080  13.541   1.948  11.063 -0.4841  0.2517  0.1395
11881ION     CL14081  20.322   1.494   6.073  0.1997  0.3268  0.2681
11882ION     CL14082   7.435   6.441  20.184 -0.0753 -0.2190  0.1737
11883ION     CL14083   9.126   5.117  43.914  0.4838 -0.0766 -0.1187
11884ION     CL14084  11.027   1.262   9.632  0.1575 -0.3282  0.3311
11885ION     CL14085  20.061   3.115   7.854 -0.1001  0.2170 -0.4889
11886ION     CL14086   5.816   5.665   9.673 -0.1653  0.0854 -0.1033
11887ION     CL14087   5.782   6.149  31.957  0.1885 -0.0404 -0.3414
11888ION     CL14088  18.774   6.072  39.105  0.3854  0.3341  0.1509
11889ION     CL14089  11.579   4.424  16.950  0.3946 -0.4590 -0.0526
11890ION     CL14090  15.909   0.122  28.749 -0.1770 -0.4122  0.1801
11891ION     CL14091  17.064   5.777  13.693 -0.1074  0.2568  0.1516
11892ION     CL14092   2.028   4.888   3.039  0.3889 -0.2240 -0.2976
11893ION     CL14093  11.443   1.545  30.609 -0.1686  0.0018  0.1222
11894ION     CL14094   2.274   6.314   5.458 -0.4521 -0.2068  0.1080
11895ION     CL14095  14.095   5.357  44.231 -0.1545  0.0685  0.1120
11896ION     CL14096   0.860   5.703  15.183 -0.0194 -0.3294 -0.3490
11897ION     CL14097   1.308   4.806   9.279 -0.2338  0.3766 -0.5681
11898ION     CL14098  10.878   2.779  34.030 -0.1768  0.0848 -0.2225
11899ION     CL14099   8.579   4.373   3.015  0.1124 -0.3368 -0.0341
11900ION     CL14100   3.393   2.338  39.389  0.4830 -0.6938  0.5149
11901ION     CL14101  17.389   5.439  12.465  0.0813 -0.0337 -0.0763
11902ION     CL14102  20.288   2.960  12.597 -0.0624 -0.2223  0.2647
11903ION     CL14103   8.269   4.558  37.782 -0.1298  0.2734  0.3445
11904ION     CL14104  19.233   4.382   8.472 -0.2422  0.0272 -0.2055
11905ION     CL14105   5.530   1.591   0.003  0.1179 -0.3000 -0.4475
11906ION     CL14106  14.714   2.453  17.116  0.1620 -0.0807 -0.4187
11907ION     CL14107   5.973   1.739   8.811  0.1614  0.2512 -0.0275
11908ION     CL14108  14.425   2.007  12.883 -0.2362 -0.1425 -0.0511
11909ION     CL14109   3.304   2.569  27.316  0.5289  0.2122 -0.4913
11910ION     CL14110  17.169   4.392  36.677 -0.0452  0.1919  0.5758
11911ION     CL14111   7.325   1.633  36.057 -0.4594  0.1287 -0.2102
11912ION     CL14112   5.264   4.932  44.473 -0.2778  0.4065  0.0556
11913ION     CL14113   8.445   1.828  43.793  0.1935 -0.1147  0.2445
11914ION     CL14114   4.686   4.740  43.546  0.0939 -0.2714 -0.0076
11915ION     CL14115   2.817   0.631  14.869  0.0637  0.5980  0.3116
11916ION     CL14116   4.566   0.884   9.529  0.0803 -0.1466  0.0794
11917ION     CL14117  18.322   3.892  38.252 -0.3134 -0.3058 -0.0720
11918ION     CL14118  13.687   0.547  18.851  0.1987 -0.3854 -0.4884
11919ION     CL14119  16.817   3.412   4.848  0.1124  0.0913  0.2045
11920ION     CL14120   7.371   2.652  31.085 -0.2956 -0.4192  0.0201
11921ION     CL14121  14.929   5.768  29.096  0.1349 -0.0379  0.2374
11922ION     CL14122  12.366   3.884  34.265  0.0932  0.0534 -0.0200
11923ION     CL14123   4.758   0.024   1.030 -0.0920  0.0182 -0.1273
11924ION     CL14124   3.187   2.710  11.054 -0.1897 -0.4356 -0.0958
11925ION     CL14125  13.533   1.619  15.202  0.1085 -0.0616  0.4644
11926ION     CL14126   5.471   5.946  43.092 -0.3091  0.0816  0.0701
11927ION     CL14127   9.407   3.451  42.912 -0.3490  0.0672 -0.0790
11928ION     CL14128  16.570   5.937  33.296 -0.5853 -0.2348  0.3598
11929ION     CL14129  17.444   4.409   4.596 -0.4991  0.1030  0.1223
11930ION     CL14130  12.417   3.475  29.286  0.1882 -0.2203  0.2852
11931ION     CL14131   1.700   4.363  42.313 -0.0643 -0.3841  0.1882
11932ION     CL14132   6.635   1.039  16.266 -0.1646 -0.3736 -0.3278
11933ION     CL14133   8.531   1.308  34.079  0.0692  0.0334  0.2445
11934ION     CL14134  15.785   2.125  33.385 -0.3327  0.2259 -0.0083
11935ION     CL14135  14.891   2.266  43.902  0.0780 -0.2881 -0.0186
11936ION     CL14136   0.721   4.652   5.173 -0.0615 -0.1265 -0.0789
11937ION     CL14137  10.000   0.544  18.614  0.3816  0.0719  0.1287
11938ION     CL14138  13.305   2.010  20.135  0.1291  0.1690 -0.1496
11939ION     CL14139   0.449   0.990  14.513 -0.0345  0.1530  0.0459
11940ION     CL14140   3.525   4.594  32.417 -0.1336  0.0085 -0.0373
11941ION     CL14141  13.394   2.038  17.224 -0.4705 -0.0740 -0.2350
11942ION     CL14142  13.724   2.496  28.067 -0.0800 -0.1233 -0.1810
11943ION     CL14143  11.370   0.977   8.205  0.0445 -0.3827  0.0722
11944ION     CL14144   1.134   6.153   5.927 -0.1935 -0.3478  0.0401
11945ION     CL14145  18.232   1.081  40.887  0.0046  0.1349  0.2664
11946ION     CL14146   6.919   0.814   6.996 -0.0594  0.1596  0.1392
11947ION     CL14147   4.883   4.032   1.267 -0.1564  0.2410  0.4954
11948ION     CL14148  20.477   4.264  12.316  0.4815 -0.1075  0.2331
11949ION     CL14149  12.075   0.100  36.101  0.2090 -0.1273 -0.1566
11950ION     CL14150   8.056   5.339  12.056  0.0849  0.1357  0.4921
11951ION     CL14151   7.811   1.284  35.642 -0.0031  0.5330  0.6426
11952ION     CL14152   6.297   0.551  34.934 -0.2657  0.3584 -0.5312
11953ION     CL14153  11.659   1.136  38.833 -0.2238  0.2964  0.2041
11954ION     CL14154   0.422   0.495  25.604  0.4770 -0.0655 -0.0961
11955ION     CL14155  17.908   6.022  10.827  0.1118  0.2569  0.0167
11956ION     CL14156  17.738   4.832  14.892  0.4024  0.0568 -0.1455
11957ION     CL14157  20.334   2.310  24.622 -0.0889  0.1396 -0.1394
11958ION     CL14158   7.941   3.608  19.756 -0.6562  0.3229 -0.3639
11959ION     CL14159   5.212   3.001  42.528 -0.6711  0.0578  0.3267
11960ION     CL14160  17.858   0.298   3.087  0.0946 -0.1322  0.3740
11961ION     CL14161   4.944   5.593  18.175 -0.1040 -0.3918 -0.2914
11962ION     CL14162   2.281   2.707  30.263 -0.0657 -0.5953 -0.4584
11963ION     CL14163  18.416   2.448  23.153  0.0704 -0.0238  0.1384
11964ION     CL14164   6.124   3.333  43.201  0.1934  0.0093 -0.3310
11965ION     CL14165   4.452   4.688  41.105  0.1316  0.2105  0.0791
11966ION     CL14166  10.053   1.601  34.018 -0.3056 -0.0062  0.3826
11967ION     CL14167   6.051   3.939  37.113 -0.1915 -0.1490  0.3708
11968ION     CL14168  16.170   0.191  26.697 -0.2148  0.2495  0.2778
11969ION     CL14169   1.982   6.377  13.453  0.1039  0.0479 -0.0933
11970ION     CL14170  11.294   3.957  42.408 -0.5200  0.0169  0.4172
11971ION     CL14171  15.746   2.250  39.203  0.1990  0.0625 -0.2435
11972ION     CL14172  19.374   6.528   8.150 -0.1859  0.0993 -0.1820
11973ION     CL14173   0.800   2.347  13.730 -0.1174  0.1658 -0.1595
11974ION     CL14174  19.447   4.948  35.353  0.1239 -0.1335  0.0617
11975ION     CL14175  12.885   6.193  31.909  0.2680 -0.2434 -0.4171
11976ION     CL14176  12.125   0.376   6.869  0.2989 -0.2739 -0.1857
11977ION     CL14177   9.553   5.294   6.438 -0.0297 -0.0986 -0.0665
11978ION     CL14178  10.014   2.973  15.656  0.3757  0.4665  0.1406
11979ION     CL14179  20.613   0.215  41.763  0.0597 -0.0009 -0.0255
11980ION     CL14180   0.381   3.619  10.291  0.4791 -0.4254 -0.2368
11981ION     CL14181   2.683   1.335  13.541  0.1482 -0.2902 -0.1726
11982ION     CL14182   5.983   6.123  19.920 -0.3092 -0.1924 -0.5036
11983ION     CL14183  18.510   2.263  44.693 -0.0612 -0.0591 -0.4013
11984ION     CL14184  19.016   6.322  10.619  0.0313  0.0772 -0.2963
11985ION     CL14185  14.904   0.347  29.022 -0.0563 -0.1382 -0.0501
11986ION     CL14186  12.637   3.956  17.199 -0.1085 -0.1381 -0.0365
11987ION     CL14187  14.285   2.003  16.455 -0.0672 -0.2628  0.3453
11988ION     CL14188   9.415   0.574  42.654  0.1479  0.4359  0.3079
11989ION     CL14189   2.030   5.749   5.636 -0.2768 -0.2542  0.2142
11990ION     CL14190   2.580   3.105  26.564 -0.2704 -0.4566  0.4014
11991ION     CL14191  11.224   1.071  41.553 -0.1533 -0.0757 -0.2000
11992ION     CL14192   4.710   3.982  39.358 -0.1140  0.2567 -0.0729
11993ION     CL14193   5.918   3.197  14.810 -0.1652  0.1486 -0.0648
11994ION     CL14194   7.293   1.213  31.138 -0.2863 -0.1489  0.4018
11995ION     CL14195  15.584   5.739   9.581 -0.0947  0.5577  0.2846
11996ION     CL14196  12.162   0.999   1.298 -0.0366  0.2330 -0.1792
11997ION     CL14197   2.421   1.591  34.907  0.3399 -0.1305  0.2648
11998ION     CL14198  14.846   1.033  34.463  0.1385 -0.1250  0.1548
11999ION     CL14199  21.023   2.904  25.431  0.2476 -0.1261 -0.1598
12000DPPC   NC314200  20.795   1.068  20.292  0.0152 -0.0860  0.1496
12000DPPC   PO414201  20.722   1.500  20.331 -0.0391 -0.0994 -0.0915
12000DPPC   GL114202  21.029   1.803  20.151  0.2183  0.1851 -0.1003
12000DPPC   GL214203  20.899   1.892  19.943 -0.1086  0.1764  0.0171
12000DPPC   C1A14204  21.396   1.746  20.019  0.1195  0.4744 -0.3070
12000DPPC   C2A14205  21.679   1.772  19.739 -0.0985  0.1573  0.0018
12000DPPC   C3A14206  22.015   1.802  19.375 -0.3971  0.0938 -0.1812
12000DPPC   C4A14207  22.332   1.764  18.990  0.1070 -0.1001  0.1824
12000DPPC   C1B14208  21.127   1.982  19.628  0.0168  0.0884 -0.3251
12000DPPC   C2B14209  21.431   1.938  19.312 -0.1799 -0.0559  0.0250
12000DPPC   C3B14210  21.805   1.966  18.994  0.3291  0.4618  0.0502
12000DPPC   C4B14211  22.095   1.970  18.595  0.0379 -0.1513 -0.0005
12001DPPC   NC314212   1.049   0.072  22.230 -0.0870  0.0222 -0.2698
12001DPPC   PO414213   1.091   0.479  22.288 -0.1295  0.0818 -0.0784
12001DPPC   GL114214   1.464   0.415  22.280  0.2369  0.2314  0.4318
12001DPPC   GL214215   1.460   0.155  22.381  0.2916  0.1681  0.2440
12001DPPC   C1A14216   1.592   0.351  21.931 -0.1459 -0.1779 -0.4816
12001DPPC   C2A14217   1.903   0.373  21.659 -0.0722 -0.1759 -0.2075
12001DPPC   C3A14218   2.177   0.429  21.305 -0.3494 -0.1388  0.0759
12001DPPC   C4A14219   2.501   0.366  20.925 -0.0270  0.1067 -0.0504
12001DPPC   C1B14220   1.809   0.177  22.337 -0.2847  0.0732 -0.0829
12001DPPC   C2B14221   2.121   0.164  22.050 -0.2202  0.1947 -0.1283
12001DPPC   C3B14222   2.456   0.272  21.707 -0.3475 -0.1128 -0.0038
12001DPPC   C4B14223   2.803   0.196  21.415 -0.0853  0.0524 -0.1123
12002DPPC   NC314224   1.215   6.139  22.806  0.0996 -0.0879  0.0856
12002DPPC   PO414225   1.210   6.212  22.431 -0.0804 -0.2933  0.0393
12002DPPC   GL114226   1.362   6.212  22.062  0.4197 -0.2069  0.3518
12002DPPC   GL214227   1.555   6.429  22.079 -0.3503  0.0299 -0.1363
12002DPPC   C1A14228   1.477   6.122  21.737 -0.2295  0.0379 -0.1345
12002DPPC   C2A14229   1.665   6.140  21.380 -0.1596 -0.1938  0.0956
12002DPPC   C3A14230   1.976   6.209  20.970  0.3166  0.2233  0.0574
12002DPPC   C4A14231   2.309   6.226  20.603  0.3378 -0.3624 -0.1820
12002DPPC   C1B14232   1.805   6.527  21.822 -0.2158 -0.4011  0.1483
12002DPPC   C2B14233   2.090   6.537  21.471  0.2905  0.0004  0.0501
12002DPPC   C3B14234   2.415   6.494  21.200 -0.4411 -0.1515  0.3132
12002DPPC   C4B14235   2.741   6.528  20.835  0.1133  0.0245  0.1943
12003DPPC   NC314236  20.563   4.623  20.180  0.0752  0.0652 -0.1218
12003DPPC   PO414237  20.438   4.439  19.834  0.4551  0.0438 -0.3265
12003DPPC   GL114238  20.549   4.591  19.420 -0.5307  0.0247 -0.1798
12003DPPC   GL214239  20.863   4.459  19.606 -0.1264  0.0052  0.0670
12003DPPC   C1A14240  20.661   4.589  19.063 -0.2033 -0.1383  0.1687
12003DPPC   C2A14241  20.803   4.731  18.739  0.1917 -0.0044  0.2048
12003DPPC   C3A14242  21.128   4.685  18.385  0.2500 -0.0374  0.0375
12003DPPC   C4A14243  21.354   4.702  17.965  0.0391  0.1950 -0.1561
12003DPPC   C1B14244  21.027   4.386  19.243 -0.0500  0.2700  0.1767
12003DPPC   C2B14245  21.243   4.473  18.862  0.2331  0.2519 -0.3364
12003DPPC   C3B14246  21.581   4.546  18.555  0.1258  0.2148  0.0122
12003DPPC   C4B14247  21.827   4.472  18.125  0.0923  0.1196  0.4848
12004DPPC   NC314248  20.134   5.804  20.773 -0.1999  0.0318  0.1635
12004DPPC   PO414249  20.539   5.843  20.749 -0.0823 -0.0575 -0.3241
12004DPPC   GL114250  20.895   5.734  20.492  0.0176 -0.1747 -0.1277
12004DPPC   GL214251  20.757   5.637  20.259  0.3819  0.3614  0.0689
12004DPPC   C1A14252  21.213   5.901  20.373  0.3018  0.1266  0.0766
12004DPPC   C2A14253  21.558   5.902  20.154 -0.0698 -0.0016  0.1282
12004DPPC   C3A14254  21.846   5.941  19.780 -0.2449  0.0296 -0.0686
12004DPPC   C4A14255  22.222   5.901  19.461 -0.0427  0.3913  0.1450
12004DPPC   C1B14256  21.029   5.566  20.017  0.3657 -0.0768  0.1521
12004DPPC   C2B14257  21.413   5.582  19.763  0.0441 -0.2130 -0.0047
12004DPPC   C3B14258  21.721   5.610  19.414 -0.0034  0.0534 -0.2829
12004DPPC   C4B14259  22.087   5.619  19.016 -0.0375  0.0051 -0.0242
12005DPPC   NC314260  20.567   0.075  20.587 -0.1172 -0.1621  0.2576
12005DPPC   PO414261  20.919   0.120  20.732  0.0534  0.1855  0.3039
12005DPPC   GL114262  21.307  -0.020  20.680 -0.1868 -0.3974  0.2714
12005DPPC   GL214263  21.197  -0.206  20.442 -0.0798 -0.1157 -0.2311
12005DPPC   C1A14264  21.640   0.092  20.511 -0.0601 -0.1299 -0.0790
12005DPPC   C2A14265  21.959   0.169  20.230  0.3348 -0.0034 -0.0084
12005DPPC   C3A14266  22.262   0.186  19.847 -0.0802  0.3638 -0.0633
12005DPPC   C4A14267  22.590   0.124  19.480 -0.1968 -0.0138 -0.0717
12005DPPC   C1B14268  21.336  -0.246  20.109 -0.0703 -0.1528 -0.1408
12005DPPC   C2B14269  21.664  -0.141  19.890 -0.1694 -0.1070 -0.0390
12005DPPC   C3B14270  22.010  -0.135  19.538  0.2035 -0.2544  0.0214
12005DPPC   C4B14271  22.312  -0.103  19.127 -0.0626  0.2733 -0.1793
12006DPPC   NC314272  20.775   5.225  20.519  0.4661  0.1733  0.0722
12006DPPC   PO414273  20.674   5.125  20.184 -0.1277  0.1833 -0.0046
12006DPPC   GL114274  21.033   5.080  20.015  0.1059 -0.1398 -0.1890
12006DPPC   GL214275  20.952   4.805  19.941  0.0312 -0.0821 -0.1969
12006DPPC   C1A14276  21.391   5.193  19.897  0.0283  0.2336  0.1472
12006DPPC   C2A14277  21.664   5.127  19.611 -0.1846  0.3027 -0.3260
12006DPPC   C3A14278  21.993   5.142  19.310  0.1015 -0.1562  0.1132
12006DPPC   C4A14279  22.343   5.199  18.929  0.0583 -0.2822 -0.1578
12006DPPC   C1B14280  21.223   4.855  19.688 -0.0220  0.1806 -0.1719
12006DPPC   C2B14281  21.490   4.772  19.323  0.1763 -0.4802  0.1670
12006DPPC   C3B14282  21.827   4.790  18.980 -0.0733 -0.2131 -0.2198
12006DPPC   C4B14283  22.041   4.734  18.587  0.1728 -0.0321 -0.1640
12007DPPC   NC314284   1.276   1.553  22.942  0.1988 -0.1226  0.1047
12007DPPC   PO414285   1.403   1.793  22.662  0.2144 -0.1453  0.0431
12007DPPC   GL114286   1.678   1.860  22.410  0.0495 -0.1659  0.0003
12007DPPC   GL214287   1.667   2.102  22.329  0.0991 -0.2438  0.2419
12007DPPC   C1A14288   1.907   1.713  22.182 -0.2509  0.2109  0.3596
12007DPPC   C2A14289   2.173   1.689  21.836  0.0287  0.1466  0.2600
12007DPPC   C3A14290   2.468   1.700  21.425 -0.2056  0.3324 -0.1438
12007DPPC   C4A14291   2.823   1.815  21.019 -0.0041  0.1082  0.1047
12007DPPC   C1B14292   1.876   2.388  22.404 -0.1968  0.0631  0.0607
12007DPPC   C2B14293   2.208   2.455  22.141 -0.2983  0.0123  0.0501
12007DPPC   C3B14294   2.576   2.565  21.901  0.1528  0.2080 -0.0840
12007DPPC   C4B14295   2.851   2.491  21.496  0.0232 -0.2266  0.1007
12008DPPC   NC314296  20.996   6.119  21.434  0.2175 -0.3730 -0.1195
12008DPPC   PO414297  21.076   6.333  21.096 -0.1191  0.1124 -0.0716
12008DPPC   GL114298  21.458   6.504  21.097  0.0887 -0.0414 -0.0089
12008DPPC   GL214299  21.649   6.323  21.232 -0.0644  0.2233 -0.1799
12008DPPC   C1A14300  21.574   6.813  20.998  0.2966  0.2119 -0.2613
12008DPPC   C2A14301  21.938   6.996  20.878 -0.0429  0.3553 -0.2187
12008DPPC   C3A14302  22.279   7.025  20.540  0.1501 -0.1751 -0.1218
12008DPPC   C4A14303  22.583   7.050  20.193  0.0532  0.0668  0.0634
12008DPPC   C1B14304  21.940   6.143  21.125 -0.0341  0.1717 -0.0700
12008DPPC   C2B14305  22.131   6.092  20.761 -0.0712 -0.0452 -0.2610
12008DPPC   C3B14306  22.419   6.116  20.415  0.0755 -0.2555 -0.3592
12008DPPC   C4B14307  22.789   6.111  20.069 -0.1225  0.2664  0.0486
12009DPPC   NC314308   1.951   4.821  23.375 -0.2267 -0.0718  0.2621
12009DPPC   PO414309   1.889   4.489  23.165  0.3297 -0.0288  0.4201
12009DPPC   GL114310   2.188   4.281  22.914  0.3065 -0.2851 -0.0157
12009DPPC   GL214311   2.434   4.297  23.104  0.1410 -0.3788  0.0091
12009DPPC   C1A14312   2.273   4.336  22.565 -0.2163  0.3009 -0.1512
12009DPPC   C2A14313   2.406   4.368  22.211  0.1444 -0.1392  0.2292
12009DPPC   C3A14314   2.710   4.425  21.858 -0.0337 -0.4933  0.0573
12009DPPC   C4A14315   2.976   4.439  21.453 -0.0761  0.4019 -0.0416
12009DPPC   C1B14316   2.630   4.214  22.819 -0.2461 -0.1291  0.4679
12009DPPC   C2B14317   2.840   4.185  22.458  0.1703 -0.1416  0.0413
12009DPPC   C3B14318   3.181   4.213  22.099 -0.0282 -0.0482  0.0435
12009DPPC   C4B14319   3.424   4.248  21.628  0.0773 -0.2774 -0.1246
12010DPPC   NC314320   0.582   3.881  21.625 -0.0643 -0.1435 -0.0578
12010DPPC   PO414321   0.791   3.927  21.970  0.0642  0.1013  0.2037
12010DPPC   GL114322   1.099   4.183  21.878  0.2836 -0.6515  0.2256
12010DPPC   GL214323   1.049   4.352  21.689  0.0399  0.2988  0.1372
12010DPPC   C1A14324   1.482   4.163  21.829 -0.0043  0.0441  0.3045
12010DPPC   C2A14325   1.780   4.177  21.612  0.1570  0.1794  0.1267
12010DPPC   C3A14326   2.084   4.191  21.249  0.2878 -0.0635  0.0586
12010DPPC   C4A14327   2.463   4.232  20.906 -0.2526 -0.0902  0.1116
12010DPPC   C1B14328   1.355   4.414  21.442  0.3975  0.1894 -0.1521
12010DPPC   C2B14329   1.644   4.447  21.147  0.3018  0.0504 -0.2806
12010DPPC   C3B14330   1.942   4.457  20.788  0.0422 -0.1268 -0.2043
12010DPPC   C4B14331   2.236   4.398  20.379 -0.1779 -0.3339  0.0792
12011DPPC   NC314332   1.598   2.251  22.793  0.0662  0.1827  0.0316
12011DPPC   PO414333   1.406   2.567  22.743  0.3407  0.0107 -0.0224
12011DPPC   GL114334   1.677   2.722  22.531  0.0784  0.0292 -0.1517
12011DPPC   GL214335   1.502   2.689  22.299  0.3151 -0.2673 -0.3495
12011DPPC   C1A14336   2.068   2.736  22.568  0.0002  0.0891  0.2285
12011DPPC   C2A14337   2.461   2.767  22.433  0.0853  0.2212 -0.0303
12011DPPC   C3A14338   2.849   2.872  22.131 -0.1325 -0.0211  0.0458
12011DPPC   C4A14339   3.213   2.857  21.811 -0.0183  0.1513 -0.0989
12011DPPC   C1B14340   1.641   2.465  22.070 -0.3061  0.2240  0.1467
12011DPPC   C2B14341   1.877   2.187  21.946  0.3568  0.2184  0.2647
12011DPPC   C3B14342   2.225   2.293  21.594 -0.0080  0.2183  0.0113
12011DPPC   C4B14343   2.488   2.183  21.229  0.1615  0.0847 -0.1942
12012DPPC   NC314344   2.101   6.575  23.776  0.0148 -0.0152  0.2449
12012DPPC   PO414345   2.066   6.589  23.375  0.2787  0.2317  0.0979
12012DPPC   GL114346   2.237   6.319  23.167 -0.0728  0.3041 -0.2180
12012DPPC   GL214347   1.942   6.283  23.100  0.2070 -0.0126  0.1159
12012DPPC   C1A14348   2.453   6.400  22.912  0.1341  0.4685 -0.0540
12012DPPC   C2A14349   2.748   6.528  22.627 -0.2995 -0.0163  0.2446
12012DPPC   C3A14350   3.114   6.609  22.317  0.1869  0.1471  0.2044
12012DPPC   C4A14351   3.442   6.557  21.988  0.1884  0.0986 -0.0395
12012DPPC   C1B14352   2.019   6.402  22.785  0.0626 -0.3161 -0.1666
12012DPPC   C2B14353   2.233   6.651  22.524 -0.0992 -0.0111 -0.2250
12012DPPC   C3B14354   2.587   6.760  22.188  0.1037 -0.0276 -0.0272
12012DPPC   C4B14355   2.934   6.762  21.868 -0.1289 -0.0044 -0.3189
12013DPPC   NC314356   1.946   4.007  23.201  0.0079  0.0115 -0.1320
12013DPPC   PO414357   2.142   4.154  23.514 -0.1214  0.0280 -0.0159
12013DPPC   GL114358   2.553   4.216  23.634 -0.3013 -0.0372  0.1404
12013DPPC   GL214359   2.672   4.020  23.540 -0.0361 -0.0023  0.0179
12013DPPC   C1A14360   2.734   4.458  23.380 -0.3442 -0.0258 -0.0126
12013DPPC   C2A14361   2.913   4.538  22.994 -0.0194 -0.1375  0.1415
12013DPPC   C3A14362   3.166   4.530  22.583  0.0254 -0.1360  0.0864
12013DPPC   C4A14363   3.544   4.542  22.200 -0.0743 -0.0282 -0.2401
12013DPPC   C1B14364   2.905   3.953  23.271  0.1722 -0.0286  0.0765
12013DPPC   C2B14365   3.126   3.992  22.945 -0.1846 -0.3090  0.0707
12013DPPC   C3B14366   3.378   4.025  22.547 -0.1567  0.0275  0.0108
12013DPPC   C4B14367   3.689   4.024  22.128 -0.0567 -0.0253 -0.2286
12014DPPC   NC314368  20.860   4.994  20.988  0.1350 -0.0029 -0.1519
12014DPPC   PO414369  20.979   5.334  20.951  0.2722 -0.0902 -0.0873
12014DPPC   GL114370  21.260   5.362  20.595  0.1389  0.1847  0.0951
12014DPPC   GL214371  21.179   5.080  20.669 -0.1878  0.3892  0.0131
12014DPPC   C1A14372  21.452   5.426  20.274 -0.0887  0.0424 -0.2602
12014DPPC   C2A14373  21.782   5.454  20.025  0.3253 -0.1303 -0.0744
12014DPPC   C3A14374  22.144   5.466  19.724  0.0568  0.1843 -0.0836
12014DPPC   C4A14375  22.444   5.482  19.335 -0.0318 -0.0491  0.1211
12014DPPC   C1B14376  21.543   4.948  20.696 -0.0931  0.2452 -0.1545
12014DPPC   C2B14377  21.903   4.839  20.696  0.0595 -0.1549  0.1579
12014DPPC   C3B14378  22.249   4.831  20.359 -0.2226  0.2526  0.0103
12014DPPC   C4B14379  22.524   4.823  19.967  0.0295 -0.1333 -0.0709
12015DPPC   NC314380  19.316   5.339  19.244  0.2208 -0.0551 -0.0860
12015DPPC   PO414381  19.449   5.612  18.982 -0.1280 -0.0376  0.0940
12015DPPC   GL114382  19.560   5.668  18.571 -0.2500  0.0650  0.0162
12015DPPC   GL214383  19.689   5.902  18.670 -0.2588  0.3085 -0.0285
12015DPPC   C1A14384  19.616   5.796  18.247  0.2786  0.0103 -0.0740
12015DPPC   C2A14385  19.564   6.184  18.039 -0.1680  0.1971  0.3905
12015DPPC   C3A14386  19.536   6.459  17.668  0.0148  0.0743 -0.0528
12015DPPC   C4A14387  19.320   6.607  17.198  0.1725  0.0890 -0.2407
12015DPPC   C1B14388  19.953   6.014  18.410  0.1330 -0.2425  0.2401
12015DPPC   C2B14389  20.182   6.219  18.119  0.2008 -0.2041 -0.0001
12015DPPC   C3B14390  20.520   6.484  17.860  0.1107  0.0124  0.1056
12015DPPC   C4B14391  20.910   6.337  17.628  0.0892  0.0587 -0.0533
12016DPPC   NC314392   1.259   0.898  22.690  0.0916 -0.1698 -0.0974
12016DPPC   PO414393   1.032   1.245  22.663  0.2140  0.2636 -0.0532
12016DPPC   GL114394   1.406   1.360  22.428 -0.0276 -0.0078 -0.2032
12016DPPC   GL214395   1.305   1.521  22.298 -0.0307 -0.2810  0.2867
12016DPPC   C1A14396   1.738   1.212  22.265  0.1059 -0.1047  0.1404
12016DPPC   C2A14397   2.032   1.186  21.954  0.1057  0.0368 -0.0283
12016DPPC   C3A14398   2.367   1.265  21.629 -0.1412 -0.1611 -0.0776
12016DPPC   C4A14399   2.719   1.275  21.300 -0.0107  0.2605  0.0254
12016DPPC   C1B14400   1.521   1.697  22.048 -0.1425 -0.0536  0.2289
12016DPPC   C2B14401   1.706   1.773  21.656  0.2189 -0.0662  0.0896
12016DPPC   C3B14402   2.041   1.883  21.285  0.3019  0.1043  0.2972
12016DPPC   C4B14403   2.277   1.898  20.874  0.4231  0.1340  0.0225
12017DPPC   NC314404  21.104   0.215  21.201 -0.1579  0.1061  0.0919
12017DPPC   PO414405  21.336   0.289  21.515 -0.1926 -0.2032  0.1111
12017DPPC   GL114406  21.751   0.176  21.384 -0.3245 -0.0682  0.0674
12017DPPC   GL214407  21.828   0.433  21.339 -0.1609  0.4179  0.2159
12017DPPC   C1A14408  21.926  -0.025  21.104 -0.5929 -0.0494 -0.0335
12017DPPC   C2A14409  22.099  -0.010  20.711 -0.2042  0.1692 -0.3756
12017DPPC   C3A14410  22.441  -0.014  20.350  0.1857  0.2042  0.0184
12017DPPC   C4A14411  22.762   0.013  19.985  0.0806  0.0791  0.2570
12017DPPC   C1B14412  22.070   0.665  21.506 -0.2806 -0.0654 -0.0924
12017DPPC   C2B14413  22.375   0.870  21.745  0.1395 -0.2212 -0.1897
12017DPPC   C3B14414  22.852   0.874  21.676  0.0174  0.1498 -0.0873
12017DPPC   C4B14415  23.288   0.920  21.347  0.1522 -0.1945  0.1507
12018DPPC   NC314416   2.220   3.261  23.558 -0.2508 -0.2617 -0.1163
12018DPPC   PO414417   2.068   3.609  23.375 -0.0763  0.0687  0.1188
12018DPPC   GL114418   2.467   3.693  23.238 -0.0005 -0.1845  0.4132
12018DPPC   GL214419   2.504   3.379  23.184  0.1648  0.2203 -0.1041
12018DPPC   C1A14420   2.661   3.749  22.962  0.1419  0.2517 -0.2210
12018DPPC   C2A14421   2.797   3.717  22.625  0.0072 -0.0799  0.1663
12018DPPC   C3A14422   3.083   3.731  22.237  0.1512  0.0103 -0.1941
12018DPPC   C4A14423   3.420   3.721  21.807 -0.1637  0.0025 -0.1688
12018DPPC   C1B14424   2.749   3.254  22.968 -0.0972 -0.4128 -0.1409
12018DPPC   C2B14425   2.926   3.183  22.616  0.0632 -0.2084  0.0432
12018DPPC   C3B14426   3.203   3.234  22.281  0.0015 -0.1548  0.0301
12018DPPC   C4B14427   3.546   3.259  21.919 -0.3001  0.0263  0.2215
12019DPPC   NC314428   0.111   2.656  21.483 -0.0395 -0.0111 -0.0151
12019DPPC   PO414429   0.032   2.557  21.103 -0.0467  0.2681 -0.0851
12019DPPC   GL114430   0.245   2.781  20.888  0.4195  0.1545  0.2611
12019DPPC   GL214431   0.481   2.698  21.107  0.0665 -0.1202  0.1175
12019DPPC   C1A14432   0.318   2.717  20.534 -0.0211  0.0139  0.3856
12019DPPC   C2A14433   0.479   2.722  20.156 -0.3052  0.0590  0.0361
12019DPPC   C3A14434   0.776   2.690  19.779  0.0050  0.0111  0.0496
12019DPPC   C4A14435   1.087   2.677  19.416  0.0198  0.1860  0.1801
12019DPPC   C1B14436   0.805   2.864  21.134 -0.1867 -0.3045  0.2776
12019DPPC   C2B14437   1.054   2.769  20.841 -0.2803  0.1750 -0.0824
12019DPPC   C3B14438   1.327   2.756  20.460 -0.4343  0.0992  0.0644
12019DPPC   C4B14439   1.728   2.791  20.125 -0.0765 -0.1810 -0.0791
12020DPPC   NC314440  20.211   0.320  19.903 -0.0874 -0.1026  0.1259
12020DPPC   PO414441  20.477   0.299  20.151  0.0055 -0.1415  0.0037
12020DPPC   GL114442  20.740   0.166  19.875  0.0996 -0.0301 -0.2394
12020DPPC   GL214443  20.567   0.075  19.655  0.0925  0.6571  0.0561
12020DPPC   C1A14444  21.014   0.395  19.824  0.2474 -0.1483  0.1450
12020DPPC   C2A14445  21.264   0.465  19.536  0.1507  0.0890 -0.1124
12020DPPC   C3A14446  21.567   0.457  19.180 -0.2601 -0.1678 -0.1538
12020DPPC   C4A14447  21.893   0.443  18.815  0.0517 -0.0104 -0.0014
12020DPPC   C1B14448  20.868   0.109  19.457 -0.4152  0.4602  0.3270
12020DPPC   C2B14449  21.139   0.144  19.167  0.2837  0.1012 -0.0683
12020DPPC   C3B14450  21.404   0.228  18.807 -0.4042  0.2473 -0.0383
12020DPPC   C4B14451  21.694   0.158  18.447  0.0819  0.3741 -0.0436
12021DPPC   NC314452   2.602   0.772  23.795 -0.1992  0.2404 -0.0005
12021DPPC   PO414453   2.201   0.810  23.731 -0.0668  0.0008 -0.1489
12021DPPC   GL114454   2.477   1.006  23.443 -0.0719  0.2177  0.3586
12021DPPC   GL214455   2.270   0.948  23.232 -0.0842 -0.0209  0.2673
12021DPPC   C1A14456   2.802   0.902  23.225  0.2543  0.1010 -0.1474
12021DPPC   C2A14457   3.049   0.745  22.904 -0.0384  0.0005  0.2086
12021DPPC   C3A14458   3.371   0.652  22.560  0.0084  0.1570  0.0568
12021DPPC   C4A14459   3.660   0.759  22.197 -0.2203 -0.0498  0.0903
12021DPPC   C1B14460   2.464   0.910  22.920 -0.2831  0.1943  0.0097
12021DPPC   C2B14461   2.688   0.910  22.597 -0.1713 -0.1096 -0.2270
12021DPPC   C3B14462   3.001   0.896  22.229  0.0413  0.1213 -0.0674
12021DPPC   C4B14463   3.342   0.934  21.858 -0.1323 -0.0117 -0.2704
12022DPPC   NC314464  20.215   5.179  19.534 -0.1502  0.2771 -0.2425
12022DPPC   PO414465  20.507   4.961  19.696 -0.0187 -0.0199  0.0346
12022DPPC   GL114466  20.790   4.930  19.326 -0.1195  0.2136 -0.0177
12022DPPC   GL214467  20.581   5.040  19.211 -0.0419 -0.1584  0.0665
12022DPPC   C1A14468  21.067   4.996  19.093 -0.0464  0.2589 -0.0447
12022DPPC   C2A14469  21.366   4.969  18.810 -0.1461 -0.1790 -0.4331
12022DPPC   C3A14470  21.624   5.048  18.416  0.0606 -0.1598 -0.0441
12022DPPC   C4A14471  21.925   4.976  17.971  0.0059 -0.3162  0.0729
12022DPPC   C1B14472  20.714   5.150  18.847  0.1731 -0.2252  0.0383
12022DPPC   C2B14473  20.931   5.164  18.496  0.0381 -0.1010  0.0079
12022DPPC   C3B14474  21.199   5.145  18.135 -0.0231 -0.0410  0.1724
12022DPPC   C4B14475  21.512   5.207  17.766 -0.0226 -0.0444 -0.0123
12023DPPC   NC314476  19.709   5.999  19.079 -0.3907 -0.0781 -0.0937
12023DPPC   PO414477  19.935   5.717  19.034 -0.1169 -0.0493 -0.2230
12023DPPC   GL114478  19.940   5.444  18.612 -0.0752 -0.1018  0.5331
12023DPPC   GL214479  20.137   5.656  18.625  0.3177  0.0387 -0.1173
12023DPPC   C1A14480  19.942   5.487  18.193  0.1673  0.0567 -0.1270
12023DPPC   C2A14481  20.075   5.686  17.889 -0.0605  0.0615  0.2231
12023DPPC   C3A14482  20.156   5.711  17.442  0.1182 -0.3184 -0.0727
12023DPPC   C4A14483  20.270   5.675  16.903 -0.1435  0.2286  0.3288
12023DPPC   C1B14484  20.291   5.735  18.298  0.1350 -0.0045  0.0323
12023DPPC   C2B14485  20.500   5.845  17.995  0.3615 -0.1459  0.0506
12023DPPC   C3B14486  20.618   5.944  17.558  0.0039  0.0338  0.1397
12023DPPC   C4B14487  20.386   6.091  17.137 -0.2187  0.3595  0.1515
12024DPPC   NC314488  20.302   0.808  20.238  0.0460  0.0230 -0.1638
12024DPPC   PO414489  20.576   0.776  19.950 -0.2079  0.4985  0.0035
12024DPPC   GL114490  20.599   0.521  19.663  0.1311 -0.1221  0.1144
12024DPPC   GL214491  20.417   0.745  19.459 -0.0633  0.0539  0.0416
12024DPPC   C1A14492  20.888   0.673  19.486  0.3986  0.0915  0.2503
12024DPPC   C2A14493  21.090   0.659  19.114  0.4225 -0.1794  0.0897
12024DPPC   C3A14494  21.406   0.723  18.752 -0.0959  0.3566 -0.0851
12024DPPC   C4A14495  21.693   0.653  18.352  0.0390  0.1482  0.1545
12024DPPC   C1B14496  20.602   0.805  19.154  0.2504  0.3159  0.1375
12024DPPC   C2B14497  20.737   0.824  18.762 -0.1136 -0.3288  0.0294
12024DPPC   C3B14498  21.085   0.937  18.459 -0.0426 -0.2302  0.1146
12024DPPC   C4B14499  21.368   0.968  18.086 -0.0940 -0.1661  0.3290
12025DPPC   NC314500   1.801   5.362  23.134 -0.2371  0.2794 -0.0571
12025DPPC   PO414501   2.050   5.560  23.401 -0.2180 -0.0668  0.4069
12025DPPC   GL114502   2.426   5.406  23.371  0.3628  0.1665 -0.1473
12025DPPC   GL214503   2.268   5.198  23.227 -0.1179 -0.0238  0.3719
12025DPPC   C1A14504   2.611   5.468  23.057 -0.1971  0.1233 -0.1099
12025DPPC   C2A14505   2.893   5.505  22.740 -0.3561  0.2082  0.1256
12025DPPC   C3A14506   3.146   5.531  22.369 -0.1622 -0.0279  0.2226
12025DPPC   C4A14507   3.452   5.519  22.101 -0.0938  0.0533  0.2328
12025DPPC   C1B14508   2.308   5.152  22.880  0.0062  0.0885  0.2513
12025DPPC   C2B14509   2.535   5.116  22.530 -0.1794  0.2983  0.0785
12025DPPC   C3B14510   2.869   5.184  22.185  0.2472 -0.0152 -0.3476
12025DPPC   C4B14511   3.091   5.212  21.788 -0.0181 -0.4085 -0.2190
12026DPPC   NC314512   1.650   1.473  23.348 -0.1139  0.0714  0.2705
12026DPPC   PO414513   1.619   1.824  23.150  0.0153 -0.2158  0.2980
12026DPPC   GL114514   1.876   1.909  22.780  0.0035 -0.0757  0.1421
12026DPPC   GL214515   2.011   2.109  22.709  0.0718 -0.1523 -0.1558
12026DPPC   C1A14516   2.072   1.713  22.580  0.2093  0.0937 -0.2306
12026DPPC   C2A14517   2.330   1.588  22.246 -0.1094 -0.1280 -0.1777
12026DPPC   C3A14518   2.650   1.576  21.940  0.0943  0.0022 -0.1825
12026DPPC   C4A14519   2.960   1.601  21.579  0.0083 -0.2933  0.0579
12026DPPC   C1B14520   2.245   2.085  22.397  0.2131  0.1315  0.1470
12026DPPC   C2B14521   2.429   2.032  22.030 -0.0505 -0.4064  0.0325
12026DPPC   C3B14522   2.754   2.033  21.677 -0.2297 -0.2667 -0.2044
12026DPPC   C4B14523   3.065   2.092  21.317  0.2214  0.1975  0.1121
12027DPPC   NC314524   1.652   0.067  23.589  0.2702  0.0301 -0.1137
12027DPPC   PO414525   1.869   0.366  23.720 -0.2028 -0.2819  0.1805
12027DPPC   GL114526   2.191   0.481  23.435  0.0574 -0.1832 -0.2887
12027DPPC   GL214527   2.379   0.367  23.536  0.0349  0.2601  0.0964
12027DPPC   C1A14528   2.438   0.577  23.167  0.0864  0.3451  0.1953
12027DPPC   C2A14529   2.538   0.458  22.772  0.1944 -0.0439 -0.0162
12027DPPC   C3A14530   2.887   0.411  22.480 -0.1475 -0.0860 -0.2723
12027DPPC   C4A14531   3.241   0.476  22.111  0.0083  0.0616 -0.0926
12027DPPC   C1B14532   2.698   0.409  23.459 -0.0208  0.1614  0.2279
12027DPPC   C2B14533   3.089   0.570  23.500 -0.0128  0.1758 -0.1207
12027DPPC   C3B14534   3.479   0.617  23.191 -0.3635 -0.0309  0.3480
12027DPPC   C4B14535   3.776   0.614  22.786 -0.0191 -0.0582 -0.2066
12028DPPC   NC314536   0.065   5.511  21.342  0.4193  0.0077 -0.0505
12028DPPC   PO414537   0.425   5.461  21.496  0.0252  0.0746 -0.0479
12028DPPC   GL114538   0.775   5.357  21.250  0.0310  0.1215 -0.2983
12028DPPC   GL214539   0.678   5.592  21.224 -0.2168  0.0732 -0.1221
12028DPPC   C1A14540   0.923   5.076  21.019  0.2483  0.1721 -0.1530
12028DPPC   C2A14541   1.244   5.126  20.704  0.2285 -0.1198  0.1837
12028DPPC   C3A14542   1.560   5.066  20.397  0.0303  0.0432  0.0354
12028DPPC   C4A14543   1.919   5.035  20.042  0.2203 -0.0891  0.0777
12028DPPC   C1B14544   0.887   5.603  20.891  0.0792 -0.2471  0.3227
12028DPPC   C2B14545   1.232   5.583  20.617 -0.0581  0.3311  0.0862
12028DPPC   C3B14546   1.594   5.602  20.309  0.1780  0.2750 -0.2983
12028DPPC   C4B14547   1.923   5.617  19.952  0.4900  0.0355  0.3529
12029DPPC   NC314548  19.513   2.720  19.317  0.2731  0.2498 -0.0547
12029DPPC   PO414549  19.130   2.755  19.392  0.0179 -0.0996 -0.1875
12029DPPC   GL114550  18.898   2.663  19.119  0.0583 -0.3903 -0.0834
12029DPPC   GL214551  18.696   2.507  19.143 -0.1569 -0.3826  0.1186
12029DPPC   C1A14552  18.776   2.729  18.764 -0.0130  0.1744 -0.2210
12029DPPC   C2A14553  18.564   2.664  18.415 -0.1844 -0.0620 -0.1072
12029DPPC   C3A14554  18.279   2.679  17.999 -0.0640 -0.0524 -0.0616
12029DPPC   C4A14555  18.196   2.703  17.544 -0.1188  0.0936  0.4325
12029DPPC   C1B14556  18.469   2.440  18.895  0.1279  0.0037  0.1705
12029DPPC   C2B14557  18.170   2.392  18.656 -0.0177 -0.0705 -0.0785
12029DPPC   C3B14558  17.922   2.342  18.292 -0.0070 -0.2755 -0.0437
12029DPPC   C4B14559  17.781   2.287  17.862  0.2273 -0.0855  0.0133
12030DPPC   NC314560   0.161   1.992  21.207  0.0084  0.1266 -0.0302
12030DPPC   PO414561   0.041   1.609  21.105  0.0728  0.2458  0.0054
12030DPPC   GL114562   0.418   1.491  20.829  0.1976 -0.0827 -0.1736
12030DPPC   GL214563   0.365   1.241  20.805  0.0141  0.1521  0.0477
12030DPPC   C1A14564   0.755   1.479  20.660 -0.0307  0.2923 -0.0647
12030DPPC   C2A14565   1.101   1.414  20.476  0.3508  0.0652  0.1655
12030DPPC   C3A14566   1.461   1.429  20.076 -0.0886 -0.2103 -0.1193
12030DPPC   C4A14567   1.734   1.418  19.703 -0.0225 -0.2555  0.3156
12030DPPC   C1B14568   0.642   0.995  20.774  0.0385  0.1757 -0.3299
12030DPPC   C2B14569   0.982   0.886  20.636  0.2076 -0.0826 -0.1416
12030DPPC   C3B14570   1.256   0.886  20.339  0.0157  0.1160  0.0731
12030DPPC   C4B14571   1.624   0.974  19.964 -0.0426  0.2780 -0.0777
12031DPPC   NC314572   0.748   1.587  21.716  0.1046 -0.2725  0.0379
12031DPPC   PO414573   0.469   1.865  21.641  0.0789  0.0905  0.3252
12031DPPC   GL114574   0.741   1.966  21.328 -0.3043 -0.4401 -0.0797
12031DPPC   GL214575   0.922   1.689  21.333  0.1437  0.0538 -0.0157
12031DPPC   C1A14576   0.996   2.119  21.105 -0.2177  0.0767 -0.8806
12031DPPC   C2A14577   1.225   2.313  20.763 -0.2033 -0.1940  0.3460
12031DPPC   C3A14578   1.557   2.337  20.432 -0.1486 -0.1674 -0.0220
12031DPPC   C4A14579   1.860   2.250  20.004 -0.1435 -0.0538 -0.1598
12031DPPC   C1B14580   1.124   1.729  21.052 -0.1253  0.2075 -0.0675
12031DPPC   C2B14581   1.354   1.765  20.727  0.0519 -0.2310 -0.1728
12031DPPC   C3B14582   1.714   1.752  20.359  0.0296 -0.2498 -0.3002
12031DPPC   C4B14583   2.016   1.736  19.998 -0.1786  0.3456 -0.2684
12032DPPC   NC314584  19.283   4.639  19.389  0.0243 -0.1066  0.1725
12032DPPC   PO414585  19.371   4.857  19.116 -0.3394  0.1548  0.2246
12032DPPC   GL114586  19.083   4.941  18.781  0.1690  0.0934  0.0036
12032DPPC   GL214587  19.089   5.271  18.842  0.0339  0.0109  0.2391
12032DPPC   C1A14588  18.886   5.088  18.502  0.1203  0.0007  0.1780
12032DPPC   C2A14589  18.631   4.948  18.192  0.0729 -0.1045 -0.3937
12032DPPC   C3A14590  18.381   4.885  17.813 -0.0049  0.0613 -0.1683
12032DPPC   C4A14591  18.061   4.997  17.451  0.0137  0.0867  0.1283
12032DPPC   C1B14592  18.908   5.506  18.620  0.2188  0.1540 -0.3245
12032DPPC   C2B14593  18.623   5.459  18.327  0.0288 -0.0728  0.0633
12032DPPC   C3B14594  18.347   5.362  17.995 -0.0881  0.0460 -0.2630
12032DPPC   C4B14595  17.972   5.432  17.689 -0.0215 -0.1557  0.0189
12033DPPC   NC314596   1.593   0.326  22.794 -0.1031  0.1507  0.0133
12033DPPC   PO414597   1.510  -0.058  22.808  0.0371  0.2795 -0.2070
12033DPPC   GL114598   1.685  -0.434  22.699  0.2052 -0.1842 -0.1012
12033DPPC   GL214599   1.710  -0.299  22.447  0.0657  0.1552 -0.1619
12033DPPC   C1A14600   1.853  -0.714  22.521  0.1487  0.3003 -0.0272
12033DPPC   C2A14601   2.127  -0.796  22.229  0.1471  0.0479 -0.0731
12033DPPC   C3A14602   2.463  -0.771  21.843  0.0945  0.0989 -0.0590
12033DPPC   C4A14603   2.723  -0.757  21.454 -0.0441  0.1401 -0.1814
12033DPPC   C1B14604   2.054  -0.315  22.261  0.5373 -0.0757  0.1225
12033DPPC   C2B14605   2.319  -0.242  21.936  0.0829  0.0058 -0.2177
12033DPPC   C3B14606   2.626  -0.265  21.629 -0.0526  0.0103  0.0592
12033DPPC   C4B14607   2.936  -0.321  21.268  0.1555 -0.1111 -0.0117
12034DPPC   NC314608  20.715   2.020  20.395  0.1428 -0.0170 -0.0360
12034DPPC   PO414609  20.635   2.379  20.518  0.1327 -0.2179  0.1194
12034DPPC   GL114610  20.970   2.643  20.503 -0.0807 -0.2923  0.0587
12034DPPC   GL214611  21.143   2.340  20.446  0.1193  0.0814  0.2357
12034DPPC   C1A14612  21.157   2.838  20.160 -0.1554 -0.1372 -0.3124
12034DPPC   C2A14613  21.338   2.835  19.769  0.3456 -0.0402 -0.2618
12034DPPC   C3A14614  21.662   2.816  19.359  0.1907  0.1144 -0.0820
12034DPPC   C4A14615  22.012   2.820  19.013  0.4381 -0.0030 -0.0450
12034DPPC   C1B14616  21.504   2.286  20.397 -0.3825  0.2114  0.0308
12034DPPC   C2B14617  21.789   2.142  20.117 -0.2841  0.2753  0.2242
12034DPPC   C3B14618  22.138   2.197  19.755  0.0681 -0.1405  0.4369
12034DPPC   C4B14619  22.485   2.209  19.355  0.1786  0.1993 -0.2193
12035DPPC   NC314620   1.772   0.834  23.437  0.2436 -0.3249 -0.4347
12035DPPC   PO414621   1.842   0.537  23.173  0.2602 -0.0160 -0.3355
12035DPPC   GL114622   2.087   0.351  22.886 -0.2105 -0.0387 -0.1330
12035DPPC   GL214623   2.241   0.166  23.022 -0.3370 -0.0381  0.1443
12035DPPC   C1A14624   2.170   0.507  22.513 -0.1007 -0.2262  0.0722
12035DPPC   C2A14625   2.467   0.597  22.239  0.1132 -0.0244 -0.1447
12035DPPC   C3A14626   2.803   0.628  21.903 -0.1617 -0.0138 -0.0684
12035DPPC   C4A14627   3.095   0.560  21.546  0.2996  0.2063  0.1790
12035DPPC   C1B14628   2.566   0.174  23.123 -0.0388 -0.1993 -0.3106
12035DPPC   C2B14629   2.930   0.256  23.122 -0.0767  0.1575 -0.0075
12035DPPC   C3B14630   3.275   0.188  22.814  0.1009 -0.2709 -0.0818
12035DPPC   C4B14631   3.584   0.248  22.454 -0.0022  0.0268  0.0045
12036DPPC   NC314632  20.667   4.370  20.666 -0.1068 -0.3547 -0.1097
12036DPPC   PO414633  20.709   4.760  20.609  0.3898 -0.1677 -0.0122
12036DPPC   GL114634  21.020   4.733  20.390  0.0879  0.1870  0.2026
12036DPPC   GL214635  21.062   4.413  20.394 -0.1645  0.2581 -0.1618
12036DPPC   C1A14636  21.315   4.901  20.292  0.0231 -0.1849 -0.2752
12036DPPC   C2A14637  21.709   4.999  20.244  0.1450  0.0021 -0.1674
12036DPPC   C3A14638  22.055   4.998  19.876  0.0770  0.1182 -0.3150
12036DPPC   C4A14639  22.410   4.992  19.548  0.1186  0.1175 -0.1275
12036DPPC   C1B14640  21.339   4.546  20.066 -0.0097 -0.1966  0.1839
12036DPPC   C2B14641  21.676   4.674  19.841 -0.3398 -0.0259  0.0470
12036DPPC   C3B14642  21.928   4.688  19.487 -0.1719  0.3984 -0.0487
12036DPPC   C4B14643  22.241   4.697  19.184 -0.1538  0.0324  0.3601
12037DPPC   NC314644  19.998   1.108  18.393  0.0485 -0.1328 -0.2518
12037DPPC   PO414645  19.621   1.183  18.486 -0.2068 -0.4729 -0.0723
12037DPPC   GL114646  19.662   1.568  18.340  0.1305  0.1770 -0.4825
12037DPPC   GL214647  19.446   1.687  18.327 -0.0541 -0.2347  0.0023
12037DPPC   C1A14648  19.779   1.578  18.006 -0.2956 -0.0749 -0.1893
12037DPPC   C2A14649  19.990   1.717  17.748  0.0682 -0.0835 -0.1071
12037DPPC   C3A14650  20.104   1.970  17.321  0.2244  0.1504  0.1439
12037DPPC   C4A14651  19.981   2.077  16.855 -0.2461 -0.1830  0.1524
12037DPPC   C1B14652  19.268   1.482  18.124  0.2049  0.3356 -0.0817
12037DPPC   C2B14653  18.939   1.533  17.898  0.1051  0.0918 -0.1677
12037DPPC   C3B14654  18.697   1.535  17.479 -0.0383 -0.0707 -0.4357
12037DPPC   C4B14655  18.490   1.442  17.035 -0.2007 -0.1280  0.0776
12038DPPC   NC314656   0.343   2.772  22.066  0.0714 -0.4335 -0.0890
12038DPPC   PO414657   0.433   2.438  21.886  0.0328 -0.0211  0.1001
12038DPPC   GL114658   0.672   2.312  21.570  0.1147  0.2331 -0.0822
12038DPPC   GL214659   0.468   2.354  21.395 -0.0629 -0.4722 -0.2214
12038DPPC   C1A14660   0.988   2.400  21.466  0.1288  0.1270 -0.0079
12038DPPC   C2A14661   1.296   2.486  21.201  0.2899  0.0760 -0.0416
12038DPPC   C3A14662   1.649   2.618  20.895 -0.1861 -0.0943 -0.2159
12038DPPC   C4A14663   1.941   2.586  20.541 -0.0556 -0.2766  0.1305
12038DPPC   C1B14664   0.589   2.282  21.078  0.1849 -0.3754 -0.0898
12038DPPC   C2B14665   0.653   2.477  20.691  0.3931 -0.2332  0.0625
12038DPPC   C3B14666   0.936   2.475  20.311 -0.1498  0.0239  0.1007
12038DPPC   C4B14667   1.296   2.502  20.014 -0.2700  0.0706 -0.0583
12039DPPC   NC314668   1.845   2.615  22.936  0.2932  0.0242 -0.0445
12039DPPC   PO414669   1.971   2.291  23.135 -0.1035  0.0226 -0.3698
12039DPPC   GL114670   2.298   2.349  22.892  0.2460 -0.0301 -0.0284
12039DPPC   GL214671   2.303   2.637  22.946  0.3306 -0.1003 -0.2226
12039DPPC   C1A14672   2.541   2.310  22.630  0.1416  0.0729  0.0733
12039DPPC   C2A14673   2.777   2.321  22.300  0.2062  0.3870  0.1623
12039DPPC   C3A14674   3.079   2.378  21.965  0.1541  0.0153 -0.1676
12039DPPC   C4A14675   3.367   2.402  21.594 -0.0011  0.1348  0.0956
12039DPPC   C1B14676   2.626   2.815  22.847 -0.3793  0.1125  0.1464
12039DPPC   C2B14677   2.994   2.714  22.670 -0.1566  0.0683  0.3796
12039DPPC   C3B14678   3.374   2.691  22.296 -0.1655  0.1557  0.0893
12039DPPC   C4B14679   3.683   2.752  21.949 -0.0486  0.0348  0.2734
12040DPPC   NC314680   0.704   2.865  22.377  0.0104  0.1367 -0.1047
12040DPPC   PO414681   0.709   3.072  22.044  0.0331  0.2352  0.2551
12040DPPC   GL114682   1.165   3.144  21.999  0.3763 -0.0587  0.0767
12040DPPC   GL214683   1.314   2.917  22.015  0.2617  0.2269 -0.0504
12040DPPC   C1A14684   1.291   3.365  21.766  0.1925  0.0786 -0.0172
12040DPPC   C2A14685   1.566   3.412  21.476 -0.2623  0.0008  0.1312
12040DPPC   C3A14686   1.914   3.386  21.149  0.0251 -0.0138  0.1342
12040DPPC   C4A14687   2.316   3.393  20.841 -0.0096 -0.0385  0.0224
12040DPPC   C1B14688   1.518   2.942  21.743  0.1732  0.1526  0.3368
12040DPPC   C2B14689   1.761   2.859  21.383 -0.0793  0.0879 -0.1488
12040DPPC   C3B14690   2.091   2.883  20.987 -0.3992 -0.0260 -0.0156
12040DPPC   C4B14691   2.472   2.904  20.643 -0.0390  0.3562 -0.1325
12041DPPC   NC314692  19.942   0.077  18.975 -0.2416  0.0588  0.0647
12041DPPC   PO414693  20.028  -0.257  19.202 -0.1723 -0.3098  0.0595
12041DPPC   GL114694  20.096  -0.475  18.830 -0.1697  0.0111  0.0313
12041DPPC   GL214695  20.302  -0.611  18.872  0.1739  0.1335 -0.2934
12041DPPC   C1A14696  20.142  -0.172  18.625 -0.0505 -0.0970 -0.3383
12041DPPC   C2A14697  20.469  -0.036  18.452  0.0140 -0.1246 -0.1007
12041DPPC   C3A14698  20.849   0.076  18.174  0.1651 -0.1002 -0.0369
12041DPPC   C4A14699  21.208   0.062  17.798 -0.2348  0.0478  0.2491
12041DPPC   C1B14700  20.440  -0.514  18.570 -0.2420  0.2659 -0.1556
12041DPPC   C2B14701  20.715  -0.429  18.277 -0.2427  0.1826 -0.0698
12041DPPC   C3B14702  21.132  -0.420  18.049 -0.0786  0.0254  0.0150
12041DPPC   C4B14703  21.477  -0.403  17.748 -0.1884  0.0250  0.0543
12042DPPC   NC314704   1.264   3.348  22.919 -0.0112  0.0654 -0.1331
12042DPPC   PO414705   1.532   3.062  22.846  0.2073 -0.1007  0.3731
12042DPPC   GL114706   1.845   3.141  22.637 -0.0737 -0.1875 -0.2184
12042DPPC   GL214707   1.717   3.452  22.626 -0.0683 -0.0786 -0.3716
12042DPPC   C1A14708   2.075   3.104  22.329 -0.0076  0.0001  0.2339
12042DPPC   C2A14709   2.335   3.043  22.026 -0.1202 -0.0227 -0.2307
12042DPPC   C3A14710   2.712   3.013  21.704  0.0438  0.0791  0.1888
12042DPPC   C4A14711   3.047   3.125  21.397  0.0633 -0.0023  0.2065
12042DPPC   C1B14712   1.853   3.629  22.327 -0.2018  0.4001 -0.1454
12042DPPC   C2B14713   2.149   3.551  22.062  0.0458 -0.0238  0.4417
12042DPPC   C3B14714   2.523   3.552  21.731  0.2000  0.1655 -0.0703
12042DPPC   C4B14715   2.821   3.562  21.348  0.0304 -0.0166  0.3406
12043DPPC   NC314716  20.457   5.985  20.287  0.0473  0.5356  0.1956
12043DPPC   PO414717  20.230   6.038  19.987  0.3296  0.0827  0.1165
12043DPPC   GL114718  20.454   6.034  19.572 -0.0214 -0.1366  0.0507
12043DPPC   GL214719  20.660   5.878  19.834 -0.0047  0.3039 -0.2080
12043DPPC   C1A14720  20.584   5.908  19.242  0.1968  0.0363  0.2525
12043DPPC   C2A14721  20.891   5.983  18.955 -0.4895 -0.1299  0.3809
12043DPPC   C3A14722  21.235   5.993  18.592 -0.4054 -0.0489  0.2458
12043DPPC   C4A14723  21.537   6.065  18.266 -0.2443 -0.0983 -0.5752
12043DPPC   C1B14724  20.846   5.739  19.536 -0.0101  0.1692 -0.2872
12043DPPC   C2B14725  21.151   5.688  19.340 -0.0082 -0.0236  0.1404
12043DPPC   C3B14726  21.511   5.700  18.959  0.0598  0.1348 -0.2065
12043DPPC   C4B14727  21.762   5.801  18.574 -0.0519  0.1336 -0.0609
12044DPPC   NC314728  20.843   0.505  21.511  0.0981  0.0941 -0.1669
12044DPPC   PO414729  21.148   0.707  21.423  0.5935 -0.1799 -0.0704
12044DPPC   GL114730  21.458   0.635  21.173  0.0761 -0.0620 -0.3133
12044DPPC   GL214731  21.589   0.896  21.192  0.2606 -0.3820 -0.1614
12044DPPC   C1A14732  21.555   0.608  20.831  0.2124 -0.0127 -0.0928
12044DPPC   C2A14733  21.718   0.584  20.441 -0.2248  0.0789  0.1650
12044DPPC   C3A14734  22.049   0.646  20.101  0.0534  0.0458  0.0055
12044DPPC   C4A14735  22.388   0.710  19.790  0.2033 -0.0129 -0.0758
12044DPPC   C1B14736  21.912   0.833  21.151  0.1562 -0.2379  0.1124
12044DPPC   C2B14737  22.278   0.747  21.082  0.0279 -0.1883 -0.2271
12044DPPC   C3B14738  22.636   0.821  20.768  0.0464  0.1398 -0.1049
12044DPPC   C4B14739  22.930   0.696  20.412  0.1334  0.2809 -0.1122
12045DPPC   NC314740   0.791   2.120  21.977  0.0917 -0.3306 -0.1331
12045DPPC   PO414741   0.988   1.842  22.029  0.5171  0.1894  0.2304
12045DPPC   GL114742   1.183   1.771  21.726  0.1600 -0.1797  0.0848
12045DPPC   GL214743   1.058   2.027  21.584 -0.0905  0.1500 -0.0862
12045DPPC   C1A14744   1.319   1.547  21.456 -0.0506  0.1532  0.0569
12045DPPC   C2A14745   1.594   1.616  21.200 -0.0202 -0.1589 -0.0064
12045DPPC   C3A14746   1.823   1.626  20.862  0.3324  0.2982 -0.2293
12045DPPC   C4A14747   2.160   1.574  20.500  0.0355  0.1225  0.0289
12045DPPC   C1B14748   1.335   2.045  21.373  0.1749 -0.5094  0.1171
12045DPPC   C2B14749   1.591   2.109  21.059  0.1785 -0.0108  0.1090
12045DPPC   C3B14750   1.893   2.159  20.737  0.1430 -0.2073  0.0070
12045DPPC   C4B14751   2.193   2.116  20.381  0.2413 -0.1027  0.2224
12046DPPC   NC314752   1.188   2.191  22.443 -0.2255  0.1395 -0.1182
12046DPPC   PO414753   1.075   2.536  22.248  0.0557 -0.1996 -0.1217
12046DPPC   GL114754   1.000   2.538  21.890  0.4230 -0.2084 -0.2238
12046DPPC   GL214755   0.821   2.699  21.803 -0.0098 -0.2255  0.0335
12046DPPC   C1A14756   1.352   2.525  21.740  0.2399  0.1197 -0.4301
12046DPPC   C2A14757   1.682   2.349  21.511  0.0703  0.2121 -0.1359
12046DPPC   C3A14758   2.021   2.396  21.125 -0.0546 -0.1056  0.0656
12046DPPC   C4A14759   2.366   2.415  20.790 -0.0741 -0.2047 -0.0293
12046DPPC   C1B14760   1.035   2.862  21.602  0.1182 -0.1961  0.0013
12046DPPC   C2B14761   1.218   2.997  21.295  0.0120 -0.0932 -0.0987
12046DPPC   C3B14762   1.535   3.081  20.978 -0.0089 -0.1174 -0.0494
12046DPPC   C4B14763   1.839   3.097  20.634 -0.0106  0.0714 -0.1697
12047DPPC   NC314764  20.166   2.376  19.753 -0.3863 -0.1659  0.1993
12047DPPC   PO414765  20.379   2.556  20.012 -0.0616 -0.1439 -0.0865
12047DPPC   GL114766  20.815   2.642  19.857  0.3168  0.0427 -0.2660
12047DPPC   GL214767  20.852   2.471  20.131 -0.1951 -0.1075 -0.0916
12047DPPC   C1A14768  20.992   2.489  19.603  0.1848  0.0306  0.4480
12047DPPC   C2A14769  21.261   2.516  19.221 -0.1984  0.0413  0.2226
12047DPPC   C3A14770  21.657   2.474  18.910  0.0403  0.2821 -0.1056
12047DPPC   C4A14771  21.946   2.454  18.549  0.0982 -0.0750  0.2444
12047DPPC   C1B14772  21.225   2.401  20.035 -0.2813  0.2081 -0.1551
12047DPPC   C2B14773  21.494   2.379  19.692 -0.0115  0.1968 -0.0340
12047DPPC   C3B14774  21.888   2.317  19.355  0.2170  0.0893  0.0701
12047DPPC   C4B14775  22.187   2.359  18.964  0.3959  0.2386  0.0209
12048DPPC   NC314776   0.314   0.109  22.003  0.0217  0.1670  0.0128
12048DPPC   PO414777   0.683   0.318  21.854  0.1012  0.0482 -0.2238
12048DPPC   GL114778   0.966   0.249  21.662 -0.0922 -0.5584  0.1365
12048DPPC   GL214779   1.184   0.398  21.816  0.1726 -0.0401  0.1448
12048DPPC   C1A14780   1.055   0.198  21.344 -0.1521 -0.1136 -0.1175
12048DPPC   C2A14781   1.315   0.268  21.049  0.5289  0.2863  0.3471
12048DPPC   C3A14782   1.607   0.256  20.657 -0.3191  0.1948 -0.0059
12048DPPC   C4A14783   1.959   0.225  20.303  0.3048 -0.0206  0.1071
12048DPPC   C1B14784   1.371   0.500  21.507 -0.3526 -0.0773  0.0895
12048DPPC   C2B14785   1.659   0.573  21.255 -0.2098 -0.0036  0.1547
12048DPPC   C3B14786   1.936   0.580  20.874 -0.1475  0.3957 -0.1531
12048DPPC   C4B14787   2.287   0.598  20.521 -0.0183  0.2453 -0.0797
12049DPPC   NC314788   0.321   1.428  21.874 -0.0148 -0.0951  0.1186
12049DPPC   PO414789   0.297   1.228  21.528 -0.1524 -0.2588  0.1613
12049DPPC   GL114790   0.565   1.391  21.222 -0.2518  0.2642 -0.0284
12049DPPC   GL214791   0.466   1.623  21.219  0.0854 -0.0822 -0.1627
12049DPPC   C1A14792   0.916   1.338  21.092  0.2461  0.3673 -0.0301
12049DPPC   C2A14793   1.254   1.269  20.914 -0.0555  0.2873  0.1928
12049DPPC   C3A14794   1.605   1.253  20.519  0.3311 -0.0657  0.3954
12049DPPC   C4A14795   1.944   1.297  20.181 -0.0863 -0.1860 -0.0917
12049DPPC   C1B14796   0.654   1.815  20.946  0.4541  0.0186  0.0324
12049DPPC   C2B14797   0.855   1.962  20.587  0.3193  0.1369  0.0693
12049DPPC   C3B14798   1.166   2.000  20.265 -0.0612  0.1221 -0.3610
12049DPPC   C4B14799   1.494   1.887  19.925  0.0890  0.0963  0.1609
12050DPPC   NC314800  20.663   0.852  21.213  0.1181  0.0115  0.1841
12050DPPC   PO414801  20.820   0.608  20.997 -0.2411 -0.1934 -0.0837
12050DPPC   GL114802  21.149   0.544  20.778  0.0105  0.1074 -0.0265
12050DPPC   GL214803  21.117   0.831  20.672  0.0555 -0.0272  0.0123
12050DPPC   C1A14804  21.280   0.427  20.449  0.3769 -0.2453 -0.4488
12050DPPC   C2A14805  21.484   0.265  20.127 -0.1179  0.0659 -0.1355
12050DPPC   C3A14806  21.727   0.339  19.663  0.0391  0.4447  0.2909
12050DPPC   C4A14807  22.059   0.371  19.345 -0.0270  0.0148  0.1458
12050DPPC   C1B14808  21.441   0.926  20.527 -0.0984  0.1591  0.3458
12050DPPC   C2B14809  21.768   1.066  20.358  0.1664  0.0962  0.0454
12050DPPC   C3B14810  22.127   1.164  20.007 -0.0964 -0.0347 -0.1368
12050DPPC   C4B14811  22.422   1.227  19.588  0.4776  0.4461 -0.0734
12051DPPC   NC314812  20.271   2.945  19.741 -0.2044  0.1372  0.0622
12051DPPC   PO414813  20.467   2.664  19.527 -0.0220  0.3597  0.0704
12051DPPC   GL114814  20.842   2.762  19.328 -0.1426 -0.1071  0.0194
12051DPPC   GL214815  20.834   2.666  19.073 -0.3898 -0.0950  0.1295
12051DPPC   C1A14816  21.123   2.989  19.278 -0.0031 -0.1852 -0.2575
12051DPPC   C2A14817  21.442   2.984  19.010  0.0324  0.1384 -0.1797
12051DPPC   C3A14818  21.741   2.953  18.625 -0.0708  0.0605  0.0506
12051DPPC   C4A14819  22.000   3.027  18.243 -0.3599 -0.0115  0.0166
12051DPPC   C1B14820  21.094   2.739  18.834  0.0711  0.1853  0.0154
12051DPPC   C2B14821  21.361   2.678  18.565 -0.1938  0.2588  0.1876
12051DPPC   C3B14822  21.705   2.648  18.194 -0.4118  0.0031 -0.0928
12051DPPC   C4B14823  21.925   2.750  17.808 -0.0251  0.3698 -0.2428
12052DPPC   NC314824   1.296   4.289  22.637 -0.0561  0.1581 -0.2269
12052DPPC   PO414825   1.097   4.055  22.337 -0.0064  0.0283  0.0268
12052DPPC   GL114826   1.420   3.781  22.060  0.0278 -0.0795 -0.2976
12052DPPC   GL214827   1.215   3.752  21.857 -0.0522  0.3102  0.0721
12052DPPC   C1A14828   1.700   3.776  21.785  0.1258 -0.0934 -0.2431
12052DPPC   C2A14829   1.987   3.731  21.506  0.0281  0.1417 -0.2486
12052DPPC   C3A14830   2.346   3.746  21.165  0.0833 -0.1849  0.1460
12052DPPC   C4A14831   2.685   3.731  20.833 -0.2096 -0.0441  0.2933
12052DPPC   C1B14832   1.334   3.890  21.526 -0.2496 -0.3536  0.1987
12052DPPC   C2B14833   1.620   3.876  21.199 -0.1637 -0.0013  0.4444
12052DPPC   C3B14834   2.020   3.924  20.843  0.1675 -0.1610 -0.0807
12052DPPC   C4B14835   2.314   3.872  20.507 -0.1632  0.4019 -0.3267
12053DPPC   NC314836   0.951   3.525  22.191  0.0821 -0.0454 -0.0606
12053DPPC   PO414837   1.234   3.489  22.467 -0.1087 -0.3302  0.2529
12053DPPC   GL114838   1.502   3.330  22.144 -0.1833 -0.1880 -0.2100
12053DPPC   GL214839   1.591   3.114  22.275  0.3008 -0.0575 -0.1435
12053DPPC   C1A14840   1.782   3.358  21.920  0.1532 -0.3914  0.2082
12053DPPC   C2A14841   2.055   3.243  21.613 -0.0169  0.1522 -0.3178
12053DPPC   C3A14842   2.436   3.231  21.301  0.4815  0.1280 -0.2493
12053DPPC   C4A14843   2.801   3.200  20.946 -0.2568 -0.3956  0.0165
12053DPPC   C1B14844   1.776   2.929  22.075 -0.3123 -0.1191  0.1224
12053DPPC   C2B14845   1.995   2.793  21.792  0.1987  0.3429 -0.1057
12053DPPC   C3B14846   2.295   2.758  21.411 -0.0206 -0.1134  0.2791
12053DPPC   C4B14847   2.661   2.720  21.084 -0.0574  0.0437  0.1530
12054DPPC   NC314848  20.373   1.435  19.542 -0.0190  0.2246  0.0030
12054DPPC   PO414849  20.472   1.781  19.687 -0.0407 -0.2161  0.1718
12054DPPC   GL114850  20.882   1.721  19.346  0.2749 -0.1750  0.1472
12054DPPC   GL214851  20.809   1.445  19.385 -0.1285  0.0389  0.0807
12054DPPC   C1A14852  21.166   1.622  19.040 -0.0972 -0.1132 -0.4759
12054DPPC   C2A14853  21.403   1.690  18.722 -0.1481  0.1030 -0.2616
12054DPPC   C3A14854  21.616   1.613  18.311 -0.0964 -0.3863  0.1281
12054DPPC   C4A14855  21.910   1.701  17.859 -0.3726 -0.0356 -0.2815
12054DPPC   C1B14856  21.050   1.199  19.177 -0.1776 -0.3313 -0.1781
12054DPPC   C2B14857  21.293   1.151  18.886  0.0339  0.1975 -0.0226
12054DPPC   C3B14858  21.547   1.148  18.492 -0.0440 -0.0853 -0.0754
12054DPPC   C4B14859  21.875   1.090  18.121 -0.2064  0.1048  0.0987
12055DPPC   NC314860   0.809   4.484  22.046 -0.2912  0.1865  0.0206
12055DPPC   PO414861   1.088   4.569  22.343 -0.1031  0.3122 -0.0694
12055DPPC   GL114862   1.346   4.447  22.067  0.1114 -0.0841 -0.0900
12055DPPC   GL214863   1.619   4.329  22.269  0.1138 -0.1243 -0.2458
12055DPPC   C1A14864   1.523   4.624  21.816  0.1019  0.0876  0.0685
12055DPPC   C2A14865   1.817   4.751  21.531  0.0182 -0.0244 -0.0202
12055DPPC   C3A14866   2.135   4.690  21.215 -0.0337  0.1840  0.0812
12055DPPC   C4A14867   2.365   4.745  20.788 -0.2396  0.1786  0.2231
12055DPPC   C1B14868   1.778   4.043  22.192 -0.1866 -0.2738  0.2398
12055DPPC   C2B14869   2.131   4.016  21.948  0.2000  0.0938  0.0722
12055DPPC   C3B14870   2.449   4.004  21.594 -0.4967  0.0693  0.0983
12055DPPC   C4B14871   2.819   4.035  21.223  0.3749 -0.0289  0.4245
12056DPPC   NC314872   0.091   4.574  21.371 -0.2324 -0.0217 -0.1293
12056DPPC   PO414873   0.143   4.955  21.318 -0.0387 -0.1742  0.1369
12056DPPC   GL114874   0.404   5.148  21.116  0.0465 -0.1040 -0.0212
12056DPPC   GL214875   0.547   4.836  21.158  0.2195  0.3566 -0.2549
12056DPPC   C1A14876   0.484   5.350  20.815  0.1215 -0.0611  0.2539
12056DPPC   C2A14877   0.737   5.362  20.537  0.0828  0.0723  0.0078
12056DPPC   C3A14878   1.082   5.308  20.200  0.0773 -0.0131  0.0017
12056DPPC   C4A14879   1.475   5.354  19.906  0.3703  0.0482  0.1806
12056DPPC   C1B14880   0.491   4.504  21.009  0.1999  0.1694 -0.0677
12056DPPC   C2B14881   0.777   4.268  20.782 -0.1560 -0.1343  0.0509
12056DPPC   C3B14882   1.118   4.266  20.415 -0.1224 -0.0877 -0.3794
12056DPPC   C4B14883   1.439   4.291  20.060 -0.1907  0.1213  0.0117
12057DPPC   NC314884   0.855   0.758  22.029  0.3765 -0.0228  0.2610
12057DPPC   PO414885   0.558   0.996  22.071 -0.3591 -0.1064 -0.0587
12057DPPC   GL114886   0.744   1.159  21.828 -0.0286 -0.3780  0.6021
12057DPPC   GL214887   0.748   1.107  21.559  0.0687 -0.0710 -0.0368
12057DPPC   C1A14888   1.116   1.295  21.840  0.0826 -0.3045 -0.1899
12057DPPC   C2A14889   1.551   1.305  21.771 -0.0272 -0.1561  0.0984
12057DPPC   C3A14890   1.887   1.365  21.475 -0.2004  0.1447 -0.0668
12057DPPC   C4A14891   2.210   1.431  21.096  0.1518 -0.3094  0.0469
12057DPPC   C1B14892   1.032   1.184  21.453 -0.2585  0.2968 -0.1921
12057DPPC   C2B14893   1.443   1.097  21.322  0.1626 -0.2801 -0.0299
12057DPPC   C3B14894   1.810   1.131  21.002 -0.1880  0.1584 -0.1242
12057DPPC   C4B14895   2.134   1.049  20.677 -0.0896  0.0827 -0.2098
12058DPPC   NC314896  19.002   2.235  19.650 -0.2089 -0.0149  0.3511
12058DPPC   PO414897  18.805   2.103  19.285  0.1565 -0.1312  0.1540
12058DPPC   GL114898  18.342   2.097  19.088  0.1182  0.0661  0.2093
12058DPPC   GL214899  18.574   2.009  18.860  0.2147 -0.0255 -0.4855
12058DPPC   C1A14900  17.991   2.049  19.017  0.2772  0.2727  0.0546
12058DPPC   C2A14901  17.764   2.007  18.694  0.5303 -0.0253  0.1705
12058DPPC   C3A14902  17.522   2.020  18.299  0.1022  0.1329 -0.3562
12058DPPC   C4A14903  17.335   1.933  17.849 -0.1287 -0.0533  0.0620
12058DPPC   C1B14904  18.700   2.094  18.518  0.2534  0.0070 -0.2481
12058DPPC   C2B14905  18.435   2.145  18.199  0.0329 -0.0887  0.1959
12058DPPC   C3B14906  18.249   2.217  17.767 -0.0695 -0.2086 -0.0044
12058DPPC   C4B14907  18.061   2.199  17.282  0.3540  0.3092 -0.1677
12059DPPC   NC314908  19.004   2.268  18.819 -0.1237  0.0621  0.1695
12059DPPC   PO414909  19.302   2.546  18.878  0.0012  0.0369  0.2525
12059DPPC   GL114910  19.360   2.844  18.512 -0.3886  0.1036 -0.2554
12059DPPC   GL214911  19.067   2.950  18.563 -0.1584 -0.2093  0.0466
12059DPPC   C1A14912  19.292   2.786  18.140 -0.0615 -0.3219  0.0084
12059DPPC   C2A14913  19.123   2.774  17.782 -0.4005  0.0094 -0.4501
12059DPPC   C3A14914  19.057   2.777  17.343  0.4716  0.0230 -0.2546
12059DPPC   C4A14915  18.816   2.763  16.901 -0.1734  0.1329 -0.1866
12059DPPC   C1B14916  18.881   2.974  18.265  0.2252  0.0558  0.0347
12059DPPC   C2B14917  18.705   2.984  17.919 -0.0879 -0.2645  0.2115
12059DPPC   C3B14918  18.566   3.037  17.457  0.1710  0.1394  0.1968
12059DPPC   C4B14919  18.224   3.014  17.104  0.4335 -0.2225 -0.0096
12060DPPC   NC314920  20.932   2.980  20.964 -0.1393  0.3843  0.0719
12060DPPC   PO414921  21.254   3.040  21.238  0.2336  0.1920  0.1306
12060DPPC   GL114922  21.572   3.192  21.076 -0.3507 -0.0176 -0.0784
12060DPPC   GL214923  21.652   3.454  21.005 -0.1150  0.2759 -0.0430
12060DPPC   C1A14924  21.698   3.069  20.760  0.2694 -0.1858  0.1405
12060DPPC   C2A14925  21.920   2.933  20.451  0.0974  0.0332  0.0769
12060DPPC   C3A14926  22.212   2.942  20.087  0.1317 -0.3822  0.0623
12060DPPC   C4A14927  22.538   2.887  19.723 -0.2316  0.1420 -0.1979
12060DPPC   C1B14928  21.703   3.466  20.605 -0.0264 -0.0702  0.3827
12060DPPC   C2B14929  22.041   3.541  20.333 -0.1413  0.0188  0.2324
12060DPPC   C3B14930  22.364   3.529  19.963  0.3515 -0.0312 -0.3586
12060DPPC   C4B14931  22.643   3.468  19.513 -0.1583  0.0743 -0.2056
12061DPPC   NC314932  20.195   1.566  20.069 -0.0905 -0.2473 -0.0769
12061DPPC   PO414933  20.403   1.250  19.990  0.0442  0.0393 -0.2337
12061DPPC   GL114934  20.729   1.080  19.638  0.1381 -0.1043 -0.0072
12061DPPC   GL214935  20.759   1.396  19.781  0.3616  0.3308  0.0453
12061DPPC   C1A14936  21.088   1.087  19.732 -0.0651 -0.0457  0.0419
12061DPPC   C2A14937  21.350   0.948  19.457  0.2790 -0.0079 -0.0786
12061DPPC   C3A14938  21.723   1.006  19.132  0.0856 -0.1353 -0.1437
12061DPPC   C4A14939  21.983   0.961  18.719  0.2643  0.2332 -0.0339
12061DPPC   C1B14940  21.044   1.537  19.743 -0.0921  0.0897 -0.3280
12061DPPC   C2B14941  21.340   1.433  19.487  0.2099 -0.2207 -0.1336
12061DPPC   C3B14942  21.653   1.536  19.162 -0.0076 -0.0530  0.2386
12061DPPC   C4B14943  21.903   1.436  18.764 -0.0267  0.1220  0.0221
12062DPPC   NC314944  20.658   2.974  20.175 -0.2868 -0.0765  0.1019
12062DPPC   PO414945  20.328   3.244  20.188 -0.2701  0.3131 -0.3049
12062DPPC   GL114946  20.631   3.473  20.203 -0.0890  0.2099  0.3305
12062DPPC   GL214947  20.665   3.498  19.906  0.0607 -0.2478  0.3197
12062DPPC   C1A14948  21.000   3.300  20.257  0.0479 -0.3913 -0.2084
12062DPPC   C2A14949  21.267   3.299  19.934 -0.1525  0.1396 -0.0557
12062DPPC   C3A14950  21.576   3.265  19.596 -0.3171  0.0261  0.0672
12062DPPC   C4A14951  21.877   3.287  19.226 -0.0820 -0.3262  0.2451
12062DPPC   C1B14952  21.022   3.492  19.639 -0.0276 -0.3045 -0.0434
12062DPPC   C2B14953  21.216   3.479  19.293  0.0085  0.1933 -0.1287
12062DPPC   C3B14954  21.484   3.586  18.918  0.1217  0.2710  0.1181
12062DPPC   C4B14955  21.723   3.450  18.489  0.0265 -0.1046  0.1356
12063DPPC   NC314956  21.101   3.693  21.288  0.0433  0.0978 -0.0004
12063DPPC   PO414957  21.356   3.974  21.358  0.1921  0.0861  0.2486
12063DPPC   GL114958  21.633   3.853  21.109 -0.0585 -0.2631  0.3654
12063DPPC   GL214959  21.413   3.802  20.910 -0.3792  0.0799  0.3910
12063DPPC   C1A14960  21.979   3.742  20.965 -0.1111 -0.0833  0.1982
12063DPPC   C2A14961  22.273   3.821  20.675  0.0588 -0.0814  0.0737
12063DPPC   C3A14962  22.540   3.829  20.317  0.0015 -0.2551 -0.0516
12063DPPC   C4A14963  22.835   3.723  19.961 -0.1074  0.2469  0.4462
12063DPPC   C1B14964  21.565   3.933  20.593  0.0221  0.1408 -0.1726
12063DPPC   C2B14965  21.886   3.999  20.326  0.1463 -0.1578  0.1760
12063DPPC   C3B14966  22.215   4.003  19.978 -0.3384 -0.1554  0.1333
12063DPPC   C4B14967  22.535   3.966  19.594  0.0490  0.3055  0.3414
12064DPPC   NC314968   2.366   5.477  23.791  0.4549 -0.0473  0.0550
12064DPPC   PO414969   2.156   5.179  23.755 -0.0703  0.0625 -0.1083
12064DPPC   GL114970   2.516   5.091  23.672 -0.0188  0.0477  0.2488
12064DPPC   GL214971   2.686   5.182  23.766  0.0722 -0.2543 -0.0110
12064DPPC   C1A14972   2.610   4.965  23.361 -0.2169 -0.1054 -0.0197
12064DPPC   C2A14973   2.806   4.992  22.984 -0.0070 -0.1147 -0.0084
12064DPPC   C3A14974   3.068   5.019  22.608  0.2026  0.1088 -0.0005
12064DPPC   C4A14975   3.390   5.017  22.277  0.0724 -0.4348 -0.1359
12064DPPC   C1B14976   2.870   5.396  23.529  0.0002  0.1390 -0.0005
12064DPPC   C2B14977   3.119   5.313  23.205  0.2257  0.0844 -0.1376
12064DPPC   C3B14978   3.426   5.317  22.814  0.1010 -0.3828  0.1771
12064DPPC   C4B14979   3.740   5.405  22.490  0.0265  0.1160  0.2157
12065DPPC   NC314980   0.454   6.086  21.964  0.4805 -0.3722 -0.3971
12065DPPC   PO414981   0.637   5.696  22.017 -0.0723 -0.0317  0.1993
12065DPPC   GL114982   0.884   5.560  21.663 -0.2435 -0.4166 -0.0566
12065DPPC   GL214983   0.856   5.337  21.638 -0.0182  0.2038 -0.0642
12065DPPC   C1A14984   1.041   5.757  21.356 -0.4682  0.0777 -0.0302
12065DPPC   C2A14985   1.325   5.859  21.058 -0.0217  0.0098  0.1277
12065DPPC   C3A14986   1.689   5.920  20.720  0.0554  0.1562 -0.0406
12065DPPC   C4A14987   2.020   5.918  20.357 -0.0976 -0.3483  0.1850
12065DPPC   C1B14988   1.175   5.316  21.433  0.2053 -0.0291 -0.2237
12065DPPC   C2B14989   1.371   5.355  21.109  0.0346  0.1081 -0.2976
12065DPPC   C3B14990   1.747   5.353  20.805  0.0441  0.0702  0.2055
12065DPPC   C4B14991   2.041   5.361  20.437  0.1016  0.0346  0.0380
12066DPPC   NC314992   2.716   0.094  24.293  0.0548 -0.0014 -0.2117
12066DPPC   PO414993   2.773  -0.312  24.333  0.0059 -0.0323  0.0060
12066DPPC   GL114994   2.799  -0.296  23.965 -0.1616  0.1381  0.3212
12066DPPC   GL214995   2.552  -0.137  23.891  0.2769  0.1484 -0.1055
12066DPPC   C1A14996   2.928  -0.363  23.652  0.1101 -0.1289  0.0789
12066DPPC   C2A14997   3.293  -0.377  23.475 -0.0806  0.2000 -0.2504
12066DPPC   C3A14998   3.644  -0.360  23.151 -0.3841  0.0074 -0.0179
12066DPPC   C4A14999   3.908  -0.487  22.738 -0.1362 -0.0774  0.1361
12066DPPC   C1B15000   2.593  -0.082  23.507  0.3434  0.0758 -0.4707
12066DPPC   C2B15001   2.822  -0.215  23.177  0.2395  0.1088 -0.0052
12066DPPC   C3B15002   3.156  -0.259  22.940 -0.1279  0.2366  0.0660
12066DPPC   C4B15003   3.476  -0.258  22.565 -0.0774  0.1511  0.2638
12067DPPC   NC315004   1.471   4.772  22.672  0.0145 -0.1863  0.1132
12067DPPC   PO415005   1.392   5.091  22.916  0.3114 -0.0844  0.2776
12067DPPC   GL115006   1.702   5.226  22.644  0.0135  0.3458 -0.1424
12067DPPC   GL215007   1.794   5.422  22.691  0.0811  0.1402 -0.0831
12067DPPC   C1A15008   1.853   5.127  22.355 -0.1272  0.1664 -0.0926
12067DPPC   C2A15009   1.931   5.087  21.967  0.1765  0.0623 -0.1417
12067DPPC   C3A15010   2.264   5.035  21.597  0.3332  0.1924 -0.0728
12067DPPC   C4A15011   2.572   4.971  21.185  0.0752 -0.1108  0.0846
12067DPPC   C1B15012   2.121   5.385  22.498 -0.0071 -0.4134 -0.1564
12067DPPC   C2B15013   2.329   5.369  22.156 -0.0885  0.0435  0.0469
12067DPPC   C3B15014   2.648   5.400  21.785  0.0492  0.0233  0.0779
12067DPPC   C4B15015   2.899   5.353  21.341  0.0126 -0.0918 -0.1233
12068DPPC   NC315016  19.507   1.526  18.830  0.1093  0.1702  0.0042
12068DPPC   PO415017  19.830   1.735  18.752 -0.1286  0.2113  0.2289
12068DPPC   GL115018  20.060   1.792  18.383 -0.0570  0.1671  0.0464
12068DPPC   GL215019  20.111   1.526  18.295  0.0233  0.1026 -0.1224
12068DPPC   C1A15020  20.240   1.910  18.095  0.3687  0.1034 -0.1348
12068DPPC   C2A15021  20.386   2.030  17.755 -0.0274  0.1573 -0.0296
12068DPPC   C3A15022  20.686   2.101  17.355  0.1668 -0.0238 -0.1690
12068DPPC   C4A15023  20.857   2.345  16.964 -0.0110 -0.0328 -0.0151
12068DPPC   C1B15024  20.229   1.409  17.979  0.0102 -0.1769  0.0861
12068DPPC   C2B15025  20.510   1.231  17.680 -0.0653  0.2302 -0.0135
12068DPPC   C3B15026  20.563   0.996  17.218 -0.2090 -0.0392 -0.3211
12068DPPC   C4B15027  20.681   0.652  16.889  0.0021 -0.2588 -0.1610
12069DPPC   NC315028   0.502   5.223  22.007 -0.0220 -0.4382 -0.0394
12069DPPC   PO415029   0.789   4.965  22.049 -0.0893  0.1346  0.0390
12069DPPC   GL115030   1.145   4.796  21.868  0.1250 -0.0068  0.0774
12069DPPC   GL215031   1.338   4.905  22.073 -0.2017 -0.1751 -0.0878
12069DPPC   C1A15032   1.184   4.867  21.535  0.0941  0.0075 -0.7150
12069DPPC   C2A15033   1.407   4.897  21.219 -0.1328  0.0954 -0.2284
12069DPPC   C3A15034   1.626   4.855  20.843 -0.1006  0.0892  0.0947
12069DPPC   C4A15035   2.001   4.845  20.493 -0.1398 -0.0459  0.0613
12069DPPC   C1B15036   1.646   4.736  22.224  0.3209  0.4111 -0.0017
12069DPPC   C2B15037   1.909   4.495  21.994 -0.0088  0.0482  0.1652
12069DPPC   C3B15038   2.211   4.515  21.745  0.1913 -0.0899  0.0193
12069DPPC   C4B15039   2.499   4.466  21.383  0.0836  0.0697  0.2827
12070DPPC   NC315040  20.395   2.577  19.034  0.0498 -0.3132  0.0762
12070DPPC   PO415041  20.156   2.555  18.714 -0.1900  0.1874 -0.1642
12070DPPC   GL115042  20.101   2.183  18.548 -0.2890 -0.0133 -0.2583
12070DPPC   GL215043  20.046   2.412  18.274 -0.0907  0.0803  0.3669
12070DPPC   C1A15044  20.408   2.042  18.474 -0.0753 -0.0267  0.0367
12070DPPC   C2A15045  20.657   2.109  18.177 -0.2162 -0.2183  0.5199
12070DPPC   C3A15046  20.740   2.553  17.967  0.1802 -0.0111  0.1009
12070DPPC   C4A15047  20.765   2.971  17.741 -0.1612  0.4587  0.1042
12070DPPC   C1B15048  20.237   2.392  17.957  0.0141 -0.0472  0.4602
12070DPPC   C2B15049  20.079   2.370  17.573  0.0787 -0.2885 -0.2801
12070DPPC   C3B15050  19.830   2.425  17.159 -0.0066 -0.0030 -0.2222
12070DPPC   C4B15051  19.635   2.438  16.713 -0.3833 -0.0940 -0.2084
12071DPPC   NC315052   1.749   4.834  23.901 -0.0132 -0.0075 -0.1150
12071DPPC   PO415053   2.050   4.614  23.812 -0.4483  0.2475 -0.3818
12071DPPC   GL115054   2.323   4.625  23.508  0.1398  0.2747 -0.1550
12071DPPC   GL215055   2.497   4.643  23.748 -0.0735  0.2037  0.0976
12071DPPC   C1A15056   2.351   4.731  23.152  0.2781 -0.2681  0.2280
12071DPPC   C2A15057   2.439   4.693  22.776  0.0525  0.2076  0.0495
12071DPPC   C3A15058   2.742   4.694  22.394 -0.1002  0.1433 -0.3602
12071DPPC   C4A15059   3.062   4.747  22.058  0.0850 -0.0388 -0.0958
12071DPPC   C1B15060   2.828   4.742  23.681  0.0146  0.0360  0.2751
12071DPPC   C2B15061   3.089   4.834  23.429  0.1443 -0.1467  0.1703
12071DPPC   C3B15062   3.332   4.829  23.036  0.2112 -0.0828 -0.1323
12071DPPC   C4B15063   3.583   4.878  22.675 -0.0570 -0.0377 -0.3844
12072DPPC   NC315064  20.087   4.107  20.244  0.1418 -0.2891 -0.1355
12072DPPC   PO415065  20.453   4.171  20.303 -0.0850 -0.1515 -0.3027
12072DPPC   GL115066  20.810   4.197  20.118  0.0112 -0.5031 -0.2859
12072DPPC   GL215067  20.857   3.910  20.177 -0.2822  0.0927 -0.1000
12072DPPC   C1A15068  21.075   4.251  19.861  0.1815 -0.0500 -0.1607
12072DPPC   C2A15069  21.394   4.310  19.552 -0.0621  0.0489 -0.1274
12072DPPC   C3A15070  21.693   4.328  19.178  0.2629  0.2107  0.0694
12072DPPC   C4A15071  22.012   4.223  18.819 -0.4289 -0.2524 -0.2333
12072DPPC   C1B15072  21.140   3.817  19.965 -0.3246 -0.0028  0.2452
12072DPPC   C2B15073  21.410   3.781  19.689 -0.4371  0.0620 -0.1260
12072DPPC   C3B15074  21.676   3.824  19.312  0.0105 -0.0448 -0.1660
12072DPPC   C4B15075  21.960   3.758  18.951 -0.0734  0.0886 -0.1442
12073DPPC   NC315076  20.627   3.792  21.312  0.0809 -0.0356 -0.1838
12073DPPC   PO415077  20.668   3.415  21.165 -0.2987 -0.2002  0.0403
12073DPPC   GL115078  20.978   3.570  20.762  0.0380 -0.0889  0.3510
12073DPPC   GL215079  21.103   3.385  20.950  0.0418  0.0558  0.0253
12073DPPC   C1A15080  21.220   3.596  20.456 -0.0190  0.0677 -0.0099
12073DPPC   C2A15081  21.517   3.623  20.203  0.0990  0.3919  0.1700
12073DPPC   C3A15082  21.861   3.602  19.818  0.0467 -0.1860  0.0615
12073DPPC   C4A15083  22.173   3.698  19.463  0.0600 -0.0865 -0.0350
12073DPPC   C1B15084  21.161   3.221  20.664  0.0537  0.1336  0.0299
12073DPPC   C2B15085  21.434   3.176  20.416  0.0047  0.1494  0.1722
12073DPPC   C3B15086  21.724   3.194  20.057  0.0685 -0.2039  0.1292
12073DPPC   C4B15087  22.063   3.145  19.670 -0.0205 -0.5265 -0.2790
12074DPPC   NC315088   0.013   1.083  21.087 -0.2476  0.2198  0.0758
12074DPPC   PO415089  -0.256   1.206  20.821 -0.2025 -0.0501  0.2475
12074DPPC   GL115090   0.058   1.282  20.553 -0.1234 -0.0753 -0.0265
12074DPPC   GL215091   0.066   1.618  20.619 -0.3515  0.0113 -0.0048
12074DPPC   C1A15092   0.132   1.234  20.213  0.1598  0.4697 -0.0454
12074DPPC   C2A15093   0.438   1.276  19.956 -0.1928 -0.3123  0.0595
12074DPPC   C3A15094   0.728   1.327  19.530 -0.0849  0.4765  0.2758
12074DPPC   C4A15095   1.054   1.328  19.189  0.3467 -0.1313 -0.0697
12074DPPC   C1B15096   0.413   1.635  20.425 -0.2797 -0.2355 -0.2937
12074DPPC   C2B15097   0.727   1.652  20.207  0.0248  0.1129  0.3429
12074DPPC   C3B15098   1.038   1.675  19.862 -0.0551 -0.3192  0.1033
12074DPPC   C4B15099   1.386   1.709  19.457  0.2382  0.1332 -0.0072
12075DPPS   CNO15100  19.816   0.086  19.464  0.0702  0.2670 -0.4618
12075DPPS   PO415101  20.131   0.328  19.398  0.1823 -0.0087 -0.1386
12075DPPS   GL115102  20.522   0.310  19.297 -0.2457  0.0916  0.0190
12075DPPS   GL215103  20.451  -0.020  19.273 -0.0073 -0.0469  0.0984
12075DPPS   C1A15104  20.709   0.361  18.954 -0.2446  0.0810  0.2483
12075DPPS   C2A15105  21.000   0.312  18.624 -0.0390  0.1417 -0.1017
12075DPPS   C3A15106  21.285   0.407  18.249  0.0521  0.1681  0.2397
12075DPPS   C4A15107  21.652   0.504  17.884 -0.0866  0.1776 -0.0365
12075DPPS   C1B15108  20.724  -0.163  19.096  0.0498 -0.1392  0.3048
12075DPPS   C2B15109  20.893  -0.183  18.716  0.1734  0.0031 -0.2900
12075DPPS   C3B15110  21.258  -0.098  18.488 -0.2468  0.2076  0.0737
12075DPPS   C4B15111  21.542  -0.080  18.077 -0.2442 -0.1909  0.0946
12076DPPS   CNO15112  20.141   3.006  18.908  0.0997 -0.1315 -0.0685
12076DPPS   PO415113  20.411   3.074  19.194  0.1207  0.1544 -0.0218
12076DPPS   GL115114  20.701   2.988  18.891  0.2663  0.2643 -0.1160
12076DPPS   GL215115  20.531   2.903  18.693  0.0973  0.1697  0.5763
12076DPPS   C1A15116  20.995   3.184  18.771  0.1244  0.0015 -0.0412
12076DPPS   C2A15117  21.254   3.232  18.523 -0.1854 -0.2809 -0.2497
12076DPPS   C3A15118  21.526   3.272  18.106 -0.2334  0.2898 -0.0471
12076DPPS   C4A15119  21.917   3.259  17.782  0.2302 -0.1253 -0.0447
12076DPPS   C1B15120  20.770   2.982  18.420 -0.1241 -0.1404  0.1631
12076DPPS   C2B15121  21.069   2.954  18.111  0.2347  0.0166 -0.4946
12076DPPS   C3B15122  21.383   2.889  17.792 -0.0889  0.0029 -0.0546
12076DPPS   C4B15123  21.611   2.850  17.376  0.0634 -0.0023  0.3446
12077DPPS   CNO15124  19.575   1.283  19.342 -0.1610 -0.1866  0.0295
12077DPPS   PO415125  19.818   0.956  19.322  0.2521 -0.1105 -0.2001
12077DPPS   GL115126  20.254   1.109  19.244  0.0762 -0.1141 -0.2660
12077DPPS   GL215127  20.199   0.863  19.019  0.0420 -0.0464  0.2135
12077DPPS   C1A15128  20.548   1.280  19.047  0.3900  0.0146  0.1185
12077DPPS   C2A15129  20.850   1.315  18.751  0.2874 -0.2504  0.0244
12077DPPS   C3A15130  21.114   1.396  18.361  0.1354  0.1531 -0.0363
12077DPPS   C4A15131  21.293   1.447  17.918  0.0285 -0.1721  0.0827
12077DPPS   C1B15132  20.331   1.024  18.752  0.0152  0.1257  0.0961
12077DPPS   C2B15133  20.508   1.076  18.384 -0.1748  0.2998 -0.2667
12077DPPS   C3B15134  20.839   1.130  18.071  0.1147 -0.0346  0.3097
12077DPPS   C4B15135  20.972   1.164  17.613  0.4983 -0.1922 -0.1158
12078DPPS   CNO15136  19.465   4.204  19.560 -0.1363  0.1436  0.3054
12078DPPS   PO415137  19.377   4.183  19.186 -0.1863 -0.2115  0.1797
12078DPPS   GL115138  19.010   4.423  19.055 -0.0585  0.3982 -0.4762
12078DPPS   GL215139  19.131   4.518  18.836  0.0467 -0.0917  0.0416
12078DPPS   C1A15140  18.774   4.221  18.893  0.0933  0.1242 -0.0565
12078DPPS   C2A15141  18.544   4.149  18.527 -0.0544 -0.0732 -0.1886
12078DPPS   C3A15142  18.230   4.165  18.148 -0.1888 -0.2372  0.0777
12078DPPS   C4A15143  17.896   4.161  17.811 -0.1363  0.2426  0.0084
12078DPPS   C1B15144  18.932   4.526  18.491 -0.1302  0.3674  0.1107
12078DPPS   C2B15145  18.729   4.489  18.119 -0.0074  0.0923 -0.1117
12078DPPS   C3B15146  18.503   4.402  17.732  0.0151  0.3835  0.0692
12078DPPS   C4B15147  18.112   4.428  17.374 -0.2528  0.2554 -0.2328
12079DPPS   CNO15148   0.420   6.411  22.466  0.1544 -0.1594 -0.1109
12079DPPS   PO415149   0.727   6.301  22.326  0.1611 -0.1506  0.0347
12079DPPS   GL115150   0.809   6.461  21.978 -0.1051  0.2269 -0.1003
12079DPPS   GL215151   0.631   6.442  21.760  0.1224  0.1105  0.1276
12079DPPS   C1A15152   1.137   6.507  21.807  0.0211  0.1713 -0.0042
12079DPPS   C2A15153   1.468   6.634  21.534 -0.0529 -0.2476  0.0098
12079DPPS   C3A15154   1.789   6.720  21.150  0.1411  0.2605  0.0488
12079DPPS   C4A15155   2.112   6.672  20.794 -0.0079  0.1005 -0.0549
12079DPPS   C1B15156   0.885   6.363  21.494 -0.0017 -0.0548  0.4140
12079DPPS   C2B15157   1.201   6.365  21.211 -0.0184  0.0510  0.1422
12079DPPS   C3B15158   1.523   6.402  20.853 -0.0450  0.3513  0.4535
12079DPPS   C4B15159   1.805   6.364  20.447 -0.0498 -0.0508 -0.2797
12080DPPS   CNO15160  19.848   4.017  19.182 -0.2804  0.3595 -0.0470
12080DPPS   PO415161  20.121   3.837  19.377 -0.1282 -0.1076  0.1825
12080DPPS   GL115162  20.379   3.760  19.122  0.2646 -0.0259 -0.0469
12080DPPS   GL215163  20.337   3.896  18.923  0.2018  0.3394  0.2835
12080DPPS   C1A15164  20.752   3.723  19.095  0.0857  0.0056  0.0821
12080DPPS   C2A15165  21.019   3.678  18.762 -0.1992 -0.2721 -0.2082
12080DPPS   C3A15166  21.342   3.700  18.365  0.1198  0.0063  0.0822
12080DPPS   C4A15167  21.601   3.718  17.939 -0.1551  0.0635  0.0208
12080DPPS   C1B15168  20.543   3.815  18.635  0.0250  0.0282 -0.0041
12080DPPS   C2B15169  20.799   3.826  18.308  0.0553 -0.1295  0.0707
12080DPPS   C3B15170  21.095   3.839  17.937 -0.4562  0.0516  0.2464
12080DPPS   C4B15171  21.273   3.885  17.486  0.0701 -0.1311  0.0941
12081DPPS   CNO15172   0.587   5.949  21.501  0.0757 -0.1378  0.2034
12081DPPS   PO415173   0.269   5.922  21.295 -0.1018  0.1313  0.3582
12081DPPS   GL115174   0.289   6.094  20.926  0.1018  0.0334  0.1106
12081DPPS   GL215175   0.312   5.850  20.796  0.2793 -0.2445  0.1205
12081DPPS   C1A15176   0.523   6.288  20.698  0.2747 -0.2760 -0.3470
12081DPPS   C2A15177   0.766   6.292  20.297 -0.0321 -0.3834 -0.0804
12081DPPS   C3A15178   1.037   6.330  19.946 -0.1888 -0.2241  0.0045
12081DPPS   C4A15179   1.425   6.248  19.669  0.4848  0.2541 -0.3544
12081DPPS   C1B15180   0.578   5.802  20.587 -0.2277 -0.5105 -0.0330
12081DPPS   C2B15181   0.887   5.797  20.325  0.0186 -0.1873  0.0707
12081DPPS   C3B15182   1.213   5.834  20.021 -0.3925 -0.1381 -0.0153
12081DPPS   C4B15183   1.583   5.759  19.642 -0.1847 -0.0669 -0.1067
12082DPPS   CNO15184   1.580   1.935  23.665  0.2070  0.2532  0.1511
12082DPPS   PO415185   1.928   1.811  23.573  0.1805 -0.0037  0.0727
12082DPPS   GL115186   2.105   1.650  23.224 -0.0972 -0.1133 -0.2033
12082DPPS   GL215187   2.158   1.851  23.080  0.1999 -0.0651 -0.0715
12082DPPS   C1A15188   2.264   1.361  23.051 -0.0790  0.1930  0.0423
12082DPPS   C2A15189   2.485   1.399  22.767  0.3054 -0.1427 -0.1701
12082DPPS   C3A15190   2.817   1.396  22.424 -0.0412 -0.0261  0.1853
12082DPPS   C4A15191   3.150   1.418  22.042  0.2736 -0.1871 -0.1798
12082DPPS   C1B15192   2.442   1.866  22.841 -0.2873 -0.0199  0.3010
12082DPPS   C2B15193   2.645   1.871  22.477  0.2415  0.2842 -0.2469
12082DPPS   C3B15194   3.033   1.861  22.140  0.2156 -0.4735  0.4680
12082DPPS   C4B15195   3.368   1.873  21.832 -0.1215 -0.0744 -0.0149
12083DPPS   CNO15196   1.467   5.664  22.846  0.2132  0.0708  0.0716
12083DPPS   PO415197   1.705   5.874  23.067  0.1158 -0.2759  0.1537
12083DPPS   GL115198   2.047   5.885  22.976 -0.4587 -0.2079 -0.3645
12083DPPS   GL215199   2.141   5.635  22.886  0.0586 -0.0344  0.0694
12083DPPS   C1A15200   2.216   6.044  22.736 -0.0640  0.0251  0.0586
12083DPPS   C2A15201   2.496   6.146  22.426 -0.0292 -0.2064  0.2974
12083DPPS   C3A15202   2.854   6.311  22.109  0.1069 -0.0660 -0.0383
12083DPPS   C4A15203   3.167   6.206  21.750 -0.2594 -0.1994  0.0740
12083DPPS   C1B15204   2.367   5.670  22.595  0.1971 -0.1846  0.2371
12083DPPS   C2B15205   2.659   5.702  22.292 -0.1089  0.0552  0.2479
12083DPPS   C3B15206   2.977   5.743  21.950  0.3861  0.2191  0.2291
12083DPPS   C4B15207   3.239   5.684  21.556  0.1086  0.0951  0.3334
12084DPPS   CNO15208   0.231   3.766  22.236 -0.1931 -0.0518 -0.0417
12084DPPS   PO415209   0.377   3.575  21.951 -0.2397  0.0635 -0.1689
12084DPPS   GL115210   0.822   3.475  21.752 -0.1053 -0.0278  0.1423
12084DPPS   GL215211   0.718   3.258  21.622 -0.0187  0.1287  0.0814
12084DPPS   C1A15212   1.024   3.602  21.482 -0.1598 -0.0383  0.1219
12084DPPS   C2A15213   1.261   3.566  21.094  0.1410 -0.2441  0.0399
12084DPPS   C3A15214   1.570   3.549  20.731 -0.1740  0.2581 -0.1761
12084DPPS   C4A15215   1.951   3.571  20.415  0.0150 -0.2798  0.2817
12084DPPS   C1B15216   0.839   3.264  21.287 -0.2051 -0.0033  0.3407
12084DPPS   C2B15217   0.943   3.290  20.890  0.1640  0.3253 -0.1694
12084DPPS   C3B15218   1.235   3.200  20.537  0.1162  0.0522 -0.2922
12084DPPS   C4B15219   1.633   3.284  20.234  0.1525  0.0247 -0.1899
12085DPPS   CNO15220   0.306   4.209  21.836  0.1884 -0.0865  0.0501
12085DPPS   PO415221   0.433   4.556  21.703  0.0635 -0.0195 -0.0425
12085DPPS   GL115222   0.630   4.303  21.368  0.0878  0.1939 -0.0639
12085DPPS   GL215223   0.829   4.550  21.402  0.0150  0.2529  0.4763
12085DPPS   C1A15224   0.856   4.059  21.287 -0.5263  0.1996  0.3531
12085DPPS   C2A15225   1.193   4.094  21.085 -0.2568 -0.3292 -0.1232
12085DPPS   C3A15226   1.476   4.162  20.720 -0.1712  0.0202  0.1892
12085DPPS   C4A15227   1.812   4.142  20.396 -0.0452 -0.2495  0.2599
12085DPPS   C1B15228   1.005   4.669  21.131 -0.1470 -0.1130  0.2061
12085DPPS   C2B15229   1.204   4.565  20.821 -0.0697  0.2465  0.2904
12085DPPS   C3B15230   1.554   4.593  20.427 -0.3375 -0.0835 -0.1075
12085DPPS   C4B15231   1.886   4.533  20.042  0.3612  0.3476 -0.0803
12086DPPS   CNO15232  20.087   5.584  19.906 -0.0617  0.0333 -0.4422
12086DPPS   PO415233  20.455   5.474  19.889  0.2578  0.0364 -0.2032
12086DPPS   GL115234  20.640   5.404  19.493  0.1928 -0.3030 -0.1855
12086DPPS   GL215235  20.891   5.256  19.667  0.1726 -0.5226  0.1387
12086DPPS   C1A15236  20.752   5.442  19.171  0.0813  0.1299  0.2340
12086DPPS   C2A15237  21.061   5.450  18.892 -0.2712 -0.0888  0.1492
12086DPPS   C3A15238  21.368   5.502  18.515  0.0512 -0.1060 -0.2497
12086DPPS   C4A15239  21.748   5.478  18.217  0.0824  0.2685 -0.0834
12086DPPS   C1B15240  21.202   5.272  19.493 -0.0508  0.0583  0.3251
12086DPPS   C2B15241  21.419   5.281  19.180 -0.2132 -0.1425 -0.1481
12086DPPS   C3B15242  21.770   5.271  18.877  0.1753  0.1113  0.0524
12086DPPS   C4B15243  22.065   5.246  18.514  0.0379 -0.2676  0.1482
12087DPPS   CNO15244  19.729   1.865  19.221  0.3819 -0.5286 -0.0977
12087DPPS   PO415245  20.029   1.662  19.271 -0.0481  0.0098 -0.0534
12087DPPS   GL115246  20.276   1.600  18.978  0.0418 -0.1564 -0.1737
12087DPPS   GL215247  20.466   1.721  19.212  0.4261 -0.1100  0.1785
12087DPPS   C1A15248  20.407   1.497  18.656  0.1375 -0.0422  0.0334
12087DPPS   C2A15249  20.529   1.571  18.282 -0.2967  0.3097 -0.0898
12087DPPS   C3A15250  20.780   1.688  17.841 -0.2383 -0.1495 -0.0716
12087DPPS   C4A15251  21.035   1.660  17.424  0.0625  0.1141  0.1979
12087DPPS   C1B15252  20.659   1.791  18.971 -0.2061  0.4930 -0.4780
12087DPPS   C2B15253  20.882   1.959  18.598 -0.0975 -0.0614 -0.3058
12087DPPS   C3B15254  21.185   1.876  18.228  0.2383  0.2731 -0.0356
12087DPPS   C4B15255  21.460   1.914  17.742  0.0606  0.0797  0.1599
12088DPPS   CNO15256  20.769   4.536  21.176  0.2613  0.0089 -0.1002
12088DPPS   PO415257  20.930   4.181  21.089 -0.2894  0.0472  0.2161
12088DPPS   GL115258  21.198   4.190  20.749  0.1695  0.5211 -0.0410
12088DPPS   GL215259  21.022   4.009  20.635 -0.1382 -0.1369 -0.0564
12088DPPS   C1A15260  21.448   4.395  20.526 -0.0828 -0.2361 -0.3509
12088DPPS   C2A15261  21.779   4.506  20.317 -0.1428  0.1908  0.2542
12088DPPS   C3A15262  22.109   4.504  20.022 -0.0011 -0.1164  0.1890
12088DPPS   C4A15263  22.427   4.439  19.639  0.2067  0.4624  0.2692
12088DPPS   C1B15264  21.238   4.010  20.329 -0.0989 -0.0951  0.1177
12088DPPS   C2B15265  21.525   4.149  20.063 -0.1283 -0.0380 -0.2176
12088DPPS   C3B15266  21.841   4.163  19.663  0.0672  0.2010  0.1581
12088DPPS   C4B15267  22.169   4.212  19.305 -0.0920 -0.0482 -0.1573
12089DPPS   CNO15268  19.576   6.318  19.681  0.1819 -0.0988 -0.1673
12089DPPS   PO415269  19.405   5.993  19.492  0.2009 -0.2836 -0.2571
12089DPPS   GL115270  18.961   5.943  19.460 -0.3711 -0.1846  0.4152
12089DPPS   GL215271  19.003   5.693  19.310  0.2366  0.1674 -0.0312
12089DPPS   C1A15272  18.773   6.029  19.168 -0.2507 -0.1257 -0.5333
12089DPPS   C2A15273  18.524   6.231  18.974  0.2588  0.1129  0.0443
12089DPPS   C3A15274  18.172   6.170  18.624 -0.0848 -0.0577 -0.1290
12089DPPS   C4A15275  17.909   6.188  18.274 -0.0641  0.1659 -0.0373
12089DPPS   C1B15276  18.715   5.605  19.115  0.2079 -0.3353  0.0775
12089DPPS   C2B15277  18.433   5.738  18.839 -0.1431 -0.3905  0.2412
12089DPPS   C3B15278  18.079   5.709  18.524 -0.0750 -0.2414  0.2267
12089DPPS   C4B15279  17.800   5.650  18.181 -0.4219 -0.1373  0.2211
12090DPPS   CNO15280  20.250   6.294  20.644  0.1558 -0.2653  0.0656
12090DPPS   PO415281  20.200   6.476  20.328 -0.0128 -0.0253  0.0229
12090DPPS   GL115282  20.637   6.439  20.207 -0.0631  0.0540 -0.0242
12090DPPS   GL215283  20.520   6.383  19.986 -0.1233  0.0516  0.1469
12090DPPS   C1A15284  20.939   6.261  20.110 -0.0291  0.2718 -0.2607
12090DPPS   C2A15285  21.143   5.990  19.829 -0.0533 -0.2829  0.0958
12090DPPS   C3A15286  21.476   6.041  19.451 -0.1897 -0.3195 -0.2409
12090DPPS   C4A15287  21.824   6.090  19.141  0.2423  0.1111 -0.1629
12090DPPS   C1B15288  20.762   6.297  19.730  0.4742  0.3401  0.3248
12090DPPS   C2B15289  21.017   6.195  19.367  0.1330 -0.1899 -0.0183
12090DPPS   C3B15290  21.365   6.306  19.031 -0.0514  0.1400 -0.0639
12090DPPS   C4B15291  21.708   6.342  18.699 -0.0032 -0.0933 -0.0269
12091DPPS   CNO15292   1.153   5.053  22.467 -0.0241 -0.1081 -0.0249
12091DPPS   PO415293   1.303   5.407  22.476 -0.2405  0.2306 -0.0536
12091DPPS   GL115294   1.600   5.568  22.232 -0.5634  0.1937  0.1773
12091DPPS   GL215295   1.490   5.852  22.281  0.0500 -0.0774 -0.0457
12091DPPS   C1A15296   1.807   5.532  21.994 -0.1159 -0.1829  0.4267
12091DPPS   C2A15297   2.093   5.514  21.681 -0.0529 -0.4503  0.1318
12091DPPS   C3A15298   2.375   5.525  21.265 -0.0269 -0.0032 -0.2323
12091DPPS   C4A15299   2.668   5.454  20.874 -0.2713 -0.3069 -0.1967
12091DPPS   C1B15300   1.725   6.033  22.089  0.1782  0.0703 -0.0012
12091DPPS   C2B15301   1.978   5.980  21.760  0.2757  0.0039 -0.0438
12091DPPS   C3B15302   2.237   6.065  21.430 -0.0808  0.1576  0.0665
12091DPPS   C4B15303   2.540   5.947  21.032 -0.1192  0.0696  0.3075
12092DPPS   CNO15304   0.917   5.686  22.750  0.0842  0.0881 -0.1719
12092DPPS   PO415305   0.906   5.845  22.433 -0.1291 -0.0607  0.1130
12092DPPS   GL115306   1.102   5.663  22.179  0.0344  0.1021 -0.3224
12092DPPS   GL215307   0.999   5.376  22.157 -0.0050 -0.0371  0.2404
12092DPPS   C1A15308   1.322   5.729  21.899 -0.4230  0.2866  0.0091
12092DPPS   C2A15309   1.550   5.658  21.619 -0.2327 -0.0006 -0.0784
12092DPPS   C3A15310   1.894   5.683  21.265 -0.1169  0.2179 -0.1364
12092DPPS   C4A15311   2.159   5.750  20.801 -0.0761 -0.0745 -0.3489
12092DPPS   C1B15312   1.250   5.305  21.886 -0.1357  0.0943  0.0421
12092DPPS   C2B15313   1.568   5.172  21.715 -0.1509 -0.0322  0.1137
12092DPPS   C3B15314   1.882   5.195  21.329 -0.1259 -0.2859 -0.0113
12092DPPS   C4B15315   2.141   5.118  20.947  0.2653  0.0607  0.0153
12093DPPS   CNO15316  19.447   0.329  19.304  0.0066 -0.1621  0.0093
12093DPPS   PO415317  19.079   0.278  19.342  0.1394  0.0265  0.1131
12093DPPS   GL115318  19.102   0.027  18.933  0.0570 -0.0989 -0.1743
12093DPPS   GL215319  18.889   0.259  18.920 -0.3346  0.1574 -0.0061
12093DPPS   C1A15320  18.905  -0.276  18.827 -0.4232 -0.0216  0.0784
12093DPPS   C2A15321  18.759  -0.544  18.593  0.0686  0.1103  0.3048
12093DPPS   C3A15322  18.452  -0.665  18.224  0.3994  0.0364 -0.2113
12093DPPS   C4A15323  18.116  -0.718  17.899  0.0617  0.0921  0.0451
12093DPPS   C1B15324  18.640   0.389  18.679 -0.0639  0.1766 -0.0782
12093DPPS   C2B15325  18.378   0.388  18.333 -0.0769  0.0262  0.1370
12093DPPS   C3B15326  18.059   0.368  17.960  0.0075  0.4074 -0.2672
12093DPPS   C4B15327  17.859   0.264  17.521  0.0333 -0.0598  0.1817
12094DPPS   CNO15328   1.385   3.925  23.316  0.1326  0.1035 -0.0829
12094DPPS   PO415329   1.457   4.177  23.068  0.1782 -0.2061 -0.1408
12094DPPS   GL115330   1.734   4.175  22.823 -0.1806 -0.1030 -0.0139
12094DPPS   GL215331   1.757   4.454  22.755 -0.0614 -0.3030  0.0369
12094DPPS   C1A15332   1.993   3.959  22.601  0.0771 -0.0209 -0.0144
12094DPPS   C2A15333   2.359   3.889  22.450 -0.1887  0.1635  0.2695
12094DPPS   C3A15334   2.642   3.852  22.100  0.2435  0.2720  0.2965
12094DPPS   C4A15335   2.972   3.941  21.699  0.0480  0.1659 -0.1563
12094DPPS   C1B15336   1.952   4.554  22.498  0.1385 -0.3829  0.2853
12094DPPS   C2B15337   2.172   4.826  22.342  0.0852  0.0772 -0.0919
12094DPPS   C3B15338   2.488   4.869  22.039 -0.1502 -0.0605  0.5249
12094DPPS   C4B15339   2.734   4.886  21.646  0.0253  0.2950 -0.4859
12095DPPS   CNO15340  20.470   0.892  20.730 -0.1410 -0.3427 -0.0188
12095DPPS   PO415341  20.493   0.577  20.587  0.3745  0.1180  0.3502
12095DPPS   GL115342  20.850   0.584  20.330  0.0943 -0.1224 -0.0975
12095DPPS   GL215343  20.865   0.320  20.349 -0.1941  0.1169 -0.1464
12095DPPS   C1A15344  21.124   0.763  20.197 -0.1961 -0.2203 -0.3431
12095DPPS   C2A15345  21.496   0.761  19.979  0.0299  0.1342 -0.0749
12095DPPS   C3A15346  21.819   0.806  19.637  0.1145 -0.0806 -0.0502
12095DPPS   C4A15347  22.192   0.862  19.382 -0.2032  0.0595 -0.0146
12095DPPS   C1B15348  21.080   0.122  20.150 -0.1022  0.0748 -0.0631
12095DPPS   C2B15349  21.163  -0.032  19.764  0.1368 -0.3194 -0.0345
12095DPPS   C3B15350  21.484  -0.047  19.458 -0.0707 -0.0816 -0.1124
12095DPPS   C4B15351  21.796  -0.021  19.106 -0.3025  0.0507  0.1061
12096DPPS   CNO15352  20.192   3.575  19.805 -0.1903 -0.0765 -0.0717
12096DPPS   PO415353  20.372   3.935  19.850  0.0723  0.1026  0.0326
12096DPPS   GL115354  20.597   4.043  19.576  0.2267  0.0721  0.1804
12096DPPS   GL215355  20.823   3.910  19.638  0.2791  0.1195  0.0683
12096DPPS   C1A15356  20.630   4.134  19.206  0.0602  0.0492  0.2595
12096DPPS   C2A15357  20.801   4.188  18.889 -0.1385  0.0894  0.1781
12096DPPS   C3A15358  21.090   4.190  18.501  0.1489 -0.2386 -0.2088
12096DPPS   C4A15359  21.368   4.229  18.128 -0.2192  0.0179  0.0435
12096DPPS   C1B15360  21.078   3.945  19.357  0.4935  0.1176 -0.0011
12096DPPS   C2B15361  21.289   4.024  19.026 -0.2087 -0.1614 -0.0584
12096DPPS   C3B15362  21.553   3.999  18.692  0.1600 -0.1244 -0.0773
12096DPPS   C4B15363  21.891   4.010  18.345  0.2791 -0.0678  0.1515
12097DPPS   CNO15364   1.697   2.689  23.442  0.2393 -0.1317  0.0411
12097DPPS   PO415365   2.102   2.774  23.431 -0.0993 -0.0389  0.1074
12097DPPS   GL115366   2.289   3.006  23.121 -0.1449  0.2835  0.4431
12097DPPS   GL215367   2.494   2.921  23.268  0.1068 -0.0671 -0.0040
12097DPPS   C1A15368   2.265   3.064  22.760  0.0837 -0.5317  0.1001
12097DPPS   C2A15369   2.408   3.375  22.538  0.0151 -0.2294 -0.1658
12097DPPS   C3A15370   2.727   3.352  22.189 -0.2520 -0.1431  0.2371
12097DPPS   C4A15371   2.999   3.437  21.770 -0.2338  0.0772  0.2682
12097DPPS   C1B15372   2.821   2.763  23.259 -0.1887  0.1273  0.1688
12097DPPS   C2B15373   3.197   2.599  23.142  0.0121  0.2791  0.1903
12097DPPS   C3B15374   3.527   2.558  22.775 -0.0374 -0.0880 -0.1416
12097DPPS   C4B15375   3.842   2.524  22.353 -0.3741  0.0433  0.3012
12098DPPS   CNO15376   1.313   0.746  23.195  0.3739 -0.0002  0.1156
12098DPPS   PO415377   1.463   1.116  23.128  0.0269  0.2247 -0.0373
12098DPPS   GL115378   1.856   1.020  23.061 -0.0413 -0.2287  0.1144
12098DPPS   GL215379   1.712   0.854  22.866  0.0790  0.1257  0.1215
12098DPPS   C1A15380   2.118   1.045  22.794 -0.1415  0.0693  0.2300
12098DPPS   C2A15381   2.278   1.092  22.417 -0.1751 -0.1417  0.1979
12098DPPS   C3A15382   2.526   1.111  22.113 -0.3808  0.1113  0.1032
12098DPPS   C4A15383   2.868   1.103  21.787  0.0311 -0.0861 -0.1078
12098DPPS   C1B15384   1.747   0.765  22.550  0.0736 -0.0268  0.0753
12098DPPS   C2B15385   1.900   0.651  22.191  0.1593 -0.1106 -0.0181
12098DPPS   C3B15386   2.271   0.755  21.789  0.2200 -0.0563  0.0192
12098DPPS   C4B15387   2.582   0.716  21.460  0.2146  0.2225  0.1174
12099DPPS   CNO15388  19.686   3.195  19.110 -0.2595  0.2669 -0.7075
12099DPPS   PO415389  19.666   2.915  18.848 -0.3604 -0.0874  0.0814
12099DPPS   GL115390  19.874   2.946  18.446  0.0390 -0.0645  0.1617
12099DPPS   GL215391  19.667   3.082  18.287 -0.2142  0.1733 -0.1037
12099DPPS   C1A15392  20.137   2.887  18.206  0.2883  0.0551 -0.0286
12099DPPS   C2A15393  20.458   3.106  18.063  0.1558 -0.0952  0.1397
12099DPPS   C3A15394  20.478   3.563  18.034  0.0076 -0.2299 -0.1898
12099DPPS   C4A15395  20.527   4.030  17.839 -0.1316 -0.1800  0.2168
12099DPPS   C1B15396  19.578   3.422  18.092  0.3865 -0.0601 -0.1482
12099DPPS   C2B15397  19.228   3.711  17.992 -0.1024 -0.0235 -0.2642
12099DPPS   C3B15398  18.982   3.806  17.577 -0.0439  0.2131 -0.1144
12099DPPS   C4B15399  18.613   3.844  17.260 -0.0895  0.1143  0.0093
12100DPPC   NC315400  20.735   3.808  15.598  0.1949  0.1044  0.0343
12100DPPC   PO415401  20.720   4.130  15.814 -0.1361  0.1372 -0.2072
12100DPPC   GL115402  20.592   4.159  16.200 -0.1774 -0.1725  0.0955
12100DPPC   GL215403  20.921   4.064  16.237 -0.0816  0.0948 -0.1294
12100DPPC   C1A15404  20.639   4.299  16.558  0.3383  0.0153 -0.1700
12100DPPC   C2A15405  20.768   4.353  16.922  0.1151 -0.2526 -0.1670
12100DPPC   C3A15406  20.797   4.571  17.409  0.0838 -0.1664  0.0187
12100DPPC   C4A15407  20.488   4.604  17.711 -0.0919 -0.3340  0.2398
12100DPPC   C1B15408  21.079   4.172  16.573 -0.0623 -0.0539 -0.1003
12100DPPC   C2B15409  21.247   4.123  16.928 -0.4078  0.0793 -0.0000
12100DPPC   C3B15410  21.661   4.240  17.114  0.2920 -0.1069 -0.0528
12100DPPC   C4B15411  22.043   4.509  17.285  0.1376 -0.1693 -0.0969
12101DPPC   NC315412   2.483   2.503  17.119  0.1579  0.0170 -0.1440
12101DPPC   PO415413   2.583   2.175  16.865  0.3268 -0.3280 -0.0983
12101DPPC   GL115414   2.291   2.059  17.079  0.1486 -0.1489 -0.5810
12101DPPC   GL215415   2.067   2.148  17.065  0.1354  0.2216 -0.3144
12101DPPC   C1A15416   2.252   1.804  17.316 -0.0688  0.0165  0.0633
12101DPPC   C2A15417   2.056   1.697  17.699  0.1033 -0.3898 -0.1947
12101DPPC   C3A15418   1.819   1.758  18.083  0.0403 -0.0323  0.0926
12101DPPC   C4A15419   1.558   1.822  18.453 -0.0778  0.2078 -0.0654
12101DPPC   C1B15420   1.871   2.312  17.326 -0.0987 -0.1129  0.1520
12101DPPC   C2B15421   1.578   2.431  17.542  0.1439  0.0680 -0.1237
12101DPPC   C3B15422   1.123   2.311  17.720  0.0143 -0.0619 -0.1873
12101DPPC   C4B15423   1.095   2.480  18.167 -0.1381 -0.0240 -0.0527
12102DPPC   NC315424   3.720   3.686  18.131  0.2064 -0.0177 -0.2407
12102DPPC   PO415425   3.423   3.429  18.095  0.1880 -0.0961 -0.2665
12102DPPC   GL115426   3.260   3.403  18.492 -0.0170  0.0326 -0.2838
12102DPPC   GL215427   3.113   3.125  18.519 -0.4006  0.0217 -0.0164
12102DPPC   C1A15428   2.934   3.544  18.602  0.3557 -0.4551 -0.1289
12102DPPC   C2A15429   2.605   3.719  18.826 -0.1638  0.0836 -0.0260
12102DPPC   C3A15430   2.297   3.742  19.208  0.0638 -0.0597  0.0810
12102DPPC   C4A15431   1.996   3.668  19.568  0.1271  0.1008 -0.3793
12102DPPC   C1B15432   2.792   3.144  18.685  0.0221 -0.2406 -0.0658
12102DPPC   C2B15433   2.545   3.225  18.981  0.0496  0.2369  0.1782
12102DPPC   C3B15434   2.242   3.290  19.377  0.0889 -0.1835  0.0508
12102DPPC   C4B15435   1.882   3.234  19.745 -0.4280  0.0052  0.1881
12103DPPC   NC315436   4.642   4.545  20.074  0.2304  0.1221  0.0936
12103DPPC   PO415437   4.977   4.750  20.156 -0.0526 -0.2300  0.0235
12103DPPC   GL115438   4.700   4.896  20.472 -0.1853 -0.2642  0.0083
12103DPPC   GL215439   4.559   4.650  20.501  0.2432 -0.0636 -0.2472
12103DPPC   C1A15440   4.557   5.086  20.807  0.0345  0.2415 -0.0123
12103DPPC   C2A15441   4.289   5.095  21.169 -0.2338 -0.0712  0.4666
12103DPPC   C3A15442   4.004   5.045  21.545  0.2671  0.1749  0.1763
12103DPPC   C4A15443   3.609   5.069  21.850  0.0699  0.1761 -0.0976
12103DPPC   C1B15444   4.266   4.738  20.669 -0.3659 -0.2820 -0.2676
12103DPPC   C2B15445   4.006   4.742  20.981  0.1594 -0.0035  0.1365
12103DPPC   C3B15446   3.662   4.764  21.306  0.1345  0.0919 -0.0932
12103DPPC   C4B15447   3.302   4.707  21.637  0.1645  0.0830  0.0505
12104DPPC   NC315448   5.282   1.799  20.093  0.0031  0.0373  0.1038
12104DPPC   PO415449   5.326   1.419  20.275 -0.0040  0.1518  0.0680
12104DPPC   GL115450   4.985   1.265  20.551  0.5825  0.0544 -0.1488
12104DPPC   GL215451   4.930   1.580  20.552  0.4987  0.2500  0.1089
12104DPPC   C1A15452   4.732   1.046  20.661  0.1082 -0.0186  0.0910
12104DPPC   C2A15453   4.333   1.008  20.837 -0.2192 -0.1628  0.0887
12104DPPC   C3A15454   3.983   0.911  21.127  0.0995  0.0300 -0.1225
12104DPPC   C4A15455   3.705   0.937  21.542 -0.2649  0.1969  0.2686
12104DPPC   C1B15456   4.746   1.744  20.827  0.3423 -0.0659  0.3656
12104DPPC   C2B15457   4.501   1.743  21.170 -0.0022  0.0293 -0.2166
12104DPPC   C3B15458   4.162   1.736  21.507  0.2073 -0.1914 -0.0809
12104DPPC   C4B15459   3.872   1.764  21.872 -0.1344 -0.1986  0.1140
12105DPPC   NC315460   5.013   1.504  19.428  0.0575  0.2054 -0.2092
12105DPPC   PO415461   4.604   1.618  19.544 -0.1279  0.0844  0.1124
12105DPPC   GL115462   4.414   1.456  19.907 -0.1093  0.0520 -0.1724
12105DPPC   GL215463   4.522   1.731  19.971  0.4679  0.2664  0.1829
12105DPPC   C1A15464   4.184   1.486  20.108 -0.1161  0.0449 -0.2403
12105DPPC   C2A15465   4.009   1.677  20.424 -0.1066  0.3761  0.3804
12105DPPC   C3A15466   3.648   1.521  20.765 -0.1765 -0.2316  0.0266
12105DPPC   C4A15467   3.356   1.529  21.159  0.0134  0.1521  0.1272
12105DPPC   C1B15468   4.450   1.759  20.343  0.3666 -0.3202 -0.1714
12105DPPC   C2B15469   4.334   1.905  20.693  0.0051  0.1816  0.0568
12105DPPC   C3B15470   4.035   1.941  21.026  0.2319 -0.3154 -0.1630
12105DPPC   C4B15471   3.672   1.868  21.360 -0.1018  0.1487  0.3394
12106DPPC   NC315472   5.015   6.499  20.409 -0.0297 -0.0858  0.0061
12106DPPC   PO415473   4.890   6.758  20.079 -0.0670 -0.0598  0.1576
12106DPPC   GL115474   4.524   6.800  20.223  0.2663 -0.1987  0.1202
12106DPPC   GL215475   4.379   6.888  19.984  0.4245  0.1041  0.2278
12106DPPC   C1A15476   4.281   6.721  20.531  0.0486 -0.0814  0.2187
12106DPPC   C2A15477   3.957   6.725  20.827  0.2864  0.2523 -0.1310
12106DPPC   C3A15478   3.616   6.738  21.166 -0.1949  0.0380  0.0741
12106DPPC   C4A15479   3.278   6.649  21.505 -0.3137  0.0083  0.2225
12106DPPC   C1B15480   4.088   6.828  20.131  0.5319 -0.1922  0.0015
12106DPPC   C2B15481   3.722   6.798  20.296 -0.1786  0.0680 -0.0419
12106DPPC   C3B15482   3.400   6.779  20.687 -0.0520  0.1658  0.1361
12106DPPC   C4B15483   3.089   6.912  20.994 -0.0612  0.4592  0.0956
12107DPPC   NC315484  18.947   1.895  15.632  0.0852 -0.1127 -0.0332
12107DPPC   PO415485  18.881   2.045  15.998  0.1282  0.0387  0.0020
12107DPPC   GL115486  19.155   2.042  16.316 -0.2005 -0.0059 -0.2714
12107DPPC   GL215487  18.972   2.203  16.368  0.1740  0.1224  0.0327
12107DPPC   C1A15488  19.319   2.108  16.700  0.1981 -0.0376 -0.1983
12107DPPC   C2A15489  19.463   2.093  17.061 -0.1239  0.1297 -0.2860
12107DPPC   C3A15490  19.651   2.132  17.505 -0.0735  0.0854 -0.1161
12107DPPC   C4A15491  19.852   2.132  17.942 -0.2079 -0.1656  0.0259
12107DPPC   C1B15492  18.802   2.275  16.724  0.1513  0.1190 -0.0283
12107DPPC   C2B15493  18.930   2.318  17.094 -0.1088  0.0315 -0.3962
12107DPPC   C3B15494  19.098   2.330  17.555 -0.0827  0.0497 -0.0388
12107DPPC   C4B15495  19.388   2.352  17.988  0.1819  0.3788  0.0365
12108DPPC   NC315496   2.254   0.908  16.261  0.0682 -0.2617  0.3611
12108DPPC   PO415497   2.485   0.699  16.457 -0.1320 -0.1313 -0.1094
12108DPPC   GL115498   2.294   0.615  16.874 -0.1191 -0.3554 -0.2984
12108DPPC   GL215499   2.237   0.899  16.846 -0.1430  0.1295 -0.0865
12108DPPC   C1A15500   1.990   0.557  17.070  0.1191  0.1932 -0.0456
12108DPPC   C2A15501   1.624   0.651  17.323  0.0464  0.0137  0.0258
12108DPPC   C3A15502   1.282   0.772  17.655 -0.1249  0.2399  0.1133
12108DPPC   C4A15503   1.002   0.624  17.989  0.0571 -0.0973 -0.2282
12108DPPC   C1B15504   2.060   0.937  17.184 -0.1214  0.1022 -0.2060
12108DPPC   C2B15505   1.901   0.991  17.593 -0.2519  0.0603  0.2628
12108DPPC   C3B15506   1.603   0.993  17.967 -0.0206  0.0547  0.0449
12108DPPC   C4B15507   1.232   1.030  18.282  0.1000 -0.0597 -0.1697
12109DPPC   NC315508  19.394   4.804  15.363 -0.0451 -0.2250  0.0516
12109DPPC   PO415509  19.635   4.984  15.634  0.0544  0.2697  0.1064
12109DPPC   GL115510  19.594   5.015  16.097 -0.1299  0.1307  0.0761
12109DPPC   GL215511  19.799   5.176  16.044 -0.0695 -0.0973  0.1900
12109DPPC   C1A15512  19.739   4.835  16.436 -0.2586  0.1252 -0.3932
12109DPPC   C2A15513  20.141   4.715  16.651  0.1095 -0.1374  0.1631
12109DPPC   C3A15514  20.604   4.733  16.707  0.0708 -0.0025  0.1447
12109DPPC   C4A15515  21.115   4.708  16.746  0.0442 -0.3153 -0.2871
12109DPPC   C1B15516  19.885   5.302  16.385 -0.0340 -0.1609 -0.0089
12109DPPC   C2B15517  19.718   5.349  16.752 -0.1069  0.0992 -0.0558
12109DPPC   C3B15518  19.625   5.530  17.156  0.2302 -0.0032  0.0371
12109DPPC   C4B15519  19.700   5.464  17.627 -0.1062  0.1477 -0.0513
12110DPPC   NC315520   1.022   1.356  16.070  0.0619  0.2255 -0.2328
12110DPPC   PO415521   1.285   1.050  16.088  0.1670  0.2486  0.0188
12110DPPC   GL115522   1.440   0.862  16.384  0.3194 -0.1069 -0.0222
12110DPPC   GL215523   1.456   1.090  16.663  0.2763  0.0603 -0.3745
12110DPPC   C1A15524   1.415   0.560  16.605  0.2551 -0.0553 -0.2451
12110DPPC   C2A15525   1.138   0.357  16.807  0.1675 -0.4409 -0.0513
12110DPPC   C3A15526   0.746   0.286  17.078 -0.4191 -0.0531 -0.0946
12110DPPC   C4A15527   0.274   0.170  17.083 -0.2457  0.4823  0.3029
12110DPPC   C1B15528   1.289   0.861  16.928 -0.1809 -0.0947 -0.0170
12110DPPC   C2B15529   1.092   0.660  17.205 -0.1028  0.3205 -0.1144
12110DPPC   C3B15530   0.802   0.490  17.517 -0.2778 -0.1827 -0.4239
12110DPPC   C4B15531   0.524   0.146  17.561  0.0646 -0.1076  0.0739
12111DPPC   NC315532   2.384   5.544  16.822 -0.1615  0.2817 -0.1163
12111DPPC   PO415533   2.462   5.256  17.077 -0.1288 -0.1233 -0.1143
12111DPPC   GL115534   2.343   5.095  17.419 -0.2812 -0.2649 -0.0286
12111DPPC   GL215535   2.561   5.267  17.589 -0.0494  0.2047 -0.1222
12111DPPC   C1A15536   2.249   4.793  17.661 -0.0834 -0.0353  0.2112
12111DPPC   C2A15537   2.001   4.635  17.939 -0.0421 -0.2079  0.0129
12111DPPC   C3A15538   1.747   4.660  18.316  0.3648  0.1244  0.1468
12111DPPC   C4A15539   1.442   4.678  18.728 -0.0551  0.0928  0.1306
12111DPPC   C1B15540   2.456   5.426  17.927  0.0084  0.0420  0.3235
12111DPPC   C2B15541   2.295   5.520  18.287 -0.3418  0.0673  0.2252
12111DPPC   C3B15542   1.962   5.417  18.563 -0.2129 -0.1363 -0.1814
12111DPPC   C4B15543   1.622   5.450  18.885 -0.2847 -0.0093 -0.2799
12112DPPC   NC315544   3.323   0.691  18.127 -0.0326  0.1874  0.0248
12112DPPC   PO415545   2.967   0.834  17.989  0.0470 -0.0621  0.3125
12112DPPC   GL115546   2.652   0.596  18.078 -0.1799 -0.0225 -0.0437
12112DPPC   GL215547   2.813   0.525  18.354 -0.2508  0.3549 -0.1205
12112DPPC   C1A15548   2.397   0.661  18.297 -0.0530  0.0154 -0.1627
12112DPPC   C2A15549   2.114   0.682  18.655  0.2746  0.1245 -0.3714
12112DPPC   C3A15550   1.805   0.673  19.005  0.1357 -0.1634  0.1418
12112DPPC   C4A15551   1.522   0.624  19.392 -0.0709 -0.0358 -0.3603
12112DPPC   C1B15552   2.707   0.478  18.752  0.0162  0.0062  0.1661
12112DPPC   C2B15553   2.435   0.466  19.086 -0.1761  0.1420 -0.1014
12112DPPC   C3B15554   2.113   0.496  19.428  0.1022  0.0023 -0.0395
12112DPPC   C4B15555   1.774   0.489  19.763 -0.0124 -0.0407  0.0745
12113DPPC   NC315556  17.523   1.560  16.579 -0.0587  0.0793 -0.0816
12113DPPC   PO415557  17.408   1.246  16.743 -0.4319 -0.0812  0.0730
12113DPPC   GL115558  17.612   1.104  17.008 -0.1075 -0.0544  0.1007
12113DPPC   GL215559  17.572   1.324  17.252 -0.0058 -0.2694 -0.3091
12113DPPC   C1A15560  17.604   0.776  17.218  0.0479  0.2851  0.2349
12113DPPC   C2A15561  17.404   0.412  17.403  0.1481  0.2243  0.0100
12113DPPC   C3A15562  17.211   0.003  17.599 -0.1626  0.1852 -0.1076
12113DPPC   C4A15563  17.003  -0.307  17.914 -0.1992  0.2089 -0.4626
12113DPPC   C1B15564  17.811   1.339  17.539 -0.0634 -0.0609  0.0618
12113DPPC   C2B15565  17.968   1.346  17.895  0.2796  0.0119  0.1539
12113DPPC   C3B15566  18.195   1.400  18.311 -0.3932 -0.0917  0.2163
12113DPPC   C4B15567  18.478   1.463  18.739  0.0871  0.1664  0.2368
12114DPPC   NC315568   2.667   1.676  17.119  0.0012  0.1859  0.0029
12114DPPC   PO415569   2.886   1.691  17.448  0.4202 -0.1446 -0.0884
12114DPPC   GL115570   2.674   1.895  17.622 -0.1980 -0.0224  0.0425
12114DPPC   GL215571   2.580   2.081  17.398  0.0413  0.2263 -0.3001
12114DPPC   C1A15572   2.372   2.028  17.814 -0.0289  0.1196 -0.0123
12114DPPC   C2A15573   2.279   2.068  18.233  0.2418  0.3187 -0.1436
12114DPPC   C3A15574   1.996   2.200  18.672  0.0404  0.1103 -0.0520
12114DPPC   C4A15575   1.628   2.260  18.992 -0.0933  0.2311  0.1930
12114DPPC   C1B15576   2.250   2.223  17.481 -0.0393  0.1111 -0.0942
12114DPPC   C2B15577   1.989   2.200  17.837  0.0506  0.2103 -0.1183
12114DPPC   C3B15578   1.725   2.313  18.224 -0.1195  0.2841 -0.1437
12114DPPC   C4B15579   1.397   2.339  18.561 -0.1047  0.0363 -0.0293
12115DPPC   NC315580  15.222   6.349  18.158 -0.1852  0.0588 -0.1456
12115DPPC   PO415581  15.475   6.286  17.865  0.0125 -0.0176  0.1501
12115DPPC   GL115582  15.717   6.534  18.215  0.1571 -0.1910 -0.2358
12115DPPC   GL215583  15.824   6.230  18.197  0.1275  0.1176 -0.3888
12115DPPC   C1A15584  15.935   6.878  18.232 -0.2015 -0.2052  0.2576
12115DPPC   C2A15585  16.156   7.173  18.484 -0.1296  0.2111 -0.0846
12115DPPC   C3A15586  16.447   7.314  18.860  0.0476 -0.0527 -0.1668
12115DPPC   C4A15587  16.794   7.235  19.139  0.0625 -0.0608 -0.2991
12115DPPC   C1B15588  15.945   6.056  18.478  0.0872  0.0405  0.1943
12115DPPC   C2B15589  16.151   5.934  18.787 -0.1707 -0.0975  0.2121
12115DPPC   C3B15590  16.458   5.970  19.111  0.1785 -0.4119 -0.1377
12115DPPC   C4B15591  16.696   6.005  19.581 -0.0266  0.1833 -0.1460
12116DPPC   NC315592   4.886   2.504  19.697 -0.1428  0.0394 -0.0192
12116DPPC   PO415593   4.848   2.892  19.647  0.0813 -0.2396  0.0121
12116DPPC   GL115594   4.506   3.040  19.674 -0.1511  0.2006 -0.2596
12116DPPC   GL215595   4.421   3.107  19.438 -0.3671  0.0715  0.0028
12116DPPC   C1A15596   4.298   3.157  19.949 -0.3378 -0.2636 -0.1487
12116DPPC   C2A15597   4.008   3.076  20.216 -0.0595  0.2043 -0.2633
12116DPPC   C3A15598   3.644   3.039  20.544  0.0579 -0.1582  0.0106
12116DPPC   C4A15599   3.353   3.080  20.920  0.0215 -0.0498  0.2102
12116DPPC   C1B15600   4.095   3.216  19.536  0.0457  0.2509 -0.0361
12116DPPC   C2B15601   3.758   3.218  19.766  0.1573  0.0705 -0.1578
12116DPPC   C3B15602   3.466   3.237  20.131 -0.1600 -0.0095 -0.2901
12116DPPC   C4B15603   3.071   3.234  20.464  0.0833  0.1560  0.0085
12117DPPC   NC315604   3.071   1.881  17.849  0.0554 -0.0400  0.1032
12117DPPC   PO415605   2.988   2.265  17.834  0.1122 -0.0328 -0.1453
12117DPPC   GL115606   2.679   2.263  18.161  0.0725  0.1479  0.1342
12117DPPC   GL215607   2.739   1.948  18.217 -0.0231 -0.5493 -0.1166
12117DPPC   C1A15608   2.576   2.384  18.461 -0.2685  0.1148  0.2983
12117DPPC   C2A15609   2.364   2.491  18.811 -0.0340  0.0086  0.0860
12117DPPC   C3A15610   2.036   2.570  19.157  0.3111 -0.0314  0.2248
12117DPPC   C4A15611   1.702   2.525  19.470  0.0441 -0.0289  0.0351
12117DPPC   C1B15612   2.593   1.924  18.514  0.0370  0.0988 -0.0585
12117DPPC   C2B15613   2.421   1.996  18.857  0.1083  0.1759 -0.0658
12117DPPC   C3B15614   2.125   2.042  19.156  0.0772  0.2163  0.2327
12117DPPC   C4B15615   1.790   2.053  19.562 -0.0838 -0.1671  0.0432
12118DPPC   NC315616   0.640   6.375  15.941  0.0820  0.0685  0.3904
12118DPPC   PO415617   0.710   5.973  15.990 -0.1485 -0.0154 -0.2148
12118DPPC   GL115618   0.832   6.114  16.415  0.4580  0.1709  0.0230
12118DPPC   GL215619   0.853   5.913  16.487  0.1141 -0.5424 -0.0193
12118DPPC   C1A15620   0.528   6.398  16.462  0.0601  0.4114 -0.0804
12118DPPC   C2A15621   0.223   6.677  16.546 -0.1872  0.0999  0.1452
12118DPPC   C3A15622  -0.191   6.816  16.707  0.2452 -0.2765  0.1873
12118DPPC   C4A15623  -0.564   6.761  16.882  0.2049  0.0268  0.3386
12118DPPC   C1B15624   0.573   5.883  16.669  0.2083 -0.4285 -0.3036
12118DPPC   C2B15625   0.494   5.842  17.083  0.1207 -0.1276 -0.0934
12118DPPC   C3B15626   0.472   5.754  17.491 -0.2563 -0.2335  0.0121
12118DPPC   C4B15627   0.235   5.705  17.957  0.0557 -0.0210 -0.0237
12119DPPC   NC315628   3.180   5.904  17.989 -0.1719  0.2216  0.1641
12119DPPC   PO415629   3.515   6.011  18.168  0.1343  0.0528  0.1029
12119DPPC   GL115630   3.343   6.046  18.567  0.0873  0.0049 -0.0353
12119DPPC   GL215631   3.541   6.153  18.730  0.3653 -0.0736 -0.5379
12119DPPC   C1A15632   3.126   5.771  18.667  0.4148  0.2192 -0.0223
12119DPPC   C2A15633   2.872   5.560  18.889  0.2383  0.0962 -0.0176
12119DPPC   C3A15634   2.517   5.506  19.241 -0.0631 -0.1747  0.1131
12119DPPC   C4A15635   2.128   5.609  19.526 -0.0177  0.0349 -0.1684
12119DPPC   C1B15636   3.247   6.076  19.020  0.0537  0.0872 -0.1659
12119DPPC   C2B15637   2.952   5.928  19.286  0.1520 -0.1559 -0.3354
12119DPPC   C3B15638   2.597   5.846  19.638 -0.0248  0.2435 -0.1844
12119DPPC   C4B15639   2.341   5.896  19.983  0.2174 -0.0292  0.2084
12120DPPC   NC315640   3.424   4.615  18.199  0.2544  0.1200 -0.0418
12120DPPC   PO415641   3.240   4.943  18.166  0.0529 -0.1304  0.1123
12120DPPC   GL115642   2.907   5.152  18.186  0.1851 -0.2703 -0.1789
12120DPPC   GL215643   2.726   4.952  18.004 -0.2024 -0.2600  0.2372
12120DPPC   C1A15644   2.672   5.196  18.450 -0.2502 -0.0796 -0.0535
12120DPPC   C2A15645   2.404   5.245  18.792  0.1717 -0.1330 -0.2246
12120DPPC   C3A15646   2.062   5.285  19.129 -0.1221 -0.1864 -0.0620
12120DPPC   C4A15647   1.772   5.290  19.538 -0.3096 -0.0295 -0.0379
12120DPPC   C1B15648   2.415   4.866  18.111  0.2032 -0.0157  0.0042
12120DPPC   C2B15649   2.152   4.950  18.397 -0.1189 -0.2528  0.2427
12120DPPC   C3B15650   1.866   4.935  18.741 -0.2658 -0.4068  0.0319
12120DPPC   C4B15651   1.624   4.986  19.133  0.1501 -0.1805 -0.1317
12121DPPC   NC315652  17.284   0.335  16.879  0.0830 -0.0711 -0.0762
12121DPPC   PO415653  17.370  -0.049  16.914 -0.0121 -0.4271  0.2045
12121DPPC   GL115654  17.460  -0.318  17.232  0.3148  0.3992  0.2669
12121DPPC   GL215655  17.151  -0.284  17.250 -0.1237  0.1913 -0.0433
12121DPPC   C1A15656  17.710  -0.225  17.445  0.0117  0.2283 -0.3633
12121DPPC   C2A15657  18.013  -0.167  17.777 -0.0892  0.3682  0.3042
12121DPPC   C3A15658  18.311  -0.092  18.135 -0.3416 -0.0151  0.1037
12121DPPC   C4A15659  18.638  -0.042  18.546  0.1440  0.2088 -0.0571
12121DPPC   C1B15660  17.028  -0.505  17.477 -0.0921  0.0134 -0.0574
12121DPPC   C2B15661  17.079  -0.813  17.780  0.1678 -0.0310  0.1856
12121DPPC   C3B15662  17.337  -0.782  18.164  0.0548  0.1184 -0.0315
12121DPPC   C4B15663  17.182  -1.013  18.600  0.1656  0.2942 -0.1932
12122DPPC   NC315664   5.932   4.586  20.339  0.1522 -0.3927  0.1302
12122DPPC   PO415665   5.659   4.436  20.547  0.0305 -0.1274 -0.0689
12122DPPC   GL115666   5.305   4.397  20.798  0.1138 -0.2251  0.1513
12122DPPC   GL215667   5.318   4.292  21.049  0.1692 -0.0179 -0.3060
12122DPPC   C1A15668   4.979   4.550  20.847  0.1919 -0.0133 -0.4485
12122DPPC   C2A15669   4.564   4.574  21.055  0.0665  0.0229 -0.0716
12122DPPC   C3A15670   4.183   4.569  21.421  0.0692 -0.1730  0.0107
12122DPPC   C4A15671   3.874   4.596  21.832 -0.1278 -0.0882  0.0112
12122DPPC   C1B15672   5.097   4.522  21.278  0.2378  0.1049 -0.1265
12122DPPC   C2B15673   4.761   4.463  21.550 -0.1670  0.0418 -0.1892
12122DPPC   C3B15674   4.458   4.415  21.900  0.0454  0.1320 -0.0886
12122DPPC   C4B15675   4.087   4.444  22.256  0.1302 -0.0403  0.1712
12123DPPC   NC315676   2.796   4.812  17.014  0.2168 -0.1333 -0.5285
12123DPPC   PO415677   2.798   4.847  17.439 -0.2699 -0.0107  0.4095
12123DPPC   GL115678   2.649   4.557  17.807 -0.0857 -0.0270 -0.0210
12123DPPC   GL215679   2.513   4.369  17.581 -0.1068 -0.3664  0.3516
12123DPPC   C1A15680   2.433   4.399  18.055 -0.2685  0.2264  0.1289
12123DPPC   C2A15681   2.182   4.457  18.406 -0.3592 -0.0668 -0.2949
12123DPPC   C3A15682   2.014   4.477  18.805  0.1542  0.2678 -0.0113
12123DPPC   C4A15683   1.675   4.437  19.176 -0.2429 -0.1778 -0.0228
12123DPPC   C1B15684   2.167   4.234  17.571 -0.2566 -0.3217 -0.1356
12123DPPC   C2B15685   1.775   4.250  17.687  0.0870  0.1706  0.0108
12123DPPC   C3B15686   1.397   4.241  17.953 -0.1141 -0.2298  0.1446
12123DPPC   C4B15687   1.164   4.279  18.334 -0.1901 -0.2283  0.0262
12124DPPC   NC315688   3.722   5.182  18.362 -0.1466 -0.0411 -0.2045
12124DPPC   PO415689   3.993   5.288  18.612  0.1182 -0.0703 -0.2218
12124DPPC   GL115690   3.766   5.380  18.992 -0.0053  0.3881  0.1791
12124DPPC   GL215691   3.539   5.222  18.796 -0.1366  0.0130 -0.4111
12124DPPC   C1A15692   3.731   5.457  19.342 -0.2017  0.0712  0.0135
12124DPPC   C2A15693   3.628   5.435  19.748 -0.1215 -0.0213 -0.2800
12124DPPC   C3A15694   3.313   5.512  20.140 -0.1590  0.0460 -0.1503
12124DPPC   C4A15695   3.104   5.563  20.538  0.1999 -0.2000  0.0833
12124DPPC   C1B15696   3.268   5.260  19.000 -0.1606  0.0652  0.0513
12124DPPC   C2B15697   2.995   5.313  19.298 -0.0725 -0.3214 -0.0301
12124DPPC   C3B15698   2.658   5.292  19.696 -0.1129  0.3252 -0.1965
12124DPPC   C4B15699   2.340   5.411  20.037 -0.1046 -0.0300 -0.0102
12125DPPC   NC315700   4.809   0.650  19.179 -0.2890 -0.0279  0.0478
12125DPPC   PO415701   4.571   0.323  19.146 -0.2022  0.2245  0.1172
12125DPPC   GL115702   4.242   0.207  19.385  0.0721 -0.3683 -0.1727
12125DPPC   GL215703   4.087   0.400  19.226  0.0002  0.1345  0.0002
12125DPPC   C1A15704   4.143  -0.032  19.636 -0.2213  0.2030  0.0597
12125DPPC   C2A15705   4.239  -0.180  20.015  0.1042 -0.0758 -0.1946
12125DPPC   C3A15706   4.482  -0.245  20.394 -0.1236 -0.1901 -0.2408
12125DPPC   C4A15707   4.786  -0.404  20.793  0.0998  0.1403  0.0045
12125DPPC   C1B15708   3.751   0.487  19.358  0.2570  0.1083 -0.1313
12125DPPC   C2B15709   3.350   0.511  19.422  0.1510 -0.0360 -0.1125
12125DPPC   C3B15710   3.010   0.627  19.748  0.0381  0.0114 -0.4098
12125DPPC   C4B15711   2.676   0.651  20.110  0.0922  0.0099  0.1259
12126DPPC   NC315712   1.822   5.512  16.058  0.0980  0.1396  0.3657
12126DPPC   PO415713   2.011   5.550  16.389 -0.0730  0.2037  0.2187
12126DPPC   GL115714   1.936   5.398  16.814  0.4770 -0.2217  0.2946
12126DPPC   GL215715   2.011   5.155  16.778  0.0661 -0.3324  0.0641
12126DPPC   C1A15716   1.790   5.398  17.180 -0.1248 -0.2799 -0.1708
12126DPPC   C2A15717   1.902   5.270  17.552 -0.3698  0.0760 -0.0952
12126DPPC   C3A15718   1.814   5.130  18.003  0.2726 -0.1087 -0.2217
12126DPPC   C4A15719   1.561   5.161  18.449 -0.2886 -0.0755 -0.0704
12126DPPC   C1B15720   1.867   4.904  17.058  0.1855  0.1108  0.1510
12126DPPC   C2B15721   1.766   4.677  17.422  0.3825 -0.2559 -0.0874
12126DPPC   C3B15722   1.501   4.766  17.828 -0.0484 -0.1153  0.1467
12126DPPC   C4B15723   1.239   4.723  18.242  0.1380 -0.4062  0.2506
12127DPPC   NC315724   4.905   5.343  19.436  0.0653 -0.2581  0.1482
12127DPPC   PO415725   4.549   5.549  19.424 -0.1384  0.2722 -0.1561
12127DPPC   GL115726   4.134   5.472  19.550 -0.4973 -0.1067 -0.0027
12127DPPC   GL215727   4.113   5.747  19.641  0.1544  0.2313  0.2398
12127DPPC   C1A15728   4.075   5.374  19.915 -0.0097 -0.0326  0.0731
12127DPPC   C2A15729   3.843   5.383  20.232  0.2946 -0.0763  0.0467
12127DPPC   C3A15730   3.578   5.344  20.572 -0.3551 -0.0493  0.0751
12127DPPC   C4A15731   3.241   5.354  20.965 -0.0616 -0.1557  0.0751
12127DPPC   C1B15732   3.902   5.789  19.992  0.1023  0.0057 -0.3094
12127DPPC   C2B15733   3.647   5.834  20.366  0.2297 -0.4183 -0.0473
12127DPPC   C3B15734   3.370   5.857  20.780 -0.0000 -0.0266 -0.0734
12127DPPC   C4B15735   3.040   5.826  21.101 -0.3263 -0.1947  0.2114
12128DPPC   NC315736   3.764   4.089  18.689  0.1207 -0.1721  0.0235
12128DPPC   PO415737   3.787   4.457  18.530 -0.2234 -0.1546  0.2139
12128DPPC   GL115738   3.600   4.749  18.805  0.3328 -0.0288  0.1149
12128DPPC   GL215739   3.452   4.874  18.564  0.5452 -0.0578  0.0686
12128DPPC   C1A15740   3.304   4.790  19.065  0.0007 -0.2538  0.1050
12128DPPC   C2A15741   3.013   4.802  19.369 -0.1430  0.0140 -0.2685
12128DPPC   C3A15742   2.720   4.794  19.770  0.0289 -0.0194  0.0414
12128DPPC   C4A15743   2.344   4.870  20.099 -0.0340 -0.3108 -0.3181
12128DPPC   C1B15744   3.068   4.751  18.648  0.0086  0.2500  0.2524
12128DPPC   C2B15745   2.846   4.517  18.937  0.0457  0.0216 -0.1304
12128DPPC   C3B15746   2.557   4.499  19.299 -0.0156  0.0145  0.0966
12128DPPC   C4B15747   2.249   4.569  19.723  0.0167 -0.2865  0.2796
12129DPPC   NC315748   3.092   3.504  17.774 -0.3734 -0.0491  0.0714
12129DPPC   PO415749   2.741   3.343  17.673  0.2391 -0.4165 -0.0246
12129DPPC   GL115750   2.437   3.171  17.953  0.1399 -0.3679 -0.2310
12129DPPC   GL215751   2.433   2.967  17.835  0.1425  0.1808 -0.0779
12129DPPC   C1A15752   2.104   3.125  18.214  0.3115 -0.1281  0.1107
12129DPPC   C2A15753   1.805   3.166  18.509  0.0617  0.1259 -0.1105
12129DPPC   C3A15754   1.565   3.150  18.860  0.2645 -0.2299 -0.0208
12129DPPC   C4A15755   1.275   3.128  19.228 -0.1736  0.0566 -0.1284
12129DPPC   C1B15756   2.334   2.725  18.093 -0.2588 -0.2830 -0.2121
12129DPPC   C2B15757   2.064   2.630  18.379 -0.1667 -0.0426 -0.0302
12129DPPC   C3B15758   1.750   2.673  18.734  0.0155  0.2410  0.1302
12129DPPC   C4B15759   1.460   2.711  19.050  0.1157  0.1727  0.0854
12130DPPC   NC315760   5.834   6.514  20.764  0.1569 -0.1867 -0.1823
12130DPPC   PO415761   5.494   6.676  20.706 -0.0718 -0.0211  0.0701
12130DPPC   GL115762   5.238   6.906  20.908  0.0161 -0.2907 -0.1049
12130DPPC   GL215763   5.061   6.878  20.653 -0.1259  0.1561  0.2094
12130DPPC   C1A15764   4.952   6.859  21.115  0.1080 -0.0932 -0.0803
12130DPPC   C2A15765   4.632   6.837  21.333  0.0545  0.1154  0.2755
12130DPPC   C3A15766   4.271   6.841  21.699  0.1430  0.2957 -0.0713
12130DPPC   C4A15767   3.938   6.854  22.101 -0.2384  0.0840 -0.1751
12130DPPC   C1B15768   4.783   6.685  20.743  0.0765 -0.0096 -0.0274
12130DPPC   C2B15769   4.417   6.509  20.938 -0.0351  0.3119  0.2722
12130DPPC   C3B15770   4.120   6.566  21.274  0.0361 -0.3704  0.1969
12130DPPC   C4B15771   3.806   6.590  21.610 -0.2163  0.0340 -0.3126
12131DPPC   NC315772  19.546   6.099  15.825 -0.1148 -0.0705 -0.3441
12131DPPC   PO415773  19.232   6.352  16.011  0.1962 -0.0955 -0.1777
12131DPPC   GL115774  19.034   6.123  16.218 -0.1011  0.0618 -0.1870
12131DPPC   GL215775  18.740   6.236  16.265  0.5152  0.0537  0.0657
12131DPPC   C1A15776  19.290   6.186  16.516  0.0563  0.0551 -0.0188
12131DPPC   C2A15777  19.491   6.252  16.877 -0.1714 -0.2307  0.1750
12131DPPC   C3A15778  19.740   6.378  17.225  0.0774  0.1119  0.2568
12131DPPC   C4A15779  20.091   6.365  17.620  0.0348  0.0082 -0.0944
12131DPPC   C1B15780  18.814   6.257  16.617  0.1863  0.1440 -0.4324
12131DPPC   C2B15781  18.976   6.247  16.990 -0.3310 -0.2990 -0.1519
12131DPPC   C3B15782  19.314   6.134  17.294 -0.0132  0.0069 -0.0430
12131DPPC   C4B15783  19.728   5.984  17.563  0.0378 -0.1539 -0.2499
12132DPPC   NC315784   2.697   0.517  17.049 -0.0360  0.0983 -0.2970
12132DPPC   PO415785   2.781   0.208  17.329  0.0225 -0.0978 -0.1008
12132DPPC   GL115786   2.468   0.446  17.699 -0.1396  0.1291 -0.1202
12132DPPC   GL215787   2.715   0.233  17.752  0.2580 -0.0310 -0.0567
12132DPPC   C1A15788   2.200   0.423  17.930 -0.2895  0.0583  0.1361
12132DPPC   C2A15789   1.947   0.341  18.255 -0.3210  0.1907  0.2698
12132DPPC   C3A15790   1.615   0.320  18.606  0.1918  0.1511 -0.0123
12132DPPC   C4A15791   1.288   0.333  18.966  0.0760  0.3228 -0.0306
12132DPPC   C1B15792   2.557   0.140  18.069 -0.1862  0.0343 -0.2859
12132DPPC   C2B15793   2.400   0.223  18.391 -0.0848 -0.0729  0.1381
12132DPPC   C3B15794   2.138   0.191  18.733  0.2780  0.2023  0.0401
12132DPPC   C4B15795   1.785   0.183  19.120 -0.1069  0.0121 -0.0943
12133DPPC   NC315796   3.871   1.462  17.896 -0.1287  0.0162  0.2034
12133DPPC   PO415797   3.618   1.722  18.042 -0.0126 -0.0931  0.1470
12133DPPC   GL115798   3.353   1.725  18.351  0.2310  0.1167  0.1784
12133DPPC   GL215799   3.299   2.058  18.212  0.3541  0.2869 -0.1797
12133DPPC   C1A15800   2.983   1.709  18.505 -0.1215 -0.0886 -0.1175
12133DPPC   C2A15801   2.695   1.405  18.613 -0.0273 -0.2761  0.0095
12133DPPC   C3A15802   2.314   1.470  18.913 -0.0007  0.0276  0.1421
12133DPPC   C4A15803   2.008   1.462  19.292  0.0964 -0.2427 -0.2332
12133DPPC   C1B15804   3.057   2.183  18.480 -0.1261 -0.0922 -0.2947
12133DPPC   C2B15805   2.865   2.242  18.820  0.2082  0.2950 -0.0796
12133DPPC   C3B15806   2.581   2.306  19.247  0.3966  0.0456 -0.2305
12133DPPC   C4B15807   2.227   2.328  19.560  0.1081 -0.0606  0.1944
12134DPPC   NC315808   4.294   0.811  19.238 -0.0468 -0.0971  0.2146
12134DPPC   PO415809   3.934   1.009  19.171  0.0040 -0.0587 -0.0214
12134DPPC   GL115810   3.673   1.107  19.440 -0.0835  0.1205  0.1620
12134DPPC   GL215811   3.682   0.888  19.636  0.0773  0.1224  0.4223
12134DPPC   C1A15812   3.470   1.287  19.653 -0.0244 -0.1798 -0.3432
12134DPPC   C2A15813   3.226   1.382  20.005 -0.0981 -0.1025 -0.0069
12134DPPC   C3A15814   2.914   1.423  20.330  0.1719  0.0645 -0.1079
12134DPPC   C4A15815   2.562   1.446  20.740  0.1852 -0.0018 -0.2657
12134DPPC   C1B15816   3.373   0.873  19.844 -0.1218 -0.0257 -0.0413
12134DPPC   C2B15817   3.166   0.914  20.213  0.0436 -0.3234  0.0106
12134DPPC   C3B15818   2.837   0.946  20.613 -0.0303  0.1929  0.1498
12134DPPC   C4B15819   2.515   0.908  21.021 -0.2799 -0.2681 -0.0891
12135DPPC   NC315820  19.416   2.761  16.006  0.2328 -0.2212 -0.0102
12135DPPC   PO415821  19.755   2.751  15.922  0.0194 -0.3783  0.0433
12135DPPC   GL115822  19.853   3.033  16.131 -0.0533 -0.0519  0.0126
12135DPPC   GL215823  19.643   3.119  16.261 -0.0542  0.1148 -0.2542
12135DPPC   C1A15824  19.989   2.886  16.465  0.0908 -0.1887 -0.0044
12135DPPC   C2A15825  20.211   2.735  16.780  0.2720 -0.3706 -0.1920
12135DPPC   C3A15826  20.327   2.376  17.021 -0.0336 -0.2520 -0.2243
12135DPPC   C4A15827  20.593   1.978  16.807 -0.1106  0.1180  0.1122
12135DPPC   C1B15828  19.787   3.232  16.609  0.1352 -0.0836  0.3027
12135DPPC   C2B15829  19.828   3.433  16.979  0.1974 -0.2252  0.0180
12135DPPC   C3B15830  19.997   3.400  17.457  0.0747 -0.1670  0.0627
12135DPPC   C4B15831  20.010   3.300  18.014 -0.0278  0.0099  0.0770
12136DPPC   NC315832   4.235   0.265  18.792  0.1944 -0.2585 -0.1270
12136DPPC   PO415833   3.992   0.599  18.838 -0.0029  0.2009 -0.3610
12136DPPC   GL115834   3.582   0.702  18.969  0.0517 -0.3148  0.0081
12136DPPC   GL215835   3.550   0.435  18.885 -0.0458  0.0241  0.1150
12136DPPC   C1A15836   3.364   0.936  19.179 -0.0790  0.1625  0.0916
12136DPPC   C2A15837   3.126   1.089  19.455  0.2382 -0.2008  0.2338
12136DPPC   C3A15838   2.838   1.066  19.897 -0.0509  0.0838  0.0811
12136DPPC   C4A15839   2.472   1.083  20.251  0.0094  0.1749 -0.1804
12136DPPC   C1B15840   3.206   0.363  18.908 -0.3236  0.0815 -0.1743
12136DPPC   C2B15841   2.939   0.319  19.206  0.2477  0.0722 -0.0635
12136DPPC   C3B15842   2.576   0.289  19.538 -0.0601  0.1240 -0.0862
12136DPPC   C4B15843   2.306   0.341  19.942 -0.0101  0.0564 -0.1036
12137DPPC   NC315844   5.443   0.931  20.255 -0.0633  0.4358  0.1677
12137DPPC   PO415845   5.042   1.011  20.142 -0.2286  0.1759  0.0454
12137DPPC   GL115846   4.753   1.061  20.226  0.0642 -0.0870  0.2549
12137DPPC   GL215847   4.597   1.292  20.351  0.2239 -0.2851 -0.1396
12137DPPC   C1A15848   4.474   0.814  20.391 -0.2222 -0.1495  0.1750
12137DPPC   C2A15849   4.170   0.569  20.583  0.0364 -0.0001  0.1008
12137DPPC   C3A15850   3.767   0.547  20.853 -0.2801 -0.0532  0.0259
12137DPPC   C4A15851   3.455   0.620  21.236  0.2634  0.1164  0.0436
12137DPPC   C1B15852   4.442   1.428  20.636  0.2064 -0.3112 -0.0827
12137DPPC   C2B15853   4.178   1.456  20.930  0.0174  0.0859  0.1753
12137DPPC   C3B15854   3.831   1.426  21.241 -0.0418 -0.0026 -0.3181
12137DPPC   C4B15855   3.545   1.484  21.645 -0.0894  0.1922 -0.0826
12138DPPC   NC315856  15.386   2.044  17.804  0.0405 -0.1096 -0.0446
12138DPPC   PO415857  15.653   1.917  17.559 -0.1378 -0.0278  0.7784
12138DPPC   GL115858  15.919   1.977  17.773 -0.1302 -0.1359 -0.0056
12138DPPC   GL215859  15.788   1.994  18.061 -0.1114 -0.0577 -0.1263
12138DPPC   C1A15860  16.290   1.911  17.958  0.4366  0.1807  0.4410
12138DPPC   C2A15861  16.524   1.984  18.233  0.2010 -0.2239 -0.3378
12138DPPC   C3A15862  16.801   1.981  18.669  0.1061  0.3224 -0.0420
12138DPPC   C4A15863  17.027   1.973  19.105  0.0635 -0.0124 -0.1174
12138DPPC   C1B15864  15.993   2.109  18.289 -0.1566 -0.1490  0.1231
12138DPPC   C2B15865  16.173   2.135  18.668 -0.0696  0.1441  0.0894
12138DPPC   C3B15866  16.436   2.129  19.110 -0.2205 -0.3311 -0.0093
12138DPPC   C4B15867  16.756   2.191  19.463 -0.0676  0.1957  0.0423
12139DPPC   NC315868   5.202   6.063  19.728  0.2421  0.2896  0.0389
12139DPPC   PO415869   5.109   5.934  20.102  0.0686  0.3582  0.1565
12139DPPC   GL115870   4.813   5.660  20.303 -0.1220  0.0399 -0.2157
12139DPPC   GL215871   4.699   5.953  20.417  0.0264 -0.1706  0.0437
12139DPPC   C1A15872   4.616   5.518  20.552 -0.2129 -0.1717 -0.1686
12139DPPC   C2A15873   4.545   5.545  20.992 -0.1545  0.0792  0.2209
12139DPPC   C3A15874   4.178   5.587  21.315  0.1463 -0.2022  0.0174
12139DPPC   C4A15875   3.821   5.573  21.651 -0.1055 -0.0668 -0.2319
12139DPPC   C1B15876   4.451   5.901  20.685  0.3386  0.0125 -0.0991
12139DPPC   C2B15877   4.284   5.990  21.080 -0.0630  0.0945  0.0673
12139DPPC   C3B15878   3.978   6.072  21.428  0.2230 -0.0757 -0.2350
12139DPPC   C4B15879   3.650   6.030  21.761  0.1729  0.1918  0.1474
12140DPPC   NC315880   1.860   2.286  15.775  0.0870 -0.0471  0.2421
12140DPPC   PO415881   1.752   2.157  16.102  0.1942  0.3280  0.1752
12140DPPC   GL115882   1.439   2.061  16.423 -0.1779 -0.1982 -0.0068
12140DPPC   GL215883   1.335   1.869  16.269  0.0524  0.0011 -0.0160
12140DPPC   C1A15884   1.307   1.878  16.691 -0.2834  0.0891 -0.2967
12140DPPC   C2A15885   1.122   1.553  16.917  0.0655 -0.0950  0.3103
12140DPPC   C3A15886   0.899   1.086  17.040 -0.0577 -0.0917  0.1636
12140DPPC   C4A15887   0.586   0.782  17.096 -0.2027  0.0287  0.0185
12140DPPC   C1B15888   1.003   1.721  16.397 -0.1002 -0.2231  0.0716
12140DPPC   C2B15889   0.695   1.537  16.590  0.5267 -0.4415  0.4125
12140DPPC   C3B15890   0.385   1.331  16.919 -0.1519  0.1024 -0.1356
12140DPPC   C4B15891   0.157   1.041  17.242  0.1517  0.1396  0.0802
12141DPPC   NC315892  18.725   1.152  16.154 -0.4185  0.0619  0.0251
12141DPPC   PO415893  18.697   0.793  16.054 -0.2622  0.2779 -0.1458
12141DPPC   GL115894  18.839   0.509  16.392  0.2774 -0.0090  0.0983
12141DPPC   GL215895  18.983   0.840  16.452 -0.0184  0.2212  0.2078
12141DPPC   C1A15896  19.101   0.228  16.372  0.0521  0.1536 -0.2344
12141DPPC   C2A15897  19.422   0.053  16.591 -0.3672  0.0339 -0.2272
12141DPPC   C3A15898  19.818   0.087  16.841 -0.2707 -0.0848 -0.0298
12141DPPC   C4A15899  20.161   0.069  17.128  0.0032 -0.0253  0.1668
12141DPPC   C1B15900  19.150   0.900  16.792 -0.3394  0.1209  0.1502
12141DPPC   C2B15901  19.257   0.849  17.135  0.0275 -0.2373 -0.1327
12141DPPC   C3B15902  19.418   0.832  17.584 -0.3060 -0.1750  0.1058
12141DPPC   C4B15903  19.712   0.760  18.008  0.2603  0.0454  0.1763
12142DPPC   NC315904   3.116   1.283  18.352 -0.0198 -0.0001 -0.1215
12142DPPC   PO415905   3.068   1.333  17.911  0.1010  0.1777  0.0502
12142DPPC   GL115906   2.728   1.331  17.742  0.0651  0.1204  0.1926
12142DPPC   GL215907   2.634   1.107  17.795 -0.2020  0.1782  0.2205
12142DPPC   C1A15908   2.529   1.580  17.923 -0.2029  0.3457  0.2052
12142DPPC   C2A15909   2.302   1.584  18.250 -0.1991 -0.0179 -0.1697
12142DPPC   C3A15910   2.008   1.662  18.590  0.0536 -0.3001 -0.0801
12142DPPC   C4A15911   1.663   1.781  18.940 -0.2789  0.2454  0.0325
12142DPPC   C1B15912   2.456   1.058  18.107 -0.1737 -0.0710 -0.3048
12142DPPC   C2B15913   2.279   1.065  18.447 -0.3517  0.0954 -0.1189
12142DPPC   C3B15914   1.933   1.180  18.811  0.0190 -0.2049  0.2517
12142DPPC   C4B15915   1.636   1.127  19.213  0.1493 -0.0439  0.4052
12143DPPC   NC315916   0.031   2.825  15.758  0.0867 -0.0876 -0.0453
12143DPPC   PO415917   0.176   2.468  15.719 -0.2000  0.0166 -0.0878
12143DPPC   GL115918   0.531   2.596  15.912 -0.1941  0.3601 -0.1369
12143DPPC   GL215919   0.554   2.356  16.005  0.1802  0.2864  0.4423
12143DPPC   C1A15920   0.626   2.843  16.151 -0.1810 -0.4518 -0.2895
12143DPPC   C2A15921   0.584   3.015  16.534  0.2767 -0.4234 -0.1167
12143DPPC   C3A15922   0.286   3.065  16.957  0.3504 -0.0070 -0.3445
12143DPPC   C4A15923  -0.043   2.996  17.346 -0.2722  0.3557  0.0055
12143DPPC   C1B15924   0.464   2.422  16.378  0.1407  0.1052  0.2462
12143DPPC   C2B15925   0.447   2.541  16.794 -0.0846  0.1118 -0.2000
12143DPPC   C3B15926   0.132   2.561  17.128  0.0138 -0.2071 -0.0572
12143DPPC   C4B15927  -0.181   2.537  17.523  0.1228  0.1714 -0.0018
12144DPPC   NC315928   4.552   6.177  18.491  0.1382  0.4200  0.2184
12144DPPC   PO415929   4.249   6.362  18.703 -0.1495 -0.1440 -0.0058
12144DPPC   GL115930   3.888   6.341  18.947  0.1574  0.1091 -0.2583
12144DPPC   GL215931   3.991   6.596  19.072 -0.1103 -0.1658 -0.5165
12144DPPC   C1A15932   3.628   6.268  19.216  0.4720 -0.1451 -0.1521
12144DPPC   C2A15933   3.310   6.202  19.479 -0.0756  0.0978 -0.0997
12144DPPC   C3A15934   3.045   6.231  19.879  0.0904 -0.1050  0.2501
12144DPPC   C4A15935   2.645   6.211  20.182 -0.1463  0.2855  0.0536
12144DPPC   C1B15936   3.798   6.616  19.372 -0.0221  0.0076 -0.1864
12144DPPC   C2B15937   3.631   6.560  19.705  0.0878 -0.1458  0.0196
12144DPPC   C3B15938   3.353   6.490  20.096 -0.0730  0.1010  0.3089
12144DPPC   C4B15939   3.052   6.496  20.454  0.3318 -0.1168  0.0153
12145DPPC   NC315940   4.655   0.658  20.000 -0.1777  0.0121  0.1841
12145DPPC   PO415941   4.529   0.538  19.638 -0.0779 -0.1747 -0.1868
12145DPPC   GL115942   4.074   0.625  19.588  0.1005  0.2829 -0.1238
12145DPPC   GL215943   4.111   0.943  19.618 -0.3948  0.1702  0.0979
12145DPPC   C1A15944   3.814   0.423  19.815  0.4333  0.0634  0.1644
12145DPPC   C2A15945   3.432   0.369  19.870 -0.0787 -0.2186  0.2206
12145DPPC   C3A15946   3.184   0.425  20.273  0.2361 -0.0543 -0.1532
12145DPPC   C4A15947   2.815   0.427  20.588 -0.2571  0.1392 -0.4106
12145DPPC   C1B15948   3.930   1.092  19.905  0.0938  0.1321 -0.0004
12145DPPC   C2B15949   3.653   1.097  20.189  0.3232 -0.1180  0.0512
12145DPPC   C3B15950   3.339   1.226  20.569  0.0947  0.1706  0.0661
12145DPPC   C4B15951   3.036   1.299  20.897  0.2887  0.0768  0.0432
12146DPPC   NC315952   3.455   6.436  18.394  0.1735 -0.4665 -0.0406
12146DPPC   PO415953   3.739   6.613  18.617  0.2263 -0.2626 -0.0164
12146DPPC   GL115954   3.474   6.617  18.948 -0.1965  0.3695 -0.0243
12146DPPC   GL215955   3.247   6.545  18.780 -0.1177 -0.0326  0.1101
12146DPPC   C1A15956   3.356   6.643  19.302  0.0312 -0.1472 -0.0726
12146DPPC   C2A15957   3.106   6.673  19.655  0.1093 -0.3732  0.0014
12146DPPC   C3A15958   2.826   6.753  20.069  0.1301  0.1674  0.1539
12146DPPC   C4A15959   2.456   6.670  20.401  0.4307  0.1919  0.0261
12146DPPC   C1B15960   2.950   6.403  19.002  0.0586 -0.0471  0.0653
12146DPPC   C2B15961   2.805   6.387  19.421 -0.0810 -0.0616  0.2447
12146DPPC   C3B15962   2.437   6.341  19.708 -0.0972 -0.0973 -0.3927
12146DPPC   C4B15963   2.092   6.373  20.043 -0.1463  0.0196  0.1981
12147DPPC   NC315964   3.084   0.005  17.603 -0.0440 -0.0127 -0.1048
12147DPPC   PO415965   3.182  -0.146  17.930 -0.3678 -0.1419 -0.2620
12147DPPC   GL115966   3.010  -0.077  18.278 -0.1185  0.2104 -0.0381
12147DPPC   GL215967   2.980  -0.400  18.329 -0.1199  0.3030 -0.0268
12147DPPC   C1A15968   2.848   0.012  18.562 -0.0520 -0.1943 -0.1191
12147DPPC   C2A15969   2.579   0.006  18.870  0.1470 -0.0332  0.2905
12147DPPC   C3A15970   2.300  -0.010  19.298 -0.1186 -0.0673  0.2062
12147DPPC   C4A15971   1.970   0.006  19.606  0.0734  0.0887 -0.0936
12147DPPC   C1B15972   2.819  -0.446  18.662  0.0648 -0.0083  0.2897
12147DPPC   C2B15973   2.590  -0.484  18.987 -0.1240 -0.1433  0.1166
12147DPPC   C3B15974   2.275  -0.467  19.308  0.2765 -0.1826 -0.1338
12147DPPC   C4B15975   1.954  -0.509  19.636  0.0577 -0.1485  0.1654
12148DPPC   NC315976   3.037   1.182  17.473  0.1354 -0.1066  0.1767
12148DPPC   PO415977   2.682   1.052  17.307  0.0691  0.3103 -0.3194
12148DPPC   GL115978   2.373   0.838  17.499 -0.1900 -0.2674  0.1339
12148DPPC   GL215979   2.349   0.625  17.328  0.0863  0.2525 -0.0598
12148DPPC   C1A15980   2.248   0.832  17.827 -0.1417  0.3707  0.1293
12148DPPC   C2A15981   2.008   0.816  18.157  0.1198  0.1734 -0.1975
12148DPPC   C3A15982   1.654   0.864  18.512 -0.1678 -0.4807  0.0720
12148DPPC   C4A15983   1.320   0.822  18.865  0.2347 -0.2280 -0.2508
12148DPPC   C1B15984   2.070   0.522  17.556 -0.0207  0.0917 -0.2600
12148DPPC   C2B15985   1.736   0.543  17.807  0.1701 -0.1681 -0.1341
12148DPPC   C3B15986   1.479   0.551  18.214  0.0546  0.2543 -0.0405
12148DPPC   C4B15987   1.124   0.514  18.481  0.3153 -0.0555 -0.0041
12149DPPC   NC315988   4.229   5.473  19.077  0.0842 -0.0674 -0.3871
12149DPPC   PO415989   4.108   5.092  19.043  0.0580 -0.0654 -0.0760
12149DPPC   GL115990   3.908   5.118  19.443 -0.0433  0.2646  0.0768
12149DPPC   GL215991   3.640   5.020  19.233 -0.2041  0.0509 -0.0633
12149DPPC   C1A15992   3.790   5.030  19.757  0.4824 -0.1485 -0.2836
12149DPPC   C2A15993   3.522   4.997  20.062  0.1752  0.2608  0.0997
12149DPPC   C3A15994   3.220   5.064  20.400 -0.0370  0.0048  0.0385
12149DPPC   C4A15995   2.927   5.003  20.833 -0.2303 -0.4990 -0.0123
12149DPPC   C1B15996   3.403   5.021  19.483 -0.1510 -0.0525  0.2549
12149DPPC   C2B15997   3.097   5.130  19.795 -0.0293 -0.0098  0.1160
12149DPPC   C3B15998   2.796   5.200  20.171 -0.0045  0.1688  0.0876
12149DPPC   C4B15999   2.461   5.130  20.538  0.1871  0.0804  0.2141
12150DPPC   NC316000   3.580   5.695  18.619 -0.1910  0.2969 -0.5717
12150DPPC   PO416001   3.831   5.781  18.812 -0.3477  0.0009 -0.0958
12150DPPC   GL116002   3.639   5.850  19.150  0.0886 -0.1007 -0.0380
12150DPPC   GL216003   3.410   5.655  19.064 -0.0234  0.3960 -0.0691
12150DPPC   C1A16004   3.672   5.918  19.525  0.2670 -0.0170 -0.1672
12150DPPC   C2A16005   3.471   5.963  19.904 -0.2441 -0.0448 -0.1654
12150DPPC   C3A16006   3.184   6.027  20.307 -0.1240  0.0271 -0.1263
12150DPPC   C4A16007   2.848   6.041  20.646  0.1936 -0.1396  0.0407
12150DPPC   C1B16008   3.337   5.584  19.426 -0.1413  0.2070 -0.0552
12150DPPC   C2B16009   3.098   5.688  19.741  0.1401  0.0995  0.0533
12150DPPC   C3B16010   2.845   5.688  20.121 -0.1918  0.4400 -0.1690
12150DPPC   C4B16011   2.486   5.707  20.441 -0.1161 -0.1198 -0.1312
12151DPPC   NC316012   5.548   2.862  19.960 -0.0880  0.2230 -0.0056
12151DPPC   PO416013   5.223   3.096  19.858 -0.4732 -0.0778 -0.0853
12151DPPC   GL116014   4.926   3.215  20.141 -0.0863 -0.0362  0.1364
12151DPPC   GL216015   4.734   3.030  20.036 -0.0248 -0.0258  0.0645
12151DPPC   C1A16016   4.864   3.240  20.490  0.0912 -0.1855 -0.1266
12151DPPC   C2A16017   4.574   3.308  20.784 -0.0950  0.1673 -0.1663
12151DPPC   C3A16018   4.338   3.298  21.172  0.0947  0.0779 -0.1674
12151DPPC   C4A16019   3.919   3.191  21.494 -0.0366  0.1362  0.0725
12151DPPC   C1B16020   4.446   2.930  20.315 -0.1444 -0.1851 -0.0581
12151DPPC   C2B16021   4.225   2.878  20.652  0.1693  0.0558 -0.2300
12151DPPC   C3B16022   3.913   2.889  21.025 -0.2434  0.4755  0.2259
12151DPPC   C4B16023   3.553   2.868  21.422  0.2537 -0.0538 -0.1254
12152DPPC   NC316024   3.204   5.825  17.445  0.3403  0.0681  0.2065
12152DPPC   PO416025   2.941   6.092  17.581  0.2092  0.1242 -0.2131
12152DPPC   GL116026   2.796   6.159  17.957 -0.0511  0.1099  0.2768
12152DPPC   GL216027   2.641   5.877  17.908  0.0626 -0.1509  0.1051
12152DPPC   C1A16028   2.596   6.268  18.216 -0.2218  0.1181  0.0838
12152DPPC   C2A16029   2.335   6.287  18.544 -0.2479 -0.1304  0.3662
12152DPPC   C3A16030   1.974   6.342  18.895  0.2784  0.2026 -0.1963
12152DPPC   C4A16031   1.727   6.318  19.250  0.2676  0.2278  0.1176
12152DPPC   C1B16032   2.360   5.946  18.156  0.2166  0.1116  0.2223
12152DPPC   C2B16033   2.018   5.918  18.383  0.0113  0.1230  0.3997
12152DPPC   C3B16034   1.676   5.929  18.714  0.2062 -0.2016  0.0194
12152DPPC   C4B16035   1.384   5.993  19.092 -0.0638 -0.0966  0.0053
12153DPPC   NC316036   3.093   4.551  17.765 -0.0153 -0.1049  0.2457
12153DPPC   PO416037   3.145   4.275  17.999 -0.2539 -0.0806  0.2652
12153DPPC   GL116038   2.809   4.386  18.195 -0.1472 -0.3046 -0.1731
12153DPPC   GL216039   2.864   4.672  18.259 -0.0525  0.1018  0.0668
12153DPPC   C1A16040   2.617   4.307  18.475  0.2157 -0.0670  0.4771
12153DPPC   C2A16041   2.479   4.210  18.862  0.0895 -0.0471 -0.1675
12153DPPC   C3A16042   2.127   4.251  19.242 -0.1357 -0.1250 -0.2142
12153DPPC   C4A16043   1.901   4.144  19.697  0.0556 -0.1551  0.1612
12153DPPC   C1B16044   2.611   4.768  18.494  0.3036  0.2354 -0.0682
12153DPPC   C2B16045   2.407   4.751  18.856 -0.0119  0.0242  0.0820
12153DPPC   C3B16046   2.106   4.776  19.185 -0.0790  0.3268 -0.1354
12153DPPC   C4B16047   1.773   4.771  19.587 -0.1915 -0.0482 -0.0564
12154DPPC   NC316048  18.114   0.102  16.692  0.0917  0.2517  0.4541
12154DPPC   PO416049  17.991   0.432  16.585 -0.0312 -0.2745 -0.2823
12154DPPC   GL116050  18.269   0.718  16.610  0.2071  0.4050  0.3075
12154DPPC   GL216051  18.493   0.742  16.509 -0.0927 -0.0755 -0.0817
12154DPPC   C1A16052  18.464   0.550  16.888 -0.2606  0.0366 -0.4249
12154DPPC   C2A16053  18.723   0.465  17.270  0.1790  0.3721 -0.1976
12154DPPC   C3A16054  19.089   0.447  17.591  0.0261  0.1406 -0.0389
12154DPPC   C4A16055  19.333   0.445  17.983  0.3853 -0.3729  0.1394
12154DPPC   C1B16056  18.673   0.916  16.758 -0.1475 -0.1161  0.2241
12154DPPC   C2B16057  18.678   0.965  17.161  0.0928  0.0587  0.3521
12154DPPC   C3B16058  18.897   0.960  17.566  0.0712 -0.0909  0.0588
12154DPPC   C4B16059  19.174   0.994  17.979 -0.0597 -0.1551 -0.1506
12155DPPC   NC316060   4.709   5.728  19.826 -0.0208 -0.2498 -0.1545
12155DPPC   PO416061   4.961   5.442  19.960  0.1404 -0.3306 -0.0924
12155DPPC   GL116062   4.664   5.153  20.114  0.0027  0.3756 -0.2648
12155DPPC   GL216063   4.488   5.293  19.907  0.2259  0.2510  0.0615
12155DPPC   C1A16064   4.405   5.182  20.404 -0.1455  0.1891  0.0724
12155DPPC   C2A16065   4.086   5.203  20.695 -0.1559 -0.1296 -0.0330
12155DPPC   C3A16066   3.799   5.226  21.038 -0.1671 -0.3530 -0.1423
12155DPPC   C4A16067   3.445   5.257  21.381 -0.0238 -0.2921 -0.1174
12155DPPC   C1B16068   4.360   5.564  20.137 -0.4149  0.0827  0.5935
12155DPPC   C2B16069   4.139   5.657  20.460 -0.2250  0.2185  0.1310
12155DPPC   C3B16070   3.901   5.771  20.863 -0.0243  0.1775  0.1462
12155DPPC   C4B16071   3.622   5.699  21.196 -0.0149 -0.0849 -0.2562
12156DPPC   NC316072  16.359   4.326  16.945  0.0517  0.1360  0.1913
12156DPPC   PO416073  16.729   4.177  16.878  0.0778  0.2101 -0.2690
12156DPPC   GL116074  16.932   4.078  17.256  0.4042  0.2564 -0.0282
12156DPPC   GL216075  17.020   3.787  17.257 -0.2993  0.2801  0.1565
12156DPPC   C1A16076  17.039   4.390  17.466  0.0196 -0.1614 -0.0621
12156DPPC   C2A16077  17.086   4.787  17.477  0.0011  0.1030  0.1261
12156DPPC   C3A16078  16.947   5.314  17.491  0.1782  0.0179 -0.3673
12156DPPC   C4A16079  16.682   5.664  17.501  0.0478  0.0906 -0.2520
12156DPPC   C1B16080  17.062   3.452  17.462 -0.2547 -0.0377  0.0090
12156DPPC   C2B16081  16.990   3.140  17.739 -0.0348  0.0647  0.3310
12156DPPC   C3B16082  16.888   2.791  18.109  0.0776 -0.5555 -0.2617
12156DPPC   C4B16083  17.006   2.675  18.545 -0.1253 -0.2137  0.5150
12157DPPC   NC316084   4.633   4.006  19.298  0.0018 -0.2354 -0.1968
12157DPPC   PO416085   4.387   3.822  19.056 -0.1696 -0.2412  0.1901
12157DPPC   GL116086   4.018   3.995  19.163  0.0185 -0.5295  0.0724
12157DPPC   GL216087   4.170   4.135  19.426 -0.0652  0.1914 -0.0555
12157DPPC   C1A16088   3.707   3.832  19.180 -0.2685  0.3853  0.3216
12157DPPC   C2A16089   3.321   3.827  19.310  0.0965 -0.0613 -0.2148
12157DPPC   C3A16090   2.936   3.840  19.702 -0.0509 -0.1753 -0.0480
12157DPPC   C4A16091   2.634   3.850  20.106 -0.1568  0.2949 -0.0778
12157DPPC   C1B16092   3.987   4.105  19.742  0.1808 -0.4835  0.0761
12157DPPC   C2B16093   3.818   4.074  20.106 -0.2697 -0.0052 -0.0885
12157DPPC   C3B16094   3.517   4.084  20.446 -0.1646 -0.0602  0.3131
12157DPPC   C4B16095   3.186   4.058  20.786  0.0233  0.1263  0.0276
12158DPPC   NC316096  15.515   1.538  17.120 -0.2591 -0.0291 -0.1767
12158DPPC   PO416097  15.664   1.386  17.428  0.0513 -0.1711  0.2192
12158DPPC   GL116098  15.974   1.095  17.534  0.4210 -0.2143 -0.0520
12158DPPC   GL216099  15.807   1.042  17.776 -0.1205 -0.2136  0.2533
12158DPPC   C1A16100  16.302   1.202  17.720  0.1451 -0.2324  0.1980
12158DPPC   C2A16101  16.493   1.363  18.067  0.0382  0.1896  0.0144
12158DPPC   C3A16102  16.728   1.482  18.490  0.0041 -0.0957  0.4774
12158DPPC   C4A16103  16.942   1.422  18.861 -0.0543 -0.1001 -0.1667
12158DPPC   C1B16104  15.958   1.329  17.977  0.1936 -0.0548 -0.3266
12158DPPC   C2B16105  16.060   1.619  18.249 -0.1575  0.1690 -0.0493
12158DPPC   C3B16106  16.287   1.655  18.634  0.0915  0.2490 -0.3365
12158DPPC   C4B16107  16.482   1.618  19.099  0.2589  0.0485 -0.2010
12159DPPC   NC316108   3.279   2.643  17.706  0.1836  0.1475  0.1221
12159DPPC   PO416109   3.311   3.036  17.745 -0.1143  0.0203 -0.0577
12159DPPC   GL116110   3.038   3.126  18.038  0.0509  0.0418 -0.0486
12159DPPC   GL216111   2.842   2.937  17.990 -0.2849  0.1322 -0.1387
12159DPPC   C1A16112   2.807   3.313  18.238  0.0355 -0.0625 -0.0964
12159DPPC   C2A16113   2.504   3.442  18.458 -0.0216 -0.0919  0.1983
12159DPPC   C3A16114   2.177   3.467  18.724  0.1059  0.2308  0.3215
12159DPPC   C4A16115   1.855   3.479  19.088 -0.1898  0.0502 -0.2496
12159DPPC   C1B16116   2.675   2.886  18.318 -0.2867  0.1973 -0.3033
12159DPPC   C2B16117   2.408   2.943  18.612 -0.1904  0.1720 -0.1747
12159DPPC   C3B16118   2.081   3.061  18.964  0.2054  0.1437 -0.0643
12159DPPC   C4B16119   1.778   3.003  19.285 -0.0281  0.1818  0.3172
12160DPPC   NC316120   2.643   3.913  16.846 -0.1534  0.2419 -0.1380
12160DPPC   PO416121   2.491   3.534  16.818 -0.1014 -0.0263  0.3979
12160DPPC   GL116122   2.276   3.568  17.171  0.3533  0.1177 -0.0738
12160DPPC   GL216123   2.140   3.316  17.135 -0.1497  0.2379  0.3084
12160DPPC   C1A16124   2.094   3.769  17.421 -0.2453 -0.4971  0.0572
12160DPPC   C2A16125   1.855   3.709  17.773  0.0678  0.1093 -0.0878
12160DPPC   C3A16126   1.487   3.755  18.088 -0.2337 -0.0331  0.0964
12160DPPC   C4A16127   1.183   3.811  18.528  0.0605  0.2315  0.0799
12160DPPC   C1B16128   1.828   3.315  17.283 -0.6927  0.2201  0.2928
12160DPPC   C2B16129   1.614   3.063  17.558  0.0877  0.0221  0.2293
12160DPPC   C3B16130   1.308   3.375  17.759  0.0153 -0.0747  0.0059
12160DPPC   C4B16131   0.964   3.642  18.053 -0.0240 -0.1271  0.0094
12161DPPC   NC316132  18.674   3.291  16.026 -0.3597 -0.3611  0.1275
12161DPPC   PO416133  18.347   3.178  16.232 -0.3768 -0.1207  0.3346
12161DPPC   GL116134  18.589   3.330  16.557 -0.1272  0.2377 -0.1656
12161DPPC   GL216135  18.393   3.591  16.505 -0.1380 -0.2633 -0.0297
12161DPPC   C1A16136  18.920   3.269  16.750  0.1460  0.0832 -0.0009
12161DPPC   C2A16137  19.282   3.138  16.944  0.0666  0.1444  0.2697
12161DPPC   C3A16138  19.575   3.111  17.342  0.0188 -0.4300 -0.2153
12161DPPC   C4A16139  19.606   3.094  17.800 -0.2016  0.2277  0.0839
12161DPPC   C1B16140  18.244   3.816  16.812 -0.0987 -0.0891 -0.0771
12161DPPC   C2B16141  18.060   3.930  17.190 -0.0086 -0.0144 -0.0336
12161DPPC   C3B16142  18.299   3.963  17.636  0.0940 -0.1287  0.0246
12161DPPC   C4B16143  18.670   3.974  17.999  0.0172 -0.4908 -0.3811
12162DPPC   NC316144  15.176   2.955  17.456  0.1775  0.2788 -0.0468
12162DPPC   PO416145  15.488   3.183  17.397  0.2250  0.2968 -0.1143
12162DPPC   GL116146  15.886   3.287  17.674 -0.0605  0.1364  0.1806
12162DPPC   GL216147  15.858   3.011  17.658  0.0336  0.3011 -0.0641
12162DPPC   C1A16148  16.001   3.475  17.978 -0.0692 -0.0299  0.0361
12162DPPC   C2A16149  16.246   3.483  18.310  0.0201 -0.1457 -0.3410
12162DPPC   C3A16150  16.495   3.484  18.703 -0.0362 -0.1611 -0.0056
12162DPPC   C4A16151  16.768   3.418  19.052 -0.0584  0.1026  0.0317
12162DPPC   C1B16152  16.088   2.930  17.889 -0.1394  0.4372 -0.4610
12162DPPC   C2B16153  16.318   2.909  18.220 -0.1154 -0.1046  0.0177
12162DPPC   C3B16154  16.600   2.912  18.609 -0.0621 -0.0297 -0.0371
12162DPPC   C4B16155  16.836   2.908  19.018 -0.4790 -0.2524 -0.0632
12163DPPC   NC316156   4.167   1.357  19.526 -0.2123 -0.1866 -0.1060
12163DPPC   PO416157   4.220   1.414  19.126 -0.1243  0.0081 -0.2030
12163DPPC   GL116158   3.932   1.666  19.189 -0.1483 -0.1069  0.0333
12163DPPC   GL216159   3.754   1.502  19.118  0.1414  0.1114 -0.0094
12163DPPC   C1A16160   3.754   1.651  19.505  0.2940  0.4815  0.2669
12163DPPC   C2A16161   3.740   1.597  19.938  0.3361 -0.1751  0.3564
12163DPPC   C3A16162   3.435   1.714  20.293  0.0901 -0.2480  0.3514
12163DPPC   C4A16163   3.168   1.764  20.668 -0.3889 -0.1754  0.1646
12163DPPC   C1B16164   3.407   1.486  19.207 -0.0123 -0.2261 -0.4561
12163DPPC   C2B16165   3.114   1.574  19.486 -0.5476  0.0708 -0.2488
12163DPPC   C3B16166   2.775   1.634  19.722  0.1234 -0.2255  0.0709
12163DPPC   C4B16167   2.500   1.560  20.119 -0.1491 -0.3984  0.3371
12164DPPC   NC316168   5.432   3.908  19.886 -0.1739 -0.0412 -0.0537
12164DPPC   PO416169   5.188   3.626  20.033 -0.1918  0.0301  0.2364
12164DPPC   GL116170   4.811   3.746  20.135 -0.1646 -0.1269  0.1106
12164DPPC   GL216171   4.611   3.486  20.118 -0.1479 -0.0064 -0.4788
12164DPPC   C1A16172   4.697   4.053  20.317 -0.1426  0.1588 -0.0903
12164DPPC   C2A16173   4.546   4.247  20.618  0.1635 -0.1333 -0.0749
12164DPPC   C3A16174   4.173   4.283  20.950  0.2143  0.0588 -0.0049
12164DPPC   C4A16175   3.779   4.267  21.316 -0.3266  0.0786  0.3501
12164DPPC   C1B16176   4.334   3.421  20.343 -0.4082  0.3014 -0.6329
12164DPPC   C2B16177   4.098   3.355  20.675  0.1034  0.2829  0.0218
12164DPPC   C3B16178   3.777   3.387  21.014  0.1871 -0.1506  0.1081
12164DPPC   C4B16179   3.474   3.393  21.417  0.0605  0.1002  0.0598
12165DPPC   NC316180   4.423   2.424  18.981  0.2881 -0.2303 -0.2405
12165DPPC   PO416181   4.428   2.628  19.323 -0.1822 -0.0457  0.0199
12165DPPC   GL116182   4.236   2.680  19.666  0.1436  0.4206 -0.0195
12165DPPC   GL216183   4.487   2.652  19.847 -0.1406  0.1143  0.2002
12165DPPC   C1A16184   3.916   2.791  19.740  0.0266 -0.1889 -0.3581
12165DPPC   C2A16185   3.591   2.774  19.953  0.2802 -0.2205 -0.0930
12165DPPC   C3A16186   3.270   2.788  20.324 -0.0172 -0.2047 -0.1356
12165DPPC   C4A16187   2.974   2.773  20.676 -0.1567 -0.0691  0.0398
12165DPPC   C1B16188   4.221   2.590  20.080 -0.1024 -0.1768  0.0941
12165DPPC   C2B16189   3.877   2.598  20.353  0.1482  0.1879  0.0505
12165DPPC   C3B16190   3.497   2.546  20.753 -0.1636  0.0936  0.3921
12165DPPC   C4B16191   3.207   2.592  21.147  0.0483  0.0405 -0.0331
12166DPPC   NC316192   2.670   3.263  17.168  0.0898  0.2024 -0.0744
12166DPPC   PO416193   2.444   2.991  17.348 -0.1283 -0.3914 -0.2322
12166DPPC   GL116194   2.284   3.260  17.538 -0.0063  0.0663  0.1014
12166DPPC   GL216195   2.329   3.523  17.655  0.0614 -0.1201  0.1575
12166DPPC   C1A16196   1.975   3.182  17.760 -0.1127  0.0008  0.1597
12166DPPC   C2A16197   1.685   3.235  18.032 -0.0842  0.1062 -0.1747
12166DPPC   C3A16198   1.270   3.295  18.356 -0.0638  0.0224 -0.0117
12166DPPC   C4A16199   1.080   3.336  18.743  0.2660 -0.0158 -0.3164
12166DPPC   C1B16200   2.238   3.563  18.033  0.1372 -0.0998  0.1892
12166DPPC   C2B16201   1.945   3.622  18.268  0.3103 -0.0740  0.1625
12166DPPC   C3B16202   1.629   3.575  18.619 -0.0341  0.0496  0.4230
12166DPPC   C4B16203   1.328   3.623  19.020 -0.1290  0.0026  0.2763
12167DPPC   NC316204   0.599   2.322  15.524 -0.0068 -0.1110  0.1802
12167DPPC   PO416205   0.925   2.322  15.766  0.0547  0.2285 -0.1199
12167DPPC   GL116206   0.981   2.503  16.139 -0.1825 -0.0392  0.0584
12167DPPC   GL216207   0.908   2.201  16.334  0.1234  0.2177  0.0753
12167DPPC   C1A16208   0.873   2.647  16.503 -0.0082 -0.1420  0.0584
12167DPPC   C2A16209   0.889   2.775  16.911  0.2254  0.0218  0.0604
12167DPPC   C3A16210   0.804   2.475  17.329 -0.2063 -0.2168 -0.1537
12167DPPC   C4A16211   0.735   2.069  17.549  0.3072  0.1020  0.1438
12167DPPC   C1B16212   0.636   2.064  16.530  0.0300  0.0827  0.4793
12167DPPC   C2B16213   0.390   2.047  16.885  0.2201 -0.2693  0.2238
12167DPPC   C3B16214   0.183   2.022  17.306  0.0481  0.3205  0.1974
12167DPPC   C4B16215  -0.111   2.110  17.731 -0.1489  0.2015  0.0367
12168DPPC   NC316216   3.752   0.460  18.400  0.3556  0.2310  0.0729
12168DPPC   PO416217   3.602   0.831  18.535 -0.3344 -0.1765  0.1362
12168DPPC   GL116218   3.218   0.739  18.715  0.0201 -0.1468 -0.2564
12168DPPC   GL216219   3.110   0.870  18.486 -0.1737 -0.0178 -0.3309
12168DPPC   C1A16220   2.980   0.775  19.026 -0.1147  0.1007  0.0981
12168DPPC   C2A16221   2.755   0.745  19.356  0.1101  0.0302  0.4196
12168DPPC   C3A16222   2.460   0.815  19.632  0.0158  0.0477 -0.1990
12168DPPC   C4A16223   2.146   0.817  20.038 -0.1083  0.3231  0.1777
12168DPPC   C1B16224   2.792   0.954  18.531  0.1877  0.0223 -0.0931
12168DPPC   C2B16225   2.540   0.972  18.900 -0.1529 -0.1877 -0.1231
12168DPPC   C3B16226   2.184   0.903  19.178 -0.1892 -0.0606 -0.1884
12168DPPC   C4B16227   1.945   0.930  19.576  0.0439  0.0746 -0.1505
12169DPPC   NC316228  20.840   5.485  15.722 -0.2061 -0.0652  0.0752
12169DPPC   PO416229  20.597   5.163  15.803  0.2510  0.0005 -0.0611
12169DPPC   GL116230  20.584   5.134  16.256 -0.3760 -0.1009  0.0862
12169DPPC   GL216231  20.607   4.884  16.191  0.2196 -0.2408 -0.1560
12169DPPC   C1A16232  20.353   5.184  16.575  0.1923  0.1261  0.1307
12169DPPC   C2A16233  20.287   5.107  16.984  0.2082  0.0191 -0.1031
12169DPPC   C3A16234  20.307   4.641  17.121 -0.1394 -0.0159  0.0154
12169DPPC   C4A16235  20.334   4.197  17.339 -0.2598  0.1255 -0.2987
12169DPPC   C1B16236  20.418   4.587  16.251  0.2694  0.0351  0.2080
12169DPPC   C2B16237  20.089   4.282  16.324 -0.0494  0.0487 -0.1023
12169DPPC   C3B16238  19.754   3.892  16.432  0.0662 -0.1438  0.1832
12169DPPC   C4B16239  19.436   3.553  16.504 -0.2726 -0.0562 -0.0762
12170DPPC   NC316240   1.863   2.514  16.499 -0.0432 -0.0464  0.0822
12170DPPC   PO416241   2.099   2.554  16.810 -0.1103 -0.0391 -0.2058
12170DPPC   GL116242   2.101   2.699  17.200 -0.1860 -0.0652 -0.2211
12170DPPC   GL216243   1.949   2.933  17.147 -0.0205  0.2518 -0.0884
12170DPPC   C1A16244   1.953   2.703  17.530 -0.1726 -0.0224 -0.0499
12170DPPC   C2A16245   1.821   2.742  17.934  0.2739 -0.1745  0.1853
12170DPPC   C3A16246   1.500   2.798  18.291  0.4876 -0.0446  0.1126
12170DPPC   C4A16247   1.145   2.844  18.608 -0.1285  0.1536  0.4412
12170DPPC   C1B16248   1.593   2.806  17.168 -0.2012  0.0840  0.1394
12170DPPC   C2B16249   1.280   2.620  17.155 -0.1813 -0.0099  0.1183
12170DPPC   C3B16250   1.273   2.109  17.278  0.2035  0.0145 -0.0924
12170DPPC   C4B16251   1.177   1.632  17.408 -0.2888 -0.0182 -0.3598
12171DPPC   NC316252  20.434   2.853  15.546  0.2433  0.1505 -0.2192
12171DPPC   PO416253  20.730   2.703  15.782 -0.1247  0.0395 -0.0719
12171DPPC   GL116254  20.665   2.597  16.134 -0.2567  0.1079 -0.0507
12171DPPC   GL216255  20.748   2.341  16.133  0.1570 -0.0193 -0.0419
12171DPPC   C1A16256  20.554   2.889  16.288 -0.0409 -0.2184 -0.0404
12171DPPC   C2A16257  20.572   3.087  16.572 -0.1037  0.1292 -0.2469
12171DPPC   C3A16258  20.417   3.391  16.888 -0.1220 -0.0085  0.1331
12171DPPC   C4A16259  20.365   3.718  17.243 -0.4823  0.3000  0.0075
12171DPPC   C1B16260  20.504   2.065  16.263 -0.1615 -0.0940  0.0672
12171DPPC   C2B16261  20.251   1.765  16.322 -0.1641 -0.2392  0.0636
12171DPPC   C3B16262  20.070   1.343  16.377  0.0344  0.1878 -0.1164
12171DPPC   C4B16263  20.026   0.912  16.501 -0.0986  0.2476 -0.0065
12172DPPC   NC316264   5.190   2.247  19.409 -0.1897  0.1593 -0.2101
12172DPPC   PO416265   5.017   1.948  19.704  0.0040  0.0187  0.4448
12172DPPC   GL116266   4.761   2.109  19.947 -0.2370 -0.1155  0.1599
12172DPPC   GL216267   4.927   2.070  20.236  0.0670 -0.2110  0.2887
12172DPPC   C1A16268   4.374   2.144  20.030 -0.3451  0.1963 -0.1569
12172DPPC   C2A16269   3.995   2.089  20.171  0.1607 -0.1411 -0.0283
12172DPPC   C3A16270   3.782   2.086  20.596  0.0941 -0.0431  0.0093
12172DPPC   C4A16271   3.470   2.061  20.960 -0.1455  0.2862  0.0833
12172DPPC   C1B16272   4.700   2.074  20.491  0.2597  0.1146 -0.1697
12172DPPC   C2B16273   4.634   2.261  20.886 -0.0968 -0.2594  0.0983
12172DPPC   C3B16274   4.283   2.289  21.274  0.0226  0.1179 -0.4710
12172DPPC   C4B16275   4.009   2.261  21.670 -0.1809  0.0057 -0.2375
12173DPPC   NC316276   4.892   3.381  19.654 -0.1835 -0.1409  0.0899
12173DPPC   PO416277   4.821   3.779  19.678  0.0036  0.0330 -0.0038
12173DPPC   GL116278   4.510   3.861  19.897  0.0868 -0.1473  0.1859
12173DPPC   GL216279   4.445   4.108  19.840  0.4039  0.2979 -0.1570
12173DPPC   C1A16280   4.302   3.825  20.246 -0.0311 -0.2078  0.0039
12173DPPC   C2A16281   4.027   3.938  20.582  0.0547  0.1778  0.0612
12173DPPC   C3A16282   3.652   3.849  20.938  0.0022  0.1278 -0.0940
12173DPPC   C4A16283   3.278   3.920  21.289 -0.0067 -0.2460 -0.0000
12173DPPC   C1B16284   4.260   4.274  20.130 -0.0282 -0.0284  0.1779
12173DPPC   C2B16285   3.998   4.405  20.450 -0.1629 -0.0040  0.0932
12173DPPC   C3B16286   3.685   4.414  20.826 -0.0333 -0.2265  0.0184
12173DPPC   C4B16287   3.352   4.408  21.144  0.0314  0.0822 -0.5780
12174DPPC   NC316288   4.725   3.012  19.096  0.0933  0.1973 -0.2112
12174DPPC   PO416289   4.370   2.951  18.914  0.0001 -0.1023  0.1697
12174DPPC   GL116290   4.067   2.924  19.246  0.1812  0.3533 -0.2568
12174DPPC   GL216291   4.009   2.634  19.173 -0.0575  0.0856 -0.1650
12174DPPC   C1A16292   3.761   3.089  19.312 -0.1144 -0.1240  0.4954
12174DPPC   C2A16293   3.408   2.950  19.474 -0.1803  0.0855  0.1575
12174DPPC   C3A16294   3.151   2.966  19.881 -0.2164  0.0348  0.0169
12174DPPC   C4A16295   2.771   2.867  20.172  0.1113  0.1999  0.0394
12174DPPC   C1B16296   3.679   2.570  19.428  0.1501  0.1741  0.0807
12174DPPC   C2B16297   3.341   2.496  19.635 -0.1641  0.1283  0.0082
12174DPPC   C3B16298   3.014   2.504  20.014 -0.0519  0.0373 -0.1499
12174DPPC   C4B16299   2.680   2.391  20.380 -0.1839  0.1184  0.0562
12175DPPS   CNO16300   4.605   4.218  18.848  0.1336 -0.0012  0.2792
12175DPPS   PO416301   4.208   4.299  18.844 -0.2442 -0.1187 -0.1129
12175DPPS   GL116302   3.900   4.564  19.093  0.2638  0.2499 -0.2188
12175DPPS   GL216303   3.725   4.327  19.123  0.1718 -0.1781 -0.1326
12175DPPS   C1A16304   3.807   4.656  19.461  0.1539  0.1170 -0.0845
12175DPPS   C2A16305   3.457   4.614  19.715 -0.0559  0.0781 -0.0847
12175DPPS   C3A16306   3.096   4.626  20.024  0.1545 -0.1065  0.0148
12175DPPS   C4A16307   2.791   4.706  20.395 -0.0828  0.2016  0.2472
12175DPPS   C1B16308   3.685   4.235  19.487  0.0015  0.0325  0.3788
12175DPPS   C2B16309   3.404   4.141  19.809  0.0118 -0.1977  0.1931
12175DPPS   C3B16310   3.037   4.111  20.125  0.4322  0.0467  0.1490
12175DPPS   C4B16311   2.741   4.215  20.493  0.0029 -0.1098  0.0142
12176DPPS   CNO16312   4.082   3.516  18.397  0.2939 -0.2669 -0.0218
12176DPPS   PO416313   4.006   3.685  18.745  0.2296  0.2581  0.2094
12176DPPS   GL116314   3.640   3.399  18.981 -0.2632 -0.1393  0.2434
12176DPPS   GL216315   3.518   3.592  18.905  0.0097 -0.0315  0.0921
12176DPPS   C1A16316   3.472   3.389  19.340 -0.0524  0.0728  0.1566
12176DPPS   C2A16317   3.284   3.412  19.682  0.0738 -0.5599 -0.0375
12176DPPS   C3A16318   2.945   3.413  20.046 -0.2002 -0.3450 -0.1208
12176DPPS   C4A16319   2.594   3.327  20.354 -0.0953 -0.1053  0.2088
12176DPPS   C1B16320   3.160   3.514  19.018  0.0302 -0.0747  0.0170
12176DPPS   C2B16321   2.796   3.568  19.259 -0.0156 -0.1506  0.0870
12176DPPS   C3B16322   2.524   3.601  19.678 -0.0923 -0.1035  0.0158
12176DPPS   C4B16323   2.228   3.632  20.020  0.0308  0.0368  0.3457
12177DPPS   CNO16324   2.929   4.363  17.301  0.0567 -0.0013 -0.1110
12177DPPS   PO416325   2.917   4.112  17.586 -0.0062 -0.1464 -0.1378
12177DPPS   GL116326   2.499   3.960  17.639  0.2335  0.1400  0.0849
12177DPPS   GL216327   2.727   3.847  17.823 -0.2098  0.4041  0.3647
12177DPPS   C1A16328   2.262   4.002  17.939 -0.2643  0.0228  0.2202
12177DPPS   C2A16329   1.921   4.123  18.143  0.2161 -0.1981 -0.1661
12177DPPS   C3A16330   1.562   4.130  18.540 -0.2674 -0.0276  0.0866
12177DPPS   C4A16331   1.360   4.101  18.956 -0.0052 -0.2119  0.1611
12177DPPS   C1B16332   2.596   3.891  18.162  0.3388  0.1727  0.1674
12177DPPS   C2B16333   2.308   3.927  18.441  0.2546 -0.2023  0.3100
12177DPPS   C3B16334   1.985   3.940  18.747 -0.1529  0.0299 -0.1580
12177DPPS   C4B16335   1.729   3.921  19.176 -0.2225  0.2680  0.0389
12178DPPS   CNO16336   3.920   2.086  18.144  0.0616  0.2069 -0.1464
12178DPPS   PO416337   3.876   1.869  18.475  0.2762 -0.0395 -0.0816
12178DPPS   GL116338   3.724   1.856  18.853 -0.1691 -0.2475 -0.2429
12178DPPS   GL216339   3.545   1.661  18.716  0.0146 -0.3298  0.0109
12178DPPS   C1A16340   3.558   1.877  19.163 -0.0858 -0.0849 -0.0911
12178DPPS   C2A16341   3.251   2.110  19.340 -0.4252 -0.1385  0.0334
12178DPPS   C3A16342   2.906   2.145  19.618  0.0951 -0.2305 -0.1537
12178DPPS   C4A16343   2.479   2.120  19.989 -0.1053 -0.1013  0.1129
12178DPPS   C1B16344   3.245   1.448  18.790 -0.2394 -0.1481  0.2736
12178DPPS   C2B16345   2.930   1.255  19.008  0.0505 -0.1524  0.2097
12178DPPS   C3B16346   2.525   1.242  19.395  0.1214  0.1217  0.2366
12178DPPS   C4B16347   2.191   1.321  19.766 -0.0791 -0.0295  0.1882
12179DPPS   CNO16348   1.205   6.275  15.862  0.3159  0.1966  0.5322
12179DPPS   PO416349   1.235   6.614  15.934  0.0184 -0.0870  0.0388
12179DPPS   GL116350   0.853   6.672  16.236 -0.2789  0.1699  0.1533
12179DPPS   GL216351   0.998   6.472  16.303 -0.1385  0.1826  0.0032
12179DPPS   C1A16352   0.839   6.898  16.501  0.1694 -0.0266  0.0201
12179DPPS   C2A16353   0.744   7.212  16.658  0.0650  0.1396 -0.0243
12179DPPS   C3A16354   0.529   7.590  16.469  0.1952  0.0778 -0.1396
12179DPPS   C4A16355   0.217   8.051  16.419 -0.4041 -0.0272 -0.0505
12179DPPS   C1B16356   0.874   6.466  16.665 -0.0188  0.3884 -0.1433
12179DPPS   C2B16357   0.591   6.326  16.984 -0.0016  0.4182  0.1655
12179DPPS   C3B16358   0.165   6.272  17.279 -0.1058 -0.4017  0.0923
12179DPPS   C4B16359  -0.207   5.959  17.163 -0.1475 -0.0183  0.1072
12180DPPS   CNO16360   0.036   3.599  15.585  0.6090 -0.3081  0.0587
12180DPPS   PO416361   0.136   3.302  15.696  0.1032  0.1298  0.1131
12180DPPS   GL116362   0.168   3.230  16.060  0.2439 -0.0126  0.2447
12180DPPS   GL216363   0.229   3.322  16.215  0.2197  0.2908 -0.1257
12180DPPS   C1A16364   0.243   2.853  16.245 -0.0784  0.0869  0.2179
12180DPPS   C2A16365  -0.018   2.554  16.322  0.1393  0.1522  0.2039
12180DPPS   C3A16366  -0.152   2.198  16.561 -0.1705 -0.0256 -0.2443
12180DPPS   C4A16367  -0.044   1.828  16.928  0.0780  0.0156 -0.0933
12180DPPS   C1B16368   0.104   3.135  16.522  0.1579 -0.0115  0.0085
12180DPPS   C2B16369  -0.043   2.798  16.737  0.0695  0.1038 -0.1849
12180DPPS   C3B16370  -0.469   2.554  16.606  0.2589  0.2215  0.2137
12180DPPS   C4B16371  -0.927   2.392  16.409 -0.0472  0.1308  0.0429
12181DPPS   CNO16372   3.701   2.724  17.940  0.1652 -0.0699  0.0860
12181DPPS   PO416373   3.586   2.477  18.236 -0.0460 -0.0427  0.1586
12181DPPS   GL116374   3.451   2.519  18.576 -0.0368  0.3643  0.2890
12181DPPS   GL216375   3.564   2.212  18.680 -0.0497  0.0824  0.3911
12181DPPS   C1A16376   3.109   2.657  18.734  0.0286 -0.3248 -0.2335
12181DPPS   C2A16377   2.757   2.725  18.964 -0.1917 -0.2304  0.1932
12181DPPS   C3A16378   2.414   2.827  19.316  0.0260 -0.0598 -0.2055
12181DPPS   C4A16379   2.094   2.775  19.652  0.1022  0.0549 -0.2095
12181DPPS   C1B16380   3.268   2.007  18.822 -0.0458 -0.2460 -0.1791
12181DPPS   C2B16381   3.047   1.785  18.995  0.3220 -0.0661  0.2387
12181DPPS   C3B16382   2.639   1.791  19.315 -0.0893 -0.1362  0.2474
12181DPPS   C4B16383   2.276   1.799  19.589 -0.2073 -0.1516  0.2612
12182DPPS   CNO16384   4.283   1.919  19.251 -0.0214 -0.4776 -0.0623
12182DPPS   PO416385   4.040   2.129  19.070 -0.1671 -0.0257 -0.0160
12182DPPS   GL116386   3.872   2.100  19.453  0.0502 -0.2924  0.3070
12182DPPS   GL216387   4.047   2.336  19.565 -0.1239  0.1413 -0.0187
12182DPPS   C1A16388   3.593   1.995  19.656  0.0555  0.1790 -0.0185
12182DPPS   C2A16389   3.288   1.904  19.846  0.4603 -0.0672  0.1037
12182DPPS   C3A16390   2.990   1.895  20.156 -0.0050  0.0376  0.0013
12182DPPS   C4A16391   2.673   1.919  20.519  0.0904 -0.0886 -0.2453
12182DPPS   C1B16392   3.867   2.415  19.871  0.3752 -0.0300 -0.1531
12182DPPS   C2B16393   3.556   2.270  20.100 -0.1723  0.1386 -0.3006
12182DPPS   C3B16394   3.185   2.271  20.439  0.1496 -0.0576  0.0085
12182DPPS   C4B16395   2.885   2.278  20.831  0.2788  0.0876  0.1085
12183DPPS   CNO16396   4.987   3.690  19.196  0.0048  0.0470 -0.1780
12183DPPS   PO416397   4.691   3.468  19.223  0.1658  0.1374 -0.0659
12183DPPS   GL116398   4.366   3.667  19.482 -0.0637 -0.0875 -0.0112
12183DPPS   GL216399   4.389   3.497  19.652 -0.2954 -0.2438 -0.0891
12183DPPS   C1A16400   3.995   3.701  19.482 -0.1648  0.0542  0.1307
12183DPPS   C2A16401   3.689   3.728  19.776  0.0173 -0.1640  0.0962
12183DPPS   C3A16402   3.374   3.715  20.112  0.0580 -0.3421  0.0305
12183DPPS   C4A16403   3.038   3.748  20.450 -0.0611  0.1464  0.1390
12183DPPS   C1B16404   4.101   3.569  19.906  0.3067  0.0839 -0.2414
12183DPPS   C2B16405   3.876   3.590  20.240  0.0028 -0.0949  0.0969
12183DPPS   C3B16406   3.558   3.504  20.613 -0.2791 -0.0583 -0.0317
12183DPPS   C4B16407   3.202   3.544  20.954  0.3049  0.0254  0.0565
12184DPPS   CNO16408  18.241   2.296  16.598  0.2580  0.0464  0.0214
12184DPPS   PO416409  17.984   2.067  16.422 -0.0569  0.0251 -0.3538
12184DPPS   GL116410  17.690   2.050  16.722 -0.0223  0.0728  0.2072
12184DPPS   GL216411  17.852   1.847  16.861 -0.1100 -0.4327  0.1766
12184DPPS   C1A16412  17.594   2.218  17.025 -0.1547  0.0761 -0.0901
12184DPPS   C2A16413  17.480   2.312  17.418 -0.2348 -0.0347  0.0016
12184DPPS   C3A16414  17.251   2.449  17.835 -0.0886  0.2286  0.0801
12184DPPS   C4A16415  16.992   2.316  18.208 -0.0592 -0.2087 -0.1366
12184DPPS   C1B16416  17.877   1.693  17.165  0.2944  0.1724 -0.2754
12184DPPS   C2B16417  18.173   1.737  17.459  0.0412 -0.0233 -0.1363
12184DPPS   C3B16418  18.408   1.710  17.917 -0.2300 -0.2036  0.2372
12184DPPS   C4B16419  18.709   1.700  18.289  0.1755  0.0998 -0.1330
12185DPPS   CNO16420  18.704   1.472  15.743 -0.1782 -0.0981 -0.2797
12185DPPS   PO416421  19.079   1.402  15.761  0.0363 -0.0409 -0.4478
12185DPPS   GL116422  19.133   1.306  16.192  0.0111 -0.0500 -0.1029
12185DPPS   GL216423  19.102   1.626  16.210  0.0953  0.0308 -0.1120
12185DPPS   C1A16424  19.297   1.143  16.443  0.0272 -0.0235  0.3781
12185DPPS   C2A16425  19.530   1.155  16.768  0.1365  0.1240  0.3681
12185DPPS   C3A16426  19.640   1.126  17.239 -0.0387  0.0352  0.1489
12185DPPS   C4A16427  19.778   1.175  17.724  0.1386  0.2714  0.0156
12185DPPS   C1B16428  19.127   1.680  16.523  0.0924 -0.0217  0.2625
12185DPPS   C2B16429  19.347   1.633  16.859  0.0423 -0.2759 -0.1764
12185DPPS   C3B16430  19.719   1.663  17.244  0.0542 -0.1113  0.2304
12185DPPS   C4B16431  20.134   1.447  17.330 -0.2433  0.3360 -0.2173
12186DPPS   CNO16432   3.525   5.627  17.714 -0.0427 -0.0147  0.1341
12186DPPS   PO416433   3.523   5.454  18.041 -0.0893  0.0417  0.0761
12186DPPS   GL116434   3.186   5.533  18.265 -0.2324  0.2218 -0.1382
12186DPPS   GL216435   3.331   5.394  18.434  0.2820 -0.1834  0.1432
12186DPPS   C1A16436   2.849   5.620  18.415  0.3479  0.0520 -0.2290
12186DPPS   C2A16437   2.521   5.822  18.578  0.1279  0.0088 -0.1854
12186DPPS   C3A16438   2.178   5.822  18.887 -0.1711  0.0789 -0.3091
12186DPPS   C4A16439   1.828   5.790  19.214 -0.0751  0.1493 -0.0924
12186DPPS   C1B16440   3.072   5.259  18.652  0.0338 -0.1224  0.3042
12186DPPS   C2B16441   2.845   5.035  18.898 -0.1119 -0.1948 -0.0749
12186DPPS   C3B16442   2.543   4.993  19.296  0.0305  0.0098  0.1605
12186DPPS   C4B16443   2.203   5.074  19.607  0.1566  0.0833  0.1906
12187DPPS   CNO16444   5.763   2.432  19.935  0.1973  0.0711  0.0838
12187DPPS   PO416445   5.381   2.396  19.865 -0.0169  0.3560  0.0650
12187DPPS   GL116446   5.050   2.508  20.105 -0.0936  0.4049 -0.2923
12187DPPS   GL216447   5.187   2.773  20.206 -0.3930 -0.0733  0.3242
12187DPPS   C1A16448   4.697   2.414  20.238  0.0087 -0.0052  0.2831
12187DPPS   C2A16449   4.375   2.423  20.481  0.1968 -0.0476 -0.1862
12187DPPS   C3A16450   4.051   2.428  20.850 -0.2155  0.1546  0.1354
12187DPPS   C4A16451   3.745   2.409  21.202  0.0596 -0.2053  0.0214
12187DPPS   C1B16452   4.933   2.778  20.429  0.2006  0.0775 -0.1600
12187DPPS   C2B16453   4.683   2.770  20.789 -0.0974 -0.1848 -0.1827
12187DPPS   C3B16454   4.396   2.782  21.157 -0.0311  0.1349  0.2636
12187DPPS   C4B16455   4.037   2.690  21.473  0.1835 -0.0196  0.1383
12188DPPS   CNO16456  16.935   3.999  16.353 -0.3163  0.0703 -0.1011
12188DPPS   PO416457  17.283   3.769  16.263  0.0709  0.0292 -0.1035
12188DPPS   GL116458  17.614   3.757  16.545 -0.0532  0.1805  0.0613
12188DPPS   GL216459  17.836   3.918  16.576  0.4564 -0.0280  0.0541
12188DPPS   C1A16460  17.590   3.647  16.894 -0.1655  0.0616 -0.1709
12188DPPS   C2A16461  17.532   3.502  17.235  0.2418 -0.0419 -0.2704
12188DPPS   C3A16462  17.509   3.316  17.690 -0.0112 -0.1361  0.3496
12188DPPS   C4A16463  17.353   3.026  18.061  0.1303  0.3282  0.1144
12188DPPS   C1B16464  17.664   4.092  16.883  0.0323  0.1438  0.0418
12188DPPS   C2B16465  17.471   4.022  17.201 -0.0970  0.1300 -0.4120
12188DPPS   C3B16466  17.328   3.814  17.588  0.1171 -0.3636 -0.1586
12188DPPS   C4B16467  17.015   3.634  17.878  0.2083 -0.1375 -0.1754
12189DPPS   CNO16468   3.933   2.870  18.419  0.1375  0.1193 -0.1877
12189DPPS   PO416469   3.795   2.881  18.811 -0.2160 -0.1430 -0.3220
12189DPPS   GL116470   3.398   2.804  19.036 -0.0424 -0.2337 -0.1770
12189DPPS   GL216471   3.338   3.061  19.010 -0.0677 -0.0333  0.0429
12189DPPS   C1A16472   3.214   2.538  19.140  0.4429 -0.3740 -0.0090
12189DPPS   C2A16473   2.914   2.619  19.395  0.3189  0.0470  0.0245
12189DPPS   C3A16474   2.603   2.660  19.792 -0.3471  0.0095 -0.0561
12189DPPS   C4A16475   2.304   2.643  20.160 -0.2339  0.0120  0.1244
12189DPPS   C1B16476   3.014   3.166  19.183 -0.0763  0.4254 -0.1589
12189DPPS   C2B16477   2.835   3.074  19.530 -0.0939 -0.1197 -0.0296
12189DPPS   C3B16478   2.497   3.163  19.850 -0.0954 -0.0129  0.5020
12189DPPS   C4B16479   2.184   3.145  20.188 -0.1942 -0.1869  0.2324
12190DPPS   CNO16480   3.958   4.123  18.202 -0.0718  0.0623 -0.0720
12190DPPS   PO416481   3.600   4.135  18.203 -0.1487 -0.3011  0.1156
12190DPPS   GL116482   3.362   4.270  18.591  0.0143  0.4781 -0.1910
12190DPPS   GL216483   3.124   4.133  18.503 -0.0224 -0.0679 -0.4029
12190DPPS   C1A16484   3.408   4.367  18.930 -0.0456  0.0695 -0.1077
12190DPPS   C2A16485   3.221   4.388  19.290  0.1788  0.2672 -0.1038
12190DPPS   C3A16486   2.910   4.365  19.627  0.1832  0.1840 -0.2337
12190DPPS   C4A16487   2.607   4.382  20.065 -0.0373 -0.2519  0.0951
12190DPPS   C1B16488   3.002   4.011  18.856 -0.1476  0.0537 -0.1028
12190DPPS   C2B16489   2.808   4.085  19.217 -0.0189  0.3183  0.2320
12190DPPS   C3B16490   2.440   4.062  19.592 -0.0118 -0.1788  0.1111
12190DPPS   C4B16491   2.230   4.130  20.013 -0.2483  0.1458 -0.0767
12191DPPS   CNO16492   0.598   4.439  15.635 -0.0255  0.2685  0.1997
12191DPPS   PO416493   0.259   4.571  15.651 -0.0393  0.0278 -0.3888
12191DPPS   GL116494   0.162   4.748  16.131 -0.2798  0.3031 -0.0349
12191DPPS   GL216495   0.286   4.972  16.017 -0.0763  0.0166  0.1580
12191DPPS   C1A16496   0.253   4.556  16.428  0.0971  0.2722 -0.1299
12191DPPS   C2A16497   0.477   4.559  16.781  0.3118 -0.0965  0.3946
12191DPPS   C3A16498   0.566   4.853  17.127  0.0203 -0.0068  0.0558
12191DPPS   C4A16499   0.560   4.696  17.603  0.0832 -0.1637 -0.0777
12191DPPS   C1B16500   0.587   5.070  16.190  0.4131 -0.1571 -0.0254
12191DPPS   C2B16501   0.818   5.076  16.545  0.1806  0.4775 -0.2500
12191DPPS   C3B16502   0.979   5.028  16.962  0.1258  0.1313  0.3097
12191DPPS   C4B16503   0.969   5.041  17.463  0.1318 -0.0158  0.0261
12192DPPS   CNO16504   1.850   4.050  16.543  0.0063 -0.0623  0.0028
12192DPPS   PO416505   2.100   3.869  16.814  0.1191  0.1100  0.1346
12192DPPS   GL116506   1.859   3.745  17.035 -0.2887  0.3794 -0.2873
12192DPPS   GL216507   1.679   3.711  16.770  0.2287  0.0085 -0.3003
12192DPPS   C1A16508   1.637   3.701  17.325  0.2489  0.1560  0.1195
12192DPPS   C2A16509   1.359   3.847  17.608 -0.0245  0.2705 -0.1577
12192DPPS   C3A16510   0.936   4.045  17.666  0.1153 -0.0325 -0.2582
12192DPPS   C4A16511   0.487   4.232  17.647 -0.2642 -0.2622  0.3280
12192DPPS   C1B16512   1.574   3.450  16.943 -0.1483  0.1838 -0.1522
12192DPPS   C2B16513   1.360   3.282  17.226 -0.2441  0.0780 -0.0945
12192DPPS   C3B16514   1.010   3.570  17.421 -0.1813  0.2247 -0.2264
12192DPPS   C4B16515   0.618   3.811  17.395  0.3259 -0.0014  0.0079
12193DPPS   CNO16516   4.922   1.011  19.637  0.1686 -0.0791  0.2141
12193DPPS   PO416517   4.585   1.090  19.747  0.2095  0.1861 -0.0495
12193DPPS   GL116518   4.317   1.043  20.037 -0.1703  0.0555 -0.0046
12193DPPS   GL216519   4.220   0.764  19.995  0.0190  0.0604 -0.1113
12193DPPS   C1A16520   4.128   1.087  20.368 -0.3502  0.2759  0.2141
12193DPPS   C2A16521   3.838   1.077  20.656  0.2522  0.0839  0.0592
12193DPPS   C3A16522   3.494   1.039  21.044  0.5262 -0.3518  0.1706
12193DPPS   C4A16523   3.205   1.075  21.422  0.2514  0.3311 -0.0406
12193DPPS   C1B16524   3.969   0.658  20.224 -0.1243 -0.0535  0.2179
12193DPPS   C2B16525   3.598   0.650  20.388  0.1086  0.2404 -0.0629
12193DPPS   C3B16526   3.287   0.728  20.739  0.2638  0.2350 -0.2645
12193DPPS   C4B16527   3.014   0.788  21.110 -0.1484  0.1346  0.3053
12194DPPS   CNO16528   0.456   3.984  15.813  0.0567  0.3303  0.1945
12194DPPS   PO416529   0.373   3.734  16.045  0.1683 -0.1085 -0.0389
12194DPPS   GL116530   0.450   3.635  16.417 -0.1551  0.0037 -0.0568
12194DPPS   GL216531   0.170   3.835  16.498  0.2424 -0.1109  0.3415
12194DPPS   C1A16532   0.574   3.426  16.742  0.1821  0.2237  0.1968
12194DPPS   C2A16533   0.745   3.265  17.084 -0.0776 -0.4435  0.0853
12194DPPS   C3A16534   1.036   2.954  17.391 -0.0375  0.0033  0.0617
12194DPPS   C4A16535   1.277   2.800  17.812 -0.1374 -0.0624 -0.0075
12194DPPS   C1B16536  -0.015   3.555  16.597  0.1859 -0.0091 -0.3126
12194DPPS   C2B16537  -0.188   3.296  16.841  0.0269  0.2992 -0.0407
12194DPPS   C3B16538  -0.511   2.994  17.099  0.0976  0.1651  0.0338
12194DPPS   C4B16539  -0.625   2.660  17.454  0.1947 -0.0620  0.0146
12195DPPS   CNO16540   4.842   6.300  19.299 -0.0043 -0.0227  0.0830
12195DPPS   PO416541   4.594   6.082  19.514 -0.0993 -0.0937  0.1736
12195DPPS   GL116542   4.339   6.093  19.715  0.1634  0.5741 -0.6383
12195DPPS   GL216543   4.397   6.020  19.991 -0.0775 -0.0404  0.0614
12195DPPS   C1A16544   3.965   6.199  19.763  0.1196  0.0080  0.2730
12195DPPS   C2A16545   3.781   6.280  20.123 -0.1130 -0.3351 -0.3965
12195DPPS   C3A16546   3.550   6.333  20.499 -0.2875  0.1465 -0.1787
12195DPPS   C4A16547   3.286   6.315  20.895  0.2980 -0.1832 -0.0920
12195DPPS   C1B16548   4.180   6.022  20.276 -0.1332 -0.1259  0.6173
12195DPPS   C2B16549   4.045   6.179  20.580 -0.0120 -0.1132 -0.0305
12195DPPS   C3B16550   3.841   6.286  21.029  0.1731  0.0994  0.1043
12195DPPS   C4B16551   3.428   6.137  21.303 -0.3785  0.3185  0.3619
12196DPPS   CNO16552  16.148   3.541  16.580 -0.1322 -0.1193 -0.0403
12196DPPS   PO416553  16.301   3.894  16.670 -0.3159 -0.2690 -0.1038
12196DPPS   GL116554  16.422   3.901  17.132 -0.1140  0.0330 -0.1860
12196DPPS   GL216555  16.241   3.662  17.136  0.2909 -0.3905 -0.2672
12196DPPS   C1A16556  16.389   4.170  17.361  0.2214  0.1321 -0.2526
12196DPPS   C2A16557  16.427   4.505  17.561  0.0500 -0.3127 -0.3376
12196DPPS   C3A16558  16.374   4.966  17.733 -0.1513 -0.0690 -0.2425
12196DPPS   C4A16559  16.265   5.501  17.825 -0.1606  0.1099 -0.0049
12196DPPS   C1B16560  16.287   3.488  17.525 -0.5244  0.1219  0.1449
12196DPPS   C2B16561  16.453   3.267  17.849  0.0989  0.0496 -0.1534
12196DPPS   C3B16562  16.807   3.311  18.227 -0.6080 -0.1362 -0.1717
12196DPPS   C4B16563  16.983   3.243  18.634 -0.1089 -0.4243 -0.1261
12197DPPS   CNO16564   4.344   4.624  19.240 -0.2613 -0.2184  0.2086
12197DPPS   PO416565   4.517   4.507  19.583  0.0417 -0.1035  0.3079
12197DPPS   GL116566   4.199   4.639  19.806  0.4203  0.0185  0.2309
12197DPPS   GL216567   4.304   4.897  19.928 -0.3175 -0.1972  0.1422
12197DPPS   C1A16568   3.848   4.497  19.945 -0.0712 -0.1430 -0.2269
12197DPPS   C2A16569   3.564   4.510  20.226  0.0023  0.0104 -0.0579
12197DPPS   C3A16570   3.216   4.590  20.597 -0.1685 -0.0412  0.0812
12197DPPS   C4A16571   2.852   4.514  20.925 -0.0978 -0.1820  0.2797
12197DPPS   C1B16572   4.055   4.896  20.194  0.3527 -0.0091  0.0839
12197DPPS   C2B16573   3.777   4.837  20.514 -0.1867  0.2935 -0.2078
12197DPPS   C3B16574   3.517   4.877  20.870 -0.1229  0.4166 -0.1270
12197DPPS   C4B16575   3.144   4.884  21.240 -0.1545  0.0856  0.1326
12198DPPS   CNO16576   0.494   4.114  16.424  0.1517 -0.3478  0.0070
12198DPPS   PO416577   0.778   4.134  16.178 -0.0538  0.2111  0.2773
12198DPPS   GL116578   0.936   3.985  16.482 -0.0489  0.0359 -0.0952
12198DPPS   GL216579   0.766   3.793  16.603 -0.0609  0.0971 -0.4561
12198DPPS   C1A16580   1.278   4.118  16.656 -0.0668  0.1142 -0.0608
12198DPPS   C2A16581   1.428   4.015  17.045 -0.1056 -0.0141 -0.4179
12198DPPS   C3A16582   1.366   4.284  17.435 -0.1522  0.1352  0.0752
12198DPPS   C4A16583   1.047   4.535  17.750  0.1993  0.1365  0.2783
12198DPPS   C1B16584   0.504   3.795  16.912 -0.1283 -0.1316 -0.2778
12198DPPS   C2B16585   0.182   3.591  17.022  0.3063 -0.1046  0.1215
12198DPPS   C3B16586  -0.173   3.544  17.297 -0.0693  0.2447  0.0242
12198DPPS   C4B16587  -0.637   3.370  17.548  0.2505  0.1792 -0.0459
12199DPPS   CNO16588  20.893   5.911  15.439  0.0772  0.0865  0.0534
12199DPPS   PO416589  21.235   5.814  15.581  0.0940  0.0374 -0.0245
12199DPPS   GL116590  21.334   5.842  15.997 -0.2819  0.0606  0.0558
12199DPPS   GL216591  21.296   6.077  15.969  0.1988 -0.0750  0.3032
12199DPPS   C1A16592  21.413   5.788  16.383 -0.0730 -0.2470 -0.3841
12199DPPS   C2A16593  21.317   5.669  16.780  0.1421  0.1443  0.2417
12199DPPS   C3A16594  21.243   5.571  17.250 -0.1249 -0.2065 -0.1416
12199DPPS   C4A16595  21.094   5.857  17.605 -0.2866 -0.6074  0.0942
12199DPPS   C1B16596  21.292   6.253  16.290 -0.1030  0.1179  0.2995
12199DPPS   C2B16597  21.173   6.189  16.683  0.0335 -0.4463 -0.1299
12199DPPS   C3B16598  20.921   6.435  17.046 -0.3395  0.0956 -0.1509
12199DPPS   C4B16599  20.600   6.545  17.354 -0.0824 -0.1567  0.1560
12200W        W16600   2.951   4.269   4.971 -0.0978 -0.2002 -0.0388
12201W        W16601  12.891   0.084   7.110 -0.0377  0.0525 -0.0555
12202W        W16602  19.543   3.354  29.213 -0.0388  0.0396 -0.1722
12203W        W16603  16.576   5.876  14.572 -0.1518 -0.3770  0.1536
12204W        W16604   7.853   3.756  21.582  0.0533  0.2996  0.1426
12205W        W16605   3.406   5.158  32.530  0.1935 -0.2428 -0.0472
12206W        W16606  15.841   5.402   8.399 -0.3662  0.1265  0.0282
12207W        W16607  12.013   2.651   5.181  0.0414 -0.0922  0.2479
12208W        W16608  15.893   2.103  16.635 -0.0130  0.0740  0.0555
12209W        W16609   9.752   5.516  31.758 -0.0376 -0.5253  0.3227
12210W        W16610  10.453   0.564  15.739 -0.2154  0.1256  0.0128
12211W        W16611  20.536   0.156  25.466  0.1384  0.2411 -0.1269
12212W        W16612  10.063   0.644   5.426  0.2906 -0.1414 -0.0216
12213W        W16613  16.041   6.011  43.252 -0.1656 -0.3114  0.0318
12214W        W16614  14.785   6.518  16.064  0.0509  0.2040 -0.2252
12215W        W16615   1.874   6.181  14.857  0.0446 -0.1544 -0.0308
12216W        W16616  15.135   1.266  39.941  0.1684  0.2605 -0.1923
12217W        W16617  16.641   3.581  42.620 -0.2095  0.0622 -0.1262
12218W        W16618   4.146   5.038  27.145  0.0464 -0.2743  0.0575
12219W        W16619  16.059   3.989   6.481  0.3048 -0.0792 -0.2451
12220W        W16620  15.722   5.695  40.628 -0.0082 -0.0523 -0.0241
12221W        W16621  12.356   4.716  33.469  0.3815  0.0281 -0.1764
12222W        W16622  15.901   3.190   1.474 -0.0354 -0.0136 -0.2538
12223W        W16623  13.903   2.104  27.578 -0.0988  0.1978 -0.1579
12224W        W16624   6.767   4.654  30.797 -0.0738 -0.1668 -0.0072
12225W        W16625   6.607   2.410  20.560 -0.0608  0.1567 -0.2456
12226W        W16626   9.342   3.159  37.799  0.1059 -0.1120  0.2230
12227W        W16627   6.886   1.962  14.179  0.1772 -0.2823  0.3088
12228W        W16628   2.271   4.029  42.827  0.1975  0.0055 -0.0859
12229W        W16629   8.416   2.594   6.633 -0.3787 -0.1301  0.4693
12230W        W16630   0.368   2.409  39.068 -0.1680  0.2479  0.0195
12231W        W16631  18.071   0.371  41.083 -0.0871 -0.0320  0.0568
12232W        W16632  13.251   5.173   0.584  0.0095  0.2043 -0.1268
12233W        W16633  12.487   1.919  36.515 -0.0201 -0.1130 -0.2557
12234W        W16634   2.564   0.882  29.057  0.2755  0.0971  0.1381
12235W        W16635   0.993   3.019  31.285  0.1260  0.1963  0.2951
12236W        W16636  13.977   0.581  31.949  0.0226 -0.0409 -0.0781
12237W        W16637  20.289   0.404  33.267  0.0061 -0.1755 -0.0682
12238W        W16638  20.588   5.775   3.643 -0.1722 -0.2081  0.1772
12239W        W16639   6.318   4.050  18.186  0.0967  0.0945 -0.0808
12240W        W16640  19.060   5.276  11.590  0.0626 -0.1799 -0.1331
12241W        W16641  18.648   2.009   8.375 -0.1193  0.0652 -0.2039
12242W        W16642   3.781   5.849  13.906  0.0583  0.1187 -0.2237
12243W        W16643  20.990   5.401  14.659 -0.0341  0.0644  0.0342
12244W        W16644  14.879   6.082  41.135 -0.0141 -0.0116 -0.0808
12245W        W16645  16.740   2.356  33.120 -0.3209  0.0851 -0.0997
12246W        W16646   9.610   3.315  30.710 -0.0956 -0.1227 -0.0462
12247W        W16647  16.212   5.928  26.239  0.1284 -0.1418  0.2648
12248W        W16648   3.326   3.678  37.925 -0.2916 -0.0141 -0.0288
12249W        W16649  10.001   1.812   9.729  0.0760  0.1639 -0.2571
12250W        W16650   3.508   0.515  28.811  0.0435 -0.2384 -0.1156
12251W        W16651  11.546   4.708  12.783 -0.2689  0.1571 -0.3361
12252W        W16652  10.806   6.202   2.266  0.2646  0.0691  0.0122
12253W        W16653  18.544   6.572   1.131  0.1424  0.0526 -0.1353
12254W        W16654   4.139   5.098  10.550 -0.1171  0.0443 -0.2297
12255W        W16655  10.176   3.427  37.143 -0.0355 -0.0575  0.1404
12256W        W16656  16.376   5.779  36.975 -0.3693 -0.0611  0.2017
12257W        W16657  12.940   0.942  34.891 -0.2079 -0.0504  0.0845
12258W        W16658  19.091   5.795  11.603 -0.0181  0.3216 -0.2016
12259W        W16659   2.457   2.492   2.533 -0.1241  0.2368  0.2621
12260W        W16660  17.746   1.945  39.988 -0.2506 -0.2810 -0.2125
12261W        W16661  13.532   3.419  40.061  0.0178 -0.0718  0.2804
12262W        W16662  14.229   2.604  30.223 -0.1870 -0.1670  0.0146
12263W        W16663  14.136   2.003   8.739  0.3945  0.0337  0.2115
12264W        W16664   4.706   5.265  36.498  0.2268 -0.3638 -0.0495
12265W        W16665  20.506   3.425  29.451 -0.1380 -0.0800 -0.1312
12266W        W16666   7.332   0.184  30.756 -0.0065 -0.1758  0.1811
12267W        W16667  13.152   0.624  20.142 -0.3613  0.2549  0.1212
12268W        W16668   0.320   2.607   6.197 -0.0055  0.0759  0.1344
12269W        W16669  19.894   2.169  30.132  0.2336 -0.0983  0.1844
12270W        W16670  12.620   1.206  12.138 -0.1725 -0.0640 -0.0847
12271W        W16671  13.025   3.547   2.231 -0.2248 -0.0352 -0.0736
12272W        W16672  17.062   3.268  42.631 -0.0837 -0.0968 -0.3360
12273W        W16673   3.690   6.493  27.879  0.0210 -0.0524  0.0077
12274W        W16674   4.878   5.655  44.739 -0.1024  0.0042  0.0722
12275W        W16675  15.043   3.943  30.595 -0.4189  0.1872 -0.1865
12276W        W16676   9.822   0.863  32.616  0.1084  0.0424 -0.1089
12277W        W16677   3.590   6.375  43.778 -0.0860  0.1808 -0.0323
12278W        W16678  17.255   1.438  13.694  0.0763  0.1558 -0.0151
12279W        W16679  20.864   0.626  25.350  0.0815 -0.0024 -0.2170
12280W        W16680  18.024   2.470   7.251  0.4939  0.2269  0.0178
12281W        W16681   5.678   5.403  34.712 -0.1280 -0.0076 -0.1385
12282W        W16682  18.348   6.365   2.148 -0.0257  0.1859 -0.1148
12283W        W16683  16.229   2.648   3.363  0.0629 -0.0738  0.0775
12284W        W16684   0.089   3.888   7.348 -0.1638  0.0391 -0.1750
12285W        W16685   5.312   4.846  20.603  0.2496 -0.1172 -0.2233
12286W        W16686  13.410   2.573  35.921  0.3597 -0.1343 -0.1775
12287W        W16687   6.992   2.412  33.507  0.2059  0.0194  0.4040
12288W        W16688   5.957   1.524  40.650 -0.1507 -0.2646 -0.2898
12289W        W16689  16.742   2.920   0.627 -0.1865  0.0547 -0.1067
12290W        W16690   6.063   4.335   4.914  0.1247 -0.2797 -0.0309
12291W        W16691  19.577   1.867  12.922 -0.2095 -0.1558 -0.1171
12292W        W16692   1.727   6.120  27.883 -0.2035 -0.0658 -0.0881
12293W        W16693   0.480   5.291   7.115 -0.1726 -0.0564 -0.0832
12294W        W16694   4.194   5.510  16.088  0.1208 -0.2851 -0.1562
12295W        W16695   6.148   0.148  33.251  0.0769  0.0176 -0.0170
12296W        W16696   9.161   0.332  18.867  0.1057 -0.5347  0.1817
12297W        W16697   5.025   6.059  40.168 -0.1246  0.2558 -0.0729
12298W        W16698   7.171   3.584   7.959 -0.5066 -0.0407  0.1859
12299W        W16699  12.883   0.939  27.831 -0.0243  0.2158 -0.1476
12300W        W16700  10.714   4.993  20.357  0.1244 -0.0590  0.1126
12301W        W16701   3.750   0.315  13.918 -0.1182 -0.0346 -0.1864
12302W        W16702  19.042   2.388   3.225 -0.3834  0.1819  0.0766
12303W        W16703   3.976   1.748   6.794  0.0298  0.0576  0.0376
12304W        W16704   5.229   0.835  29.468 -0.0993 -0.0341 -0.1529
12305W        W16705  20.185   2.227   1.421 -0.0528  0.1155  0.3184
12306W        W16706   8.613   2.062  21.136 -0.0215  0.1488 -0.3303
12307W        W16707  10.774   3.774  14.335  0.2196  0.0688 -0.1840
12308W        W16708  12.065   6.592  37.501  0.0419 -0.1831  0.1257
12309W        W16709  11.901   1.169  33.130 -0.0714 -0.2858 -0.0217
12310W        W16710  20.363   1.118  11.627  0.4325  0.0048  0.1113
12311W        W16711  18.059   6.493   9.266 -0.1437  0.1896 -0.4345
12312W        W16712  16.734   4.075  41.006  0.2978 -0.0503 -0.3050
12313W        W16713   9.186   4.167  20.824  0.4495  0.4617 -0.2246
12314W        W16714   8.560   1.893  32.265  0.0125  0.0711  0.2367
12315W        W16715  16.902   4.473  37.572 -0.1329  0.1470 -0.0473
12316W        W16716   8.733   2.156  22.570 -0.0432  0.1115  0.0131
12317W        W16717  17.149   1.971   7.515 -0.1597 -0.0646  0.0452
12318W        W16718  11.141   5.718  30.445  0.0980  0.3039  0.1284
12319W        W16719   6.913   0.971  18.477  0.1522  0.1447 -0.0046
12320W        W16720   5.892   2.897  17.663  0.1831 -0.1348  0.2747
12321W        W16721  18.926   3.841  30.663 -0.2763 -0.0398 -0.1042
12322W        W16722  10.848   2.283  22.005 -0.0806 -0.1010 -0.0144
12323W        W16723   8.084   5.631  42.790 -0.1153 -0.1585  0.2767
12324W        W16724  14.742   4.772  42.705 -0.2530  0.2252  0.0589
12325W        W16725  11.350   3.283  15.099  0.3647 -0.0324  0.2174
12326W        W16726   6.732   5.137  13.264  0.3116 -0.3045  0.1893
12327W        W16727   8.468   4.085  15.029 -0.2663 -0.0355 -0.1577
12328W        W16728  12.599   2.346   3.089 -0.1069 -0.0843  0.2907
12329W        W16729  17.465   4.973  10.341 -0.1697 -0.1325 -0.2456
12330W        W16730   6.474   5.002  43.106 -0.0532  0.1532 -0.2236
12331W        W16731   8.120   1.711  12.350  0.0701 -0.1791 -0.0969
12332W        W16732   6.267   3.538  42.853  0.0346  0.1208 -0.2236
12333W        W16733  19.334   4.058  42.680 -0.1339 -0.1530 -0.0631
12334W        W16734  11.372   2.521  13.466 -0.0411  0.0312  0.1124
12335W        W16735  15.852   4.086   8.538  0.0093 -0.1086 -0.0968
12336W        W16736   6.219   3.917   4.704 -0.2006  0.2155  0.3177
12337W        W16737  16.043   3.897   3.905 -0.0264  0.2180 -0.0751
12338W        W16738  18.200   2.435  41.075  0.1031 -0.1150  0.1266
12339W        W16739  12.758   1.547   1.565  0.0014  0.0573 -0.1873
12340W        W16740   5.945   3.537   5.011  0.0489  0.0571 -0.0192
12341W        W16741  13.864   5.241  28.542 -0.0336  0.0222 -0.0826
12342W        W16742  14.555   4.727  39.366  0.1024  0.0201  0.2815
12343W        W16743  16.022   2.924  32.655 -0.1373 -0.1574 -0.1988
12344W        W16744  19.367   3.849  23.736  0.0453 -0.0190  0.0218
12345W        W16745  14.172   3.793  10.871  0.1726  0.1059 -0.0362
12346W        W16746   1.435   0.904  35.213  0.3181  0.0931  0.0361
12347W        W16747   6.997   2.782  40.412 -0.0746  0.0004 -0.0371
12348W        W16748  11.657   1.160  43.750 -0.0698  0.1324 -0.2824
12349W        W16749  20.963   2.125   8.950 -0.1683  0.0453  0.0817
12350W        W16750  15.797   3.371  11.248  0.2601  0.1049 -0.0441
12351W        W16751   0.512   4.832  30.007 -0.0714  0.0314 -0.3651
12352W        W16752   8.928   1.065  30.085  0.0857 -0.2222 -0.1093
12353W        W16753  11.826   3.620  32.132  0.1605  0.2117 -0.1002
12354W        W16754  16.530   5.857  40.950  0.1928 -0.0757 -0.1264
12355W        W16755  15.607   0.022  34.298 -0.1678 -0.0253 -0.0116
12356W        W16756   1.209   1.971  36.706  0.0466 -0.2919 -0.1260
12357W        W16757   3.848   0.091  35.448  0.2520  0.0820 -0.0588
12358W        W16758  19.536   2.683  21.229 -0.1622 -0.1594  0.2270
12359W        W16759  21.013   6.251  44.591 -0.2343  0.0289  0.1016
12360W        W16760   5.160   4.533   9.486  0.1200  0.1373  0.1387
12361W        W16761  19.134   0.230  12.534 -0.0776  0.1793  0.0068
12362W        W16762  20.409   1.436   7.403 -0.3735  0.1479 -0.0892
12363W        W16763  13.059   4.443  35.140 -0.2566 -0.1119 -0.0837
12364W        W16764   7.444   6.230  40.913  0.1971 -0.0713  0.3150
12365W        W16765  11.902   1.696  14.508 -0.0257 -0.1120 -0.2341
12366W        W16766  16.739   1.808  32.568  0.0209 -0.0154 -0.0876
12367W        W16767   0.272   2.046  10.439  0.1649  0.0600 -0.0127
12368W        W16768   3.538   5.452  11.442  0.1007 -0.2121  0.0117
12369W        W16769   2.924   3.114   5.948  0.2258  0.0307  0.1215
12370W        W16770  18.178   3.508  37.908 -0.0963 -0.0963  0.0223
12371W        W16771  21.046   0.274  45.028 -0.2193  0.1440  0.2813
12372W        W16772  12.366   6.210  16.050  0.1653 -0.1876 -0.3117
12373W        W16773   5.396   2.629  17.388  0.0315 -0.0435  0.0070
12374W        W16774   5.024   0.455  19.644 -0.0114 -0.0957 -0.1174
12375W        W16775   5.004   5.976   6.556  0.1615  0.0788  0.0009
12376W        W16776  15.780   3.233   9.661  0.3404  0.0686 -0.1734
12377W        W16777   5.157   3.595  38.824  0.1480 -0.1156  0.0119
12378W        W16778   6.445   3.201  41.954 -0.4012 -0.2413  0.1170
12379W        W16779   3.081   0.247  39.935  0.2584 -0.1677  0.1909
12380W        W16780   9.504   1.704  36.492  0.3400 -0.2063 -0.1877
12381W        W16781   8.096   0.308  18.856 -0.0198  0.0710 -0.1138
12382W        W16782  11.112   4.081  43.398  0.2634 -0.0179 -0.1709
12383W        W16783  17.967   2.949  29.458  0.0918 -0.2758 -0.0522
12384W        W16784   7.852   0.376   6.106 -0.3061 -0.2967  0.2663
12385W        W16785   2.499   0.251  38.215 -0.0557  0.1907 -0.3372
12386W        W16786  12.746   3.890  33.480 -0.0789 -0.0792 -0.0400
12387W        W16787  13.002   2.028   8.029  0.4032  0.0084 -0.3596
12388W        W16788   4.481   5.980  44.569 -0.1868 -0.3904  0.1559
12389W        W16789   4.821   1.824  35.854  0.1279 -0.2735  0.1656
12390W        W16790  17.644   1.006  13.961 -0.1159 -0.1601  0.1299
12391W        W16791  11.107   5.075  33.522 -0.0623  0.0317  0.2919
12392W        W16792  13.410   2.818  28.928  0.1411 -0.2617  0.0733
12393W        W16793   1.503   0.232   0.178 -0.2070 -0.1076 -0.1497
12394W        W16794   3.776   6.107  34.707  0.1481 -0.1151  0.3659
12395W        W16795  17.064   5.580  10.662  0.0591 -0.0630 -0.1712
12396W        W16796  10.156   2.358  19.488  0.3164  0.1532  0.1311
12397W        W16797   0.207   3.954  36.894 -0.2180 -0.2916  0.1193
12398W        W16798  15.809   5.328   7.130  0.2858 -0.1181 -0.1507
12399W        W16799  18.088   3.637  33.846  0.0002 -0.1298  0.1236
12400W        W16800   0.906   2.217  43.801 -0.0420 -0.0482  0.0911
12401W        W16801  15.093   5.621  10.948 -0.3897 -0.2073 -0.1368
12402W        W16802   2.719   2.574   0.490  0.0520 -0.0241 -0.1445
12403W        W16803   9.923   1.197   0.701  0.0698 -0.0576 -0.0449
12404W        W16804   8.253   2.316  23.410  0.0166 -0.0166  0.1192
12405W        W16805  10.335   0.829  34.795 -0.2049  0.0448  0.5388
12406W        W16806  15.050   5.252  34.963 -0.1154  0.0221 -0.0306
12407W        W16807   2.277   0.681  27.544  0.1354  0.0472  0.0598
12408W        W16808   5.368   1.800  11.168  0.0623 -0.0166  0.2277
12409W        W16809  13.378   3.196  12.413  0.2386 -0.0036 -0.0937
12410W        W16810  17.189   5.446  33.303 -0.4869  0.1644 -0.1231
12411W        W16811   0.557   3.432  27.759  0.1808 -0.2625 -0.0586
12412W        W16812   4.029   2.802  44.891  0.1842  0.1014 -0.1787
12413W        W16813   6.900   6.329   8.418 -0.0648  0.1247  0.1743
12414W        W16814   3.520   4.908  12.398 -0.1766  0.1547  0.1634
12415W        W16815   7.606   5.948  23.221 -0.0523  0.0029  0.1630
12416W        W16816   8.437   4.184  33.228 -0.0184  0.3454  0.0764
12417W        W16817  16.707   0.184  13.747  0.2926  0.3286  0.1267
12418W        W16818   8.652   2.096   9.577  0.0928  0.0074  0.1814
12419W        W16819   5.277   0.473   8.429  0.1634  0.0235  0.0190
12420W        W16820  13.969   6.278  14.868  0.0060 -0.0501 -0.0939
12421W        W16821   9.280   3.056  37.072  0.0673  0.0655  0.1422
12422W        W16822  11.510   2.981   3.762  0.2584  0.1807 -0.2422
12423W        W16823   5.451   5.443  29.474  0.3396  0.0503 -0.2051
12424W        W16824   8.582   0.887  20.202  0.0238  0.1730 -0.0084
12425W        W16825   3.734   0.217  16.440 -0.2202  0.0616 -0.3162
12426W        W16826   8.624   3.093  18.489  0.2473  0.1175 -0.1658
12427W        W16827   9.218   3.617  22.258  0.1880 -0.1019  0.0531
12428W        W16828  14.919   0.905  27.926 -0.1150  0.0212 -0.2926
12429W        W16829  15.548   5.705  36.214 -0.4712  0.3371  0.0808
12430W        W16830  18.782   2.665  35.648  0.0673  0.2587 -0.0892
12431W        W16831  11.834   4.414  43.173  0.2691  0.0812  0.1546
12432W        W16832   8.301   4.230   1.365 -0.0917  0.0975  0.1900
12433W        W16833   2.282   2.474  41.034  0.0535  0.0096 -0.1233
12434W        W16834  19.065   0.247  33.737  0.2714  0.0393 -0.0706
12435W        W16835  13.279   5.307  17.249 -0.1949 -0.1952 -0.0386
12436W        W16836   9.012   1.367  35.711  0.2177 -0.0815  0.3656
12437W        W16837  16.256   0.940  16.914  0.3103 -0.1038  0.2628
12438W        W16838   6.176   1.148  29.234  0.1194  0.2995 -0.0159
12439W        W16839   2.201   4.956  31.787 -0.0837  0.0018  0.2362
12440W        W16840   0.345   4.500  32.741 -0.1973  0.1442  0.1886
12441W        W16841   8.283   2.735  18.333  0.2693 -0.1725  0.3043
12442W        W16842  18.644   6.480   1.707 -0.0621 -0.1265 -0.6182
12443W        W16843  18.922   0.709  21.276 -0.1093 -0.1055 -0.1987
12444W        W16844   7.291   5.645  34.412 -0.0343 -0.0495  0.0130
12445W        W16845  11.880   3.156  39.642 -0.1997  0.0552  0.1946
12446W        W16846  16.509   5.296  42.749  0.0803  0.2239 -0.4718
12447W        W16847  12.932   6.030  10.947 -0.2548 -0.1850  0.2060
12448W        W16848  20.059   2.656  33.520 -0.1692  0.0865 -0.2188
12449W        W16849  11.649   5.959  18.750  0.3150  0.3675 -0.2856
12450W        W16850   6.111   1.621  36.044 -0.1036 -0.0328 -0.0096
12451W        W16851  16.838   4.302  42.518 -0.0039  0.2662 -0.1066
12452W        W16852  18.562   5.570   1.873 -0.0849 -0.2797 -0.1849
12453W        W16853  18.967   3.269  34.358 -0.0986 -0.0258  0.0113
12454W        W16854   2.616   5.126  31.582  0.1187  0.1986  0.2801
12455W        W16855   6.929   2.051  37.147 -0.0132  0.0644  0.3232
12456W        W16856  19.875   0.100   6.059 -0.0125  0.3035  0.1499
12457W        W16857  11.806   5.410  35.915  0.2693  0.1106  0.3303
12458W        W16858  11.465   3.840  18.443 -0.1762  0.1645 -0.1722
12459W        W16859   0.802   1.111  13.387 -0.0197  0.0074 -0.1853
12460W        W16860   8.209   0.076   1.134  0.0181  0.0948  0.4330
12461W        W16861   2.976   1.871  34.310 -0.0836  0.1791  0.1103
12462W        W16862   6.073   2.294  15.125  0.0683  0.1117  0.0012
12463W        W16863  18.809   5.423  34.247  0.0997  0.0898  0.0365
12464W        W16864  11.732   3.641  39.475  0.2698 -0.0759 -0.0865
12465W        W16865   5.364   1.444  32.378  0.0722  0.1319  0.2464
12466W        W16866   3.019   3.867   0.559  0.4179  0.1341 -0.1067
12467W        W16867  21.111   6.458  12.846  0.0769  0.3477  0.1148
12468W        W16868   5.806   4.962  43.980 -0.3422 -0.1692 -0.0373
12469W        W16869   9.343   2.919  29.088  0.3790  0.1406 -0.0195
12470W        W16870   9.032   6.109   8.945  0.2486  0.0932 -0.0296
12471W        W16871  18.281   1.919   8.067 -0.1623  0.3891  0.1570
12472W        W16872   7.402   1.698  33.241 -0.2663 -0.5950 -0.2386
12473W        W16873  15.298   0.676   4.478  0.2048  0.2819  0.0915
12474W        W16874   6.416   3.191   2.317  0.0890  0.0793  0.0572
12475W        W16875  12.119   6.130  43.963 -0.0342 -0.1746  0.0859
12476W        W16876   8.207   1.629  39.124 -0.0720 -0.1841 -0.0406
12477W        W16877  12.379   6.479  29.661  0.0355 -0.2774 -0.1631
12478W        W16878  15.999   2.573  17.570  0.0459  0.1119  0.0447
12479W        W16879   2.049   3.415   1.587  0.2607  0.1320 -0.1325
12480W        W16880  12.322   5.667  16.941  0.3326  0.1055 -0.0214
12481W        W16881   1.360   0.656  32.644  0.1178  0.0175 -0.2900
12482W        W16882  11.330   0.973  40.565 -0.1822  0.1021 -0.0878
12483W        W16883   4.079   5.444  35.984  0.1173 -0.0396 -0.0617
12484W        W16884   7.832   4.931  30.759 -0.0078 -0.0751 -0.4353
12485W        W16885   1.715   3.944  37.774  0.0422  0.1030 -0.1421
12486W        W16886   7.374   2.743  31.523 -0.1887 -0.2350 -0.3086
12487W        W16887  15.577   1.948  30.543  0.0581 -0.1640  0.0337
12488W        W16888   5.593   5.606  37.912  0.0306 -0.0001  0.1258
12489W        W16889   5.433   5.766   1.630 -0.3860 -0.1421  0.0431
12490W        W16890   5.579   4.293  33.933  0.0968  0.2452 -0.0038
12491W        W16891   8.753   0.316   3.441 -0.1041  0.0209  0.0591
12492W        W16892  17.706   3.270   6.095 -0.0152 -0.0990  0.1592
12493W        W16893  18.140   4.034  23.512 -0.0990 -0.0288 -0.1837
12494W        W16894  20.875   0.717   1.461  0.0453  0.2600 -0.0011
12495W        W16895  18.730   4.609  29.695 -0.1246 -0.1754  0.0222
12496W        W16896  15.480   0.994   4.063 -0.4259  0.1253  0.2624
12497W        W16897   7.649   2.257  17.941  0.0181  0.2776 -0.1235
12498W        W16898  13.260   4.177  38.308 -0.0289  0.1055  0.2513
12499W        W16899  11.849   0.274   4.637  0.1724  0.0658  0.4639
12500W        W16900  14.737   1.787  30.992  0.2236  0.2359  0.1409
12501W        W16901   4.303   1.492   4.405 -0.1184 -0.0137 -0.0674
12502W        W16902  10.729   3.499  36.459  0.0215  0.1706 -0.0112
12503W        W16903  11.346   4.176  17.171  0.2735  0.1436 -0.1480
12504W        W16904   9.961   1.517  41.164  0.0182 -0.0639 -0.0018
12505W        W16905  15.941   1.472  28.749 -0.5546 -0.4390 -0.1427
12506W        W16906   0.757   2.726  41.433 -0.1875  0.3442  0.3920
12507W        W16907   7.302   4.801  13.807  0.0790 -0.2067  0.2148
12508W        W16908   4.939   4.686   4.732  0.0332 -0.0783  0.1879
12509W        W16909  16.313   1.050   7.892  0.1134  0.0185 -0.0870
12510W        W16910   8.146   2.551  38.614  0.0075  0.2867 -0.0566
12511W        W16911  12.324   2.418   2.658 -0.1120  0.1511 -0.2375
12512W        W16912  13.632   4.338  11.945  0.0382 -0.0512 -0.0447
12513W        W16913   7.276   3.750  31.317  0.2695  0.1284  0.1750
12514W        W16914   7.525   4.965  32.938 -0.1126  0.0427  0.2846
12515W        W16915  11.061   1.610  37.433  0.2517  0.1133  0.2841
12516W        W16916   4.686   0.251   7.657 -0.0694 -0.0830 -0.0305
12517W        W16917  13.547   3.158  41.205 -0.2247 -0.0477  0.1796
12518W        W16918   0.213   5.514  30.335 -0.0862 -0.1351  0.0485
12519W        W16919  14.708   2.741  29.402 -0.0889  0.1331  0.2465
12520W        W16920   9.574   4.112  35.075 -0.0972 -0.0077 -0.3014
12521W        W16921   4.726   0.420   0.749  0.1205  0.1895  0.1589
12522W        W16922   2.139   1.160  29.472  0.2953 -0.0000 -0.1293
12523W        W16923  16.457   2.252   3.710 -0.1244 -0.0947  0.2256
12524W        W16924   3.439   3.312  31.547 -0.2067  0.0750  0.0609
12525W        W16925  15.454   5.341  10.684 -0.0991 -0.0849  0.1486
12526W        W16926  17.527   1.339  35.846  0.1345 -0.0188  0.2704
12527W        W16927  17.097   3.064  32.087  0.3462 -0.1547  0.2374
12528W        W16928   1.814   2.226   0.584 -0.0521 -0.0964 -0.4548
12529W        W16929   7.806   0.014  44.434 -0.2559 -0.2594 -0.0350
12530W        W16930  10.259   5.812   3.261  0.1274 -0.4490  0.1979
12531W        W16931   4.357   0.312   7.276  0.2632  0.0293  0.3763
12532W        W16932   7.878   2.295  20.267 -0.3392 -0.1703 -0.0220
12533W        W16933  19.827   1.493  29.153 -0.0244  0.0910 -0.1780
12534W        W16934  14.228   0.162  31.920  0.0592  0.0370 -0.0171
12535W        W16935  14.385   4.091  38.251  0.0179  0.0790  0.3208
12536W        W16936  14.395   0.609  39.785  0.2722  0.4999 -0.1928
12537W        W16937  18.665   5.094  13.509 -0.0244 -0.0110 -0.1937
12538W        W16938  12.653   4.384  19.744 -0.1406 -0.1334  0.1230
12539W        W16939  17.195   3.491  33.867 -0.0786  0.2174 -0.1230
12540W        W16940   3.877   6.331  36.058 -0.2470 -0.1220 -0.1088
12541W        W16941   4.178   2.692  37.631 -0.1845  0.2615 -0.1428
12542W        W16942  14.160   1.243  13.606 -0.1061  0.0526 -0.2179
12543W        W16943  17.897   4.236  39.005 -0.0795 -0.0406 -0.3602
12544W        W16944   8.480   1.805  18.861 -0.0714  0.2708  0.0001
12545W        W16945   4.669   0.712   7.342  0.1342 -0.1701 -0.1282
12546W        W16946  15.394   1.769  42.064  0.1704  0.1447 -0.3540
12547W        W16947  19.794   4.901  36.480  0.0750 -0.1324  0.1527
12548W        W16948  19.871   0.276  10.258 -0.1512 -0.1377 -0.0239
12549W        W16949  12.913   0.667  32.157  0.1466  0.1916 -0.1183
12550W        W16950   0.712   4.621  39.758 -0.1232 -0.2210  0.1686
12551W        W16951   3.516   2.952  13.035 -0.1592  0.0117 -0.0177
12552W        W16952   1.321   0.185  29.178 -0.0278 -0.2283  0.0090
12553W        W16953  17.221   5.859  17.074 -0.2002 -0.1048 -0.0364
12554W        W16954  10.328   6.034  38.607 -0.1503  0.0556 -0.0731
12555W        W16955  11.326   1.989  34.396 -0.0961  0.0158 -0.3840
12556W        W16956   7.624   2.418  13.364  0.1346 -0.1636  0.1005
12557W        W16957  15.829   6.425  28.412  0.0115  0.2589 -0.0950
12558W        W16958   4.161   4.351  41.183 -0.2368 -0.1462 -0.2634
12559W        W16959   4.887   1.526  36.415 -0.0744 -0.0988 -0.1152
12560W        W16960  14.831   6.140   7.326 -0.3583  0.1833 -0.0321
12561W        W16961   1.330   0.287  24.605 -0.0343  0.1849  0.3390
12562W        W16962   2.826   4.611  37.730  0.1600 -0.1232 -0.2753
12563W        W16963  11.135   0.072  16.772  0.0013  0.0906 -0.1201
12564W        W16964  13.720   4.396  30.623  0.0527 -0.0837  0.2142
12565W        W16965  11.661   2.284  39.086  0.1001 -0.1016 -0.1882
12566W        W16966   6.227   1.441  15.619  0.1393  0.2195  0.2865
12567W        W16967  18.704   4.921  42.953  0.0825 -0.0657 -0.2296
12568W        W16968  16.833   6.470  41.015  0.1985 -0.1135 -0.0275
12569W        W16969   1.933   5.583  40.229 -0.0077 -0.1793 -0.0350
12570W        W16970   8.198   2.403  38.044 -0.0405 -0.2199  0.0221
12571W        W16971  14.231   1.007  43.060  0.0498  0.0000  0.0093
12572W        W16972  10.940   4.241  29.098  0.0335  0.2140 -0.1639
12573W        W16973  16.102   4.723   0.958 -0.1196 -0.2317  0.2115
12574W        W16974   7.800   5.572  31.143 -0.3262 -0.0263  0.0804
12575W        W16975   9.128   0.847  10.299  0.4198  0.3044 -0.1938
12576W        W16976  13.712   5.099  15.261  0.0972  0.0800 -0.1857
12577W        W16977  19.476   2.981  24.695  0.1471  0.0148 -0.0368
12578W        W16978  15.207   6.222  16.041 -0.0006  0.0104 -0.1521
12579W        W16979  13.287   5.478  16.752 -0.1721  0.2191 -0.1623
12580W        W16980   9.831   6.516  34.374  0.0676  0.0577  0.6174
12581W        W16981   2.056   2.834   3.431 -0.0873 -0.4936  0.1991
12582W        W16982  18.473   5.560  12.181  0.1635 -0.3238 -0.1895
12583W        W16983  13.569   2.870   0.567 -0.2390  0.0727 -0.2519
12584W        W16984   1.378   4.916  41.207  0.0604 -0.0419 -0.1800
12585W        W16985   7.394   4.666   9.885 -0.1250 -0.2544 -0.0346
12586W        W16986  12.479   2.413  14.038  0.3046  0.0374  0.1495
12587W        W16987  18.954   2.125  35.160  0.1967  0.1022 -0.1259
12588W        W16988   1.282   0.376  12.394 -0.2511  0.2462 -0.0050
12589W        W16989   2.570   2.219  12.178 -0.0577 -0.1583 -0.0936
12590W        W16990  14.892   1.236  40.439  0.0140 -0.0575  0.2872
12591W        W16991   2.622   2.007  10.310  0.0420 -0.0754  0.1194
12592W        W16992  18.744   1.152  37.385  0.2549 -0.2932 -0.0238
12593W        W16993   1.212   3.007  44.801  0.0383  0.0588  0.0775
12594W        W16994   2.773   5.876   4.149 -0.2809 -0.0528  0.1639
12595W        W16995  10.471   1.539  32.687  0.0574  0.1573  0.0443
12596W        W16996   3.577   0.038   8.916  0.0003  0.1249  0.0302
12597W        W16997   8.123   5.317   9.899 -0.2872 -0.0815 -0.0216
12598W        W16998   8.156   4.359   7.813  0.0596 -0.2828  0.0611
12599W        W16999  12.199   5.222   8.159  0.2113  0.0547  0.2116
12600W        W17000   6.660   4.120   8.864  0.0327 -0.0273 -0.1138
12601W        W17001   1.265   4.098  26.605 -0.2565 -0.1724  0.1891
12602W        W17002  17.540   1.141  14.521  0.3927 -0.0579  0.4044
12603W        W17003   0.089   2.371  30.065 -0.2823 -0.3221 -0.0569
12604W        W17004   7.063   3.747   4.071 -0.0473  0.0490 -0.1805
12605W        W17005   0.908   0.820  38.814 -0.3557  0.0202  0.1408
12606W        W17006   4.636   5.086  19.133 -0.2846 -0.0233  0.1504
12607W        W17007  15.595   0.678   8.879 -0.2886 -0.1057  0.0870
12608W        W17008  10.159   0.975  24.608 -0.0849 -0.0528  0.1459
12609W        W17009   3.402   4.294  37.265 -0.3635  0.1863  0.0878
12610W        W17010  20.237   2.675   6.311  0.2763  0.0176 -0.1337
12611W        W17011  17.664   5.879  43.610 -0.0940 -0.0222 -0.4306
12612W        W17012   3.119   1.237  14.438  0.0849  0.1157  0.0659
12613W        W17013   8.901   0.417  35.475  0.0741  0.2438  0.1193
12614W        W17014  11.322   3.076  11.210  0.2062 -0.1133 -0.0157
12615W        W17015  18.793   6.496   2.325 -0.1678 -0.0710 -0.2150
12616W        W17016  13.788   4.965  28.957 -0.1237 -0.1859  0.0085
12617W        W17017   3.594   1.192  11.829  0.0203 -0.1360 -0.0850
12618W        W17018  16.735   4.993  38.440  0.0499  0.2468 -0.0023
12619W        W17019  17.562   5.799  26.310  0.1147  0.1972 -0.3032
12620W        W17020   2.104   5.178  24.857 -0.1621 -0.1034  0.2671
12621W        W17021  17.818   6.013  11.711  0.0480 -0.0340  0.0994
12622W        W17022  11.256   3.981   5.332  0.4835  0.1691  0.3054
12623W        W17023   2.448   3.815  33.136  0.0315  0.0227 -0.0073
12624W        W17024  14.766   1.267  10.294 -0.0667  0.0129 -0.0219
12625W        W17025   2.560   5.320  33.968 -0.0949  0.4183 -0.1691
12626W        W17026  20.989   1.623   9.228 -0.3050  0.1947  0.0514
12627W        W17027  12.325   6.080  35.572 -0.1199 -0.0787 -0.2964
12628W        W17028   5.334   1.922  35.659  0.2825  0.3816 -0.0398
12629W        W17029   0.448   3.390  42.982 -0.2606  0.0516  0.0919
12630W        W17030  16.637   5.485  39.541  0.1213 -0.1117  0.0644
12631W        W17031   3.337   4.534  43.447  0.4552 -0.3597 -0.1954
12632W        W17032   1.422   6.314   1.610 -0.2280  0.1517 -0.2507
12633W        W17033   6.057   3.844  35.981  0.0297 -0.2178  0.0724
12634W        W17034  12.384   1.646   5.782  0.1535  0.1428  0.0091
12635W        W17035  20.236   2.642  37.843  0.0408  0.0362 -0.2509
12636W        W17036   3.076   1.575  32.961  0.3339 -0.0384  0.0373
12637W        W17037  11.473   0.719  22.158 -0.1375 -0.0277  0.1711
12638W        W17038   3.472   6.321  11.631  0.0618  0.1023 -0.1358
12639W        W17039  18.221   0.528  28.772 -0.0505  0.2101  0.0915
12640W        W17040  19.272   4.570  22.699  0.1663  0.0533  0.0423
12641W        W17041   0.984   0.677  37.186  0.2437 -0.0569 -0.0328
12642W        W17042   6.672   0.770  37.643  0.4014 -0.2599 -0.4638
12643W        W17043   3.835   1.771  43.071  0.1377 -0.0162  0.1216
12644W        W17044  12.213   5.698   2.253 -0.1098  0.0940  0.2993
12645W        W17045  11.555   3.846   4.438 -0.0537 -0.1577 -0.1609
12646W        W17046   2.113   1.062  26.253  0.0162  0.0003 -0.3304
12647W        W17047   3.027   1.396   7.836  0.2270 -0.1932 -0.1772
12648W        W17048  19.130   3.973  26.723  0.2150  0.0135 -0.4060
12649W        W17049   5.606   0.779   0.140  0.1159 -0.1521  0.0986
12650W        W17050  18.281   1.496  39.268  0.0100  0.1197  0.1773
12651W        W17051  15.778   3.126  41.341  0.0347  0.0301 -0.2600
12652W        W17052   4.201   4.114  41.721 -0.1515 -0.3813 -0.2588
12653W        W17053   0.851   2.164  32.937 -0.1008  0.1316 -0.2404
12654W        W17054  11.766   2.013   9.954  0.1469 -0.1191 -0.3198
12655W        W17055  10.020   5.273  33.123  0.1149 -0.1829  0.1575
12656W        W17056   5.298   4.658  15.617  0.1119 -0.0998 -0.1574
12657W        W17057  19.399   4.536  32.785  0.0349  0.0434 -0.3041
12658W        W17058   5.052   3.653   5.793 -0.1539  0.0135 -0.0985
12659W        W17059   6.781   6.315  38.950 -0.0908 -0.0424 -0.1601
12660W        W17060  17.385   4.565  34.567  0.2114 -0.0235 -0.2302
12661W        W17061   6.760   0.120  43.706  0.2196  0.0154  0.4442
12662W        W17062  13.962   6.000  16.741 -0.1441  0.1681  0.0255
12663W        W17063  11.235   3.823  31.013 -0.1771 -0.2201  0.1050
12664W        W17064   6.809   5.375  31.918 -0.0610 -0.0770 -0.0216
12665W        W17065  19.325   3.692  32.159  0.3873  0.1071  0.1235
12666W        W17066  13.483   5.229  10.818  0.0473  0.1768  0.1778
12667W        W17067  16.332   1.526   2.672  0.1291 -0.1466  0.2749
12668W        W17068  17.739   5.305  21.957  0.2108 -0.0227 -0.1982
12669W        W17069  18.744   6.012  26.648  0.0240  0.3384  0.1066
12670W        W17070  18.272   5.291  43.660  0.2137  0.1266 -0.0610
12671W        W17071   7.151   2.414   8.577  0.1254 -0.0157  0.0250
12672W        W17072   2.289   1.641  27.500 -0.0097 -0.2378  0.0222
12673W        W17073   9.578   4.393  37.327  0.0818  0.3742  0.2717
12674W        W17074   4.769   2.830  42.950 -0.2510 -0.1665 -0.1047
12675W        W17075   5.336   2.404  31.421 -0.0347  0.1632  0.1292
12676W        W17076  16.089   3.924  41.604  0.1356  0.1789 -0.0841
12677W        W17077   1.100   1.178   9.772 -0.1141 -0.1647 -0.0029
12678W        W17078  13.128   2.050  20.502 -0.0164  0.2347  0.1340
12679W        W17079   7.424   6.465  35.548 -0.0604  0.1422 -0.0462
12680W        W17080  15.981   6.040  37.184  0.0305  0.2835 -0.3302
12681W        W17081  14.508   3.536  33.816 -0.0058  0.0614 -0.1626
12682W        W17082   8.647   6.446   8.951  0.1922  0.1174 -0.1140
12683W        W17083   5.300   0.156   3.021  0.1609 -0.0677  0.0200
12684W        W17084   2.276   1.336   2.487 -0.3180 -0.2058 -0.1308
12685W        W17085   7.688   3.680  38.815  0.1456  0.0371  0.0168
12686W        W17086   3.498   2.800  31.274 -0.3516  0.0144  0.0532
12687W        W17087   0.047   4.477  31.854  0.1534 -0.2327 -0.2167
12688W        W17088   8.681   2.708   3.140  0.2385  0.0357 -0.2080
12689W        W17089  12.869   0.297  20.503  0.1240 -0.2162  0.2418
12690W        W17090  12.367   3.756   9.854  0.1553 -0.3161  0.0797
12691W        W17091  10.977   0.016  16.090  0.0259 -0.2980 -0.3495
12692W        W17092   3.466   0.113   0.052 -0.0844  0.0374  0.0774
12693W        W17093  14.936   4.894  31.564  0.2577  0.1344 -0.2145
12694W        W17094   6.853   3.992   0.111  0.2645 -0.0549 -0.4748
12695W        W17095   7.397   3.490   1.173  0.2990 -0.1062 -0.0944
12696W        W17096   9.619   1.180  32.247  0.0187  0.1139 -0.2088
12697W        W17097   7.947   2.090  33.820  0.0844  0.2360  0.0185
12698W        W17098   6.686   0.015  33.323 -0.0569  0.0153  0.0755
12699W        W17099   5.061   0.169  17.188 -0.0787 -0.4200 -0.1949
12700W        W17100  13.452   5.479  39.575 -0.1735  0.0782  0.0142
12701W        W17101  16.038   4.307  41.935  0.1577 -0.1576 -0.1536
12702W        W17102  14.355   5.608  33.275 -0.1817  0.1168 -0.2137
12703W        W17103   9.513   1.168   5.208 -0.1054 -0.1304  0.2865
12704W        W17104   9.514   5.278  32.192 -0.0855  0.0331  0.2233
12705W        W17105  12.909   5.352  38.708 -0.3465  0.3804 -0.2349
12706W        W17106   9.342   4.819  24.457  0.2819  0.0041  0.3290
12707W        W17107  20.151   6.297   6.112  0.1067 -0.1281  0.1679
12708W        W17108  18.356   2.944  31.554 -0.0055 -0.0613  0.0975
12709W        W17109  10.518   2.298   9.083  0.0141 -0.0662  0.3525
12710W        W17110   1.987   6.278  36.139 -0.0187 -0.1670  0.1575
12711W        W17111  11.923   3.101  36.608 -0.0017 -0.3010 -0.2398
12712W        W17112  17.970   0.433  38.562 -0.1611 -0.0583 -0.1461
12713W        W17113  16.720   4.672   2.613  0.2509 -0.0222  0.2589
12714W        W17114  19.476   5.498  38.429 -0.2559 -0.2382 -0.1367
12715W        W17115  17.302   2.606  43.241 -0.1900 -0.1669  0.4844
12716W        W17116   9.099   1.255   8.490 -0.0640 -0.0485 -0.1839
12717W        W17117   1.315   0.801  29.052 -0.0691  0.1750 -0.0937
12718W        W17118  11.109   3.980  12.929  0.2648  0.1990 -0.0389
12719W        W17119  13.521   5.790  12.239 -0.1392 -0.4591  0.1917
12720W        W17120   9.607   5.463  15.243 -0.0067  0.0297 -0.0416
12721W        W17121  15.739   3.882  13.677  0.0228  0.0021 -0.1647
12722W        W17122   1.376   2.125  21.958  0.0063  0.1654  0.0234
12723W        W17123   4.743   0.871  37.755 -0.0182  0.2930 -0.0369
12724W        W17124  17.688   1.706  43.147  0.2662  0.3566  0.1078
12725W        W17125   4.446   0.783  10.661  0.0592 -0.0850  0.1273
12726W        W17126   2.620   4.568  33.837 -0.1497 -0.2987  0.0525
12727W        W17127  11.660   3.917  35.179  0.0363  0.0123  0.1973
12728W        W17128   1.140   5.373  23.278  0.0270 -0.2316  0.1397
12729W        W17129   3.561   0.364  37.304 -0.2227 -0.2408  0.0940
12730W        W17130   0.768   3.211  44.141 -0.0955  0.0262  0.1624
12731W        W17131   3.328   1.443  27.127 -0.0596  0.2774 -0.1482
12732W        W17132  15.701   4.947  40.051  0.2970 -0.1539 -0.1126
12733W        W17133   0.072   5.368  25.111  0.0125 -0.1405 -0.2892
12734W        W17134  20.626   2.413  21.463 -0.1957  0.0682 -0.1337
12735W        W17135  10.139   5.522  17.944 -0.0307 -0.0518  0.3346
12736W        W17136   0.246   4.631  11.069  0.2446 -0.1229 -0.2007
12737W        W17137  17.151   3.033  26.827  0.0421  0.2642  0.0485
12738W        W17138  20.359   3.757   0.107 -0.1114 -0.0132 -0.1068
12739W        W17139   1.722   2.529  10.477 -0.1654  0.3037  0.0665
12740W        W17140  14.340   3.423   8.587 -0.1875  0.0765  0.0087
12741W        W17141   9.090   6.600  38.913  0.0333 -0.0741 -0.1314
12742W        W17142   3.921   0.683   0.111 -0.1635  0.0143  0.0960
12743W        W17143   2.549   1.253  25.949  0.1642 -0.0560  0.1201
12744W        W17144  18.836   3.565  11.619  0.4144 -0.1147 -0.1405
12745W        W17145  16.049   2.233  37.875 -0.0305 -0.3607 -0.1208
12746W        W17146   4.987   1.724  13.675  0.1792  0.1101 -0.0171
12747W        W17147  14.957   1.887  13.271  0.2698 -0.1206  0.0488
12748W        W17148  16.027   3.870  31.530  0.1582  0.2151  0.0299
12749W        W17149  11.293   3.362   5.296  0.0170  0.2425  0.1986
12750W        W17150   3.790   2.799  17.117  0.2605  0.1991 -0.0564
12751W        W17151  16.963   4.691  28.649 -0.0247 -0.1878  0.1242
12752W        W17152   3.421   3.107   8.326  0.5809  0.3124 -0.3071
12753W        W17153  12.309   0.881  44.970  0.2983 -0.1631 -0.0570
12754W        W17154  12.140   5.249   1.078 -0.1004 -0.2356 -0.0898
12755W        W17155   1.939   1.836  41.344  0.0369  0.3048 -0.0330
12756W        W17156  16.080   5.859  14.778 -0.1872 -0.0927  0.2413
12757W        W17157  15.656   0.023  14.147 -0.3218 -0.2410  0.1545
12758W        W17158  13.546   6.366  43.051  0.1519  0.1779 -0.0758
12759W        W17159  13.739   4.604  19.862  0.1500 -0.1252  0.1261
12760W        W17160   2.366   4.723  36.143 -0.0139  0.0436 -0.2185
12761W        W17161  16.446   1.839  31.627 -0.0939  0.3516 -0.1904
12762W        W17162   8.582   0.792  12.330  0.1998 -0.1655 -0.1632
12763W        W17163  17.415   0.210  12.878 -0.0222  0.0639 -0.4605
12764W        W17164  18.496   3.421   5.419 -0.2680 -0.0783  0.2561
12765W        W17165  14.152   0.052  38.015  0.2342 -0.3152 -0.0339
12766W        W17166  13.985   5.953   7.105 -0.2170 -0.0676  0.0700
12767W        W17167  18.873   5.038  39.586 -0.2684 -0.1394  0.1556
12768W        W17168   0.291   4.178  41.742 -0.4572  0.1342 -0.0866
12769W        W17169   6.491   5.483  12.247 -0.1391  0.4853 -0.0134
12770W        W17170  19.245   2.834  23.369 -0.4429  0.0028 -0.2552
12771W        W17171   2.054   2.022  24.438 -0.0742  0.3809  0.0717
12772W        W17172   7.952   1.913  20.542 -0.0138 -0.3147 -0.0123
12773W        W17173  10.247   2.812  14.476  0.0016 -0.2855 -0.4234
12774W        W17174   1.214   6.598  34.896 -0.1693  0.1064  0.1996
12775W        W17175  18.630   5.490  10.989  0.0227  0.0257  0.2410
12776W        W17176   3.885   5.207   1.718 -0.0504  0.0533 -0.0625
12777W        W17177   8.095   2.236  16.977  0.1536  0.0439 -0.0608
12778W        W17178   4.787   3.918  28.152  0.0563 -0.1510 -0.1001
12779W        W17179  19.395   6.598  25.108 -0.0229 -0.0877  0.3095
12780W        W17180   2.401   3.069  25.651 -0.0162 -0.1060  0.2009
12781W        W17181   6.062   0.868   2.076  0.0027 -0.0595 -0.1636
12782W        W17182   6.019   1.624  42.964 -0.3535  0.1084 -0.1736
12783W        W17183   2.129   1.593  41.779  0.0535  0.0534  0.1181
12784W        W17184  10.029   5.892   6.504  0.1601  0.1708  0.0310
12785W        W17185  12.982   3.910  35.186 -0.1710 -0.1192  0.1095
12786W        W17186   2.698   0.846  13.980 -0.2190  0.1408 -0.3315
12787W        W17187   6.853   1.505  16.356 -0.0569  0.2802 -0.3843
12788W        W17188  11.663   3.116  39.192 -0.1821 -0.0606  0.0229
12789W        W17189  15.685   0.455   5.408 -0.1831 -0.0103 -0.1864
12790W        W17190   0.825   3.329   6.546  0.0909  0.1976 -0.0077
12791W        W17191   0.868   3.879  26.447 -0.0479  0.0810 -0.1488
12792W        W17192   6.091   0.686  30.593 -0.2499  0.1209  0.0940
12793W        W17193  20.062   0.621   8.771 -0.1630  0.1191 -0.1402
12794W        W17194   1.877   5.765  37.748 -0.1902 -0.2589 -0.3135
12795W        W17195   7.010   0.658  34.440 -0.0886  0.0710  0.3137
12796W        W17196   3.409   6.121  14.133 -0.3268  0.0035  0.0655
12797W        W17197  20.667   6.396   4.373  0.1457 -0.1626  0.0789
12798W        W17198  10.401   1.097   3.056 -0.0784  0.1258  0.0633
12799W        W17199   3.193   0.899   5.031 -0.1164  0.0266  0.0162
12800W        W17200  15.552   1.348  29.039 -0.0930 -0.1020 -0.1395
12801W        W17201  13.504   0.861  14.894 -0.0780  0.2793  0.0435
12802W        W17202   8.472   4.329  36.633  0.0784  0.0645  0.0358
12803W        W17203   7.940   1.249  22.969  0.1555  0.1121  0.0359
12804W        W17204  15.311   0.934  15.760 -0.1067  0.1679  0.0958
12805W        W17205   1.498   5.088  25.001 -0.0842 -0.2051 -0.0008
12806W        W17206   7.946   4.856  13.449  0.2190 -0.0945  0.0552
12807W        W17207   7.585   3.635  23.239 -0.0264 -0.2027  0.2725
12808W        W17208  17.807   4.847   3.970  0.1597 -0.1068  0.2413
12809W        W17209  11.742   5.372  39.510 -0.0561 -0.0607  0.0704
12810W        W17210   2.709   1.709  16.595 -0.1712 -0.0890 -0.1805
12811W        W17211   2.381   3.453   9.189 -0.2870 -0.1195  0.0536
12812W        W17212  11.941   0.206  17.343 -0.0158  0.2205 -0.1270
12813W        W17213   1.015   5.815  39.318 -0.3386  0.2281  0.3978
12814W        W17214  17.393   4.126   5.626  0.1046 -0.0528 -0.1202
12815W        W17215   9.276   1.715  24.482 -0.1558  0.1122 -0.2004
12816W        W17216   4.460   0.834  18.735  0.0321 -0.1872  0.2949
12817W        W17217   2.128   3.077  39.860 -0.0493 -0.1590  0.1743
12818W        W17218  15.477   3.831   5.304  0.1035 -0.1199  0.0531
12819W        W17219  11.292   0.576  32.555 -0.2182  0.1203 -0.1020
12820W        W17220   4.563   3.038  11.377  0.2149  0.3017 -0.0385
12821W        W17221  16.681   3.550  15.181 -0.1448 -0.0163 -0.0690
12822W        W17222   0.206   0.165  32.758 -0.0168 -0.0579  0.0514
12823W        W17223   3.223   6.076  44.718 -0.0209 -0.1811  0.1886
12824W        W17224   6.280   5.141  41.557  0.0042  0.0015  0.0116
12825W        W17225   9.818   1.466  37.446  0.4606 -0.0343 -0.1605
12826W        W17226  12.575   6.346  20.493  0.2115  0.0643  0.0593
12827W        W17227  20.700   3.308  38.418 -0.1152  0.0641  0.0963
12828W        W17228   9.186   2.329   0.225  0.2626 -0.3583 -0.0669
12829W        W17229   1.983   6.310  11.174  0.1924  0.0060  0.2033
12830W        W17230  16.519   0.997   9.035  0.1873 -0.0033 -0.0792
12831W        W17231  16.874   6.504  28.692 -0.0524 -0.0160 -0.1590
12832W        W17232   5.072   3.753   5.292  0.2212 -0.0287 -0.0440
12833W        W17233  11.774   3.755  27.700 -0.0597 -0.0118  0.1622
12834W        W17234   6.570   6.469  38.436  0.2198 -0.1736 -0.0469
12835W        W17235  11.874   6.338  20.801 -0.0458 -0.0271  0.0979
12836W        W17236  11.998   2.874   3.468  0.1461 -0.3760 -0.0426
12837W        W17237   7.625   4.942  33.461  0.0763 -0.1741 -0.0671
12838W        W17238   1.689   0.273  11.435 -0.1213  0.0349 -0.0634
12839W        W17239  11.701   3.470  13.296 -0.4008 -0.1691 -0.2325
12840W        W17240   3.476   1.383   4.763  0.0810 -0.0428  0.1032
12841W        W17241   2.071   6.460  41.380 -0.1478  0.1689 -0.2812
12842W        W17242   5.164   3.846   4.767  0.2300 -0.1284  0.0955
12843W        W17243  13.872   5.506   9.915 -0.0588 -0.3920  0.1079
12844W        W17244   2.282   4.346   0.157  0.1543 -0.1347 -0.3912
12845W        W17245  10.895   4.394  33.063 -0.2509 -0.0584 -0.2025
12846W        W17246   6.870   6.134  35.671 -0.0823  0.0020  0.0753
12847W        W17247  19.399   1.981   4.121 -0.1822 -0.0112 -0.0471
12848W        W17248   5.630   1.454   1.671 -0.0785 -0.4270  0.2137
12849W        W17249   2.877   0.603   7.894 -0.1736 -0.1569 -0.0917
12850W        W17250  20.055   1.623  37.594  0.0411 -0.0647  0.0215
12851W        W17251  13.029   5.682  18.945  0.2725  0.0671 -0.3175
12852W        W17252   1.726   4.099  32.683  0.2332  0.0495  0.3667
12853W        W17253  10.564   4.841  40.933 -0.0404 -0.0685 -0.1575
12854W        W17254   6.279   4.380  17.797  0.3611  0.0543 -0.0517
12855W        W17255   8.256   4.768  32.148 -0.1835  0.3467  0.0821
12856W        W17256   9.724   0.024  21.872  0.1167  0.0209 -0.1089
12857W        W17257   1.694   4.869  36.031  0.1320  0.1057  0.1983
12858W        W17258  12.957   0.019  41.738  0.0366 -0.4152  0.0290
12859W        W17259  18.669   3.953   4.240 -0.0601 -0.1421  0.3000
12860W        W17260  11.271   5.815   1.175  0.0899 -0.0954  0.1765
12861W        W17261  10.909   0.749  15.543 -0.0042 -0.4414 -0.1357
12862W        W17262   3.514   4.847  36.613 -0.0383  0.1032  0.2862
12863W        W17263  13.262   3.254  29.190 -0.0894 -0.1705 -0.1718
12864W        W17264  14.032   0.961  29.196  0.1128  0.0320  0.0382
12865W        W17265   0.185   4.794   4.535  0.0298 -0.0958 -0.1208
12866W        W17266  16.192   3.970  32.323 -0.2287 -0.0048  0.0962
12867W        W17267  18.694   5.114  24.117  0.3190 -0.1402  0.0566
12868W        W17268   9.646   3.608  35.149 -0.0640  0.4678  0.2020
12869W        W17269  18.434   1.500  22.904  0.1006  0.1117 -0.0210
12870W        W17270  14.643   5.620  28.174  0.0526 -0.1741  0.0781
12871W        W17271   0.535   0.258  36.312  0.3602 -0.0370 -0.0074
12872W        W17272   0.876   3.333  36.516 -0.1176  0.1612 -0.0503
12873W        W17273   3.022   3.148   8.752  0.1379  0.0475 -0.1953
12874W        W17274  18.146   3.284  22.970  0.1098  0.0769  0.2291
12875W        W17275   4.642   5.643  12.956 -0.2648  0.0401 -0.0969
12876W        W17276  11.188   3.615  39.398  0.1366 -0.1612 -0.3828
12877W        W17277  14.631   3.868  37.788  0.1246 -0.1825  0.0941
12878W        W17278   6.537   2.155  11.425 -0.1266  0.2855 -0.0169
12879W        W17279  13.649   1.278   1.184 -0.1669 -0.0971  0.2416
12880W        W17280   8.123   2.462  16.053 -0.1375  0.3523 -0.0454
12881W        W17281   9.496   4.639   9.740 -0.0817  0.1005 -0.2472
12882W        W17282   7.289   1.993  12.676 -0.1209  0.0385 -0.1116
12883W        W17283   5.446   2.965  11.561 -0.2904 -0.5767  0.0858
12884W        W17284  13.076   3.800  28.780 -0.3785 -0.3063  0.2334
12885W        W17285  13.022   4.532   4.955  0.1389  0.0225 -0.1286
12886W        W17286   4.485   5.639  30.205  0.1328  0.0219 -0.0764
12887W        W17287   4.692   0.354  15.542 -0.2084 -0.1820 -0.3734
12888W        W17288   4.168   5.653  13.609 -0.1425 -0.0987 -0.0082
12889W        W17289  14.439   5.386  43.455  0.0125 -0.0064 -0.1329
12890W        W17290  17.193   0.241  44.755  0.0254  0.1419  0.0295
12891W        W17291  14.632   4.777   2.926  0.1336  0.1540  0.0514
12892W        W17292   5.750   0.434  37.628 -0.2101 -0.1760 -0.3163
12893W        W17293   0.832   1.065  29.588  0.0367  0.0690  0.0390
12894W        W17294  14.878   6.128  12.593  0.2226 -0.0842 -0.0245
12895W        W17295  12.176   1.624  36.085  0.5116  0.0781 -0.0958
12896W        W17296  13.225   6.090   4.839  0.0829  0.1210 -0.0863
12897W        W17297   0.456   0.346  32.302  0.2939  0.0662 -0.1281
12898W        W17298  18.845   5.957  24.941 -0.2108 -0.1185  0.1613
12899W        W17299  17.752   5.636   4.614  0.0881 -0.3489  0.0571
12900W        W17300  12.476   5.612   9.406  0.1713  0.1007 -0.1934
12901W        W17301  13.169   0.985  43.042 -0.1341 -0.2476 -0.0602
12902W        W17302  10.539   0.385  35.026  0.0975 -0.0421 -0.0893
12903W        W17303  17.076   2.611   3.374 -0.3088 -0.2381  0.1184
12904W        W17304   0.736   0.175  13.913 -0.0640  0.3068 -0.3600
12905W        W17305   1.226   5.860  38.855 -0.0551  0.0653  0.1363
12906W        W17306   7.385   1.927  34.083  0.2127 -0.1909 -0.1492
12907W        W17307  17.859   5.906  28.834 -0.1526  0.1566 -0.2379
12908W        W17308   2.099   4.264  16.078  0.1276  0.0051  0.3004
12909W        W17309  18.308   3.489  14.953  0.0988  0.0428  0.0242
12910W        W17310  19.401   4.884  33.166 -0.3031  0.1002 -0.0014
12911W        W17311   0.092   0.868   2.796 -0.3898  0.1019 -0.1872
12912W        W17312  20.752   2.456   0.666 -0.3146  0.0948  0.1545
12913W        W17313  14.874   2.711   0.817 -0.2880 -0.0796  0.0356
12914W        W17314   1.277   0.846  37.569  0.0439 -0.0193 -0.0540
12915W        W17315  16.249   0.291   4.759 -0.1517  0.0665  0.0027
12916W        W17316   0.949   3.631   0.478 -0.0085 -0.1032 -0.1453
12917W        W17317   3.688   6.007  29.649 -0.1289  0.1057  0.0542
12918W        W17318  20.777   0.242   8.859 -0.1894 -0.0521  0.1524
12919W        W17319  12.829   6.563   1.336  0.0766 -0.0270 -0.0709
12920W        W17320  11.611   0.148  43.904 -0.1528  0.1095  0.2204
12921W        W17321  20.210   0.134  31.085 -0.0069 -0.0290  0.0964
12922W        W17322   1.718   5.601   3.169  0.0563  0.0815  0.3475
12923W        W17323  18.124   5.512  30.112  0.0988 -0.0258  0.2709
12924W        W17324  19.526   5.703   9.103  0.0383  0.3089 -0.2209
12925W        W17325   4.713   3.059   1.723 -0.1910 -0.2141 -0.2670
12926W        W17326  10.550   5.433   3.248  0.0032  0.2113  0.1044
12927W        W17327  12.156   0.066  21.221 -0.1022  0.2107 -0.0662
12928W        W17328  10.802   0.734  43.980  0.2509 -0.0815  0.1399
12929W        W17329  16.221   1.831   5.074 -0.0392 -0.0782 -0.0150
12930W        W17330  11.142   1.068  23.292  0.0588  0.2306 -0.1299
12931W        W17331   8.462   1.653   8.836 -0.1809  0.0256  0.2688
12932W        W17332   5.360   4.133   8.080 -0.0508 -0.0933  0.0018
12933W        W17333   4.083   0.131  33.189  0.0615  0.0591  0.2693
12934W        W17334   7.094   1.464  16.813  0.2293  0.1230 -0.0713
12935W        W17335   4.322   4.521  16.257  0.0640  0.0798 -0.0461
12936W        W17336  14.403   0.945  31.991  0.0401  0.1909 -0.2443
12937W        W17337  14.677   2.386  35.111 -0.2331  0.0490 -0.1290
12938W        W17338   0.828   1.092   0.609  0.4881 -0.2532  0.0134
12939W        W17339  14.182   4.075  37.221  0.0207 -0.1800 -0.0188
12940W        W17340   3.668   1.653   6.075  0.1693  0.1287 -0.0720
12941W        W17341  15.091   5.746   9.525  0.0733  0.3081 -0.2851
12942W        W17342   7.010   1.160  34.409  0.1359  0.1775 -0.1806
12943W        W17343   1.130   2.149  44.241  0.1888  0.0505  0.1639
12944W        W17344  19.565   1.441  33.894  0.0223 -0.2064 -0.0643
12945W        W17345  19.914   3.074   4.615  0.0904 -0.1733 -0.0354
12946W        W17346  13.755   1.049   9.196 -0.2625 -0.2862  0.1145
12947W        W17347  16.577   5.095  15.466  0.0464  0.4043  0.3153
12948W        W17348  13.714   4.627  28.096 -0.2173  0.0443  0.0300
12949W        W17349  19.815   5.764   6.255 -0.0009 -0.1536 -0.0428
12950W        W17350   4.540   3.313  10.958 -0.0396 -0.1415  0.0231
12951W        W17351  20.277   0.221  30.078 -0.0227 -0.0273 -0.2052
12952W        W17352   9.172   3.072  21.045  0.2721  0.1773  0.1189
12953W        W17353  14.149   5.238  35.609 -0.0161 -0.0336 -0.0884
12954W        W17354   7.912   2.719  40.326  0.3492 -0.3619  0.2359
12955W        W17355  16.914   2.772   9.236  0.0469  0.0098  0.0215
12956W        W17356   3.932   1.992  33.232  0.2662  0.3360 -0.0691
12957W        W17357  11.080   0.840   3.303 -0.1426  0.0614  0.0295
12958W        W17358   6.380   2.814  43.591  0.0738 -0.1119 -0.1524
12959W        W17359  13.269   2.145  39.408 -0.4076 -0.0141  0.1379
12960W        W17360   0.329   1.374  14.457  0.2439  0.1664 -0.0567
12961W        W17361  14.130   0.645  40.644 -0.1312 -0.0577 -0.1983
12962W        W17362  14.404   0.612  41.072  0.0579 -0.2818  0.1347
12963W        W17363  17.490   4.666  25.189  0.0630  0.2210 -0.5279
12964W        W17364  11.640   6.472   7.179 -0.1333  0.2520 -0.2566
12965W        W17365   5.946   3.975   9.362  0.2018  0.1831 -0.1036
12966W        W17366   6.044   1.749   0.703  0.2070 -0.0788  0.0043
12967W        W17367  11.740   6.211  20.182 -0.1716  0.2154 -0.1102
12968W        W17368  17.909   3.871  32.579 -0.0536  0.0396 -0.0668
12969W        W17369   3.761   2.275   2.828  0.1356 -0.0064  0.0158
12970W        W17370   2.133   0.758  38.595  0.3327 -0.1541 -0.0543
12971W        W17371   5.997   4.419  14.416  0.0696  0.0712 -0.0861
12972W        W17372  13.666   2.182  43.014 -0.1580  0.2232  0.0027
12973W        W17373  14.603   3.371  41.843 -0.0738 -0.3750 -0.2208
12974W        W17374   6.327   4.617   8.082  0.2268  0.1401 -0.1329
12975W        W17375  19.485   0.682  43.551  0.1468 -0.1521 -0.1031
12976W        W17376   1.826   1.606  24.143 -0.0234  0.2748 -0.1089
12977W        W17377  14.111   6.217  11.979 -0.0871  0.0908 -0.0728
12978W        W17378  16.202   5.150  44.963 -0.0441  0.0617 -0.0230
12979W        W17379   7.682   5.409   6.836  0.3158 -0.2737  0.0735
12980W        W17380  11.159   1.476  16.928 -0.0644  0.1868 -0.0661
12981W        W17381  14.342   4.692  32.920  0.0898  0.0780 -0.1056
12982W        W17382  19.515   0.790  44.401  0.2695  0.4163  0.3888
12983W        W17383  19.561   6.053   4.829  0.0471 -0.2037  0.1101
12984W        W17384   6.054   0.803  28.832  0.2035  0.2699 -0.2001
12985W        W17385  16.510   0.129   2.782 -0.0818 -0.2368  0.0844
12986W        W17386   4.380   5.498  33.374 -0.2876  0.0038 -0.0869
12987W        W17387   6.346   5.821  13.912  0.1649  0.0900  0.0881
12988W        W17388   1.005   5.238  11.554  0.1696 -0.3886 -0.1217
12989W        W17389  17.300   4.634  43.169  0.1333  0.1233 -0.4399
12990W        W17390  10.987   3.847  21.327  0.0199  0.0271  0.3611
12991W        W17391  19.299   0.987   2.674 -0.0560 -0.0788 -0.0549
12992W        W17392   5.959   3.695  15.468 -0.0371  0.1369 -0.1376
12993W        W17393   5.561   5.062   6.934 -0.2566  0.3740 -0.1284
12994W        W17394   5.957   1.667  43.445  0.1075  0.1178 -0.0155
12995W        W17395   6.035   2.924  13.349  0.1253 -0.0186 -0.2130
12996W        W17396   5.743   0.343   2.783 -0.0739 -0.1645 -0.2035
12997W        W17397  18.049   5.714  10.147  0.2100  0.0092  0.0093
12998W        W17398   7.332   5.314   1.928 -0.0034  0.1045 -0.0527
12999W        W17399  16.520   0.698  42.616  0.1435  0.0141  0.2120
13000W        W17400  10.117   4.749   7.535  0.0654 -0.1264  0.0582
13001W        W17401  20.821   0.092  32.161  0.0410 -0.2899 -0.0855
13002W        W17402  11.761   5.632  17.024 -0.3381 -0.3167 -0.1894
13003W        W17403   1.389   2.501  16.136 -0.0087 -0.2015  0.1575
13004W        W17404  11.431   0.074   8.136 -0.0980 -0.0484  0.0748
13005W        W17405   1.019   2.038  25.301 -0.0694  0.1090 -0.0914
13006W        W17406  11.283   5.306  41.455  0.0903  0.0247 -0.1337
13007W        W17407  16.785   1.517  13.250 -0.0836  0.1631 -0.0244
13008W        W17408  12.365   3.146  29.047 -0.0510 -0.0537  0.2411
13009W        W17409   2.306   4.398  39.787  0.0149  0.0369 -0.1621
13010W        W17410   7.797   5.317  17.199  0.2500  0.2098  0.1332
13011W        W17411  14.555   2.253  14.544  0.0401 -0.0330 -0.1275
13012W        W17412   6.207   0.411  31.211  0.3643 -0.0957 -0.0797
13013W        W17413  10.045   1.996   1.796 -0.0425  0.2078 -0.0737
13014W        W17414  17.461   3.771  25.968  0.2054 -0.0904 -0.0560
13015W        W17415  13.173   4.185  32.694  0.0843 -0.1013 -0.1010
13016W        W17416  11.795   5.960  35.999 -0.0147  0.2032 -0.0902
13017W        W17417   3.551   2.543  34.369 -0.0609  0.1585  0.2444
13018W        W17418  10.992   4.731  29.659 -0.2197 -0.3090 -0.1062
13019W        W17419   0.874   5.543  44.173  0.1055  0.1003  0.0572
13020W        W17420  11.488   0.575  31.977  0.3140  0.1865  0.0048
13021W        W17421   1.021   2.948  22.959  0.0756  0.0379 -0.1130
13022W        W17422   7.758   1.399  18.414  0.0257 -0.3432  0.1003
13023W        W17423  12.683   2.571  19.515 -0.1878 -0.1378 -0.0681
13024W        W17424   1.155   5.489  39.975 -0.0208 -0.0017  0.0109
13025W        W17425  14.318   6.237   7.326  0.2367 -0.0534  0.1972
13026W        W17426   0.425   2.353  41.488  0.1794 -0.0938 -0.3039
13027W        W17427  17.698   3.997  11.334 -0.3181 -0.1495 -0.0565
13028W        W17428  17.170   0.498  42.721 -0.1218  0.3627  0.2390
13029W        W17429  12.322   3.989  42.375 -0.1082 -0.2785  0.0266
13030W        W17430  18.484   3.738   3.396  0.0071  0.0957 -0.1522
13031W        W17431   4.693   6.201  15.552 -0.0364  0.1225 -0.0205
13032W        W17432   1.399   2.054  35.480 -0.0221  0.1686 -0.1148
13033W        W17433  20.884   1.973  39.909 -0.0033  0.1274 -0.1821
13034W        W17434  10.658   1.199  23.230  0.1144 -0.1619 -0.1675
13035W        W17435   3.409   4.455  28.469  0.1032 -0.0814 -0.0140
13036W        W17436  20.642   4.375   9.419  0.1246 -0.0743 -0.0604
13037W        W17437  19.718   1.927  13.861  0.2080  0.0093 -0.1722
13038W        W17438  12.256   3.542  42.807 -0.3837  0.4159  0.0050
13039W        W17439   7.964   4.323  32.449  0.2104 -0.0027 -0.3923
13040W        W17440  15.269   6.357   4.586 -0.0218 -0.3846  0.1624
13041W        W17441  18.704   4.958  13.991 -0.0152  0.0215 -0.2106
13042W        W17442  12.795   1.313  13.237 -0.0496  0.2614 -0.0027
13043W        W17443   7.168   4.633  41.635 -0.0394  0.1577  0.0667
13044W        W17444   7.953   6.092  23.509  0.0330  0.2139 -0.0919
13045W        W17445  19.005   3.454   0.106 -0.0083 -0.1078 -0.0273
13046W        W17446   9.689   3.957  43.564  0.1628  0.0666 -0.0670
13047W        W17447   5.395   6.542  12.325 -0.0998 -0.0850  0.0234
13048W        W17448   6.205   2.059  43.286  0.0106 -0.1468  0.0151
13049W        W17449  20.616   5.012  38.641  0.0540  0.1953 -0.1726
13050W        W17450  12.146   2.689   6.714  0.0616 -0.1186 -0.2467
13051W        W17451  16.001   6.433  27.775  0.0710  0.0465  0.1340
13052W        W17452   3.958   1.300  16.855 -0.2515 -0.3649 -0.0761
13053W        W17453  11.296   0.247  17.663  0.0711 -0.0539 -0.1115
13054W        W17454   1.403   5.314  15.906 -0.2301 -0.1242  0.0458
13055W        W17455   6.389   0.456  15.611 -0.0578 -0.1024  0.4037
13056W        W17456  19.933   3.672  29.021  0.3165 -0.0213  0.3208
13057W        W17457  20.259   2.199  43.350  0.0676 -0.0246  0.0652
13058W        W17458  20.161   0.447  34.770 -0.0110  0.2419  0.4201
13059W        W17459   9.063   3.870   0.424  0.0149  0.0825 -0.2617
13060W        W17460   4.981   3.369   0.144  0.2785  0.1638  0.1887
13061W        W17461   2.702   0.392   9.473  0.0742 -0.0069  0.1691
13062W        W17462   7.970   0.164  10.140  0.1275 -0.1258 -0.0903
13063W        W17463  18.373   1.899  34.355  0.0681 -0.0907 -0.0543
13064W        W17464  19.915   0.233   3.538  0.2811 -0.1114  0.1272
13065W        W17465  13.013   2.925  40.681 -0.0049 -0.0075 -0.2897
13066W        W17466  10.011   1.166  34.161  0.0537  0.1882  0.0653
13067W        W17467  20.968   3.681  44.237  0.0765  0.1983  0.1616
13068W        W17468   5.565   0.104  19.309  0.0973  0.1834  0.1316
13069W        W17469  19.188   5.873   7.307  0.1841 -0.2057 -0.0054
13070W        W17470   2.620   5.811   7.426 -0.3162 -0.0361 -0.1507
13071W        W17471   7.508   3.708  13.376  0.2119  0.1912 -0.4380
13072W        W17472   3.955   4.605  44.657 -0.1793  0.0475  0.1545
13073W        W17473  18.358   4.277   6.896 -0.2852  0.2453 -0.0022
13074W        W17474  18.016   2.139   9.927 -0.0193  0.1941  0.2901
13075W        W17475  16.402   4.910  29.796  0.0282  0.1775 -0.0777
13076W        W17476  11.836   0.922   2.618  0.1254  0.0973  0.0510
13077W        W17477   1.782   1.998  39.145 -0.2374 -0.2519 -0.0800
13078W        W17478   6.726   0.214  37.367 -0.2767  0.2083 -0.1589
13079W        W17479  12.431   6.001  42.764  0.1008  0.1802 -0.0285
13080W        W17480  16.224   0.836   6.693  0.1144  0.1926  0.1351
13081W        W17481  18.821   5.901   6.519  0.3215 -0.3104  0.3215
13082W        W17482   5.027   4.854  18.813 -0.0433  0.2052 -0.1705
13083W        W17483   9.622   5.685   3.091 -0.2873  0.3180 -0.0259
13084W        W17484   5.805   5.520   4.486 -0.1522  0.0355 -0.0872
13085W        W17485   9.609   6.377   1.080 -0.1131 -0.0336 -0.0731
13086W        W17486   1.433   4.984  27.105  0.0509 -0.1125 -0.2192
13087W        W17487   3.294   3.647  41.725  0.1397  0.1074  0.1711
13088W        W17488   5.129   5.799  37.771 -0.0597 -0.1306  0.0504
13089W        W17489   6.658   4.204  16.319 -0.1067  0.0953 -0.1030
13090W        W17490   4.101   4.545  37.884 -0.1030 -0.0108  0.0304
13091W        W17491   0.878   3.456  25.461 -0.0319  0.2904 -0.0550
13092W        W17492  18.924   4.882   4.412  0.4195  0.1897 -0.1600
13093W        W17493  12.888   5.153  29.134 -0.0995  0.0047  0.0704
13094W        W17494   2.220   5.893   7.067 -0.2111 -0.0607  0.1337
13095W        W17495   9.910   3.148  14.875  0.2669 -0.1697  0.0475
13096W        W17496   0.287   4.482  24.006  0.0308  0.3055 -0.1914
13097W        W17497   6.105   0.226  30.329  0.3575  0.2554  0.1125
13098W        W17498  10.828   3.242  43.657  0.1047  0.0316 -0.1454
13099W        W17499   8.795   3.992  21.337 -0.1759  0.1002 -0.2159
13100W        W17500  20.743   3.123  19.653 -0.1957 -0.2931  0.0548
13101W        W17501  18.223   4.217   3.437  0.0565  0.0152  0.1514
13102W        W17502   9.358   6.448  22.211 -0.1307  0.0351 -0.1252
13103W        W17503   0.459   3.665  11.147  0.0983 -0.1070  0.0744
13104W        W17504   0.212   3.038  43.419  0.1292  0.0331  0.1910
13105W        W17505   9.131   0.561  12.085  0.0741 -0.0224  0.1513
13106W        W17506  19.779   2.926  42.578  0.1827 -0.1540  0.2754
13107W        W17507  13.487   6.451   1.421  0.1021  0.0218  0.1523
13108W        W17508   4.263   1.752   7.610 -0.0145 -0.0672  0.1398
13109W        W17509   1.657   1.260  40.548  0.0874  0.0795  0.1859
13110W        W17510   4.595   1.247   9.809 -0.0522  0.1324 -0.0604
13111W        W17511   1.319   0.351  37.884 -0.0486 -0.3588  0.1288
13112W        W17512  17.217   1.470  43.084 -0.2533  0.1516 -0.3678
13113W        W17513  12.723   2.295   5.213 -0.2399  0.1573  0.2605
13114W        W17514   1.206   0.430  41.239 -0.0021 -0.1057  0.1803
13115W        W17515   5.343   3.144  20.340 -0.2259  0.0737 -0.1801
13116W        W17516   9.925   4.840  45.003 -0.0537  0.1722 -0.0641
13117W        W17517   8.582   0.916  42.822  0.0227 -0.1209 -0.2443
13118W        W17518  10.213   2.851  34.617 -0.1131 -0.1434  0.4871
13119W        W17519   5.421   3.278  16.989 -0.1714  0.0132  0.0799
13120W        W17520   1.717   0.490  13.634 -0.0567 -0.1794  0.3612
13121W        W17521   2.145   5.199  40.805  0.2493  0.1114  0.0766
13122W        W17522  19.819   6.024  30.921  0.1279 -0.0464 -0.2134
13123W        W17523  13.117   1.440   7.029  0.0604 -0.0782  0.1100
13124W        W17524  19.286   2.422  29.410  0.2329  0.0526 -0.0098
13125W        W17525   4.265   1.429  41.047 -0.2541  0.0660 -0.1816
13126W        W17526  20.544   0.484  36.042 -0.0398  0.0647  0.2078
13127W        W17527   3.180   1.077   4.110  0.0309  0.2459 -0.1721
13128W        W17528  17.069   1.360   0.693 -0.1336 -0.0458  0.0575
13129W        W17529  18.691   4.875  40.171  0.0863  0.0539  0.2411
13130W        W17530   1.056   6.124   8.564 -0.0796  0.1753 -0.1773
13131W        W17531  11.166   3.209  16.830 -0.1459  0.1144  0.0860
13132W        W17532  19.226   2.530  15.045  0.0649  0.1947 -0.0766
13133W        W17533   1.738   1.994  37.757  0.0805 -0.0022 -0.0023
13134W        W17534   0.069   0.442   7.498 -0.1821 -0.2053 -0.2856
13135W        W17535   4.888   3.227  34.700 -0.2140 -0.0691 -0.0519
13136W        W17536  16.370   6.003   0.306 -0.0211 -0.0323 -0.1981
13137W        W17537  11.457   5.900  15.981  0.0660  0.1888 -0.1455
13138W        W17538  11.099   4.081   1.050 -0.0157 -0.0617  0.0465
13139W        W17539  17.167   2.172  39.411  0.2783 -0.0397 -0.2698
13140W        W17540   3.949   4.473   7.271 -0.0673  0.0635 -0.0045
13141W        W17541  16.125   0.665   5.245 -0.2280 -0.2468 -0.0887
13142W        W17542   2.004   3.095  40.795 -0.2940  0.1215  0.0062
13143W        W17543   2.436   4.224  10.883 -0.0461 -0.1542 -0.3840
13144W        W17544   9.791   2.499  35.151 -0.0286  0.2364  0.1114
13145W        W17545  11.052   6.559  28.531 -0.1544 -0.1892 -0.0580
13146W        W17546   0.337   4.015  23.639 -0.1081 -0.0842  0.3090
13147W        W17547  14.374   3.863   3.049 -0.1483  0.1400 -0.1629
13148W        W17548   3.459   0.645  45.013  0.1551  0.2290  0.1319
13149W        W17549  17.240   5.482  12.847  0.0091 -0.1132 -0.2080
13150W        W17550  13.709   0.145  14.923 -0.1815 -0.1315 -0.0917
13151W        W17551   6.640   5.474  41.329  0.0453  0.1059  0.1725
13152W        W17552   0.482   5.189   9.085  0.5598  0.0326 -0.2064
13153W        W17553  11.961   5.104  29.489  0.1292  0.3773  0.0998
13154W        W17554  13.390   2.319  13.933 -0.0549  0.2751  0.2511
13155W        W17555   5.147   3.361  11.658 -0.0088 -0.0324 -0.0734
13156W        W17556   4.005   5.107  14.545  0.1790  0.0101  0.0313
13157W        W17557   2.890   2.506   2.085 -0.1800 -0.0922 -0.3222
13158W        W17558   6.108   4.562  30.457 -0.1310 -0.0249 -0.1692
13159W        W17559   6.058   3.937  41.016 -0.3101  0.1390  0.4689
13160W        W17560   9.267   4.741   6.854 -0.1866  0.2866 -0.0021
13161W        W17561  11.172   1.688  16.477 -0.0991  0.0458 -0.0125
13162W        W17562   7.043   3.937  16.642 -0.2013  0.2491  0.1749
13163W        W17563   5.469   0.269  38.671  0.1835  0.1761  0.0119
13164W        W17564  16.849   3.100  38.565 -0.1577 -0.1095 -0.2718
13165W        W17565   7.271   1.146  35.273 -0.1422  0.0394  0.0618
13166W        W17566   8.569   0.455  32.144 -0.0522 -0.0449  0.0017
13167W        W17567  17.076   3.420  11.008  0.0116 -0.2341  0.1167
13168W        W17568  13.073   1.660  27.380 -0.1233 -0.2935 -0.1675
13169W        W17569  12.378   5.404  11.662  0.0269 -0.1433  0.3852
13170W        W17570   1.271   5.423  39.502 -0.2457  0.0516  0.0372
13171W        W17571  18.269   2.684   4.411  0.0690  0.1256  0.1790
13172W        W17572  17.131   2.026  25.821 -0.1276 -0.0276  0.2895
13173W        W17573  15.608   1.977  14.689  0.0917  0.0603  0.1137
13174W        W17574  18.988   6.499  22.056  0.2981 -0.2416  0.2538
13175W        W17575   5.556   0.438  31.913  0.1588 -0.1979 -0.2702
13176W        W17576   8.227   1.441  18.096  0.2074 -0.3068  0.0630
13177W        W17577  13.376   1.367  11.808 -0.2617 -0.0698 -0.1180
13178W        W17578  21.075   3.962  41.294  0.1987 -0.3129 -0.0297
13179W        W17579  12.520   4.572  12.099 -0.1690  0.1369 -0.0521
13180W        W17580   9.474   0.369  40.498  0.1188 -0.3882 -0.2123
13181W        W17581  17.213   4.828  34.047 -0.1405  0.5225 -0.1225
13182W        W17582  21.017   0.607  22.908  0.3044  0.2718 -0.0570
13183W        W17583  18.973   1.676  10.296  0.0728 -0.0579 -0.1042
13184W        W17584  12.528   0.951   3.598 -0.0563 -0.0790 -0.2027
13185W        W17585  13.868   0.336  45.072 -0.2088  0.2207 -0.1942
13186W        W17586  13.959   0.573  14.865 -0.3832 -0.2512 -0.2221
13187W        W17587  19.296   6.469  37.564 -0.1011  0.3223 -0.0861
13188W        W17588   7.256   2.156  19.415  0.0981  0.3355  0.1940
13189W        W17589  11.337   6.231  28.773  0.1256 -0.1300 -0.0832
13190W        W17590   8.991   0.080  43.181 -0.0339 -0.1366  0.0448
13191W        W17591   4.966   4.300   8.404 -0.0473  0.0820 -0.0609
13192W        W17592  17.042   1.182   1.668 -0.0544  0.2567  0.1020
13193W        W17593  19.821   2.303  19.422  0.2052 -0.2326  0.2352
13194W        W17594  15.053   2.194   9.562  0.2090 -0.4163 -0.2401
13195W        W17595   8.921   6.283  10.952 -0.3481  0.2403  0.0085
13196W        W17596  20.765   4.961  15.214  0.1725 -0.1334 -0.2231
13197W        W17597  11.153   6.143  38.019  0.2474 -0.1726  0.1808
13198W        W17598   3.877   4.126   0.973  0.1026  0.2806  0.1757
13199W        W17599  18.304   1.251  12.455  0.0756 -0.0758  0.0531
13200W        W17600  19.088   3.920  35.381 -0.0949 -0.0255 -0.1994
13201W        W17601   3.771   0.642  17.843  0.0060 -0.1396 -0.0287
13202W        W17602  19.088   1.801  12.748  0.0366  0.1108  0.2327
13203W        W17603  14.103   5.622  32.880  0.1418  0.1925  0.0208
13204W        W17604   3.380   4.159   4.064 -0.1431 -0.0833  0.3854
13205W        W17605  18.281   1.350  15.378 -0.1484 -0.0673  0.1476
13206W        W17606  15.939   1.390  32.251 -0.1035  0.2486 -0.2473
13207W        W17607  18.438   0.874  40.540  0.1584  0.1328  0.1330
13208W        W17608  18.838   6.549  34.090 -0.2465  0.0339  0.2247
13209W        W17609   8.693   0.323  31.379  0.0409  0.0092  0.0021
13210W        W17610   6.697   5.318  21.810  0.2536  0.0602  0.0159
13211W        W17611  17.171   2.616  16.176  0.1302 -0.0690  0.1503
13212W        W17612   3.638   1.474  39.065  0.0185  0.0201 -0.0530
13213W        W17613  15.109   0.487  14.224 -0.0627  0.0367 -0.0433
13214W        W17614   9.127   5.161   2.345 -0.3240  0.0979 -0.0725
13215W        W17615   5.993   1.779  19.175 -0.2693  0.4047  0.0025
13216W        W17616   2.259   4.814  28.241 -0.2712 -0.2862 -0.0238
13217W        W17617   9.995   2.717  41.696  0.4439 -0.0258  0.0590
13218W        W17618   8.489   5.318  12.092  0.2161  0.2657 -0.0900
13219W        W17619  10.695   2.988  21.378 -0.1123  0.1586  0.0463
13220W        W17620   1.501   3.926  28.588 -0.6598  0.1770 -0.0321
13221W        W17621   5.090   5.094  41.612  0.0001  0.1106  0.3328
13222W        W17622  12.114   1.014  39.035  0.1521 -0.0550 -0.3418
13223W        W17623   4.426   3.180  30.030 -0.2053  0.2527  0.0120
13224W        W17624  20.247   1.805  12.168 -0.1993  0.1427  0.0824
13225W        W17625   9.407   4.859  22.851 -0.0379 -0.0266 -0.1632
13226W        W17626   1.997   5.186   7.330  0.0641  0.0968  0.2005
13227W        W17627  15.350   3.287   1.231 -0.4590 -0.1791  0.0098
13228W        W17628  16.912   0.230  38.466  0.1411 -0.0893  0.1537
13229W        W17629  10.778   2.097  20.835 -0.1870  0.0533 -0.0211
13230W        W17630  13.192   0.628  34.424 -0.1870  0.0830  0.1003
13231W        W17631   2.772   4.674  41.010 -0.2610  0.0612  0.3523
13232W        W17632  16.737   2.966  15.287  0.1632  0.2951 -0.0494
13233W        W17633  16.157   0.446   5.712  0.3431 -0.1761  0.0084
13234W        W17634   6.649   1.641  20.205 -0.4125  0.0405 -0.1188
13235W        W17635   2.415   1.858  24.837  0.1251  0.0431 -0.2482
13236W        W17636  17.812   2.870  32.846  0.0564 -0.1174 -0.0887
13237W        W17637  19.694   3.703  10.673 -0.1732 -0.2452  0.0941
13238W        W17638  20.441   3.391  43.110  0.3438 -0.3810  0.3132
13239W        W17639  20.228   2.258   5.975 -0.0944  0.2017 -0.1052
13240W        W17640   7.180   4.753  18.209  0.3550 -0.3259 -0.3710
13241W        W17641  16.194   4.045  14.392  0.1291  0.2995 -0.2626
13242W        W17642  10.933   3.568  21.749 -0.1290 -0.0593  0.2065
13243W        W17643  19.116   2.535  43.825 -0.1247  0.0772  0.0693
13244W        W17644  20.185   1.324  28.213  0.0677 -0.1881 -0.1615
13245W        W17645  11.007   3.107  13.719 -0.0423 -0.2184  0.1451
13246W        W17646   5.693   3.764   9.707 -0.0658  0.3199 -0.1503
13247W        W17647   9.951   3.047   0.130  0.1923  0.0365 -0.4245
13248W        W17648  12.388   0.363  30.178  0.0529  0.1201  0.2831
13249W        W17649  10.071   1.230   7.635 -0.1550 -0.0594  0.1124
13250W        W17650  16.591   4.367  28.731  0.1057 -0.0162 -0.0977
13251W        W17651   0.214   6.019  41.533  0.1417 -0.0994  0.1887
13252W        W17652  11.477   4.249  12.047 -0.1272 -0.0771  0.1405
13253W        W17653   0.587   6.162  25.449  0.1375 -0.0470 -0.0988
13254W        W17654   9.428   1.244   7.414 -0.0871  0.2176 -0.1779
13255W        W17655   6.000   4.825   8.421  0.4472 -0.2257  0.2593
13256W        W17656   3.463   0.143   3.689  0.2160 -0.0553 -0.2518
13257W        W17657   3.263   4.630  42.354  0.2604  0.1554 -0.1042
13258W        W17658  10.908   3.140  44.736 -0.2613  0.0284 -0.0604
13259W        W17659  16.983   4.203  28.419 -0.0936  0.0370  0.3203
13260W        W17660   8.778   3.844  20.717  0.3142 -0.1224 -0.1636
13261W        W17661  12.580   2.093  37.483  0.4349 -0.0794  0.0504
13262W        W17662   6.252   2.406  39.393  0.0630 -0.1334  0.0632
13263W        W17663  17.973   5.242  23.033  0.3898  0.2907 -0.1327
13264W        W17664  19.560   2.200  21.109 -0.0961 -0.0775  0.0128
13265W        W17665  12.262   1.612  30.465 -0.0256  0.1535  0.1392
13266W        W17666  11.899   5.844  15.606  0.2741  0.3278 -0.0031
13267W        W17667  20.595   2.339  36.004 -0.0376  0.1614 -0.1936
13268W        W17668  16.496   6.203  35.310  0.1198  0.1081  0.1613
13269W        W17669  10.139   5.159  11.378  0.0218 -0.2120  0.2121
13270W        W17670  15.527   6.580   9.168 -0.0359 -0.0628 -0.0891
13271W        W17671  15.090   5.570  16.239  0.0205  0.0754  0.1250
13272W        W17672   3.433   3.953  10.897 -0.2166  0.3915  0.0765
13273W        W17673   7.225   0.175   3.918 -0.2221  0.0238  0.2012
13274W        W17674  14.158   2.050   5.566  0.1561  0.3205  0.0599
13275W        W17675  16.323   1.660  25.786 -0.0501  0.0730  0.0142
13276W        W17676  17.372   5.019  30.835  0.1473  0.2163  0.0590
13277W        W17677   8.635   3.303  33.235  0.3843  0.1053 -0.0768
13278W        W17678   8.575   3.894  22.898 -0.0215 -0.1547 -0.0126
13279W        W17679  15.761   5.571   4.109 -0.0523 -0.2592  0.4009
13280W        W17680   5.689   1.774  41.044  0.4073  0.1592  0.2885
13281W        W17681  18.174   2.694  33.113  0.3006 -0.1006  0.2694
13282W        W17682   9.600   3.638  41.646 -0.0702  0.1957  0.1725
13283W        W17683   4.217   1.760   5.214 -0.0950 -0.1012 -0.0533
13284W        W17684   4.568   4.666   8.342 -0.0389 -0.0418  0.1082
13285W        W17685   5.830   4.156   4.354 -0.0755  0.0411  0.3005
13286W        W17686  14.648   4.956   6.666 -0.0227 -0.2436  0.2146
13287W        W17687   6.762   4.525  22.985  0.1307  0.1132  0.0756
13288W        W17688   0.219   4.412  35.990  0.1439 -0.1291 -0.0501
13289W        W17689   6.392   2.556   3.503  0.0804  0.1128  0.3252
13290W        W17690  14.767   0.495  44.497 -0.1908  0.1906  0.2545
13291W        W17691  20.804   2.326   7.093 -0.0806  0.2211 -0.0668
13292W        W17692  15.400   0.865   3.048 -0.1091  0.1072  0.1195
13293W        W17693  14.186   1.921  14.528  0.0305 -0.2305  0.0524
13294W        W17694  12.221   5.441  43.195  0.2086 -0.0402  0.0292
13295W        W17695  18.649   0.603  23.286 -0.4153 -0.0502 -0.1900
13296W        W17696   6.762   2.402  20.024  0.0574  0.3914  0.3389
13297W        W17697  10.797   2.105  30.088 -0.4652 -0.3417  0.0202
13298W        W17698   3.300   3.507  15.907  0.0734 -0.1080 -0.0012
13299W        W17699   8.707   5.548   6.370  0.2046 -0.2425 -0.1911
13300W        W17700  16.033   4.736  42.754 -0.1201 -0.1652  0.0123
13301W        W17701  18.679   0.226  32.288  0.0502  0.2547 -0.3952
13302W        W17702  13.469   4.319  16.451 -0.0497 -0.0421 -0.0213
13303W        W17703   2.551   6.525  10.402 -0.0230  0.3243 -0.0030
13304W        W17704  10.750   4.359  21.042  0.0038  0.1236 -0.1322
13305W        W17705  11.791   1.492   9.872  0.0806 -0.0947  0.0671
13306W        W17706  11.023   0.553  22.222  0.0572  0.1595  0.1770
13307W        W17707  12.078   4.674  28.718  0.0466 -0.1684  0.2684
13308W        W17708  13.421   0.088   8.541 -0.0475 -0.2356  0.1465
13309W        W17709  10.943   2.731  11.534  0.2656  0.3219 -0.0955
13310W        W17710  20.894   2.485  28.230  0.0685 -0.0552 -0.0738
13311W        W17711   8.340   2.531  29.492  0.2021 -0.2649  0.3258
13312W        W17712  20.676   0.041  31.417  0.0740 -0.1956  0.1055
13313W        W17713  10.567   0.738  22.997 -0.0654  0.0573  0.1165
13314W        W17714  17.632   2.197  41.048 -0.0123 -0.0707 -0.0593
13315W        W17715  14.371   1.786   9.952  0.1275  0.0515 -0.1882
13316W        W17716  18.328   3.380  11.500  0.0366  0.3623 -0.1141
13317W        W17717   9.680   6.336  42.762  0.1149  0.3466 -0.3060
13318W        W17718   3.082   6.427  32.189  0.2776  0.2991  0.2150
13319W        W17719  11.460   5.840  20.374  0.1719 -0.2973 -0.0964
13320W        W17720  11.710   0.780   0.895 -0.0363  0.4005  0.1735
13321W        W17721   3.997   3.278  36.189 -0.0667  0.2618 -0.0783
13322W        W17722   2.972   5.848  28.204 -0.3501  0.0220  0.1778
13323W        W17723  20.706   0.487  33.909 -0.1888 -0.5258 -0.0130
13324W        W17724   8.519   5.574  44.051 -0.0091 -0.1853  0.3478
13325W        W17725  18.823   0.884   2.485  0.0343 -0.4671  0.0429
13326W        W17726   3.235   0.262  17.196  0.3141  0.1015  0.2149
13327W        W17727   7.771   6.033  15.161  0.1446 -0.0097  0.1446
13328W        W17728  15.340   5.186  17.361  0.0597  0.2960  0.0620
13329W        W17729  10.028   2.087   9.175  0.1090  0.2284  0.1193
13330W        W17730   9.358   3.263  10.224 -0.1482  0.0173 -0.2873
13331W        W17731  20.294   5.054   0.841 -0.0345 -0.2846  0.2027
13332W        W17732   7.818   5.388  20.260 -0.2430  0.0623  0.0063
13333W        W17733  11.713   5.193  42.249  0.1163  0.3170  0.3076
13334W        W17734  18.831   3.105  23.957 -0.1104  0.0814  0.1848
13335W        W17735   7.640   4.476  40.396  0.2513 -0.0868 -0.0405
13336W        W17736   2.701   3.108  30.924  0.0608 -0.0462 -0.1523
13337W        W17737  12.759   6.300  38.514 -0.0139 -0.2054 -0.0127
13338W        W17738   2.872   1.083  41.891 -0.0464  0.1144  0.0437
13339W        W17739  16.970   2.022  15.002 -0.1182  0.0104  0.0795
13340W        W17740   2.493   6.150  27.899  0.1691  0.0324  0.1265
13341W        W17741  20.606   0.313  43.595  0.1711 -0.1503 -0.3445
13342W        W17742   9.286   6.573  34.209  0.1372 -0.0315  0.4230
13343W        W17743  13.814   1.335  41.299 -0.2980 -0.0872  0.2494
13344W        W17744  16.408   0.666  43.125 -0.1506  0.0647  0.2243
13345W        W17745  15.533   6.567  29.426  0.0283  0.1475 -0.2348
13346W        W17746   5.080   4.205  35.050  0.0537  0.1673 -0.1163
13347W        W17747  17.368   3.181   4.218  0.0947  0.1435  0.1086
13348W        W17748  13.027   0.721  17.745  0.2239 -0.0051  0.0751
13349W        W17749  16.586   5.550  41.701  0.0894 -0.2391  0.1893
13350W        W17750  12.549   1.871   0.503 -0.0974  0.0088  0.0618
13351W        W17751   3.171   0.037  11.962  0.2066 -0.0698 -0.2123
13352W        W17752   8.985   4.124  23.552  0.1099 -0.0255 -0.0733
13353W        W17753   9.617   2.688  43.009  0.0298  0.3563  0.1067
13354W        W17754   6.645   1.124  42.810  0.1245  0.1178 -0.0328
13355W        W17755  15.846   4.866  30.527  0.0847 -0.0889  0.0218
13356W        W17756  17.524   5.986  25.743 -0.1108 -0.1464  0.1293
13357W        W17757   9.946   1.479  15.659 -0.1504 -0.0206 -0.0733
13358W        W17758   6.795   2.521   8.905  0.0890  0.0011  0.2491
13359W        W17759  13.771   4.911  44.745  0.1165 -0.0707 -0.1675
13360W        W17760   4.284   0.672  40.293 -0.1208 -0.0929 -0.1654
13361W        W17761   0.040   4.029  34.746  0.3830  0.3066  0.1731
13362W        W17762   1.801   2.910   2.095 -0.0320  0.0816  0.1857
13363W        W17763   9.294   6.504  31.093  0.2315  0.1487  0.2902
13364W        W17764  17.457   4.270   1.022 -0.1785  0.1557 -0.2427
13365W        W17765   6.681   3.657   1.200  0.1368  0.0886 -0.0722
13366W        W17766  10.172   2.515   4.829  0.3573 -0.0548 -0.1895
13367W        W17767   4.684   5.302   3.541  0.0474  0.2300  0.0040
13368W        W17768  19.511   2.935  27.309  0.0660 -0.0390  0.0048
13369W        W17769   4.490   6.544   3.911  0.0992 -0.0834 -0.0092
13370W        W17770  12.213   3.349   6.957  0.1592  0.3606 -0.1454
13371W        W17771  14.992   5.640   1.947  0.1117 -0.2361  0.0282
13372W        W17772  11.231   3.349   9.243  0.0629 -0.1528  0.1608
13373W        W17773  20.210   4.607  12.463  0.1074 -0.2470 -0.0533
13374W        W17774   4.949   2.137  32.360 -0.0883  0.4937  0.1770
13375W        W17775   4.089   5.291   9.530 -0.0644  0.0485 -0.1160
13376W        W17776  15.498   0.059  27.058  0.2540 -0.0992  0.0538
13377W        W17777   5.635   0.965  17.067  0.2277  0.3934  0.0657
13378W        W17778   6.076   5.651  37.819 -0.4594  0.0935 -0.0754
13379W        W17779  16.971   2.338  38.347  0.1981  0.1265  0.0993
13380W        W17780   8.419   5.060   0.760  0.1409  0.5264  0.3637
13381W        W17781  12.736   3.548  43.502 -0.2143  0.0174  0.0182
13382W        W17782   1.958   2.729  31.706  0.4601 -0.0533  0.0850
13383W        W17783   4.150   1.516   8.739 -0.2078 -0.1761  0.1072
13384W        W17784  15.365   2.854  33.573 -0.1610 -0.0607 -0.1650
13385W        W17785  20.325   1.611   5.668 -0.1812 -0.1010  0.1093
13386W        W17786   1.515   1.121  33.203 -0.2804 -0.3397  0.0567
13387W        W17787  20.875   1.808  10.458 -0.3368  0.0881 -0.2023
13388W        W17788  18.884   0.451  22.157 -0.1861  0.0109 -0.0445
13389W        W17789   1.587   0.611   7.627  0.1134 -0.2207 -0.3384
13390W        W17790   9.466   3.749  25.133 -0.0063 -0.1412 -0.0570
13391W        W17791  17.977   5.004   0.629 -0.0148  0.3212 -0.0751
13392W        W17792   6.973   1.084  37.220  0.1821 -0.0080  0.0146
13393W        W17793   7.499   6.426   4.214  0.2018  0.0012 -0.2507
13394W        W17794  10.296   4.215  31.751 -0.1470  0.0592 -0.0587
13395W        W17795   7.370   0.432  43.146  0.0669 -0.4240 -0.1454
13396W        W17796  10.140   6.363  42.612 -0.3624 -0.0670 -0.1082
13397W        W17797   0.299   2.376  33.968  0.0306 -0.0692  0.0983
13398W        W17798   9.036   4.880  40.592 -0.0145  0.2053 -0.0299
13399W        W17799  12.574   6.281  13.300  0.3046  0.2778  0.0507
13400W        W17800   7.971   0.730  43.986 -0.0612 -0.1551 -0.2506
13401W        W17801   8.613   5.392  15.502  0.0068  0.2271 -0.0520
13402W        W17802  19.110   2.283  25.636  0.0557 -0.0141  0.2376
13403W        W17803   1.026   6.528  11.439  0.1823  0.2456  0.3193
13404W        W17804  19.879   4.034  15.981  0.1852 -0.1861  0.1365
13405W        W17805  12.982   0.868  40.148 -0.3756  0.0727  0.2443
13406W        W17806   1.612   5.610  34.807 -0.1112 -0.1452  0.4563
13407W        W17807   5.575   2.596  17.882 -0.0663  0.0103 -0.0111
13408W        W17808  14.671   1.401  38.993 -0.0867 -0.1860 -0.0183
13409W        W17809  12.750   2.807  18.671 -0.0236 -0.2221 -0.0422
13410W        W17810   4.803   5.159   8.475  0.0775 -0.1684  0.0812
13411W        W17811  19.731   2.185  20.014 -0.0226  0.2384  0.0022
13412W        W17812   8.743   3.483  33.706 -0.0542 -0.2488 -0.0440
13413W        W17813  12.507   3.978  12.761 -0.0446 -0.0060 -0.1764
13414W        W17814   4.839   4.735  32.724 -0.0709  0.1144  0.1238
13415W        W17815  15.402   0.854  11.006 -0.0148 -0.1304 -0.2036
13416W        W17816  18.010   2.853  44.174  0.1639 -0.0235  0.1263
13417W        W17817   9.588   1.733  30.735 -0.1552  0.0528 -0.1193
13418W        W17818   3.681   1.062  35.657  0.3678 -0.3366  0.0608
13419W        W17819  16.726   1.202  41.946  0.2068  0.2285  0.0245
13420W        W17820   2.804   1.733   4.455  0.3882 -0.4251  0.1985
13421W        W17821  16.320   2.397  43.107 -0.0987  0.0717 -0.1171
13422W        W17822  16.439   1.765  11.636  0.0262 -0.0202 -0.0064
13423W        W17823  11.709   5.224  12.761  0.1126 -0.0833  0.3997
13424W        W17824   4.040   5.156  33.629  0.0770  0.2485 -0.1162
13425W        W17825   9.163   6.081   2.428  0.1945  0.1057 -0.1887
13426W        W17826  15.908   1.316  13.603 -0.1201 -0.4002  0.5307
13427W        W17827  15.227   2.599   3.378 -0.2162  0.0226 -0.0130
13428W        W17828   1.398   4.020   8.104  0.0598  0.0016  0.0335
13429W        W17829  16.105   2.555  28.630 -0.0255  0.2518 -0.2729
13430W        W17830  19.193   3.082  11.983 -0.2950 -0.1482 -0.4902
13431W        W17831  15.861   1.653   1.873 -0.1661 -0.0177  0.2369
13432W        W17832   9.249   0.353  10.278  0.1991  0.0912 -0.2299
13433W        W17833  10.618   2.552  37.045  0.0368 -0.2733  0.1541
13434W        W17834  19.277   1.066  40.379  0.0545 -0.0612  0.0347
13435W        W17835  11.915   0.235   8.017  0.0975 -0.1076 -0.1731
13436W        W17836   1.650   0.280  31.818 -0.0512 -0.0971 -0.1510
13437W        W17837   4.470   2.443  43.097 -0.3305  0.3185  0.0432
13438W        W17838   8.649   6.309  23.153  0.3652 -0.0104  0.0085
13439W        W17839  14.486   3.935  10.456  0.1309  0.2134 -0.0142
13440W        W17840   7.837   3.576  21.108  0.0799  0.1305 -0.2794
13441W        W17841   0.252   5.653  25.957  0.0294 -0.1275  0.1381
13442W        W17842  10.859   5.654   5.195  0.1229  0.3239 -0.1440
13443W        W17843  13.356   1.392   6.210 -0.0155  0.1041  0.3006
13444W        W17844   7.416   5.800  19.074 -0.2288  0.4239 -0.2455
13445W        W17845   4.256   0.047  38.363 -0.3378  0.0741  0.1359
13446W        W17846  11.722   5.781   0.993 -0.0545  0.0170 -0.1126
13447W        W17847   4.139   2.008  38.377  0.3498 -0.1144  0.0881
13448W        W17848  10.648   0.288  17.668  0.2655  0.1297 -0.1797
13449W        W17849   3.462   4.964   8.766  0.1417  0.0522 -0.0774
13450W        W17850   0.014   3.625  23.647 -0.1779 -0.0827  0.1439
13451W        W17851  17.657   3.151   7.219  0.2308 -0.0559 -0.1135
13452W        W17852   4.548   2.749  30.286 -0.2772 -0.0480  0.2174
13453W        W17853   8.247   0.726   0.626 -0.0638 -0.1299  0.1666
13454W        W17854  13.774   2.347   9.081  0.1100  0.1060 -0.2075
13455W        W17855   4.206   0.118  33.953 -0.2457  0.1826 -0.0632
13456W        W17856   1.410   3.045   3.088  0.0906 -0.3020  0.1779
13457W        W17857   0.488   4.531   2.588 -0.2661  0.1153 -0.2514
13458W        W17858  13.350   0.629   5.874  0.1784  0.1274  0.2048
13459W        W17859   4.023   0.596  43.979  0.2211 -0.2507 -0.0408
13460W        W17860  15.654   2.963  44.414 -0.2132 -0.0733  0.1465
13461W        W17861  21.084   4.902  10.755 -0.0889 -0.0521  0.1423
13462W        W17862   0.277   1.442  33.598  0.1502 -0.0930 -0.0531
13463W        W17863  10.749   4.357   2.382 -0.0811  0.2306 -0.0138
13464W        W17864  11.885   0.929  11.043 -0.0711  0.1999  0.2134
13465W        W17865  12.611   1.621  35.584 -0.0094 -0.0541  0.1218
13466W        W17866   3.485   4.255   4.995 -0.2701 -0.0704 -0.3507
13467W        W17867  11.140   6.019  10.142 -0.2087  0.2167 -0.1210
13468W        W17868  10.822   3.482  35.491 -0.3354  0.3435 -0.1043
13469W        W17869  11.077   5.181  34.001  0.1326 -0.1209 -0.1936
13470W        W17870  13.103   4.195   2.338  0.5052 -0.0608 -0.0951
13471W        W17871   3.326   5.671  10.603  0.0591 -0.0677 -0.1300
13472W        W17872  11.247   1.012  41.085 -0.3079 -0.0289  0.2050
13473W        W17873  19.382   6.357   7.181 -0.0958 -0.0697  0.0587
13474W        W17874  17.672   4.631   5.845 -0.2661 -0.1555  0.1676
13475W        W17875   9.008   2.004  41.909 -0.0156  0.0109 -0.1441
13476W        W17876  14.232   5.178  37.004 -0.0863  0.3683  0.3859
13477W        W17877  11.574   2.602  43.263 -0.0446  0.0672 -0.2541
13478W        W17878   8.463   1.148   2.095 -0.1888 -0.0648  0.2388
13479W        W17879  18.974   4.109  25.849  0.0369  0.0459 -0.1058
13480W        W17880  18.000   4.660  11.787  0.5863 -0.2263  0.1574
13481W        W17881   5.138   3.771   9.248  0.0237 -0.1531  0.1610
13482W        W17882  20.832   6.075  10.465 -0.2449  0.0258 -0.0626
13483W        W17883  20.565   2.183  10.291  0.1585  0.0360  0.1812
13484W        W17884   4.780   3.736  34.901  0.2230  0.0239 -0.2800
13485W        W17885  13.805   0.096   4.184  0.2091  0.1007 -0.0920
13486W        W17886   0.293   0.974  43.346  0.0064  0.3681 -0.0268
13487W        W17887   4.624   6.082  37.122  0.2595 -0.2894  0.1005
13488W        W17888  15.618   0.116   8.282  0.0481  0.0155  0.0367
13489W        W17889  13.448   5.743  43.524  0.0682 -0.1663 -0.0040
13490W        W17890  17.342   4.471  28.777 -0.1163  0.1859 -0.1194
13491W        W17891   0.861   6.237  28.829  0.1862 -0.1782  0.3628
13492W        W17892   1.198   6.138  10.067 -0.3767 -0.0384 -0.3603
13493W        W17893  15.211   2.845  10.666 -0.0219 -0.1488 -0.1833
13494W        W17894   8.216   2.316  40.173 -0.0685 -0.0007 -0.0947
13495W        W17895   0.663   0.732  33.327  0.2413 -0.0414 -0.2071
13496W        W17896   7.630   1.968  16.630 -0.1415 -0.0533  0.1226
13497W        W17897  10.362   4.996  14.876  0.0598 -0.0369 -0.2930
13498W        W17898   4.103   4.355   1.351 -0.2725  0.0306  0.1083
13499W        W17899  14.892   3.811  38.903 -0.2838  0.1714  0.2012
13500W        W17900   9.085   3.477  41.298 -0.2061  0.3551  0.0375
13501W        W17901   3.969   3.720  29.640 -0.0168  0.0795 -0.4034
13502W        W17902   4.359   1.366  44.399 -0.1120  0.1675  0.2726
13503W        W17903   9.107   5.597  38.090  0.1897  0.3503 -0.0319
13504W        W17904  15.943   5.493  36.944 -0.0141  0.1707 -0.3380
13505W        W17905  20.892   3.812  30.338  0.0528 -0.5695  0.1899
13506W        W17906  11.813   4.985  23.068 -0.1163 -0.2475  0.2554
13507W        W17907   6.629   4.906   5.594 -0.3087 -0.1530  0.1294
13508W        W17908  14.156   0.712  42.627 -0.0997  0.2001  0.0216
13509W        W17909   7.351   3.750   9.002 -0.0711 -0.3823 -0.3007
13510W        W17910  12.484   3.157   6.013  0.2629  0.4632 -0.0082
13511W        W17911  12.635   2.519   3.611 -0.0758  0.0105  0.3766
13512W        W17912  20.765   1.978   4.564 -0.0716  0.2016  0.1057
13513W        W17913  13.280   5.083  42.766 -0.0122 -0.1114  0.0194
13514W        W17914   9.915   3.926  11.980 -0.3740  0.0971 -0.1414
13515W        W17915   0.722   0.310   9.863  0.0103 -0.3074 -0.1227
13516W        W17916   4.194   2.196   3.627  0.2322  0.4373 -0.0007
13517W        W17917  13.694   5.830  39.832 -0.1311  0.1637  0.0136
13518W        W17918  20.076   0.491  15.217  0.0329 -0.2211 -0.3450
13519W        W17919  17.358   0.141   0.209 -0.3869  0.1358  0.0244
13520W        W17920   8.789   4.640  19.146  0.2843  0.1894  0.1891
13521W        W17921   8.469   1.361  21.002  0.1386  0.0823 -0.1743
13522W        W17922  18.031   2.881  13.850  0.1444  0.2866  0.1094
13523W        W17923  11.103   6.188  39.021  0.0982  0.0515 -0.1301
13524W        W17924  20.314   3.319  38.024  0.1070  0.0251 -0.0288
13525W        W17925  19.678   5.326  43.907  0.0538  0.0000 -0.1668
13526W        W17926   6.025   0.555  11.112  0.3547  0.0763  0.3179
13527W        W17927   9.882   5.687  37.246 -0.1306 -0.2417 -0.0628
13528W        W17928   2.636   4.554   6.205 -0.1700 -0.1598 -0.0136
13529W        W17929   8.965   1.256  37.637  0.1584 -0.0401 -0.0006
13530W        W17930  12.968   5.510   9.810  0.1115 -0.2868 -0.3146
13531W        W17931  15.845   1.589  27.672 -0.1738 -0.1857  0.3208
13532W        W17932  15.011   2.127   4.241 -0.0161 -0.2097 -0.3900
13533W        W17933   6.102   5.378   0.499  0.0720 -0.1336  0.1231
13534W        W17934  14.018   6.533  41.892  0.1750 -0.0787  0.2417
13535W        W17935   6.227   5.599  34.287 -0.1727 -0.0348 -0.2596
13536W        W17936   6.719   6.535  20.751 -0.1265  0.1196  0.0811
13537W        W17937   6.413   0.448   3.844  0.1842 -0.1015  0.2644
13538W        W17938  17.752   3.481  35.699  0.2179 -0.0503 -0.4705
13539W        W17939   9.117   5.545  10.443  0.1012 -0.1958 -0.2791
13540W        W17940   6.173   4.178  44.019 -0.0840  0.0282  0.2944
13541W        W17941   0.711   3.469  35.658  0.0926  0.0115  0.1666
13542W        W17942   0.142   4.615  33.281  0.2367 -0.0186  0.1721
13543W        W17943  11.922   3.300   3.053  0.0849 -0.0902 -0.3788
13544W        W17944  11.027   1.356  28.988  0.3214  0.2375 -0.0671
13545W        W17945   6.654   3.882  37.630  0.4043  0.2163  0.1916
13546W        W17946  20.383   1.140  28.591  0.0308 -0.2138 -0.4064
13547W        W17947  16.243   1.526   7.253 -0.2642  0.1501  0.0907
13548W        W17948   7.445   2.502  42.860 -0.3952  0.0709  0.0951
13549W        W17949  11.750   4.490  30.198  0.1788 -0.0860  0.0330
13550W        W17950  17.615   4.334  25.698 -0.1752  0.0451 -0.1766
13551W        W17951  13.646   1.559   8.564  0.0937 -0.1807 -0.1685
13552W        W17952  17.232   4.800   3.349  0.0193 -0.1663 -0.0398
13553W        W17953  10.121   4.258  36.466  0.1735 -0.0683 -0.2044
13554W        W17954   8.689   1.131  15.879 -0.2698 -0.1590 -0.1727
13555W        W17955   9.424   1.319  10.462 -0.0387 -0.2275 -0.2016
13556W        W17956  20.579   0.165  24.509  0.0500 -0.0000  0.2595
13557W        W17957  14.325   2.904   3.066  0.1570  0.1889  0.1223
13558W        W17958   6.829   3.695  35.514  0.1000  0.1167 -0.2450
13559W        W17959   2.114   2.388  30.973  0.0296 -0.0211  0.1081
13560W        W17960  13.508   4.124  43.160 -0.1726 -0.1705  0.1331
13561W        W17961   4.171   0.308  31.103 -0.1051 -0.1038 -0.0686
13562W        W17962   0.904   1.843  11.492  0.1137  0.0869  0.1548
13563W        W17963  15.078   1.237  17.263  0.0846  0.0486 -0.2691
13564W        W17964   9.022   1.905  29.681  0.2922 -0.1220  0.0715
13565W        W17965   1.455   5.805  23.479  0.1439  0.2238 -0.2210
13566W        W17966   9.709   5.742  21.284 -0.1463  0.2653  0.2487
13567W        W17967  12.316   1.545  15.927  0.0558  0.1304 -0.2277
13568W        W17968  10.584   1.051   1.175  0.1757  0.5974 -0.0328
13569W        W17969  15.152   2.712   9.354 -0.1437  0.1131 -0.3182
13570W        W17970  11.152   0.540  35.559 -0.1640 -0.2078 -0.1680
13571W        W17971  14.663   1.389   2.496  0.0062 -0.0959 -0.5052
13572W        W17972   5.811   1.615  39.796 -0.1463 -0.1937  0.3764
13573W        W17973   0.183   1.180   1.491 -0.0987  0.2706 -0.1970
13574W        W17974  12.637   6.319  32.256  0.1865  0.0108 -0.3741
13575W        W17975  10.648   0.936  12.678  0.2301  0.2137  0.2760
13576W        W17976  16.974   2.446   5.356 -0.2666 -0.1375 -0.1918
13577W        W17977   7.725   2.626  10.628  0.2028  0.1312  0.0776
13578W        W17978  11.788   2.219  31.658 -0.1745  0.0566 -0.0957
13579W        W17979   7.908   0.550  18.457  0.2965  0.0623  0.3395
13580W        W17980  13.621   1.480   9.430  0.1078 -0.1863 -0.0751
13581W        W17981  20.585   5.544   5.899 -0.1862 -0.0000 -0.2351
13582W        W17982   0.725   4.830  39.249 -0.1167  0.1934 -0.0379
13583W        W17983  12.852   4.433  29.385  0.0414 -0.2906  0.0868
13584W        W17984   5.983   2.279  28.981  0.2469  0.2227 -0.0330
13585W        W17985   8.572   0.602  11.462 -0.0277  0.0426  0.0043
13586W        W17986   6.423   0.864   8.753 -0.0173 -0.3715 -0.3877
13587W        W17987  13.930   2.583   6.552 -0.0232 -0.1320  0.1636
13588W        W17988  17.652   4.749  36.198 -0.0571 -0.0421 -0.0171
13589W        W17989   5.908   5.689  29.248 -0.0001  0.0185  0.2511
13590W        W17990  10.137   5.497   6.157 -0.1970  0.0598  0.3595
13591W        W17991  12.628   5.991  15.245  0.2162  0.3157 -0.0040
13592W        W17992  14.082   0.303  31.087 -0.0301  0.0989  0.0548
13593W        W17993   0.306   4.780  41.169 -0.0543 -0.0206  0.1159
13594W        W17994   9.008   3.639  24.880  0.0581  0.1024 -0.0666
13595W        W17995   4.170   5.141  29.327  0.0601 -0.0485 -0.0824
13596W        W17996   0.827   6.292  42.633  0.3046 -0.0080  0.0511
13597W        W17997   8.024   5.940   4.692  0.2668 -0.1060 -0.2795
13598W        W17998  11.206   3.621  10.542  0.0927  0.0551 -0.2200
13599W        W17999   2.117   5.291   5.872  0.3697 -0.1356  0.0630
13600W        W18000   9.958   0.243   3.887 -0.1008  0.1943  0.2837
13601W        W18001   9.393   3.856  23.450  0.1432  0.0140 -0.1661
13602W        W18002   9.772   6.382  44.605 -0.3776 -0.1329 -0.1473
13603W        W18003  15.263   2.352  33.383 -0.1055 -0.2312 -0.3778
13604W        W18004  11.767   6.504  34.872  0.1647 -0.2788 -0.1566
13605W        W18005   0.644   4.450  10.886 -0.0503 -0.0692  0.0087
13606W        W18006  16.115   2.342  29.702  0.0604  0.0919  0.0023
13607W        W18007  13.322   1.816  12.513 -0.1913  0.0669 -0.4354
13608W        W18008  11.829   0.868  20.223 -0.0477  0.0671 -0.2661
13609W        W18009   9.982   4.416  35.091 -0.2135 -0.0935  0.0257
13610W        W18010  14.435   0.071  38.979  0.0011  0.1793  0.0835
13611W        W18011   0.481   3.656  14.755 -0.0810  0.3778  0.0925
13612W        W18012   9.123   4.971   3.747 -0.2425  0.2473  0.1825
13613W        W18013   9.707   6.593  38.056 -0.0090 -0.2579  0.1071
13614W        W18014  17.202   3.205  40.691 -0.0592  0.0860  0.1703
13615W        W18015  11.021   1.369  10.089 -0.1157 -0.3293  0.0488
13616W        W18016  13.515   0.137   5.007 -0.2331  0.0561  0.3617
13617W        W18017   7.261   3.888  14.006  0.0061  0.0944 -0.2201
13618W        W18018   3.924   4.460  41.972  0.2133  0.2742 -0.2442
13619W        W18019  14.190   2.033  43.063  0.1340 -0.1596 -0.0320
13620W        W18020  15.464   0.711  43.239 -0.1786  0.0217 -0.0228
13621W        W18021   7.427   0.012  34.106  0.1813  0.0859  0.3907
13622W        W18022  13.310   4.395   9.150  0.0424 -0.0885 -0.0842
13623W        W18023   7.860   6.265  35.726  0.1006 -0.0298 -0.1065
13624W        W18024  17.120   3.502  43.451 -0.0890  0.0370 -0.0485
13625W        W18025  17.403   0.581  24.760  0.4040  0.1101 -0.3426
13626W        W18026  11.654   4.300  20.840  0.0477  0.0624  0.1268
13627W        W18027   2.166   5.295  11.422  0.3332  0.2440  0.0188
13628W        W18028  14.594   4.163   5.223  0.0878 -0.0293  0.4398
13629W        W18029   1.455   6.483   2.132 -0.0508  0.0438 -0.0586
13630W        W18030  17.978   3.960  34.324  0.1786  0.2692  0.2255
13631W        W18031   6.716   5.858  19.707  0.2441 -0.1802  0.1251
13632W        W18032  18.743   5.339   4.454  0.1337  0.0277 -0.0766
13633W        W18033  14.658   2.930  31.120 -0.2691  0.1516 -0.1006
13634W        W18034  10.068   5.439  12.652  0.2073 -0.0135 -0.0128
13635W        W18035   9.871   3.859  36.317  0.1327 -0.1379 -0.0220
13636W        W18036   7.016   0.206  38.184  0.0102  0.2125  0.2392
13637W        W18037  19.172   2.338  35.680 -0.1850  0.0510  0.1386
13638W        W18038   6.523   4.931  21.183  0.1501 -0.1491 -0.1174
13639W        W18039   6.332   2.488  29.900  0.1265 -0.2647  0.4021
13640W        W18040   2.923   2.226   2.541  0.1851 -0.4176 -0.0886
13641W        W18041   3.742   1.169  26.899  0.0801  0.0105  0.1517
13642W        W18042   8.270   0.222   7.904  0.0464 -0.0845  0.0565
13643W        W18043   5.427   0.706  38.379  0.1380  0.1977  0.1599
13644W        W18044  11.500   1.263  18.500  0.2327 -0.0349  0.0190
13645W        W18045  17.011   4.921   9.981  0.3609 -0.3047  0.1432
13646W        W18046   7.730   2.495  16.484 -0.0977  0.1418 -0.1672
13647W        W18047  20.591   2.250  12.923 -0.2101 -0.0106  0.2355
13648W        W18048  14.336   5.229   7.151 -0.0306 -0.1881  0.0200
13649W        W18049  16.053   6.493   1.425  0.0725 -0.3538 -0.1765
13650W        W18050  14.669   4.964  11.354 -0.1097 -0.1518 -0.0817
13651W        W18051   5.241   1.610   2.469 -0.0586  0.0372  0.0804
13652W        W18052   0.901   6.466  33.674 -0.4246  0.0515  0.2645
13653W        W18053   8.687   1.424  43.752  0.3363  0.0830 -0.0027
13654W        W18054   1.469   3.265   8.030  0.1859  0.0189 -0.0162
13655W        W18055  16.978   0.309  27.710 -0.1008  0.2067  0.0398
13656W        W18056  13.696   3.419  32.067 -0.2434 -0.1505  0.2610
13657W        W18057  18.385   3.917  35.996 -0.3381  0.1436 -0.0271
13658W        W18058  19.831   3.315  27.351  0.2347  0.0995 -0.1321
13659W        W18059   2.205   0.023  25.062 -0.2767 -0.0320  0.3082
13660W        W18060  11.266   0.802  18.580  0.0764  0.4440 -0.4127
13661W        W18061  11.985   4.563  16.888 -0.2004 -0.1129  0.2718
13662W        W18062  14.501   4.658  14.616  0.1176  0.1433 -0.2048
13663W        W18063   8.778   4.187  11.328  0.1280 -0.0737 -0.1717
13664W        W18064  20.858   3.074   7.734  0.1533  0.1389 -0.1118
13665W        W18065  16.014   5.894   4.474  0.1595  0.0672  0.2752
13666W        W18066  20.927   4.650  31.472 -0.2252  0.0386 -0.0431
13667W        W18067  15.177   0.221  13.780 -0.1836  0.2937  0.1933
13668W        W18068  17.849   3.704   1.301  0.0990  0.1497 -0.2857
13669W        W18069   6.306   0.689  20.709 -0.1182  0.0152  0.1299
13670W        W18070  10.814   5.739  32.780 -0.0336  0.0192 -0.1287
13671W        W18071  13.687   4.974  33.439  0.1009 -0.4471 -0.0063
13672W        W18072  19.347   5.077  36.223  0.2972  0.2164  0.1458
13673W        W18073  11.036   4.528  12.731  0.1215 -0.1201  0.1214
13674W        W18074  18.844   0.704  28.093  0.1359  0.0488 -0.0270
13675W        W18075  12.961   0.220  14.305 -0.1366  0.0367  0.1823
13676W        W18076   3.498   0.660   1.242  0.0920 -0.1797  0.2384
13677W        W18077  12.226   3.560   8.904 -0.2232  0.0142 -0.1046
13678W        W18078   0.519   5.904  36.377 -0.1059  0.2596  0.1555
13679W        W18079   0.651   1.284  37.112 -0.1002 -0.0102  0.0684
13680W        W18080   7.285   5.219   9.068 -0.0728 -0.1725  0.0639
13681W        W18081  14.618   5.953  37.455 -0.1613  0.1291 -0.1298
13682W        W18082  13.476   3.039  38.805 -0.0509 -0.2828  0.0713
13683W        W18083  16.593   3.426   0.502 -0.1777 -0.1331 -0.0147
13684W        W18084   3.110   2.012  36.910  0.0253 -0.1594 -0.0045
13685W        W18085  17.268   5.144   4.102  0.3211 -0.2083 -0.1461
13686W        W18086  17.487   3.173  14.850 -0.0229  0.3067  0.0698
13687W        W18087   9.459   2.161  14.637  0.2206  0.2053  0.5248
13688W        W18088  18.362   6.009  31.873  0.0959 -0.3018 -0.0302
13689W        W18089  14.990   0.838   3.644  0.1490 -0.1323 -0.0838
13690W        W18090  19.315   0.469  27.260  0.3312 -0.0015 -0.0331
13691W        W18091   8.044   5.641  23.246  0.2103  0.3089 -0.1379
13692W        W18092   9.220   3.130  14.273 -0.0433  0.0001 -0.2555
13693W        W18093  12.018   4.027   9.037 -0.0356  0.1806  0.1511
13694W        W18094   4.191   3.612  41.785 -0.0820 -0.0535  0.1940
13695W        W18095   7.257   1.030  18.876  0.2564  0.1153 -0.0368
13696W        W18096  14.613   1.212  28.423  0.0435 -0.1182 -0.2469
13697W        W18097  12.764   5.124  39.327  0.3538  0.0866  0.4661
13698W        W18098  20.131   0.433  37.902  0.0633 -0.1049 -0.3527
13699W        W18099  15.442   2.296   1.936  0.0476 -0.1869 -0.3213
13700W        W18100   2.805   4.567  39.660  0.0253  0.0142  0.1744
13701W        W18101   3.962   2.645  34.625 -0.0731  0.0187  0.1720
13702W        W18102   0.508   4.606  35.146 -0.0216 -0.4312 -0.1865
13703W        W18103   2.678   6.120  42.862 -0.0846  0.0034 -0.3038
13704W        W18104   6.076   5.909  32.175 -0.1793 -0.3691  0.0032
13705W        W18105  11.936   3.558  14.596 -0.1454  0.1845 -0.1517
13706W        W18106  14.291   4.395   6.535  0.1027 -0.1307 -0.0773
13707W        W18107  18.445   3.766  39.504  0.2114 -0.0155  0.1086
13708W        W18108  17.427   2.520  32.206  0.2652  0.2631  0.1048
13709W        W18109   7.158   3.063  22.334 -0.1269  0.1130 -0.1119
13710W        W18110  18.916   3.815  43.914  0.2742 -0.3442  0.0473
13711W        W18111  13.754   0.924  33.725 -0.0100 -0.2323 -0.0360
13712W        W18112   6.278   4.427  35.551 -0.0977 -0.0709  0.1782
13713W        W18113  14.016   1.884  32.211  0.0197 -0.0608  0.1180
13714W        W18114   6.177   3.508  40.204  0.0020  0.0337 -0.2585
13715W        W18115  18.746   1.848   7.889 -0.3825  0.0867  0.0860
13716W        W18116  16.279   3.992  26.951 -0.1029 -0.3860  0.0370
13717W        W18117   5.041   3.311  41.118 -0.0471 -0.2452 -0.0186
13718W        W18118  11.855   1.586  41.783 -0.2328 -0.0854  0.1270
13719W        W18119  16.051   1.333  39.268 -0.1925  0.0873 -0.0858
13720W        W18120  18.396   1.276   6.685 -0.1376  0.1306  0.0322
13721W        W18121   2.170   2.054  33.887 -0.0287  0.2804  0.1101
13722W        W18122  10.112   2.726  37.662 -0.2413 -0.1667 -0.0595
13723W        W18123  18.455   2.656   5.638  0.2709  0.0687  0.0988
13724W        W18124  14.561   3.627   1.940 -0.3475 -0.0034  0.1508
13725W        W18125  15.206   2.567  15.260  0.0843 -0.0091  0.0771
13726W        W18126  11.251   2.482   2.552  0.3689  0.0213  0.0462
13727W        W18127  10.552   0.320  22.299 -0.3966 -0.1680  0.0076
13728W        W18128   8.616   1.798   1.052 -0.2748  0.0502 -0.0478
13729W        W18129  16.707   4.485  15.508  0.0891  0.1558 -0.1720
13730W        W18130   1.828   6.484  34.458 -0.1717 -0.3781 -0.1833
13731W        W18131   4.362   4.112  30.326 -0.0240  0.4296 -0.0003
13732W        W18132  20.451   1.017   7.062  0.2518 -0.0865 -0.2981
13733W        W18133   7.444   0.380  18.364  0.1538 -0.0911  0.1726
13734W        W18134   8.802   5.811  30.546  0.0882  0.6687 -0.0874
13735W        W18135  10.393   1.453   5.445  0.3053  0.3260 -0.0821
13736W        W18136  12.286   0.231  33.789 -0.1160 -0.1114 -0.0922
13737W        W18137   8.598   4.274   9.332  0.1373 -0.1106  0.1858
13738W        W18138  18.024   1.971   7.216  0.0640 -0.1126  0.2777
13739W        W18139  20.926   3.476  40.224 -0.1583 -0.1928  0.0532
13740W        W18140   8.844   2.531  21.900 -0.4745 -0.0347 -0.1732
13741W        W18141  17.927   4.000  30.506  0.1385  0.1170  0.1842
13742W        W18142   0.686   6.233  41.952 -0.1023 -0.2385 -0.0036
13743W        W18143   5.835   3.951   7.945  0.2063 -0.1799 -0.0276
13744W        W18144   6.623   4.609  35.959 -0.3937  0.1418 -0.1173
13745W        W18145   1.705   1.589  28.258  0.1542 -0.1940 -0.2105
13746W        W18146  20.762   2.113   4.105 -0.1936 -0.0988  0.0547
13747W        W18147   3.944   0.897  33.364  0.1208 -0.1131 -0.0057
13748W        W18148  10.497   1.008  38.844 -0.0967 -0.0850 -0.0280
13749W        W18149   9.726   3.512  29.564 -0.2705 -0.4606 -0.4077
13750W        W18150  11.956   1.599  43.822  0.1053  0.0077  0.0363
13751W        W18151  11.627   6.560  33.832  0.0434 -0.1559 -0.0001
13752W        W18152   5.690   3.292   2.662 -0.6526  0.1451  0.0393
13753W        W18153  14.421   3.593  29.060  0.0104  0.5388  0.1467
13754W        W18154   6.594   0.346   4.630 -0.0939  0.1350  0.0906
13755W        W18155   6.359   0.191  30.792 -0.3527 -0.0402 -0.0239
13756W        W18156   5.118   3.620  43.105  0.1270 -0.1189  0.0896
13757W        W18157   6.990   5.740   3.935 -0.1998 -0.1654 -0.1004
13758W        W18158   8.706   6.209  42.322  0.1062  0.1529  0.0293
13759W        W18159   5.934   3.025   2.320 -0.2883  0.0352 -0.0017
13760W        W18160  15.013   1.607  28.363 -0.2115 -0.1499 -0.0810
13761W        W18161   3.631   1.407   7.005 -0.1486  0.0517  0.0535
13762W        W18162   9.495   5.683   6.628 -0.1188  0.2248 -0.0022
13763W        W18163  17.786   4.179  44.442  0.1500 -0.0359  0.0315
13764W        W18164   4.118   3.616  11.270  0.0629  0.1074 -0.1345
13765W        W18165   0.103   6.065   7.247 -0.2712  0.2909  0.3192
13766W        W18166  20.618   2.972  31.170 -0.0805 -0.2480 -0.0395
13767W        W18167  15.102   4.090  33.402 -0.1737  0.0496 -0.2624
13768W        W18168  12.584   5.512   3.199 -0.0535 -0.0960  0.1854
13769W        W18169   6.659   1.673  36.144 -0.4095  0.2590  0.0289
13770W        W18170   8.681   3.789  33.056  0.0063 -0.3342 -0.2183
13771W        W18171  14.829   3.355  32.292 -0.1161  0.0514 -0.2280
13772W        W18172  14.707   4.242   3.116 -0.0946 -0.0900  0.1527
13773W        W18173  17.427   6.580  10.475 -0.1432 -0.0915 -0.1109
13774W        W18174  12.394   5.417  42.713  0.1350 -0.0247  0.1734
13775W        W18175  16.692   4.044   9.792  0.3159  0.0314 -0.0686
13776W        W18176  10.793   4.866  10.703 -0.0319  0.1363 -0.0011
13777W        W18177  15.367   0.294  29.779 -0.0809  0.2832 -0.0508
13778W        W18178  14.841   3.994   1.744  0.2620 -0.1448  0.2792
13779W        W18179  16.374   3.070  38.646 -0.0170 -0.1309 -0.2160
13780W        W18180   8.534   4.151  18.184  0.0876 -0.0604 -0.0780
13781W        W18181  13.330   6.222  40.019 -0.2023 -0.2108  0.0270
13782W        W18182  18.102   4.320   5.043 -0.1573 -0.2582  0.1486
13783W        W18183  18.191   4.222  41.444 -0.1336  0.1678 -0.1791
13784W        W18184  21.105   4.638   7.269 -0.0234 -0.3002  0.0167
13785W        W18185   4.631   3.072  34.309  0.0133  0.1773  0.3666
13786W        W18186  11.706   2.453  38.349 -0.0673  0.1936 -0.0336
13787W        W18187   2.912   0.688  39.080 -0.0655  0.0587  0.2157
13788W        W18188  14.883   1.922   2.088 -0.0965  0.2380  0.0389
13789W        W18189   8.999   6.038  41.896  0.0562  0.1362  0.0405
13790W        W18190  20.653   1.179  24.558 -0.0264 -0.0310 -0.0106
13791W        W18191  19.243   3.825  13.935  0.2196  0.0818 -0.0190
13792W        W18192   7.359   5.071  39.287  0.0184  0.0229 -0.0865
13793W        W18193   3.394   2.083  10.770  0.1269  0.0578 -0.1091
13794W        W18194  17.243   4.858  29.057 -0.0590  0.0401 -0.3451
13795W        W18195  12.481   5.319  42.215  0.0555  0.0925 -0.2811
13796W        W18196   1.344   3.527  28.061 -0.1631 -0.1863 -0.2489
13797W        W18197   7.596   0.265  22.780 -0.2435 -0.0699  0.1130
13798W        W18198   9.009   3.150   5.165  0.0705 -0.0696 -0.2271
13799W        W18199   8.937   3.635  16.761 -0.1964  0.0379  0.0337
13800W        W18200   0.035   0.096   9.215  0.0509 -0.0615  0.3148
13801W        W18201   5.232   2.538  35.341  0.0529 -0.3989 -0.0164
13802W        W18202   1.245   2.018  38.957 -0.1089 -0.1457 -0.1257
13803W        W18203  19.249   5.297   8.487  0.1484  0.2351 -0.0960
13804W        W18204  17.085   3.533  36.800  0.0021  0.1487 -0.0839
13805W        W18205   3.098   4.357  36.825  0.2725 -0.1671  0.0673
13806W        W18206  16.800   1.597  33.747  0.2423  0.0433 -0.0975
13807W        W18207   1.970   2.835  28.536  0.0916 -0.1378 -0.2995
13808W        W18208   5.393   5.594  18.605  0.1859 -0.0508  0.3066
13809W        W18209  20.226   1.985  25.604  0.0115  0.2032 -0.1366
13810W        W18210  13.301   6.282  34.350 -0.1636  0.2477 -0.1611
13811W        W18211   8.784   0.316  18.092  0.2623  0.0745  0.0725
13812W        W18212  18.098   2.749  27.246 -0.3529  0.2605 -0.2802
13813W        W18213  11.117   3.651  34.286 -0.1396 -0.0318 -0.1239
13814W        W18214  14.706   4.644  12.583  0.0184 -0.1602 -0.0165
13815W        W18215  10.217   0.803  19.468  0.2272  0.0825 -0.1192
13816W        W18216   2.934   3.168  12.526 -0.1874  0.0590 -0.0932
13817W        W18217   1.517   3.751  43.785  0.2338 -0.2263 -0.2491
13818W        W18218   8.610   5.018  44.238  0.0491  0.2126  0.1817
13819W        W18219   5.118   4.288  37.993  0.1746 -0.3479  0.1686
13820W        W18220  17.557   4.501  10.145  0.0093  0.0936  0.0040
13821W        W18221  11.496   5.561  13.828  0.0210 -0.2008 -0.1821
13822W        W18222  16.572   3.434  11.816  0.0958  0.2179 -0.0090
13823W        W18223  12.914   1.026  44.247 -0.2201 -0.0390 -0.1791
13824W        W18224   9.486   2.483  44.458  0.0890 -0.0145  0.1548
13825W        W18225   3.515   6.135  17.601 -0.1200 -0.1226  0.3312
13826W        W18226  10.131   5.943  41.905  0.0395  0.2341 -0.1819
13827W        W18227   8.774   3.153  13.547  0.1545  0.2518 -0.0678
13828W        W18228   8.525   0.229  32.650 -0.1102 -0.2407 -0.0758
13829W        W18229  12.994   2.778  31.769  0.0035 -0.2146 -0.0499
13830W        W18230  13.640   2.233  41.636 -0.2868  0.2030 -0.0691
13831W        W18231  20.340   1.450  38.268  0.2486 -0.1555 -0.0348
13832W        W18232   6.972   4.381  13.754 -0.2216  0.1173  0.2362
13833W        W18233   4.579   5.516   1.484 -0.0691  0.0613  0.0825
13834W        W18234  16.903   4.052  37.055 -0.0533 -0.2791 -0.0243
13835W        W18235   3.682   4.739  27.994  0.0658  0.1162  0.0518
13836W        W18236   8.634   3.339   8.835  0.0752  0.0861 -0.1759
13837W        W18237   8.922   1.071  40.017  0.2586 -0.1057  0.1132
13838W        W18238   0.248   6.070  26.264  0.3190 -0.1469 -0.0790
13839W        W18239   2.843   5.080   4.223 -0.2507  0.1041 -0.1440
13840W        W18240  11.430   0.027  33.352 -0.0146 -0.0460 -0.0812
13841W        W18241  20.419   1.901   7.262  0.3467  0.4167 -0.1589
13842W        W18242   4.219   6.104  14.520  0.0934  0.1184  0.0100
13843W        W18243   0.974   5.739  30.871  0.0636 -0.1077 -0.1739
13844W        W18244   6.346   1.569  29.547 -0.0727 -0.1851 -0.0891
13845W        W18245  18.988   2.807  21.542 -0.0602 -0.0725 -0.0730
13846W        W18246  12.135   3.912   8.111  0.0400 -0.0253  0.2552
13847W        W18247  11.567   1.350  38.429 -0.1070 -0.0690  0.3000
13848W        W18248  12.186   5.368  38.105  0.1821  0.0061 -0.0143
13849W        W18249   8.737   6.573  35.384  0.1292 -0.1784  0.1213
13850W        W18250   0.229   2.855   7.007 -0.0748 -0.3266  0.3892
13851W        W18251  19.268   3.660  38.658 -0.1988  0.2012 -0.4526
13852W        W18252  16.449   5.952  41.454  0.0123 -0.0565 -0.2767
13853W        W18253  13.890   2.031  16.276  0.1772 -0.0683  0.1977
13854W        W18254  19.551   4.515  27.589 -0.2083  0.0040  0.4629
13855W        W18255   1.528   1.616  25.250  0.1176 -0.0118  0.0208
13856W        W18256   2.612   5.321  11.711 -0.1898 -0.1940 -0.2118
13857W        W18257  16.319   4.277  10.463  0.1302 -0.1382  0.1018
13858W        W18258   6.412   0.553  19.700 -0.3809  0.2436 -0.0487
13859W        W18259   0.703   5.164  25.125  0.3641  0.0509  0.0420
13860W        W18260   0.343   0.707  35.031 -0.0434 -0.0648 -0.1782
13861W        W18261   7.089   2.412  11.918 -0.0702  0.0018  0.3361
13862W        W18262  11.720   1.003  33.614 -0.1170 -0.1104 -0.0357
13863W        W18263   6.378   1.904  42.327 -0.1160 -0.3961 -0.2142
13864W        W18264   7.346   0.866   8.470  0.2391  0.2941 -0.0562
13865W        W18265   3.214   0.134  41.056 -0.0021 -0.1833  0.0568
13866W        W18266  13.188   1.842  30.898 -0.1951 -0.1521 -0.2092
13867W        W18267  12.940   2.749  29.532  0.0811  0.0139  0.1877
13868W        W18268  11.136   1.122  12.702 -0.1146 -0.0058  0.0345
13869W        W18269  19.056   2.015  40.368 -0.1778 -0.2693  0.1932
13870W        W18270   2.826   0.255  30.187  0.0210  0.4611  0.0072
13871W        W18271   8.965   6.475  22.564  0.1857 -0.0789 -0.1343
13872W        W18272  17.178   2.301  40.431  0.1260  0.3431  0.1212
13873W        W18273   0.792   4.259  38.154  0.0288 -0.1773 -0.2192
13874W        W18274   1.465   4.362  40.908 -0.1605 -0.2177  0.1743
13875W        W18275   6.613   5.805  40.290 -0.1090 -0.2411 -0.1538
13876W        W18276  14.736   5.524  16.699 -0.0059  0.0279  0.0037
13877W        W18277  16.061   5.255  11.609  0.2052  0.2886  0.1646
13878W        W18278   4.172   2.394  30.440 -0.2242 -0.3017  0.0396
13879W        W18279  14.431   0.970   5.069 -0.0144  0.0397  0.2210
13880W        W18280  13.871   0.202  13.943 -0.0913 -0.2749 -0.3151
13881W        W18281   1.376   3.986  33.868 -0.2836 -0.1485  0.0215
13882W        W18282  15.829   1.046  15.673  0.1971 -0.3486 -0.1976
13883W        W18283  12.133   2.540   3.117  0.1294 -0.1015 -0.1030
13884W        W18284  11.385   6.066  20.882  0.0369  0.0664  0.0082
13885W        W18285  17.321   1.133  31.833 -0.1952 -0.1414  0.1847
13886W        W18286   3.775   4.066  28.539  0.2239  0.3088 -0.1580
13887W        W18287  13.333   4.921  19.041 -0.2604  0.2938  0.0569
13888W        W18288   0.404   0.242  31.015 -0.0298  0.0284  0.0611
13889W        W18289  15.916   6.187  40.273  0.2397 -0.1724 -0.2445
13890W        W18290   4.649   0.895  37.254 -0.1055 -0.0226  0.1417
13891W        W18291  18.643   0.016  40.450  0.0237 -0.1859  0.1586
13892W        W18292   0.606   0.238   2.985 -0.1681  0.1169 -0.0818
13893W        W18293  16.847   4.473   7.895  0.2780  0.0317 -0.1765
13894W        W18294  20.847   3.748  13.392  0.0954 -0.0391  0.1747
13895W        W18295   5.022   2.560  14.204 -0.2473 -0.1071  0.1243
13896W        W18296   7.634   5.219  10.221  0.1372 -0.0206  0.4411
13897W        W18297   6.105   3.600  32.122  0.1106  0.3312 -0.0089
13898W        W18298   2.560   6.065   4.686 -0.3622 -0.1202  0.0686
13899W        W18299   7.471   1.700  30.407 -0.1385 -0.1196  0.1171
13900W        W18300  17.060   0.377  28.308  0.1696 -0.1938  0.3506
13901W        W18301  14.004   5.070  42.362  0.0822  0.0186  0.0131
13902W        W18302  19.079   5.989  39.693  0.1453 -0.1172  0.0963
13903W        W18303   1.613   5.131   0.235 -0.0336 -0.0990 -0.0061
13904W        W18304  17.872   0.719  25.629  0.0562 -0.0277 -0.0574
13905W        W18305  14.639   0.187  43.494  0.2560 -0.0283 -0.2320
13906W        W18306  17.361   3.920  32.690  0.1290 -0.0510 -0.1366
13907W        W18307  14.001   6.290  33.211  0.0283 -0.0089  0.2537
13908W        W18308  18.924   2.443  31.971 -0.2357 -0.1966 -0.0810
13909W        W18309   6.702   5.661  34.360  0.1514 -0.1076  0.0632
13910W        W18310   4.167   3.148  37.842 -0.0077 -0.0450 -0.4182
13911W        W18311   3.973   6.123  13.315  0.0598  0.1369 -0.0927
13912W        W18312  19.751   5.019  19.438 -0.0750 -0.2830 -0.0852
13913W        W18313  13.873   1.216  37.306 -0.1155  0.0393 -0.1016
13914W        W18314   9.848   0.044  11.250  0.3138 -0.1845 -0.0879
13915W        W18315  17.766   0.992  31.633  0.0487  0.1405 -0.0903
13916W        W18316   8.795   3.771  23.827  0.0970 -0.1549 -0.1267
13917W        W18317  17.497   0.258  23.789 -0.0572 -0.2595 -0.1814
13918W        W18318  14.112   5.350  27.643 -0.2576  0.1621  0.1717
13919W        W18319   2.270   3.202  41.768 -0.1285 -0.2903 -0.2095
13920W        W18320   7.253   0.895   3.014 -0.3058  0.1423  0.2396
13921W        W18321   6.968   3.930  34.681  0.1490  0.0664  0.3835
13922W        W18322   4.956   4.898   4.228 -0.1495 -0.3378 -0.1223
13923W        W18323  17.472   5.304   2.571  0.1256 -0.0871  0.1627
13924W        W18324  20.839   1.185   4.903  0.1119 -0.0004 -0.2118
13925W        W18325  19.658   1.033  13.403 -0.4062 -0.0205  0.0227
13926W        W18326   6.620   3.197  29.690 -0.0896 -0.0223 -0.0286
13927W        W18327  10.744   4.898   1.188  0.0983 -0.1944  0.2558
13928W        W18328   6.460   5.217  16.647 -0.1765 -0.1227  0.4167
13929W        W18329  17.638   6.419  32.262 -0.2232 -0.0928  0.0614
13930W        W18330  16.407   1.676  28.936 -0.0674 -0.0606  0.0027
13931W        W18331  13.756   2.763  35.202 -0.1478 -0.2181 -0.1536
13932W        W18332   1.941   4.312  10.795 -0.0134  0.2440 -0.3367
13933W        W18333   1.265   6.599   5.153  0.0702 -0.0440 -0.1686
13934W        W18334   2.642   1.460  10.889 -0.2020  0.0963  0.1940
13935W        W18335  12.171   2.061   2.998  0.2506 -0.1973 -0.3578
13936W        W18336   4.939   1.628  32.601 -0.3967 -0.1036  0.1339
13937W        W18337  10.878   3.356  23.473  0.0611  0.1490  0.0391
13938W        W18338   0.544   2.681  43.683  0.2777 -0.0552 -0.0637
13939W        W18339   7.805   2.891   8.148 -0.0752  0.1393  0.2994
13940W        W18340  19.801   1.363  11.279 -0.3122 -0.1032 -0.1312
13941W        W18341  15.645   4.987   6.016  0.0640 -0.0415  0.2446
13942W        W18342  14.109   6.202  39.692  0.1110 -0.2903  0.1717
13943W        W18343  11.772   1.824   9.486  0.1874  0.0527 -0.1943
13944W        W18344   0.826   0.976  39.980 -0.0335 -0.1669  0.1076
13945W        W18345   8.535   0.005  11.972 -0.2305  0.2823 -0.3054
13946W        W18346  12.112   1.316  44.757  0.0729 -0.1041  0.3314
13947W        W18347   9.278   0.948  32.903  0.0659  0.3769 -0.0745
13948W        W18348  15.291   5.390   2.638  0.2184  0.0980 -0.3268
13949W        W18349  11.790   0.991  16.260 -0.0644  0.0281  0.0923
13950W        W18350   7.911   2.604  13.808  0.0490 -0.0624 -0.0374
13951W        W18351  19.114   2.055  24.825 -0.1303  0.1279 -0.4607
13952W        W18352  16.342   1.261  28.620  0.3397  0.1780  0.2567
13953W        W18353  14.612   6.259  36.149 -0.2143 -0.2414 -0.3412
13954W        W18354   0.710   5.540   4.705 -0.1132  0.3376 -0.0420
13955W        W18355  15.953   2.844   9.343 -0.2214  0.2491 -0.1011
13956W        W18356   6.740   1.940  36.664  0.0221 -0.0357 -0.0885
13957W        W18357  21.067   1.626  26.149  0.0946  0.1469 -0.0351
13958W        W18358  14.450   4.148  28.938 -0.3439  0.2785 -0.0274
13959W        W18359  17.029   0.866   4.613 -0.3727 -0.0518  0.3902
13960W        W18360   7.486   0.188  14.677  0.1242  0.0985  0.0301
13961W        W18361  10.703   2.800  41.444  0.1818  0.0415  0.1191
13962W        W18362   9.988   1.492  29.308  0.0258  0.0490  0.0032
13963W        W18363  11.268   4.737  39.958 -0.1423 -0.1453  0.0109
13964W        W18364   0.881   2.517  45.009 -0.3918 -0.1079 -0.1533
13965W        W18365   6.423   0.805  37.203  0.0172 -0.3078  0.1096
13966W        W18366   1.650   2.181  36.924 -0.1981 -0.3954  0.2938
13967W        W18367   3.825   4.488  32.059 -0.2206 -0.3209 -0.1809
13968W        W18368  13.315   3.085  11.002 -0.0205  0.1548  0.0831
13969W        W18369  17.525   2.191   4.608  0.1646  0.1136 -0.0542
13970W        W18370   5.166   3.947  34.106 -0.0004 -0.1788  0.3028
13971W        W18371   5.189   0.921  13.410  0.0605 -0.1643 -0.1585
13972W        W18372  16.032   3.125  10.072 -0.0536  0.1291 -0.0232
13973W        W18373  16.092   1.665  10.773 -0.0499  0.3336 -0.1566
13974W        W18374  10.922   1.991  38.307  0.0440 -0.3787  0.1433
13975W        W18375   9.036   4.689  35.450  0.1081 -0.2814  0.0956
13976W        W18376   0.997   2.411  26.396 -0.0309 -0.0115  0.0258
13977W        W18377  15.489   1.004   9.858 -0.0339  0.1168  0.0816
13978W        W18378   6.444   1.847  37.184 -0.2176 -0.1353  0.0371
13979W        W18379  11.341   2.517  23.190  0.0358  0.0312 -0.1869
13980W        W18380  18.894   0.992   9.636  0.2028 -0.0051 -0.1868
13981W        W18381   4.465   4.753  18.011  0.1725 -0.0671  0.0606
13982W        W18382   9.358   3.710   8.854  0.2074 -0.2766 -0.1495
13983W        W18383  19.333   5.001  37.846 -0.1744  0.0872 -0.1878
13984W        W18384   3.747   4.554   3.859  0.0540  0.2209 -0.0283
13985W        W18385  12.086   6.454  39.014  0.2752  0.1678  0.0221
13986W        W18386  10.539   4.674   5.113  0.1858  0.2094  0.2188
13987W        W18387  16.150   0.786  12.262  0.1242  0.0267 -0.2969
13988W        W18388  14.183   1.506   8.603 -0.4284 -0.0726 -0.0356
13989W        W18389   5.477   1.980  38.374 -0.1100  0.1305  0.3111
13990W        W18390  11.891   4.866  35.899  0.1335  0.1785  0.1428
13991W        W18391   2.844   1.102   7.357  0.0887  0.2856 -0.1439
13992W        W18392  12.631   5.821  32.031  0.1489  0.0779 -0.1586
13993W        W18393   7.723   6.199  35.148  0.2152  0.3698 -0.0072
13994W        W18394   1.917   3.910  35.711  0.1660 -0.3081 -0.0897
13995W        W18395  17.265   5.131  43.068 -0.2482 -0.1093 -0.2452
13996W        W18396  13.850   1.647  13.540  0.1966 -0.2308 -0.0740
13997W        W18397  20.124   4.183  24.999 -0.1115 -0.0032 -0.0738
13998W        W18398   0.791   2.534  33.930 -0.0718 -0.0155  0.4195
13999W        W18399  16.137   2.975   7.088  0.0646  0.0583  0.3036
14000W        W18400   2.437   0.966  44.929 -0.0056 -0.0090  0.4041
14001W        W18401   5.812   1.093   3.730 -0.0427 -0.0665  0.3744
14002W        W18402   0.188   3.157  27.590 -0.0111  0.2292  0.2368
14003W        W18403  11.048   0.586  34.042 -0.1222 -0.0562  0.0192
14004W        W18404  20.291   1.458  20.918 -0.0564 -0.0346 -0.0762
14005W        W18405   0.006   1.422  26.839  0.0728  0.0174 -0.2779
14006W        W18406   1.341   3.307   6.722 -0.0291 -0.1510  0.1349
14007W        W18407  12.444   3.203  30.757  0.1212  0.2254 -0.0462
14008W        W18408  18.407   3.998  26.755  0.0408  0.1476  0.1530
14009W        W18409  13.033   4.919   7.515 -0.1675 -0.1204  0.0109
14010W        W18410   0.468   5.119  26.261  0.0886  0.1454 -0.0672
14011W        W18411  13.653   2.612  33.836  0.3229  0.0037  0.0544
14012W        W18412   0.717   2.358   1.559 -0.0524  0.1252  0.1214
14013W        W18413  16.608   3.160  38.088  0.0057  0.3409  0.1410
14014W        W18414  12.133   5.715  37.769  0.0532  0.0973  0.3982
14015W        W18415  13.298   6.302   5.748 -0.2244  0.0373 -0.2518
14016W        W18416   6.584   6.210  43.758  0.0660 -0.1572 -0.0345
14017W        W18417   0.482   5.982  31.141  0.0543 -0.1011 -0.0662
14018W        W18418  15.086   4.112  28.085  0.0443 -0.2215 -0.2682
14019W        W18419  17.764   3.325  27.628 -0.0481 -0.1798  0.1182
14020W        W18420  19.559   2.967  40.847 -0.2466 -0.1529  0.1219
14021W        W18421  18.389   4.716   6.999 -0.4277  0.1601  0.1322
14022W        W18422   2.749   0.129  11.143  0.1735 -0.0816 -0.0653
14023W        W18423   7.881   6.297  18.323  0.2170  0.0978 -0.0624
14024W        W18424  14.660   6.267   6.876  0.1213  0.0113  0.1363
14025W        W18425   4.780   1.451  31.644 -0.0937  0.3809  0.0503
14026W        W18426   3.097   4.724  14.682 -0.1939 -0.0754  0.1481
14027W        W18427   2.174   0.160  11.371 -0.1872 -0.2122  0.1051
14028W        W18428   6.448   2.423  37.275 -0.5015 -0.1945  0.0512
14029W        W18429  16.443   3.878   9.086  0.1123 -0.0302 -0.2668
14030W        W18430  10.761   3.937  34.101 -0.2027  0.1738  0.1823
14031W        W18431  12.100   4.217   2.562  0.2407  0.0071  0.0940
14032W        W18432   0.710   2.479  12.797 -0.0514  0.3122 -0.1920
14033W        W18433  11.422   1.792  18.435 -0.1612  0.1553 -0.1425
14034W        W18434  13.666   0.802  38.953  0.0570  0.2981 -0.4589
14035W        W18435  20.289   5.835  25.175 -0.1663  0.0527 -0.0934
14036W        W18436   4.992   2.468   8.195  0.2208  0.0366  0.3802
14037W        W18437  17.034   2.222  43.478 -0.1511  0.0130 -0.0906
14038W        W18438   5.361   5.219  44.784 -0.2798  0.0982 -0.1253
14039W        W18439   7.458   4.351  17.404  0.2348 -0.2866 -0.2464
14040W        W18440   3.843   0.210   7.171  0.1030  0.1311  0.1931
14041W        W18441  14.130   1.304  33.581  0.0482  0.0750 -0.0754
14042W        W18442  12.838   5.144  44.529  0.0898  0.1395 -0.0394
14043W        W18443  15.957   1.182   8.891 -0.1378  0.0171 -0.0610
14044W        W18444   9.615   2.052  38.703 -0.0904 -0.1077 -0.3052
14045W        W18445  15.195   0.165  16.037 -0.0861 -0.0682  0.1998
14046W        W18446   3.665   6.414  39.808 -0.1176  0.4161 -0.0857
14047W        W18447   1.819   5.978  16.130  0.1576 -0.0809 -0.1461
14048W        W18448  14.524   0.437  32.798  0.2403 -0.0822  0.0978
14049W        W18449   5.478   6.159  32.778  0.2739  0.0299  0.0919
14050W        W18450  11.113   4.111  15.186  0.1594 -0.0460  0.3020
14051W        W18451   8.203   0.791  23.190  0.1243  0.0845 -0.0748
14052W        W18452   0.556   2.571  14.108 -0.1563  0.0682 -0.0092
14053W        W18453  16.798   2.826  25.408  0.0145 -0.1758  0.0518
14054W        W18454   3.527   2.902   5.070 -0.0699 -0.0577 -0.2910
14055W        W18455  13.451   1.979  31.269 -0.3615 -0.3245  0.3198
14056W        W18456  12.144   0.086  43.089 -0.2254 -0.2240 -0.3368
14057W        W18457  14.531   1.265  12.855 -0.0417 -0.0727  0.1230
14058W        W18458  12.769   3.528   7.086  0.1946  0.1016  0.1182
14059W        W18459  19.964   5.379   3.915  0.0329  0.1318  0.3068
14060W        W18460  11.970   6.260  42.761 -0.2338  0.2476  0.1349
14061W        W18461  15.104   1.081  34.787 -0.0233  0.0920 -0.1755
14062W        W18462  19.918   5.342  36.288 -0.2665 -0.1484 -0.1507
14063W        W18463   1.506   0.721  12.634 -0.1763  0.0814 -0.1545
14064W        W18464   9.706   5.105   1.699  0.3230 -0.0634 -0.1263
14065W        W18465  12.451   5.641  41.442 -0.0435 -0.0484 -0.1165
14066W        W18466   5.547   0.296  37.144 -0.1563 -0.1712  0.0551
14067W        W18467   7.994   5.078  19.731  0.0142  0.1023  0.2999
14068W        W18468  18.477   1.738   2.939 -0.0104  0.1364  0.2957
14069W        W18469   0.527   2.676  41.004  0.0883  0.2879 -0.4062
14070W        W18470   8.102   2.178  30.807 -0.0648  0.0990 -0.1432
14071W        W18471  17.619   2.861   1.192 -0.1637  0.1594  0.1615
14072W        W18472   6.625   4.795   1.430  0.2962 -0.0932  0.0683
14073W        W18473  11.626   5.775   7.900 -0.0029 -0.0052  0.2056
14074W        W18474   4.161   6.440  37.776  0.1502 -0.3013  0.0850
14075W        W18475   6.715   0.352  42.825  0.1614  0.1954  0.1548
14076W        W18476  10.157   2.663  44.951 -0.0761  0.2324 -0.0815
14077W        W18477  13.306   1.172   0.411 -0.2478 -0.1649 -0.2093
14078W        W18478  18.467   3.675  12.564  0.0501 -0.0421 -0.1080
14079W        W18479   3.682   0.433  36.808  0.0063 -0.0310  0.1668
14080W        W18480   9.467   0.818  41.871 -0.1352  0.1632  0.0762
14081W        W18481   0.246   1.747   9.580  0.0853 -0.2320  0.0786
14082W        W18482  18.630   3.558  38.183  0.3534 -0.0348 -0.0119
14083W        W18483   1.251   2.833   8.002 -0.1009 -0.1936 -0.1544
14084W        W18484  15.555   3.426  41.694 -0.0623 -0.1678 -0.1410
14085W        W18485   8.412   3.974  23.459  0.0972 -0.0047 -0.0246
14086W        W18486  16.052   5.630  42.613 -0.1654 -0.0801  0.0207
14087W        W18487  11.437   4.849  33.848  0.0573 -0.2734 -0.2608
14088W        W18488   7.263   3.506  10.470  0.0595 -0.0080 -0.3511
14089W        W18489  17.357   3.372  13.869  0.2138  0.4172  0.1339
14090W        W18490  13.793   1.095  40.694 -0.1980 -0.1582 -0.2394
14091W        W18491  17.893   6.159  40.520 -0.0494 -0.1605  0.1774
14092W        W18492  16.260   5.516   0.348  0.1463  0.0193  0.1511
14093W        W18493   0.306   6.348  30.829  0.0237  0.0505  0.0533
14094W        W18494  13.581   3.866   8.362  0.2153 -0.2164  0.3048
14095W        W18495  11.367   0.499  44.801  0.1817 -0.4333  0.1089
14096W        W18496   8.384   5.968   2.412  0.0003  0.1665 -0.0598
14097W        W18497   4.540   5.503   9.740 -0.0540  0.1497  0.2569
14098W        W18498  21.027   6.338  33.571  0.2050 -0.1163  0.0498
14099W        W18499   1.845   5.829   0.545  0.1316  0.0339 -0.3127
14100W        W18500  18.131   1.723  29.938 -0.1505  0.3327 -0.0133
14101W        W18501  18.588   5.763   0.168 -0.0025  0.2886  0.0416
14102W        W18502  14.131   5.774  44.349  0.3684 -0.1741  0.0739
14103W        W18503   2.390   4.877   8.828  0.1029  0.0565  0.1562
14104W        W18504  12.151   3.543   1.620  0.2272  0.2215  0.0457
14105W        W18505   7.695   3.885  19.541 -0.1881  0.1741 -0.1935
14106W        W18506  11.475   2.520  12.549  0.1442 -0.2827  0.1984
14107W        W18507  11.277   1.568  18.933 -0.0699  0.1969 -0.1640
14108W        W18508   2.736   0.114   6.067 -0.1168 -0.0257  0.0906
14109W        W18509   2.114   0.017   8.918 -0.1224 -0.0439 -0.0703
14110W        W18510  16.593   6.038  30.383 -0.0283  0.0768  0.1010
14111W        W18511  12.581   4.800  29.564 -0.1680 -0.1664  0.2019
14112W        W18512   1.117   2.350   1.932  0.2904  0.1622 -0.0087
14113W        W18513  14.156   2.778   7.831  0.0802  0.1062  0.0627
14114W        W18514   4.526   0.353  17.847 -0.4004 -0.1521 -0.0816
14115W        W18515   6.912   0.360  10.074  0.0191  0.0323 -0.0204
14116W        W18516  16.883   2.038  42.565 -0.0797 -0.0099  0.3337
14117W        W18517  17.678   5.720  40.312  0.1435  0.3060 -0.2043
14118W        W18518  18.099   1.403  37.919  0.4041  0.1606 -0.0485
14119W        W18519   8.480   5.010  33.867 -0.1725 -0.1853  0.3314
14120W        W18520  11.968   0.981  31.263 -0.2483  0.0335  0.3444
14121W        W18521  11.827   2.698  41.942  0.0852 -0.0661  0.2154
14122W        W18522   0.320   1.599   8.268 -0.0056 -0.5165 -0.2604
14123W        W18523   6.533   3.421   5.696  0.0401  0.0774  0.0656
14124W        W18524   0.917   6.433   6.547  0.3945  0.1758 -0.0526
14125W        W18525  16.883   0.731   0.480 -0.1419 -0.0675  0.4113
14126W        W18526  14.366   0.197  40.738 -0.0325  0.2686 -0.1189
14127W        W18527  19.842   1.209  38.033  0.5016  0.1565 -0.2013
14128W        W18528  19.404   3.924  20.539 -0.1945  0.2477  0.1806
14129W        W18529   0.837   0.206  34.549 -0.0257 -0.1732 -0.1601
14130W        W18530  17.754   6.241   4.012  0.0315 -0.3553  0.0964
14131W        W18531  21.070   4.201  22.266 -0.0452 -0.0334 -0.0909
14132W        W18532  17.574   3.079   0.220  0.0005  0.4266  0.2988
14133W        W18533  17.088   3.600  30.530 -0.0973 -0.2902  0.0141
14134W        W18534   4.379   6.229  27.323  0.1415  0.1272 -0.0796
14135W        W18535   3.275   2.803  31.854  0.0444 -0.0258  0.1786
14136W        W18536   2.830   4.020   4.470  0.1138 -0.1280 -0.1079
14137W        W18537   7.586   5.022  14.238 -0.0826  0.2051  0.0989
14138W        W18538  20.640   3.940  25.805 -0.0609 -0.0690 -0.1694
14139W        W18539  11.908   4.883  44.717 -0.1993  0.0251  0.0997
14140W        W18540   9.233   2.370   1.888  0.1305  0.0903  0.3364
14141W        W18541  13.022   2.816  36.313 -0.0945 -0.0309  0.0047
14142W        W18542  17.872   5.367  29.700  0.3464 -0.0009 -0.1595
14143W        W18543   6.342   3.339  10.196 -0.1888  0.0519 -0.1114
14144W        W18544   0.876   5.743  34.493  0.1563  0.0083  0.1208
14145W        W18545  16.251   6.271  30.019  0.0458 -0.1674 -0.0731
14146W        W18546   4.401   1.661  14.872 -0.2174  0.1228 -0.2514
14147W        W18547   1.204   5.544  11.178  0.0955  0.0871  0.0296
14148W        W18548  16.565   3.275  35.554 -0.2595  0.1309  0.1913
14149W        W18549  10.438   0.781  33.891 -0.0443  0.1082 -0.0721
14150W        W18550  15.271   5.547  12.683 -0.0366 -0.1707  0.0189
14151W        W18551  13.550   4.240  42.028 -0.1889  0.1269  0.0072
14152W        W18552  15.194   0.653  38.643 -0.0825 -0.1106 -0.0220
14153W        W18553  10.314   1.539  31.744  0.0986  0.2353 -0.1324
14154W        W18554  10.986   5.120   9.569  0.0844 -0.0343  0.2889
14155W        W18555  15.736   5.945  15.163  0.2733  0.1922  0.1356
14156W        W18556  11.769   2.150  27.962  0.1245  0.2237  0.0143
14157W        W18557   5.007   0.768  35.002 -0.1133  0.0657  0.1481
14158W        W18558  12.018   2.199  38.620  0.2602  0.0387  0.4043
14159W        W18559   4.427   3.131   7.700  0.1154 -0.1808 -0.2063
14160W        W18560   8.644   2.681  35.688 -0.0917  0.1376  0.2136
14161W        W18561  18.974   1.335   0.614  0.2904  0.0137  0.0061
14162W        W18562   2.272   0.641  36.430 -0.0208 -0.0581 -0.0626
14163W        W18563   4.524   5.498  42.480 -0.0190  0.1129 -0.1788
14164W        W18564   1.186   3.138  26.763  0.1459  0.3037  0.1769
14165W        W18565   7.485   0.585   1.639 -0.2514  0.0739  0.1505
14166W        W18566  15.396   1.388  15.689  0.0687  0.2345  0.0272
14167W        W18567  16.662   4.326   1.495  0.1301 -0.1279  0.1499
14168W        W18568  10.212   0.059  14.935 -0.0401  0.2440  0.1340
14169W        W18569  10.555   5.177   7.943 -0.2037  0.1432 -0.0796
14170W        W18570  19.880   3.690  33.284  0.0599  0.0584 -0.1658
14171W        W18571  21.012   3.439  43.740  0.3118 -0.3706 -0.0378
14172W        W18572  18.433   3.498  44.579  0.1511 -0.1259 -0.0107
14173W        W18573  10.959   3.070  41.087  0.1632  0.1208 -0.0931
14174W        W18574  20.513   2.638   5.178  0.1375  0.2591 -0.2295
14175W        W18575   3.247   0.296  32.237  0.0452 -0.5143 -0.1999
14176W        W18576  17.373   0.753  39.029 -0.2630 -0.1695 -0.0288
14177W        W18577   3.089   0.525  40.355  0.0186  0.0995  0.0200
14178W        W18578  15.995   6.303  39.810  0.1664 -0.0235 -0.2104
14179W        W18579  20.184   4.216  14.484  0.3244  0.1419  0.1085
14180W        W18580  14.318   5.668  37.136  0.0295  0.3078 -0.1673
14181W        W18581  20.830   3.147  23.621 -0.0882 -0.1036 -0.2023
14182W        W18582  15.695   4.598  39.236  0.3092 -0.0481 -0.1525
14183W        W18583   3.538   5.723  44.447  0.1559  0.1712 -0.4272
14184W        W18584  19.550   3.431   3.769 -0.0033 -0.0604  0.4212
14185W        W18585  10.917   1.775  18.596  0.2600  0.3784  0.3712
14186W        W18586  10.794   2.485  21.186  0.1922 -0.0544 -0.0575
14187W        W18587   8.330   6.433  14.438  0.2062  0.1041 -0.1826
14188W        W18588   3.623   5.275  34.536 -0.2906 -0.1739  0.0710
14189W        W18589  14.651   0.826  10.093  0.2413 -0.0862  0.1387
14190W        W18590  15.824   2.429  33.064  0.1378 -0.1497 -0.0941
14191W        W18591   2.043   6.307  43.896 -0.2411 -0.0109  0.2988
14192W        W18592  11.694   0.415  28.981  0.0509  0.0016 -0.2611
14193W        W18593  13.433   2.773   3.561 -0.0148  0.2889 -0.0130
14194W        W18594   1.628   4.073  25.217 -0.0947 -0.2480  0.0926
14195W        W18595  18.637   1.032   4.592  0.0031 -0.0916 -0.2282
14196W        W18596  14.008   3.448  18.902  0.0445  0.0856  0.1147
14197W        W18597   4.044   5.086  39.584  0.5158  0.1983  0.0757
14198W        W18598  19.962   5.425  25.337 -0.0784  0.2650 -0.2643
14199W        W18599   2.077   1.255  42.604 -0.1985  0.2187 -0.0759
14200W        W18600  11.015   3.023   6.931 -0.1261 -0.1204  0.1861
14201W        W18601  13.398   3.916  13.405  0.0992  0.2315  0.1625
14202W        W18602  15.192   3.063   3.446  0.2622 -0.1174 -0.1144
14203W        W18603   9.973   5.918  14.926  0.4614 -0.1219 -0.0835
14204W        W18604  13.342   1.742  14.797  0.0355 -0.0745  0.0655
14205W        W18605   3.062   6.201   3.862 -0.2336  0.2311  0.0635
14206W        W18606   3.468   5.473   2.961 -0.1516 -0.2609 -0.1943
14207W        W18607  14.977   5.634  30.161 -0.1026 -0.0442  0.0479
14208W        W18608   2.675   5.384  29.394 -0.1042  0.0856  0.4073
14209W        W18609  10.033   2.794  16.066  0.0415  0.0221  0.0658
14210W        W18610   1.142   1.301  29.193  0.0355  0.1011 -0.1627
14211W        W18611  19.666   5.854  19.982  0.1259  0.0803  0.2682
14212W        W18612  12.152   0.142   5.311  0.0803  0.1115  0.0202
14213W        W18613  18.506   1.273  31.917 -0.2132 -0.0701 -0.0587
14214W        W18614  13.793   4.257  38.214  0.1425  0.3095  0.1050
14215W        W18615  11.584   5.913  29.130 -0.2253  0.1003  0.0462
14216W        W18616  13.888   3.157   8.350 -0.4554  0.1195  0.0868
14217W        W18617  11.260   0.555  33.597 -0.0619  0.1911 -0.1365
14218W        W18618   4.588   5.569  36.939 -0.1028  0.0452 -0.2975
14219W        W18619  10.412   6.324  11.698 -0.1827  0.1401 -0.1859
14220W        W18620   4.843   6.056   8.325  0.2066 -0.0087  0.1411
14221W        W18621  16.676   5.634  16.939  0.1679  0.1798  0.0550
14222W        W18622   8.739   5.237  37.392  0.0292 -0.2626 -0.4119
14223W        W18623   2.067   0.280  16.646  0.3299 -0.3217 -0.1040
14224W        W18624  20.651   1.284  14.443  0.1663 -0.4693 -0.0558
14225W        W18625  11.138   1.653   8.698  0.1126  0.1217  0.1106
14226W        W18626   6.993   1.735  15.938  0.1757 -0.1496 -0.0736
14227W        W18627   7.592   3.811  20.686  0.1200  0.1884  0.0863
14228W        W18628   8.592   5.513   7.274 -0.1939  0.0094  0.1856
14229W        W18629  20.531   6.445  41.670 -0.2364 -0.0870  0.1070
14230W        W18630  13.258   1.985  29.166  0.1596  0.0444 -0.1390
14231W        W18631   2.305   5.362   8.986 -0.1550 -0.0917  0.2686
14232W        W18632   7.155   3.386   5.795 -0.3303  0.0715  0.1433
14233W        W18633  20.954   0.139  40.142  0.0804  0.0661  0.1109
14234W        W18634   5.885   2.797  15.009 -0.0716  0.1372  0.3021
14235W        W18635  15.391   0.874  29.196  0.3052  0.0357  0.0529
14236W        W18636   9.477   3.170  33.838 -0.1892 -0.2204 -0.1734
14237W        W18637   9.620   3.677  21.903  0.2674  0.3314  0.3121
14238W        W18638   4.997   5.905  43.149 -0.0920 -0.0014 -0.0709
14239W        W18639  19.932   0.610  34.381  0.2152  0.1009 -0.1798
14240W        W18640  13.441   5.697  36.819  0.2214  0.2140 -0.2506
14241W        W18641  20.754   1.841  41.560  0.1219  0.0513  0.0753
14242W        W18642  11.847   4.700   4.212 -0.1211 -0.0141 -0.0378
14243W        W18643  14.311   3.768   7.323 -0.2279  0.1418 -0.0687
14244W        W18644   3.944   4.008  12.919  0.0550  0.1595  0.3264
14245W        W18645   7.050   5.761   6.722  0.0482  0.1088  0.1224
14246W        W18646   6.756   4.609   8.854  0.2433  0.2311 -0.1706
14247W        W18647   1.425   4.442   0.951  0.1246 -0.0299 -0.1779
14248W        W18648   4.440   5.190  28.853 -0.2318  0.0729  0.1757
14249W        W18649   8.353   5.681   5.640  0.0971 -0.0333  0.1291
14250W        W18650  17.607   2.196  23.948 -0.0579 -0.0540  0.1860
14251W        W18651  18.785   4.652  30.621  0.1607 -0.0719 -0.2890
14252W        W18652   2.102   3.253  12.961  0.2352 -0.0769  0.0110
14253W        W18653  20.402   1.519  23.124  0.2728 -0.0686  0.2019
14254W        W18654   3.094   5.090  42.751  0.2290 -0.3955  0.0691
14255W        W18655   1.153   5.220  31.986 -0.0110  0.1035 -0.0846
14256W        W18656   1.704   6.508  25.929  0.0677 -0.0292  0.0473
14257W        W18657  15.842   6.380  39.302 -0.1175  0.0053  0.0518
14258W        W18658  14.903   2.361  41.311 -0.0776  0.2052 -0.2642
14259W        W18659  13.390   5.862  44.323 -0.2449  0.2717  0.1136
14260W        W18660   4.633   2.275   9.884  0.0838  0.0010  0.1662
14261W        W18661   4.701   0.421   4.092  0.1375 -0.0062 -0.0745
14262W        W18662  17.782   3.345  43.989  0.0613  0.0162  0.2184
14263W        W18663   3.053   1.749   3.995  0.1486 -0.0085  0.2785
14264W        W18664   8.686   1.321  36.210  0.2608  0.1531 -0.1961
14265W        W18665  12.062   1.975   0.569  0.0379 -0.1424 -0.1806
14266W        W18666  17.638   5.435   9.000 -0.0094  0.1923  0.0535
14267W        W18667  20.103   4.911  39.786 -0.0104 -0.0272 -0.2735
14268W        W18668   0.632   2.416  30.398 -0.1680 -0.0214  0.0002
14269W        W18669  11.130   5.756  31.042 -0.1252  0.1577 -0.1362
14270W        W18670  14.845   6.380  16.974 -0.2690 -0.0336  0.2963
14271W        W18671  17.837   2.613  16.759 -0.0276 -0.1031 -0.2874
14272W        W18672   2.996   1.595  29.561  0.0511  0.1170 -0.0354
14273W        W18673  16.329   4.497  33.286  0.1504  0.2661 -0.1155
14274W        W18674   9.632   2.357  40.675 -0.1385 -0.0261  0.0292
14275W        W18675   5.221   2.536   6.271 -0.2068  0.1094 -0.0588
14276W        W18676  10.226   5.018  34.623  0.4869 -0.2062 -0.0008
14277W        W18677   0.558   0.628  42.936  0.0564  0.2967  0.0831
14278W        W18678  13.817   0.578  35.086 -0.3272 -0.1804 -0.1305
14279W        W18679   6.533   4.368  38.767 -0.0507 -0.2099  0.1772
14280W        W18680  16.022   3.473  32.647  0.1367 -0.0172  0.0440
14281W        W18681   9.623   3.538  37.246 -0.0936 -0.4619 -0.0232
14282W        W18682  12.716   1.896  45.060 -0.0518 -0.1924  0.1538
14283W        W18683  11.452   6.472  37.156 -0.0448 -0.0174 -0.0731
14284W        W18684   8.365   6.202   5.556 -0.1374 -0.1084  0.1120
14285W        W18685   4.635   4.834  13.247 -0.0361  0.1513  0.1647
14286W        W18686  20.096   1.882  44.229  0.3433 -0.1433  0.0158
14287W        W18687   1.947   3.494  15.345  0.1970 -0.4161  0.1731
14288W        W18688  13.224   5.759  34.420  0.3320 -0.1181 -0.0593
14289W        W18689  18.883   0.959  15.635  0.0778  0.1014 -0.2858
14290W        W18690  17.645   3.510  40.127  0.1066  0.0691  0.2852
14291W        W18691  10.727   6.201  20.015 -0.2000 -0.1546 -0.0276
14292W        W18692  11.167   4.355  34.699 -0.0155 -0.0645  0.0918
14293W        W18693   4.708   3.035  28.177 -0.1871  0.1643 -0.1234
14294W        W18694   2.793   3.302   3.259  0.1715  0.1636 -0.1639
14295W        W18695  13.960   3.030  16.332  0.1054  0.1149 -0.0072
14296W        W18696   8.783   5.180  31.490  0.3029  0.1546 -0.2320
14297W        W18697   3.380   4.970  34.205 -0.1436 -0.0072 -0.1443
14298W        W18698   1.605   2.558   4.756 -0.1466  0.2537 -0.1807
14299W        W18699   2.751   3.904  29.330  0.2364  0.0040 -0.0404
14300W        W18700   9.363   1.827  16.587  0.1105 -0.0204 -0.1134
14301W        W18701   6.050   5.407  13.998 -0.2192 -0.0559 -0.3535
14302W        W18702  13.053   2.270  34.451 -0.3454 -0.1001 -0.1915
14303W        W18703   4.588   3.502  44.933 -0.0527 -0.2358  0.0477
14304W        W18704  18.430   0.333  31.397 -0.0977  0.1878 -0.0562
14305W        W18705  13.964   0.805  28.027  0.0005  0.2059 -0.0025
14306W        W18706  17.722   1.409   7.638  0.0956 -0.0375 -0.1186
14307W        W18707  11.932   5.979  42.340 -0.0108  0.1601 -0.0361
14308W        W18708   7.466   5.787  33.813 -0.1246 -0.1660  0.0327
14309W        W18709  12.299   0.951  31.709  0.0358  0.0211  0.0272
14310W        W18710   7.856   6.015  37.133  0.0268  0.2851  0.0347
14311W        W18711   3.768   3.896  41.776 -0.0215 -0.3346  0.0047
14312W        W18712  12.718   5.995  15.787 -0.3585  0.0713  0.3688
14313W        W18713  12.543   2.926  35.550 -0.1127  0.0295  0.2000
14314W        W18714  14.638   1.398   8.284  0.2139 -0.3461 -0.0396
14315W        W18715   0.024   1.546  30.133  0.2667  0.0600 -0.0727
14316W        W18716   0.636   0.528  44.218  0.2097 -0.1516 -0.1829
14317W        W18717  17.633   0.078  15.104  0.0133  0.0995 -0.0818
14318W        W18718   1.350   0.477  32.166 -0.2375  0.3407 -0.0398
14319W        W18719   1.553   0.876  33.661  0.1921  0.0436 -0.1192
14320W        W18720   2.688   3.634  39.697 -0.0890 -0.0156 -0.1744
14321W        W18721  20.719   1.276   8.557 -0.2929  0.0534  0.0046
14322W        W18722  14.509   4.859   7.534 -0.1098 -0.2532  0.1272
14323W        W18723  13.666   4.657  38.647  0.6195  0.1099  0.2020
14324W        W18724   9.047   1.239  18.557  0.1529 -0.1426 -0.1635
14325W        W18725  13.493   6.205   3.460 -0.1860  0.0379  0.5332
14326W        W18726   0.090   6.562   6.022 -0.0577 -0.1497  0.1167
14327W        W18727  19.125   4.830   4.862  0.0859 -0.0139  0.0854
14328W        W18728  12.904   3.411  18.360 -0.0091  0.0283 -0.1526
14329W        W18729  19.241   6.029   8.738 -0.4254 -0.3416 -0.2411
14330W        W18730  14.754   4.441  43.766  0.3390  0.0699 -0.0002
14331W        W18731  13.310   3.054   9.205  0.1631  0.2604 -0.0121
14332W        W18732  18.283   0.421  36.987 -0.0374 -0.2004 -0.0045
14333W        W18733  17.697   5.131  31.935  0.2685  0.0110 -0.0895
14334W        W18734   9.728   6.170   3.271  0.1082  0.2875  0.1121
14335W        W18735  14.425   2.771  40.891  0.2840 -0.1319  0.1905
14336W        W18736   5.263   4.902  29.338 -0.0638 -0.1643 -0.1143
14337W        W18737  13.287   2.189  30.040  0.2095 -0.2196  0.1784
14338W        W18738  16.545   2.181  28.671  0.2136 -0.0163 -0.1367
14339W        W18739   3.238   4.517  36.310  0.1827 -0.1693 -0.1839
14340W        W18740  10.370   6.329  39.668 -0.1796 -0.0658  0.0595
14341W        W18741  11.461   3.239   8.532  0.0123  0.1659 -0.2152
14342W        W18742   6.243   1.527  18.771  0.0029  0.0275  0.1858
14343W        W18743   7.843   1.802   0.576 -0.4866 -0.0047  0.0265
14344W        W18744   2.606   5.767   6.736  0.1709 -0.2406  0.2615
14345W        W18745  11.410   4.997  13.156 -0.0696  0.1505 -0.2844
14346W        W18746  20.819   3.076   8.724  0.1329  0.3558  0.3025
14347W        W18747   4.019   0.393  27.994  0.2746 -0.2148 -0.1373
14348W        W18748  14.128   3.212  44.363 -0.4141 -0.0320  0.1629
14349W        W18749  10.428   2.574  33.185  0.0072  0.1254 -0.1195
14350W        W18750  11.655   3.514   0.492  0.0121 -0.3733  0.2030
14351W        W18751  13.814   4.881   1.285  0.2163 -0.1924 -0.1311
14352W        W18752  15.824   5.745   3.597  0.0995  0.0188  0.0817
14353W        W18753   7.506   4.528  37.760 -0.1739  0.0382  0.0605
14354W        W18754  19.727   4.969  42.415 -0.2437  0.2631 -0.0911
14355W        W18755   4.340   1.061  34.254  0.3170  0.2675 -0.0163
14356W        W18756   7.090   0.495  21.357  0.0280 -0.0228  0.1609
14357W        W18757  12.070   0.971   2.135  0.0593  0.1627  0.0042
14358W        W18758  20.309   0.611  28.691 -0.1529  0.2792  0.0973
14359W        W18759   8.154   0.789   9.566 -0.1603  0.0401  0.0593
14360W        W18760   9.417   6.315  22.758  0.0434 -0.1917  0.0920
14361W        W18761  17.067   1.630  27.082 -0.0586 -0.0135  0.0658
14362W        W18762   9.649   1.939  31.820 -0.1060  0.3282  0.1055
14363W        W18763  19.463   6.430  38.521  0.0072 -0.0508  0.0100
14364W        W18764  11.461   3.863  11.702 -0.0268 -0.0172  0.0367
14365W        W18765  19.190   1.559  40.386  0.1215 -0.0307  0.1438
14366W        W18766  13.402   2.801  15.995 -0.0252 -0.0175 -0.1065
14367W        W18767  14.255   4.708   1.352  0.1682 -0.0949 -0.1457
14368W        W18768   3.086   2.723  16.464 -0.2657  0.2267  0.0868
14369W        W18769  19.901   5.817  11.758 -0.0719 -0.0138 -0.0907
14370W        W18770   9.629   5.316  25.166 -0.0317  0.1199  0.0425
14371W        W18771   2.861   5.695   0.235  0.1205 -0.2193  0.3408
14372W        W18772   7.533   3.489   4.300  0.1936 -0.0873  0.0216
14373W        W18773  17.210   3.285  40.155  0.0163 -0.0174  0.0571
14374W        W18774  16.769   6.335  34.885 -0.4904  0.0468 -0.4272
14375W        W18775  20.543   1.235   6.349 -0.1011  0.1384  0.1148
14376W        W18776  12.425   1.234   7.306  0.1211  0.3228 -0.1300
14377W        W18777   1.617   0.430  27.489  0.0591 -0.1623  0.0309
14378W        W18778  14.292   3.780   5.283  0.1618  0.0300  0.2106
14379W        W18779   6.468   1.786  19.757 -0.0166 -0.0328 -0.0851
14380W        W18780  19.624   4.009  39.975  0.2303  0.1227  0.0724
14381W        W18781   6.424   5.993  30.422 -0.0636  0.3085  0.1884
14382W        W18782   7.189   4.616  11.473  0.2377 -0.1946  0.3501
14383W        W18783  16.014   2.024  30.123  0.0824  0.1175  0.0272
14384W        W18784  12.833   0.153  39.482  0.3180  0.0220  0.4613
14385W        W18785   3.742   4.315   3.158  0.0638  0.2598  0.0200
14386W        W18786   3.812   4.055  35.040  0.1609 -0.0982  0.2260
14387W        W18787   8.171   0.766  29.968  0.0839 -0.1667  0.1593
14388W        W18788   1.660   3.100  41.635 -0.0691  0.2573 -0.0969
14389W        W18789  13.109   3.746  12.055  0.3230  0.0543 -0.1557
14390W        W18790  18.728   5.323   7.678  0.0012  0.0649 -0.3125
14391W        W18791   9.462   1.083   3.256 -0.1362  0.0035  0.0779
14392W        W18792  17.825   2.339  29.856 -0.0834  0.0253 -0.1801
14393W        W18793  15.846   6.236   5.231  0.3225 -0.1048  0.2486
14394W        W18794  18.418   1.965  31.481  0.0216  0.1572 -0.2233
14395W        W18795  18.911   4.216   8.204  0.0580  0.0498  0.0408
14396W        W18796   3.701   4.444  36.758 -0.0611  0.1652 -0.2196
14397W        W18797   5.281   2.827  28.253 -0.1948 -0.4763 -0.1420
14398W        W18798   9.138   0.879  35.534 -0.0952 -0.2176  0.2169
14399W        W18799   9.837   4.873   4.281 -0.1263  0.0260  0.0517
14400W        W18800  19.624   5.206  22.036 -0.0854 -0.2514 -0.0102
14401W        W18801   2.488   5.734  14.728 -0.0131 -0.2816  0.0172
14402W        W18802   8.010   4.555  19.815  0.2517 -0.0322  0.1687
14403W        W18803   5.970   0.139  36.828  0.0776 -0.2069  0.0049
14404W        W18804  13.405   5.483  27.090 -0.0339 -0.1760  0.2444
14405W        W18805   2.506   3.728  10.919  0.3860  0.0211 -0.1353
14406W        W18806   9.665   1.285   7.842  0.1109  0.0844 -0.3871
14407W        W18807  15.240   4.142   5.023 -0.3741  0.4324 -0.1178
14408W        W18808  15.776   0.504  28.840  0.1402  0.0608 -0.0969
14409W        W18809   3.984   6.491  28.299  0.1529  0.2796  0.1242
14410W        W18810  18.467   6.330  33.855  0.0590  0.1714  0.1988
14411W        W18811  10.738   3.802   0.482 -0.1000 -0.1848  0.0682
14412W        W18812  16.877   6.576  34.441 -0.4062 -0.0246  0.1644
14413W        W18813   0.692   1.726  24.609 -0.0163  0.3496  0.1989
14414W        W18814   1.701   5.264  33.792 -0.2873 -0.1799 -0.0957
14415W        W18815   4.114   3.881   4.739  0.2267 -0.1566  0.0127
14416W        W18816  17.683   3.662   3.767 -0.2215  0.0383 -0.0779
14417W        W18817  15.994   2.651  14.315  0.0681  0.1484 -0.2873
14418W        W18818   8.460   5.551  18.900 -0.2342 -0.2118  0.1354
14419W        W18819  15.378   0.826  41.292  0.0918  0.0370 -0.2494
14420W        W18820  17.818   5.900  42.540 -0.2515  0.2125  0.1376
14421W        W18821  10.440   2.097  39.552  0.4263  0.1724 -0.0456
14422W        W18822   7.109   2.810  33.767  0.2457 -0.0218 -0.1185
14423W        W18823  11.402   3.112  32.900  0.1704 -0.0229 -0.0867
14424W        W18824   4.522   4.889  12.343  0.0095 -0.0361  0.0878
14425W        W18825  19.566   6.287  42.328 -0.2737  0.1855  0.4274
14426W        W18826  13.996   4.647  35.604  0.1358 -0.2611 -0.1651
14427W        W18827  14.134   4.309  31.713 -0.1833 -0.0532  0.2592
14428W        W18828  12.572   4.846  32.396  0.3897  0.1450  0.0769
14429W        W18829  11.187   5.441  11.348 -0.1359  0.0468  0.3423
14430W        W18830   7.972   4.136  10.182 -0.1437  0.1969 -0.0494
14431W        W18831  10.578   1.713  38.584  0.1214  0.1740  0.0286
14432W        W18832  13.179   0.577  14.572 -0.4091  0.1669  0.2330
14433W        W18833  17.653   5.844  11.263  0.1567 -0.2673  0.3612
14434W        W18834   0.326   1.361   9.284  0.2701  0.0605 -0.0887
14435W        W18835  16.641   3.132  14.226  0.2700  0.3397  0.2187
14436W        W18836   9.518   3.401   0.083  0.0106 -0.1041 -0.0407
14437W        W18837  10.042   4.826   2.947 -0.2216 -0.0689 -0.0927
14438W        W18838   5.149   0.845   6.651 -0.0706  0.1024 -0.0186
14439W        W18839  11.834   0.665  36.382  0.0305  0.0573 -0.0299
14440W        W18840   5.154   4.795  33.533 -0.2839  0.0156  0.2074
14441W        W18841  10.331   4.757  42.190 -0.0765  0.1250 -0.2462
14442W        W18842   0.631   4.090   2.825 -0.0839 -0.0408  0.0254
14443W        W18843  12.028   5.483  13.721  0.2346  0.1013  0.2874
14444W        W18844   5.064   3.590  33.082  0.0321 -0.1329  0.0374
14445W        W18845  18.500   0.139  21.755 -0.1380  0.1150  0.0428
14446W        W18846   0.817   0.116  29.044  0.0433  0.3076  0.1219
14447W        W18847  20.219   1.705  40.459 -0.1344  0.1474  0.2198
14448W        W18848  13.965   2.041  35.601  0.2298  0.0775  0.1889
14449W        W18849   2.909   4.653   7.404  0.1962  0.0440 -0.1162
14450W        W18850  19.410   5.687  29.674  0.3069  0.3293  0.0812
14451W        W18851  14.789   4.287   0.049  0.0527 -0.0340 -0.3793
14452W        W18852  10.877   0.246  10.913 -0.0300  0.0141 -0.2185
14453W        W18853   2.977   2.392  42.577 -0.0873  0.1566  0.1110
14454W        W18854  18.397   6.462  37.788  0.0425  0.0540  0.2263
14455W        W18855   4.455   3.388   5.205  0.0149 -0.0967 -0.0153
14456W        W18856  11.880   2.520  11.155  0.0598  0.0465  0.0416
14457W        W18857   4.731   2.820  34.998  0.1587  0.2809 -0.0898
14458W        W18858   7.327   5.220  17.378 -0.0639  0.2998 -0.4668
14459W        W18859   5.808   2.282  38.087  0.0048 -0.0237  0.0544
14460W        W18860   6.231   0.374  20.091  0.4772  0.0439  0.2191
14461W        W18861  17.179   1.170   5.260 -0.1465 -0.1665 -0.0308
14462W        W18862   7.449   0.186  40.833  0.2623 -0.1123 -0.1107
14463W        W18863  15.944   0.436  33.334  0.1335  0.4673  0.1200
14464W        W18864  20.689   1.603  25.350 -0.3288  0.0325  0.3699
14465W        W18865  19.138   2.105  27.735  0.0007  0.1773  0.0730
14466W        W18866  17.882   0.673  13.114 -0.1992  0.4351 -0.1727
14467W        W18867   8.615   3.137   9.615 -0.0933 -0.0599  0.0409
14468W        W18868   7.762   3.112   0.099 -0.0640 -0.0232 -0.1769
14469W        W18869   1.571   1.931  40.329 -0.0239 -0.1300  0.0119
14470W        W18870   5.086   3.991  42.448  0.1421 -0.3367 -0.1976
14471W        W18871   1.804   1.572  30.825 -0.2513 -0.2878  0.0573
14472W        W18872   4.950   0.467  38.755  0.1151  0.0890 -0.0537
14473W        W18873   1.304   1.668  37.647 -0.0131  0.2081  0.0184
14474W        W18874  13.331   4.399  13.200  0.0421 -0.1560  0.1250
14475W        W18875  11.281   3.916  40.136  0.0181 -0.0456  0.1087
14476W        W18876   4.576   6.052   4.135 -0.1532  0.0487  0.2816
14477W        W18877   3.518   2.742  39.458 -0.0902  0.0241  0.1795
14478W        W18878  17.680   2.333  42.441 -0.1770 -0.0566 -0.1115
14479W        W18879   4.167   0.147  29.658  0.0185  0.1271 -0.1679
14480W        W18880  17.578   3.232  24.294 -0.0123  0.1813  0.1671
14481W        W18881   1.269   0.486  26.467  0.1681  0.1252 -0.1570
14482W        W18882  21.029   4.299  32.977 -0.0220 -0.2338  0.1957
14483W        W18883   4.614   4.405  11.555  0.2194  0.0975  0.1724
14484W        W18884   8.860   6.216   0.512 -0.0311  0.2539 -0.2253
14485W        W18885   5.554   4.083  16.002  0.1429 -0.3874  0.0032
14486W        W18886  10.204   6.517  41.106  0.2314  0.2537  0.0531
14487W        W18887  18.132   2.418  38.849  0.2991  0.0648 -0.0500
14488W        W18888   0.783   2.564  10.403  0.0158  0.5132  0.0755
14489W        W18889  10.211   4.524  23.012  0.1701 -0.1138 -0.2621
14490W        W18890   9.039   3.548   4.819  0.0286 -0.1836  0.1733
14491W        W18891   0.791   0.681   8.124 -0.0506  0.1619  0.2094
14492W        W18892  11.371   4.843   4.351 -0.0634 -0.0588  0.1880
14493W        W18893   1.406   1.078   4.322 -0.2394  0.1443 -0.3656
14494W        W18894   5.740   3.879  37.386 -0.1069  0.1919  0.0914
14495W        W18895   9.279   5.627   2.187 -0.0936 -0.0119  0.0202
14496W        W18896  19.346   2.259  32.285 -0.0152  0.1062 -0.2422
14497W        W18897   6.162   6.488  29.028 -0.0419  0.2634 -0.0268
14498W        W18898  15.129   0.137   4.258 -0.1309 -0.1854 -0.1560
14499W        W18899   8.108   2.067   6.468  0.0051 -0.1878  0.0665
14500W        W18900  14.310   3.690  31.109  0.2045 -0.1707 -0.0993
14501W        W18901  14.101   3.510  43.058 -0.4116  0.1625  0.0721
14502W        W18902  10.170   6.469  13.786  0.1249 -0.0207  0.2328
14503W        W18903  17.800   4.962  28.293 -0.1402  0.0751  0.2657
14504W        W18904  12.612   4.114  34.900 -0.2292  0.2027  0.0279
14505W        W18905  10.078   1.393  38.985 -0.1059  0.0759 -0.0019
14506W        W18906  19.744   2.901   5.587  0.1830  0.0281 -0.0059
14507W        W18907   9.046   2.066  39.363 -0.3799 -0.2402  0.2839
14508W        W18908  11.854   5.567  14.813 -0.0930  0.2649 -0.2599
14509W        W18909   2.273   0.343  41.238  0.0922  0.2990 -0.0639
14510W        W18910   0.231   2.131  32.390 -0.0523  0.1411  0.2152
14511W        W18911  13.140   5.406   6.042  0.2652 -0.0186  0.0313
14512W        W18912  16.673   3.388  26.037 -0.0374  0.0194  0.0185
14513W        W18913  14.170   3.417  27.259  0.2680 -0.1934  0.1511
14514W        W18914   2.092   2.867  13.257  0.0609  0.0653  0.3890
14515W        W18915  15.241   2.661  44.539 -0.0711 -0.0030  0.0077
14516W        W18916   0.599   4.064  44.664 -0.0641  0.1621  0.3238
14517W        W18917  19.629   3.938   9.272  0.2912  0.1500 -0.3050
14518W        W18918   4.833   0.025  32.357 -0.0344  0.1616  0.2202
14519W        W18919  10.001   6.182   8.900 -0.1619  0.4348  0.2668
14520W        W18920   9.668   2.183  32.958 -0.3046  0.1342  0.2432
14521W        W18921   9.031   3.278  36.292  0.1278 -0.0343 -0.1060
14522W        W18922   0.388   4.957   1.356  0.0658 -0.0335 -0.3406
14523W        W18923  17.676   6.207  35.270 -0.4602  0.1211 -0.0737
14524W        W18924   3.955   6.004   8.351 -0.3736 -0.0825 -0.0316
14525W        W18925  20.968   0.585  11.359  0.3002 -0.3299 -0.0507
14526W        W18926  19.653   0.593  44.893 -0.0885  0.1762  0.4751
14527W        W18927  17.209   2.269   9.588 -0.2050  0.2842  0.0701
14528W        W18928  11.272   1.491   7.369 -0.1225 -0.3796 -0.1063
14529W        W18929   6.179   0.089   1.633 -0.0203  0.1766  0.1340
14530W        W18930   0.325   2.895  26.513  0.2137  0.1937  0.0047
14531W        W18931   3.063   3.053  35.029 -0.0633  0.1487  0.0935
14532W        W18932   5.461   6.434  38.487 -0.1538 -0.0370  0.2310
14533W        W18933  16.210   5.390  29.862  0.0432  0.0575 -0.2129
14534W        W18934  14.678   0.454  28.094 -0.2907 -0.1394 -0.0343
14535W        W18935  19.956   4.850   1.609  0.1807 -0.0916  0.1122
14536W        W18936  15.394   4.819  39.694 -0.1141 -0.1843  0.2846
14537W        W18937  12.478   1.788  31.544  0.1382 -0.2310 -0.2824
14538W        W18938  12.894   5.187  19.071 -0.1535  0.2864 -0.0752
14539W        W18939  13.820   5.090   3.191 -0.1059 -0.1050 -0.0566
14540W        W18940   2.340   4.959   9.336  0.0169 -0.0549 -0.1978
14541W        W18941  19.747   1.582   2.565  0.0296 -0.0209 -0.1071
14542W        W18942  12.310   5.740  15.943 -0.0654 -0.1270 -0.2897
14543W        W18943  12.569   4.197  31.647 -0.0621 -0.0125  0.2501
14544W        W18944  11.411   3.973   1.520 -0.0139 -0.3084  0.0705
14545W        W18945   3.977   3.294   1.797 -0.0578 -0.0965  0.0097
14546W        W18946  15.964   2.133  39.819  0.0517  0.2259  0.2373
14547W        W18947  16.290   1.369   1.704 -0.3145 -0.1353 -0.1786
14548W        W18948   8.296   5.400  30.032 -0.2587  0.3679 -0.1576
14549W        W18949   2.287   3.633  29.023  0.2191  0.1755 -0.0467
14550W        W18950  14.625   1.164   5.481 -0.2275  0.0374 -0.0146
14551W        W18951  11.314   2.463  16.697  0.1890 -0.0226  0.0159
14552W        W18952   3.823   0.651  12.585  0.0723  0.0847 -0.1081
14553W        W18953   3.891   2.173   4.154 -0.1039 -0.0192  0.0928
14554W        W18954   7.203   6.534  37.773 -0.1909  0.2310 -0.3941
14555W        W18955  19.597   3.904   6.245 -0.0348  0.2838 -0.1464
14556W        W18956  15.925   3.701  42.551  0.3607 -0.0665 -0.0816
14557W        W18957   2.767   6.149  40.434 -0.0185 -0.3473  0.1004
14558W        W18958   5.192   5.449  13.044  0.2556 -0.0098 -0.1816
14559W        W18959  12.250   1.172   1.681  0.2495  0.1058  0.0257
14560W        W18960   7.687   1.301   6.316  0.2382  0.1532 -0.0845
14561W        W18961  16.229   2.884  25.306 -0.2481  0.0711  0.1570
14562W        W18962  16.681   4.141  33.110  0.1738 -0.1159 -0.0753
14563W        W18963  12.034   5.571  10.417  0.0497 -0.2233  0.1611
14564W        W18964   8.025   1.323  16.986 -0.0915  0.3179 -0.1589
14565W        W18965   6.722   1.142  17.101  0.3116 -0.0732  0.2107
14566W        W18966   2.624   5.083  32.101  0.0120 -0.1763  0.0397
14567W        W18967  15.283   4.776   5.067  0.0247  0.1979  0.1862
14568W        W18968   8.637   2.344  24.174  0.1906 -0.0011 -0.3102
14569W        W18969   3.070   2.241  10.364  0.0688 -0.2686 -0.0424
14570W        W18970  11.131   6.504   1.913 -0.0244  0.2174  0.5246
14571W        W18971  14.562   2.235   5.249  0.0820 -0.1211 -0.2250
14572W        W18972  11.608   5.641  18.292 -0.0988  0.0598  0.0630
14573W        W18973  11.214   2.234  15.756 -0.1483  0.1417  0.0511
14574W        W18974   9.306   1.351  21.361  0.1080 -0.3233 -0.0763
14575W        W18975  18.125   3.246   6.939 -0.2417  0.2399 -0.2095
14576W        W18976  10.532   1.501  41.628 -0.1119 -0.2270  0.0337
14577W        W18977   4.605   2.359  37.645 -0.3890 -0.1960  0.0532
14578W        W18978   0.767   1.288  11.574 -0.1597 -0.0017  0.0002
14579W        W18979  16.472   1.127  43.431  0.0215  0.0800  0.1149
14580W        W18980   6.151   4.199  30.802 -0.0407  0.0126 -0.3512
14581W        W18981   7.652   5.508  17.716  0.0156  0.1209 -0.0910
14582W        W18982  15.510   4.472  37.870  0.2035 -0.0613  0.1123
14583W        W18983  18.041   1.074  32.686 -0.1780  0.3229  0.1726
14584W        W18984  10.658   0.057  21.238  0.0787  0.2728  0.3344
14585W        W18985   6.811   4.102   6.186 -0.0723  0.0105  0.2875
14586W        W18986  10.135   3.072  21.277 -0.4436  0.1483 -0.1163
14587W        W18987   8.408   4.496  12.719  0.2770 -0.3321 -0.0458
14588W        W18988  12.100   0.546   9.785  0.3150 -0.1913 -0.0434
14589W        W18989  17.947   0.280  25.193  0.1250  0.0999  0.2130
14590W        W18990   9.455   1.765  18.955  0.0205  0.2096  0.0180
14591W        W18991   0.796   1.254  23.729 -0.2604 -0.0030  0.0668
14592W        W18992  10.070   3.729  20.647 -0.2970 -0.0759  0.2312
14593W        W18993  11.373   5.138  35.751 -0.0129 -0.0585  0.2139
14594W        W18994  10.264   1.918  24.823  0.1037 -0.0372  0.1596
14595W        W18995  19.990   2.068  11.767  0.1575 -0.2848  0.2273
14596W        W18996  18.053   4.564   2.613 -0.0847  0.3848 -0.1447
14597W        W18997   8.756   0.637  34.569 -0.1313  0.1271 -0.0872
14598W        W18998  15.826   1.904  12.791  0.1910  0.1016  0.0457
14599W        W18999   5.230   5.198   7.906 -0.1667 -0.1408 -0.2772
14600W        W19000   6.595   1.170  10.370 -0.2396  0.0319  0.0945
14601W        W19001   0.446   1.288  24.508 -0.0175 -0.0377  0.0958
14602W        W19002   8.746   5.780  12.282 -0.2410 -0.0852  0.3878
14603W        W19003   0.804   1.985  10.481  0.0285 -0.0666  0.0514
14604W        W19004  20.219   5.151  29.465  0.1675  0.1616  0.0806
14605W        W19005  10.389   4.373  44.478  0.0597 -0.1670  0.0024
14606W        W19006   0.858   4.766  12.533  0.4734 -0.0690 -0.0885
14607W        W19007   6.005   5.072  31.372  0.0186 -0.3361  0.1356
14608W        W19008  17.569   4.147   7.375 -0.0198 -0.1452  0.1283
14609W        W19009  11.085   4.864  41.715  0.1295  0.1117 -0.0496
14610W        W19010  18.111   5.709   9.243  0.3412 -0.3320  0.3346
14611W        W19011  13.999   5.083  34.044 -0.0083  0.1618 -0.0216
14612W        W19012  13.301   6.149  19.055 -0.3243  0.1214  0.1141
14613W        W19013  19.070   5.377  35.968  0.0376 -0.0124  0.3175
14614W        W19014   1.176   0.792  40.289  0.0473 -0.0415 -0.0543
14615W        W19015  20.209   2.334  13.213 -0.1205  0.0313 -0.0215
14616W        W19016  11.545   5.257  14.512 -0.1787  0.0635  0.0926
14617W        W19017  12.108   1.198  38.172  0.0415 -0.0633  0.0028
14618W        W19018  16.942   0.491   6.966  0.1206  0.1012 -0.2432
14619W        W19019  19.124   5.745   8.290 -0.2741 -0.3005  0.2396
14620W        W19020   7.981   5.455  35.245 -0.0277  0.3267  0.1345
14621W        W19021  19.310   2.840   5.358  0.2810  0.0914  0.0101
14622W        W19022  13.479   4.621  35.314 -0.0939  0.0833  0.0853
14623W        W19023  21.049   2.496   2.505  0.0540  0.2736  0.0058
14624W        W19024   9.318   1.468  43.014  0.0504 -0.0223  0.0412
14625W        W19025  18.294   2.291  32.431 -0.0441  0.0850  0.0138
14626W        W19026  20.320   4.847  30.421 -0.0611 -0.2823  0.2081
14627W        W19027  20.898   1.001  33.136  0.3523  0.1208 -0.0817
14628W        W19028  14.585   0.879  32.431  0.1933  0.2951 -0.1019
14629W        W19029  12.132   0.478   8.916 -0.0755 -0.2356  0.1608
14630W        W19030   0.086   6.308   4.962 -0.2154 -0.2723  0.0456
14631W        W19031  13.321   3.587  12.895 -0.0364 -0.1916 -0.5247
14632W        W19032   2.690   1.136   5.065 -0.4152  0.0464  0.0096
14633W        W19033  12.525   2.300  32.735 -0.0232 -0.0541  0.0472
14634W        W19034  17.156   4.486  11.250 -0.0720  0.0920 -0.1002
14635W        W19035  12.452   4.490  15.639  0.1462 -0.2476  0.2568
14636W        W19036   5.871   3.359  34.231 -0.0570 -0.2602 -0.0941
14637W        W19037   9.054   1.967  34.097 -0.3261 -0.0009 -0.1345
14638W        W19038  20.077   3.131  34.366 -0.0880  0.0332  0.0652
14639W        W19039   8.827   0.450  22.665 -0.0554 -0.0505 -0.1192
14640W        W19040   1.887   1.208  25.308  0.0475  0.0665  0.0113
14641W        W19041  20.470   3.422   3.917 -0.2003  0.1484 -0.1109
14642W        W19042  12.310   0.355  15.479 -0.2566  0.3164  0.1224
14643W        W19043  12.464   4.357  32.516 -0.1507  0.0692 -0.1515
14644W        W19044  15.007   0.578  13.390  0.0174  0.0589  0.0628
14645W        W19045   5.012   0.978   6.114 -0.0678 -0.3161 -0.2993
14646W        W19046   7.865   6.476  20.163 -0.0144 -0.0419 -0.2111
14647W        W19047  12.124   2.924  38.445  0.0982 -0.2449 -0.0483
14648W        W19048   2.699   4.517  27.494 -0.1781  0.0861 -0.1138
14649W        W19049   1.456   2.506  24.274  0.3164  0.0300  0.0016
14650W        W19050   0.011   5.354  35.492 -0.0562 -0.1028 -0.2733
14651W        W19051  14.732   3.927  14.893  0.0054  0.6079  0.0655
14652W        W19052   9.267   5.244  39.130  0.2322 -0.1384  0.2851
14653W        W19053   5.815   6.182   8.981 -0.0243  0.1826 -0.1016
14654W        W19054   1.191   5.712   3.002 -0.1132 -0.0944  0.1490
14655W        W19055  19.922   5.721  29.860 -0.0968  0.3295  0.1074
14656W        W19056   0.069   2.406  29.526 -0.0537 -0.1002 -0.0912
14657W        W19057   5.946   5.356   7.833 -0.2319 -0.3839  0.2491
14658W        W19058  13.602   4.837   9.556 -0.0322 -0.0978 -0.1052
14659W        W19059   5.979   4.682  17.430 -0.1992  0.0003 -0.1198
14660W        W19060  18.629   4.928  16.024 -0.0955 -0.1764 -0.0752
14661W        W19061   9.714   4.509  29.652  0.3330  0.1379  0.2302
14662W        W19062  14.643   2.924  11.305 -0.1076  0.0763 -0.1034
14663W        W19063   8.651   3.568  41.968 -0.0171 -0.3271 -0.2408
14664W        W19064   1.854   3.908   3.492 -0.0052 -0.0208 -0.0688
14665W        W19065  13.464   5.646   5.694  0.1920 -0.3534 -0.1711
14666W        W19066  18.277   6.278   6.983 -0.0651  0.2460  0.0894
14667W        W19067  11.383   0.366   1.891 -0.1962 -0.1611 -0.0556
14668W        W19068   5.755   2.052   8.053 -0.0338 -0.0377 -0.3118
14669W        W19069   7.685   2.856   2.243 -0.1905 -0.1393  0.0399
14670W        W19070  19.004   3.789   0.497 -0.2319 -0.1671  0.1637
14671W        W19071   2.512   0.101  28.046 -0.4276  0.0791 -0.1663
14672W        W19072  13.385   4.485  11.045 -0.1532  0.1900  0.0227
14673W        W19073  16.434   6.073  38.134 -0.1519  0.1167  0.1156
14674W        W19074   8.884   0.085   7.250 -0.1343  0.0072 -0.0677
14675W        W19075  17.776   2.732  14.865 -0.0148 -0.1424 -0.1635
14676W        W19076  20.846   4.605  11.092 -0.0762 -0.0678  0.1654
14677W        W19077  12.085   1.937  15.719  0.1709  0.0323  0.0544
14678W        W19078   7.410   0.323  30.269  0.0663  0.0118 -0.1884
14679W        W19079  19.090   5.713   4.784 -0.1274 -0.2504  0.0143
14680W        W19080  20.691   5.915  43.197  0.2100 -0.2136  0.1471
14681W        W19081  16.329   5.436  41.137 -0.0199  0.3190  0.0852
14682W        W19082   1.814   5.059  29.508 -0.1614  0.0959  0.0728
14683W        W19083   0.542   2.457  32.617  0.1276  0.2591  0.2027
14684W        W19084   4.824   6.569  28.566 -0.1130 -0.0723  0.0962
14685W        W19085  11.852   5.468  18.694 -0.0910 -0.0342  0.0685
14686W        W19086  20.017   1.813  33.749  0.0591 -0.1002 -0.2922
14687W        W19087  11.878   0.024   6.764 -0.0751  0.1516  0.1214
14688W        W19088   7.546   1.676  12.426 -0.1250 -0.1188 -0.1324
14689W        W19089  13.939   6.139  42.285 -0.0841  0.3298  0.3699
14690W        W19090  17.954   3.343   0.486 -0.2215  0.0110 -0.2342
14691W        W19091  19.426   4.085   3.828 -0.1736  0.0521  0.1625
14692W        W19092   2.046   6.095   8.092  0.2406  0.4315 -0.2183
14693W        W19093  18.496   2.890  33.480  0.3000  0.2890  0.2297
14694W        W19094  16.654   1.060  14.127 -0.0399 -0.1760 -0.1544
14695W        W19095  20.843   0.128   3.775  0.0572 -0.0045  0.3972
14696W        W19096   6.470   1.090  43.783 -0.0708  0.2088 -0.0899
14697W        W19097  20.308   2.497  10.572 -0.1108  0.1689 -0.0005
14698W        W19098  21.120   3.953  24.627  0.0625  0.3488 -0.2341
14699W        W19099  12.417   3.219  20.864 -0.2153 -0.0955  0.1464
14700W        W19100  21.012   0.568  29.383  0.1542 -0.2052  0.3269
14701W        W19101  11.231   2.810  41.619  0.1033  0.0146  0.3839
14702W        W19102  14.538   3.488  44.404 -0.1349  0.0615 -0.0031
14703W        W19103  17.997   0.833  37.456 -0.1704  0.3785  0.0586
14704W        W19104   2.136   5.854  28.102 -0.2394  0.0082 -0.0918
14705W        W19105  18.758   4.121  13.027 -0.0789  0.1573  0.2934
14706W        W19106  12.718   4.910  39.974  0.1074  0.1637 -0.2643
14707W        W19107  12.967   6.269  20.714  0.0845 -0.1568 -0.0913
14708W        W19108   1.654   2.466  38.998 -0.1493 -0.2933 -0.0072
14709W        W19109  16.803   1.176  34.789  0.0847  0.3585  0.1667
14710W        W19110   9.453   5.357   1.383 -0.0663 -0.0526 -0.0979
14711W        W19111  14.266   5.043  16.839 -0.2567  0.1055  0.1310
14712W        W19112  16.201   5.861   6.631 -0.1055  0.0148 -0.0521
14713W        W19113  17.308   5.104  44.096 -0.0741  0.1519  0.0442
14714W        W19114  13.252   0.259   9.830  0.0534 -0.0057 -0.1971
14715W        W19115   4.111   1.870  10.975 -0.1807 -0.0908  0.0423
14716W        W19116  20.432   4.836  24.142 -0.1584  0.1676  0.2603
14717W        W19117  18.964   5.184  32.181 -0.2065 -0.0554  0.1538
14718W        W19118  12.777   3.356  15.644 -0.2766 -0.0941 -0.0704
14719W        W19119  15.205   0.028   3.718  0.0787 -0.3129 -0.0697
14720W        W19120   5.690   4.585   6.776 -0.1923 -0.2322  0.1118
14721W        W19121   7.899   0.411  33.335  0.0311  0.1024 -0.0596
14722W        W19122  20.748   5.111  25.661 -0.0615  0.0127 -0.1050
14723W        W19123  16.221   5.079  16.106 -0.0004  0.0654 -0.1456
14724W        W19124  10.101   4.090  18.624  0.1216  0.1592 -0.0102
14725W        W19125   3.283   1.719  26.472  0.1035 -0.2823  0.2429
14726W        W19126   8.153   5.923  35.279 -0.1011  0.3502 -0.0450
14727W        W19127  14.655   4.056  37.296  0.0045  0.1798  0.3557
14728W        W19128   9.753   3.751  15.869  0.0778  0.1091  0.3467
14729W        W19129  11.942   0.261  16.452  0.1380  0.1707  0.0843
14730W        W19130   9.209   3.659   8.252  0.2996 -0.0702 -0.0336
14731W        W19131   8.131   5.288  23.614 -0.1146 -0.1832 -0.1064
14732W        W19132  12.423   0.876  16.925  0.0330  0.0915  0.1276
14733W        W19133   4.600   2.093   4.457  0.2470  0.2794 -0.1638
14734W        W19134  11.882   2.109   5.940  0.0912  0.1004 -0.1954
14735W        W19135  18.766   2.243   0.918  0.1662 -0.1695 -0.3260
14736W        W19136  17.418   4.213   2.091 -0.0173  0.0352 -0.1572
14737W        W19137  10.108   0.663  34.225  0.2124  0.5497  0.4249
14738W        W19138  13.845   0.292   7.675  0.2190 -0.1884  0.0751
14739W        W19139  10.431   3.182  18.238  0.0619  0.0868  0.0524
14740W        W19140   3.648   0.125  44.217  0.1457 -0.2386 -0.1332
14741W        W19141   5.547   5.371  31.473 -0.2281  0.0485 -0.2292
14742W        W19142  12.984   2.599   4.834 -0.1908  0.1634 -0.1203
14743W        W19143  11.559   1.251   4.382 -0.0783 -0.1138  0.0915
14744W        W19144  10.992   2.180  40.095 -0.0594 -0.0770  0.2069
14745W        W19145  12.050   2.910  44.156 -0.0113  0.0659 -0.0542
14746W        W19146  20.466   2.358  15.336  0.0568 -0.1920 -0.0360
14747W        W19147  20.836   1.345  23.570  0.0668  0.1022  0.0964
14748W        W19148   4.724   3.517  31.658  0.0720  0.0886 -0.0190
14749W        W19149  11.266   0.368   1.001  0.0433  0.3279  0.0973
14750W        W19150   1.808   4.754  37.900  0.0628  0.1156  0.0426
14751W        W19151   2.856   5.384   8.013 -0.0892  0.2248 -0.1319
14752W        W19152  15.394   6.027  15.568  0.0080 -0.1498  0.0606
14753W        W19153   3.833   3.354  42.920 -0.0683  0.0713 -0.0278
14754W        W19154  18.584   2.139  23.485 -0.0822  0.0527  0.1672
14755W        W19155   1.713   2.657  36.888 -0.2337 -0.1424  0.0202
14756W        W19156  10.700   0.963  44.452 -0.0839  0.3652  0.1573
14757W        W19157   5.101   2.244  29.580 -0.2303 -0.0725 -0.2488
14758W        W19158   8.603   0.873  22.253  0.0440 -0.2190 -0.0711
14759W        W19159  16.893   3.643  35.441 -0.0422 -0.0755  0.0151
14760W        W19160  12.008   5.295  41.835 -0.0399  0.1375  0.0437
14761W        W19161  10.587   3.751  43.394  0.2934 -0.2721 -0.0730
14762W        W19162  13.553   2.303  43.805  0.0240 -0.2434  0.1968
14763W        W19163  20.029   4.443   0.361 -0.0918 -0.4849 -0.1442
14764W        W19164  12.283   6.047   9.550 -0.0262  0.1629  0.0990
14765W        W19165  16.746   5.493   9.141 -0.0364  0.2005 -0.1863
14766W        W19166  15.032   4.072  42.206  0.0302 -0.1151 -0.0855
14767W        W19167  12.387   4.959  42.570 -0.2113 -0.4398  0.2329
14768W        W19168   8.695   4.972   1.914  0.1498 -0.0120  0.0021
14769W        W19169   9.153   3.510  30.849  0.2998 -0.0713 -0.0153
14770W        W19170  10.085   3.376   7.492 -0.1466 -0.0199 -0.0346
14771W        W19171  14.430   5.095  32.629  0.0217  0.0642 -0.1432
14772W        W19172   9.105   2.834  21.515  0.1611  0.1350  0.0692
14773W        W19173  10.235   4.365  10.202  0.2149 -0.1262  0.0563
14774W        W19174   0.256   0.825  40.840 -0.0213 -0.0674  0.2214
14775W        W19175  11.983   1.972  20.952  0.2394  0.1023  0.2530
14776W        W19176   1.021   1.487   5.591  0.0510 -0.4112  0.0281
14777W        W19177   7.384   1.626  29.914 -0.0474  0.2101 -0.1429
14778W        W19178   9.804   0.564  40.059 -0.0482 -0.1290 -0.0683
14779W        W19179  10.891   5.379  11.923  0.0732  0.0765 -0.0281
14780W        W19180   9.609   5.935  36.739  0.2381 -0.0539 -0.0265
14781W        W19181   1.352   4.720   0.139  0.3029  0.1045  0.1010
14782W        W19182   3.900   3.661   6.948 -0.1129  0.1314 -0.1587
14783W        W19183  13.127   5.922  16.543 -0.1411  0.1421 -0.0008
14784W        W19184   1.577   2.324  44.266 -0.2343  0.0114  0.3975
14785W        W19185  14.145   4.907  37.401 -0.0231  0.3541 -0.1226
14786W        W19186  14.533   1.424   0.677  0.2305  0.0759 -0.0959
14787W        W19187  11.995   2.518  34.845  0.0373  0.2343  0.0772
14788W        W19188  13.555   6.012  15.636  0.0050 -0.1004  0.0265
14789W        W19189  15.891   1.918   9.649 -0.0637 -0.1785  0.1248
14790W        W19190  14.341   2.679   3.879  0.1749 -0.0350  0.1138
14791W        W19191   8.031   1.343  40.075  0.2579  0.2182 -0.0458
14792W        W19192   0.113   3.718   8.256  0.0521 -0.0749 -0.3342
14793W        W19193   3.978   3.462   4.452 -0.2525  0.3208  0.2472
14794W        W19194  13.777   0.480  18.406  0.0674  0.2656 -0.0365
14795W        W19195  17.157   2.723   0.866 -0.1818 -0.0429 -0.0958
14796W        W19196   0.013   0.121  15.222  0.0469 -0.0949 -0.1844
14797W        W19197  20.651   0.073   9.868  0.0358 -0.2865 -0.0141
14798W        W19198  11.610   1.288  34.319 -0.0061  0.0487 -0.0849
14799W        W19199   2.886   1.623  31.826  0.1805 -0.2344 -0.0792
14800W        W19200   9.233   6.196  35.940 -0.1374  0.2051  0.0702
14801W        W19201  18.944   3.621  31.750 -0.1496  0.1776  0.0177
14802W        W19202  16.175   3.950  30.044  0.1530 -0.1297 -0.1211
14803W        W19203  11.652   4.458  19.226 -0.3198 -0.1099  0.0606
14804W        W19204   9.473   2.126  21.508  0.3532  0.3968 -0.0089
14805W        W19205   1.592   2.871   1.626 -0.0691  0.1084  0.0964
14806W        W19206  13.704   4.695  19.375 -0.0481 -0.0226 -0.2046
14807W        W19207  10.892   6.535   9.113  0.0307 -0.0829 -0.0088
14808W        W19208   9.759   5.737  22.899 -0.1017  0.1404  0.1787
14809W        W19209  19.283   5.581  28.486  0.0110  0.0687  0.4774
14810W        W19210   6.331   4.272   4.367 -0.1453  0.2197  0.0266
14811W        W19211   5.305   4.352  13.044  0.1184 -0.1116 -0.0636
14812W        W19212  11.940   0.846  37.234 -0.0465 -0.0141 -0.0410
14813W        W19213   5.582   4.945  17.943 -0.3024  0.1073  0.1951
14814W        W19214  10.211   1.613  35.259 -0.0146  0.2507  0.0259
14815W        W19215   3.539   3.810  38.844 -0.0188 -0.2968 -0.0539
14816W        W19216   0.427   6.383  28.645  0.0620 -0.1048  0.1792
14817W        W19217   2.227   3.893  11.673  0.4738 -0.0775  0.0212
14818W        W19218   0.718   4.660  12.997 -0.2519 -0.1026 -0.0246
14819W        W19219  19.790   3.183  24.374 -0.0254  0.1033  0.0348
14820W        W19220  20.824   3.357  40.680  0.0480 -0.0488  0.3829
14821W        W19221   5.363   5.730  44.480 -0.0054 -0.4346 -0.0253
14822W        W19222  16.722   2.039  41.497  0.1312  0.2305 -0.0106
14823W        W19223   8.035   1.004  18.307  0.0775 -0.2594  0.1696
14824W        W19224  13.828   4.916  16.573 -0.1314  0.0423  0.0313
14825W        W19225  15.309   4.077   1.940 -0.1801 -0.1738 -0.3646
14826W        W19226  20.106   2.642   2.283  0.0047 -0.0885  0.1257
14827W        W19227  10.077   5.156  34.148  0.4046 -0.2637  0.1431
14828W        W19228   8.842   4.926  18.522  0.2447 -0.1551  0.0245
14829W        W19229  19.263   5.636  37.940 -0.1423 -0.1223 -0.1747
14830W        W19230   1.635   6.065   7.346  0.0284 -0.2754 -0.0325
14831W        W19231   3.847   3.181  18.020 -0.2907 -0.1694  0.1280
14832W        W19232  11.617   0.311  18.021  0.3402  0.1122 -0.2503
14833W        W19233   9.291   6.546  15.094  0.1653 -0.0490 -0.0413
14834W        W19234   6.875   5.552  14.064  0.2149 -0.0013 -0.1135
14835W        W19235  12.193   1.561  44.253 -0.1164 -0.2869  0.0435
14836W        W19236   3.484   1.012  11.306 -0.3245  0.0408 -0.0501
14837W        W19237  12.789   1.378  43.103 -0.1645  0.1330 -0.0581
14838W        W19238  11.720   4.332   6.479 -0.2699  0.0075  0.1056
14839W        W19239  20.426   2.013  23.300 -0.2531 -0.2743 -0.0912
14840W        W19240   2.106   3.254  28.056  0.0489 -0.0201  0.0178
14841W        W19241  12.808   0.311   7.673  0.0602  0.1486  0.2578
14842W        W19242  13.721   2.059  10.543 -0.1382  0.2699  0.0398
14843W        W19243   3.144   2.911  28.454  0.0439 -0.0053 -0.0339
14844W        W19244  10.031   1.575  10.648  0.1668 -0.0447  0.1478
14845W        W19245  15.686   5.539  38.941 -0.3955  0.0301  0.1436
14846W        W19246  17.073   4.445   2.364  0.2896  0.1801 -0.0614
14847W        W19247   9.799   5.849  38.422  0.1489  0.0022 -0.2536
14848W        W19248  15.149   4.937   6.265  0.0074  0.1786 -0.1385
14849W        W19249   1.615   6.233  42.059  0.1127 -0.3130 -0.0931
14850W        W19250  11.782   4.736   2.665  0.0047  0.0477  0.1290
14851W        W19251  19.979   2.602   7.465 -0.2116  0.0616 -0.2567
14852W        W19252   0.861   2.904   6.166 -0.0980 -0.1394  0.0385
14853W        W19253  14.426   4.327  41.641  0.0795 -0.1093  0.2051
14854W        W19254  13.405   5.347  15.611 -0.0342  0.1240  0.2490
14855W        W19255  18.778   3.819  12.149  0.0954 -0.0347 -0.0008
14856W        W19256  10.511   3.275  11.967 -0.1687  0.0809  0.0662
14857W        W19257   9.992   2.551  22.988 -0.0801 -0.0907 -0.1979
14858W        W19258  14.832   5.554   5.178 -0.3025  0.0038  0.1336
14859W        W19259   3.172   4.108  42.546  0.0994 -0.2921 -0.2926
14860W        W19260  12.404   1.191  42.354 -0.1738  0.1961  0.0758
14861W        W19261   2.374   4.478  30.933 -0.2240 -0.0704 -0.0771
14862W        W19262  15.499   6.047  29.616  0.0621  0.1808 -0.0231
14863W        W19263   3.196   4.299  26.748  0.1983 -0.4246  0.1413
14864W        W19264  15.201   3.489   6.642  0.0553  0.0535  0.0320
14865W        W19265  10.491   2.281   1.367  0.3088 -0.1596  0.2022
14866W        W19266  14.875   0.182  29.889  0.0672 -0.2216  0.1209
14867W        W19267   4.175   6.281  41.426 -0.0302  0.1218 -0.0697
14868W        W19268  19.276   1.792   6.674 -0.0293 -0.1780  0.2676
14869W        W19269  10.175   6.112  13.462 -0.2864 -0.0552  0.0125
14870W        W19270  14.092   1.255  12.185 -0.0606 -0.1239 -0.0636
14871W        W19271  15.706   0.132   1.130 -0.1037  0.1046  0.0842
14872W        W19272   1.850   3.565  23.910  0.1405 -0.2377 -0.1030
14873W        W19273  16.406   1.115  29.549  0.3891 -0.0626  0.0247
14874W        W19274   6.167   0.906  15.924  0.0532 -0.2730  0.0807
14875W        W19275  17.910   4.660  41.529  0.1082  0.1634  0.0195
14876W        W19276  16.711   0.995   0.909 -0.1037 -0.1001  0.0374
14877W        W19277  19.078   6.563   1.951  0.1699 -0.1016  0.2697
14878W        W19278   9.031   1.290  17.567  0.1314  0.1638  0.2050
14879W        W19279   0.951   5.995  15.517  0.0916  0.0163  0.0075
14880W        W19280  13.029   2.758  36.897  0.1030 -0.0966 -0.1130
14881W        W19281   1.191   2.079  41.935  0.1176  0.0242 -0.0781
14882W        W19282  15.419   0.246  38.633 -0.1263  0.1221  0.1785
14883W        W19283  18.040   2.469   5.838 -0.2647  0.2434  0.0635
14884W        W19284  15.848   4.535  26.166  0.3539  0.0684 -0.0176
14885W        W19285   5.596   4.881  33.253  0.2705  0.0413  0.0991
14886W        W19286  11.802   0.379  42.479  0.0512 -0.1388  0.3130
14887W        W19287  12.307   2.286   1.770  0.1013  0.0814 -0.0284
14888W        W19288   6.170   0.948   8.119  0.1343  0.1637  0.3094
14889W        W19289  15.204   3.505   4.925  0.0235  0.0766  0.1603
14890W        W19290  11.643   1.120   3.052 -0.1194  0.1861  0.1352
14891W        W19291   6.181   1.023  13.178  0.0051  0.1245  0.1423
14892W        W19292  11.560   0.865  14.377  0.1126 -0.3403  0.0912
14893W        W19293  20.949   1.058  22.736  0.0495 -0.0461 -0.1850
14894W        W19294   7.000   2.026  29.615 -0.1065  0.0756 -0.0316
14895W        W19295  11.019   5.791  24.315  0.5096  0.1255 -0.0107
14896W        W19296  17.942   3.642  22.698  0.1211  0.0299  0.1133
14897W        W19297  16.388   4.453  44.192 -0.2192 -0.3898  0.0058
14898W        W19298  16.712   2.408   8.805 -0.0621 -0.1657 -0.2402
14899W        W19299   6.228   5.838  21.182  0.0077  0.1876 -0.0871
14900W        W19300  15.543   4.528  11.801  0.1392 -0.0507  0.2900
14901W        W19301   9.547   5.137  17.192  0.2700  0.0444  0.2827
14902W        W19302  10.256   4.496  25.454 -0.0575 -0.3701  0.2976
14903W        W19303  18.358   0.760   7.099 -0.0235 -0.1257  0.2717
14904W        W19304  11.973   2.732  39.905 -0.0375 -0.0828  0.0530
14905W        W19305   3.194   0.943  12.075 -0.0359 -0.1552  0.4104
14906W        W19306   6.682   3.190   2.812  0.1703 -0.0788 -0.0448
14907W        W19307  12.541   1.210  38.675  0.2403 -0.1114 -0.1490
14908W        W19308   7.565   2.304  39.240  0.2460  0.0593  0.0503
14909W        W19309  20.048   0.905   2.184  0.0536 -0.1304 -0.0585
14910W        W19310  10.018   2.440   4.366 -0.0016  0.0718  0.3395
14911W        W19311   0.238   3.481  40.100  0.0433 -0.1032  0.1781
14912W        W19312   9.098   4.241   2.007 -0.0926  0.0859  0.0236
14913W        W19313  12.424   0.108  16.212  0.1528 -0.0074 -0.1049
14914W        W19314   1.423   5.174   9.074  0.1574 -0.1130  0.0618
14915W        W19315  10.891   3.894   4.518 -0.1827 -0.1278 -0.1216
14916W        W19316   6.059   2.524   8.397  0.0244 -0.1046  0.0335
14917W        W19317   6.542   2.019  42.900 -0.1568 -0.1030  0.1013
14918W        W19318  20.213   0.380  41.607  0.2501 -0.0888  0.0048
14919W        W19319  12.285   3.724  37.136 -0.1613 -0.1246  0.0543
14920W        W19320  19.156   1.469  33.596  0.0790 -0.1197  0.1041
14921W        W19321  15.800   5.967  30.100 -0.0594 -0.0326  0.4960
14922W        W19322  11.394   3.727  15.825  0.1159  0.3785 -0.0975
14923W        W19323  14.738   5.789  17.405 -0.1902 -0.0023  0.1323
14924W        W19324  17.152   2.158  41.184  0.0554  0.0159  0.1857
14925W        W19325  15.094   1.593  17.975  0.2439  0.1169  0.1349
14926W        W19326   2.852   5.382  16.832 -0.0392 -0.1989 -0.1327
14927W        W19327  16.860   2.769   0.119 -0.2895  0.1862  0.1261
14928W        W19328  20.244   1.642  42.528 -0.1174  0.0977 -0.1037
14929W        W19329  11.871   3.217  13.735 -0.1439  0.1645 -0.2218
14930W        W19330   2.897   6.374   4.894 -0.3085 -0.1545  0.1657
14931W        W19331   9.481   5.296  18.995 -0.0529 -0.0555  0.1145
14932W        W19332  14.873   5.313  40.939  0.3678  0.1521 -0.0291
14933W        W19333   9.262   0.972   2.359  0.2458  0.2503  0.1553
14934W        W19334   9.011   0.304  13.212  0.0023  0.0970 -0.2521
14935W        W19335   2.666   4.014   0.990  0.0851 -0.2085 -0.1203
14936W        W19336   7.487   1.642   5.319 -0.0855  0.1398  0.0322
14937W        W19337   0.251   3.497  42.509 -0.1069  0.1748  0.1740
14938W        W19338  10.037   6.563  39.369 -0.0908  0.0715  0.2847
14939W        W19339  15.152   0.618   1.330 -0.1600 -0.0655  0.2018
14940W        W19340   7.181   2.471  44.107  0.1442 -0.0455 -0.0296
14941W        W19341   9.216   6.359  16.107  0.1657 -0.3716  0.1855
14942W        W19342   0.526   6.348  37.072 -0.4299  0.2831  0.1016
14943W        W19343  16.868   6.379  39.872 -0.0179 -0.1797  0.0229
14944W        W19344  14.160   5.288  44.654  0.0298 -0.1411 -0.2765
14945W        W19345  15.308   4.246   8.329  0.0082 -0.1596  0.2739
14946W        W19346   6.294   3.289   4.810 -0.1396 -0.0090  0.0977
14947W        W19347  11.208   4.923   5.736 -0.1943  0.1383 -0.2375
14948W        W19348  18.000   2.400  28.571  0.3036  0.0313  0.0903
14949W        W19349   8.743   3.229   2.328 -0.0252  0.2624  0.0013
14950W        W19350   6.066   1.749  33.239  0.0945 -0.1632 -0.3349
14951W        W19351  19.210   0.311   0.380  0.0767  0.3939 -0.0282
14952W        W19352   2.646   0.497   1.253  0.0363  0.1335  0.3837
14953W        W19353   0.759   0.232  23.543  0.3033  0.0662  0.2795
14954W        W19354   7.360   1.999  36.333  0.0397 -0.2054 -0.2140
14955W        W19355  14.395   6.051  41.366  0.1148  0.1507  0.0636
14956W        W19356  18.535   2.665   7.369 -0.0491  0.1504 -0.6618
14957W        W19357   9.261   3.865  24.035  0.0173 -0.2363 -0.4570
14958W        W19358   2.506   5.324   7.612  0.1932  0.0107 -0.2564
14959W        W19359  16.042   2.035  26.380 -0.1363 -0.0155  0.0578
14960W        W19360  19.605   2.253  14.728  0.2270  0.3602  0.0577
14961W        W19361   2.956   0.088  29.120 -0.0039 -0.0597 -0.0186
14962W        W19362  10.554   2.535  37.814 -0.0102  0.2165  0.0997
14963W        W19363  16.864   5.971   0.134 -0.0593  0.0656 -0.2234
14964W        W19364  10.131   4.001  26.420 -0.0801 -0.0483 -0.1689
14965W        W19365  11.826   2.093  34.591 -0.1275  0.3548 -0.0105
14966W        W19366  18.045   6.215  42.225 -0.0700  0.0562  0.0991
14967W        W19367  19.933   1.751  30.958 -0.1820  0.0685 -0.3033
14968W        W19368   9.899   4.372   4.158 -0.0651 -0.3760  0.1492
14969W        W19369  12.918   5.500   5.602 -0.1095 -0.0797  0.1879
14970W        W19370   6.996   5.789  37.395 -0.2104 -0.1448 -0.1009
14971W        W19371   6.104   6.395   4.054  0.2527 -0.0604 -0.0511
14972W        W19372   3.988   4.217  40.205  0.4010  0.1915  0.1933
14973W        W19373   9.519   5.124  30.940 -0.1406  0.0865 -0.0740
14974W        W19374   7.618   4.239  39.433 -0.0332  0.2390  0.1834
14975W        W19375   9.639   1.016  16.473  0.2309  0.1972 -0.0868
14976W        W19376  10.714   6.152  19.424  0.0524 -0.0487 -0.0209
14977W        W19377   7.928   2.234  32.210 -0.0350 -0.2790 -0.0019
14978W        W19378  12.148   4.190  13.928 -0.0422  0.0002  0.1226
14979W        W19379   9.775   1.303  20.548  0.2540  0.1510 -0.1954
14980W        W19380  11.088   2.047  23.133 -0.2094 -0.3702 -0.1041
14981W        W19381   8.749   4.987   8.217 -0.0061  0.1904 -0.0180
14982W        W19382   2.924   1.678   2.688 -0.2327  0.0825 -0.0457
14983W        W19383  14.562   4.199  16.217  0.0026  0.1326 -0.0307
14984W        W19384   0.047   2.455  26.804  0.1725  0.0054  0.1564
14985W        W19385  12.304   5.990  20.005  0.0041  0.0170  0.0084
14986W        W19386   4.440   4.774   7.374  0.2981 -0.0574 -0.0002
14987W        W19387  17.736   1.564  37.571 -0.2245  0.0982  0.0316
14988W        W19388  19.867   3.940   3.623  0.0441  0.1912  0.0564
14989W        W19389   7.587   6.304  19.726  0.1262 -0.0184  0.1387
14990W        W19390   9.360   1.555  35.353  0.3712 -0.1266 -0.0161
14991W        W19391  15.820   0.646  10.784 -0.1266  0.0352 -0.0844
14992W        W19392   9.649   2.099  36.065 -0.0235  0.0109  0.0598
14993W        W19393   5.117   1.839  31.749  0.0187 -0.2031 -0.1213
14994W        W19394  19.794   5.711  43.016  0.0000 -0.1583 -0.2782
14995W        W19395  14.800   0.450  33.999  0.1959  0.1626 -0.3001
14996W        W19396   0.305   0.470  35.471 -0.0259 -0.1332  0.0956
14997W        W19397   8.949   0.798  41.837 -0.1837 -0.3815  0.0601
14998W        W19398   2.615   4.989  37.959  0.2974  0.0453  0.0480
14999W        W19399  15.579   2.042   3.332 -0.2844 -0.0363  0.0311
15000W        W19400  19.164   0.825  33.365 -0.2663 -0.0485  0.0392
15001W        W19401  12.207   2.769   8.484 -0.0625  0.3017 -0.0711
15002W        W19402   7.799   2.573  31.784  0.1355  0.0205 -0.0303
15003W        W19403   1.021   4.376  38.565 -0.1275 -0.0478 -0.4980
15004W        W19404  12.367   6.248  42.255  0.3538 -0.1970 -0.0840
15005W        W19405   7.464   0.025  29.785  0.2992 -0.0732  0.2070
15006W        W19406  16.006   2.276  42.109 -0.3063  0.0229  0.1511
15007W        W19407   4.471   2.633   3.583  0.1636  0.1778 -0.1175
15008W        W19408   6.358   2.256  16.630 -0.1761 -0.1643  0.2464
15009W        W19409  16.185   4.484  39.259 -0.0253  0.0053 -0.2661
15010W        W19410   5.535   6.196   2.372 -0.0595 -0.1771 -0.2282
15011W        W19411   1.154   5.769  26.417  0.0094  0.4134  0.1692
15012W        W19412  11.678   0.726  34.468 -0.0814 -0.0156 -0.1873
15013W        W19413  14.673   6.010   5.309  0.0166 -0.5338 -0.1629
15014W        W19414   4.093   6.210  39.948 -0.2471 -0.0815 -0.0421
15015W        W19415   9.272   1.481   7.975 -0.2569  0.3451  0.1818
15016W        W19416  18.911   3.864  36.827  0.0635 -0.1189 -0.0216
15017W        W19417   0.232   4.092  29.160  0.2078 -0.3236 -0.1781
15018W        W19418   5.025   3.966  29.008 -0.1558  0.1114  0.4313
15019W        W19419   1.893   0.970  10.456 -0.0130  0.1159 -0.0444
15020W        W19420  14.203   3.393  12.693  0.2808  0.0990 -0.0507
15021W        W19421   6.020   6.164  37.796  0.1529  0.0227 -0.0202
15022W        W19422   0.043   4.623  38.023  0.0406  0.2625 -0.3315
15023W        W19423  18.140   3.514  34.419  0.1722  0.0438 -0.2199
15024W        W19424   7.902   4.586   9.601  0.3385 -0.1076  0.2008
15025W        W19425   5.772   6.255  30.818 -0.0519 -0.4510 -0.0023
15026W        W19426  15.772   3.086   0.992 -0.0791 -0.0161 -0.0033
15027W        W19427  12.966   6.157  34.636 -0.1406  0.0776  0.0364
15028W        W19428  12.947   0.773  18.603  0.2382  0.4011 -0.1121
15029W        W19429  17.739   0.564  33.073  0.2415 -0.2509  0.0126
15030W        W19430   0.075   5.271  11.696 -0.1647 -0.0591 -0.1910
15031W        W19431  17.923   1.682  35.621 -0.2007  0.2123 -0.2100
15032W        W19432  13.701   5.060   6.864 -0.3517 -0.1073  0.1404
15033W        W19433  16.999   2.145   8.499 -0.1515 -0.1517 -0.0138
15034W        W19434  13.181   4.473  18.848  0.4409  0.3190  0.1307
15035W        W19435  11.197   3.945  17.596  0.0825  0.0757 -0.2174
15036W        W19436  15.716   2.688  27.448 -0.0495  0.0918  0.1197
15037W        W19437   2.883   3.135  13.762 -0.1600 -0.0108 -0.0288
15038W        W19438  17.745   0.580  34.987  0.1535  0.0322 -0.0155
15039W        W19439   4.353   5.223   8.276  0.0870  0.0126 -0.0019
15040W        W19440   5.282   4.843  36.213  0.0738 -0.0739 -0.0994
15041W        W19441   1.388   2.551   9.633  0.1522 -0.1807 -0.0595
15042W        W19442  14.861   0.989   1.102  0.1404 -0.0580  0.1558
15043W        W19443  17.764   0.816  27.739 -0.5345  0.1869  0.1336
15044W        W19444  16.564   4.529  29.495 -0.2301  0.0471  0.0118
15045W        W19445   7.621   2.731   7.733 -0.2368  0.2938 -0.0226
15046W        W19446   5.543   5.285  16.836  0.0924  0.0949  0.0979
15047W        W19447   3.343   0.508  16.287 -0.0467  0.0531  0.0693
15048W        W19448  10.566   5.846  22.960  0.2199  0.0565  0.1713
15049W        W19449  17.695   1.208  10.345  0.2453 -0.2958  0.0650
15050W        W19450   1.768   4.674  29.019 -0.0479 -0.1957  0.0354
15051W        W19451   7.772   1.109  17.399 -0.1820  0.1245 -0.1267
15052W        W19452  12.988   5.013  28.596  0.0871 -0.1734 -0.1525
15053W        W19453  14.009   3.327  15.306 -0.0945  0.3746  0.0804
15054W        W19454   4.479   0.500  34.910  0.1359 -0.0369  0.0451
15055W        W19455  15.223   3.616  36.685  0.0358 -0.0417 -0.0052
15056W        W19456  18.570   0.527  12.204 -0.0389  0.0154  0.1984
15057W        W19457   0.252   2.769  24.526  0.2180  0.1638 -0.2295
15058W        W19458  16.815   3.935   8.692  0.0411  0.2685  0.1165
15059W        W19459  11.219   3.029  29.073  0.2431  0.1628 -0.3000
15060W        W19460  15.317   4.559  11.348  0.1447  0.0523  0.2409
15061W        W19461  12.318   3.863  31.205 -0.0404 -0.1258 -0.2245
15062W        W19462  15.132   6.526  30.245 -0.0583 -0.0280  0.1248
15063W        W19463   9.403   1.052  15.111 -0.1404 -0.0478  0.2484
15064W        W19464  12.906   2.645  33.186 -0.1228  0.0980  0.3480
15065W        W19465  19.351   4.571   0.169 -0.2819  0.0915  0.1815
15066W        W19466   8.062   5.651  32.932 -0.0043  0.0503  0.0699
15067W        W19467  18.225   2.461   8.186  0.3053 -0.0634 -0.2838
15068W        W19468  12.950   1.183   7.441 -0.1839  0.0969  0.1424
15069W        W19469   5.590   4.697  30.273 -0.1418 -0.0343  0.1192
15070W        W19470   0.704   5.353  22.437 -0.0199 -0.2178 -0.1592
15071W        W19471  17.014   0.785  35.297  0.0621 -0.0611  0.1259
15072W        W19472   0.452   0.739  21.638 -0.2357 -0.1293  0.0326
15073W        W19473  15.986   4.955  39.108  0.0804  0.0877 -0.1164
15074W        W19474   5.838   4.284  33.032 -0.0764  0.1065  0.1517
15075W        W19475   0.106   6.281  25.009 -0.1847 -0.0484 -0.0268
15076W        W19476   7.343   0.547  34.059  0.1318  0.1431 -0.0724
15077W        W19477  12.861   3.781  11.570 -0.1902  0.2700 -0.0740
15078W        W19478   9.441   0.226   1.897 -0.0900  0.0811 -0.0449
15079W        W19479  16.478   0.827  42.130  0.2547 -0.0471  0.0275
15080W        W19480   7.649   2.940  37.476  0.0919 -0.2155 -0.0598
15081W        W19481  20.235   3.237  12.895 -0.0561 -0.0922  0.2613
15082W        W19482  19.321   3.539  36.970  0.0563 -0.1086  0.0507
15083W        W19483   9.184   6.313   7.243  0.2104  0.3380  0.1703
15084W        W19484  10.856   1.076  18.717 -0.0828  0.1696  0.0871
15085W        W19485   0.176   4.711  23.497  0.2651 -0.1019  0.1680
15086W        W19486  15.836   0.664  33.813  0.0716 -0.1280  0.0616
15087W        W19487  14.481   1.703  33.919  0.2007 -0.2738  0.0292
15088W        W19488   7.880   4.613  43.847 -0.1330 -0.2003 -0.2750
15089W        W19489  13.668   2.006  27.979  0.3007  0.2537 -0.2272
15090W        W19490  17.982   4.723   1.631  0.0886  0.1854 -0.1088
15091W        W19491   7.537   4.783  35.575  0.0289 -0.0035  0.0849
15092W        W19492   9.090   6.021  22.401 -0.0317 -0.0780  0.1438
15093W        W19493   2.963   0.521  43.148  0.0985  0.0264 -0.3351
15094W        W19494  10.863   4.046  39.451  0.1865 -0.0747 -0.2181
15095W        W19495  10.914   2.130  31.118 -0.0431  0.0038 -0.0844
15096W        W19496   2.410   3.600   3.128 -0.0163  0.1164 -0.0595
15097W        W19497   7.088   0.080  33.724  0.0429  0.0965  0.0588
15098W        W19498  11.328   1.109  30.432  0.0513 -0.3263  0.1335
15099W        W19499  12.522   1.905   8.004 -0.3656 -0.0031 -0.1894
15100W        W19500   6.716   1.628  41.186  0.0057 -0.2787  0.3107
15101W        W19501   7.755   3.765  44.068  0.0737  0.2434  0.2549
15102W        W19502  20.863   0.991  34.249  0.0213 -0.0209  0.0628
15103W        W19503  18.063   1.406  43.175 -0.0641  0.3691  0.4598
15104W        W19504  13.208   2.480   7.974 -0.2616 -0.1250 -0.0440
15105W        W19505   5.860   3.059   5.713 -0.1753  0.0090 -0.2239
15106W        W19506  14.790   3.567   4.504 -0.0450 -0.2911  0.1569
15107W        W19507  16.669   1.168  13.632  0.1187  0.0207  0.0046
15108W        W19508  17.814   6.442  27.428 -0.5557 -0.3932  0.0839
15109W        W19509   0.807   5.196  28.480 -0.1459  0.0726 -0.1023
15110W        W19510  16.223   5.459  28.436  0.0260  0.1596 -0.2279
15111W        W19511  13.599   4.472  28.937  0.1534 -0.0583  0.2307
15112W        W19512  12.634   0.719   1.780 -0.1694 -0.1504 -0.0664
15113W        W19513  14.092   1.931   7.764  0.2224 -0.1582 -0.0848
15114W        W19514  11.875   0.838  17.314  0.0094  0.1673  0.0071
15115W        W19515   9.066   1.094  33.443  0.4276 -0.1036 -0.0353
15116W        W19516   6.629   5.267   4.811 -0.2752  0.2071 -0.0604
15117W        W19517   2.359   0.302  24.557 -0.1037 -0.4465 -0.2375
15118W        W19518  16.047   2.848  29.587  0.0527  0.2865 -0.0721
15119W        W19519  17.206   4.037  39.477  0.0089  0.1688 -0.2728
15120W        W19520  14.517   1.627   1.694 -0.2543  0.0843  0.1533
15121W        W19521  10.799   2.971   4.399  0.1126  0.0726 -0.3002
15122W        W19522  11.022   2.082  22.565 -0.1739 -0.1894  0.0049
15123W        W19523   8.319   5.749  38.215  0.1356 -0.0535  0.1131
15124W        W19524  17.159   1.701  41.360  0.1132 -0.0549 -0.1534
15125W        W19525   0.539   0.569  40.082 -0.2781 -0.1248  0.1455
15126W        W19526   5.335   1.202  38.318  0.2768 -0.0241 -0.0432
15127W        W19527  10.785   1.351  11.495  0.3785  0.0377  0.0146
15128W        W19528   7.698   6.486   4.680  0.0591 -0.1099  0.3034
15129W        W19529   2.065   6.113  42.371 -0.0094 -0.0359 -0.0247
15130W        W19530   8.289   0.717   7.971 -0.0396 -0.0711  0.0816
15131W        W19531  13.766   1.590  30.395  0.1271 -0.0605 -0.1496
15132W        W19532  18.507   6.032  26.219  0.0540  0.2032 -0.0450
15133W        W19533  20.844   5.896  41.489 -0.1103 -0.1368  0.1251
15134W        W19534   2.938   3.571   7.103  0.3534 -0.2267 -0.0669
15135W        W19535   6.349   5.066  37.000  0.0394 -0.0536  0.1354
15136W        W19536   0.062   2.432   4.375  0.1016  0.0317  0.3411
15137W        W19537   4.382   3.789  11.636 -0.2654 -0.1867  0.0322
15138W        W19538  20.409   3.526   5.800  0.1019 -0.2429 -0.3289
15139W        W19539  20.295   3.359  28.906 -0.2523  0.1251 -0.0025
15140W        W19540  13.113   6.053  18.584 -0.0834  0.2261  0.0780
15141W        W19541  18.854   1.637  24.982  0.0198 -0.0390 -0.1260
15142W        W19542   4.409   5.407  41.090  0.1100  0.1591 -0.1746
15143W        W19543   4.276   5.633  32.202 -0.0146 -0.3356 -0.2412
15144W        W19544  18.079   6.124  22.197  0.1879  0.0360  0.6927
15145W        W19545   3.003   6.551  37.302  0.1610  0.2031 -0.0393
15146W        W19546   0.891   0.774  23.463 -0.2286 -0.1142 -0.1309
15147W        W19547   2.604   2.774   8.615 -0.1523  0.4477  0.0263
15148W        W19548  14.473   4.268   7.605 -0.0625 -0.2170 -0.0298
15149W        W19549   7.651   2.486  15.281  0.0025 -0.0475  0.1234
15150W        W19550  12.712   3.313  39.933  0.1038  0.1498 -0.0258
15151W        W19551  13.834   4.659   8.453  0.3394  0.0533 -0.0481
15152W        W19552   0.206   0.288   3.684 -0.0354 -0.2312  0.1283
15153W        W19553   5.702   0.907  14.279 -0.2693 -0.2850 -0.0806
15154W        W19554  13.787   2.532  30.027  0.1087  0.1117  0.1249
15155W        W19555  19.728   2.842  22.788 -0.3863 -0.0093  0.0013
15156W        W19556  19.543   3.453  21.862  0.3140 -0.3733 -0.1414
15157W        W19557   7.537   1.446  18.963 -0.2920  0.2179 -0.1542
15158W        W19558   9.411   3.477  15.110 -0.1092  0.1262  0.1008
15159W        W19559   2.507   1.905   2.570 -0.1122  0.3759  0.1564
15160W        W19560   8.848   3.423   0.511  0.1611  0.1626  0.2313
15161W        W19561   1.039   0.794   5.675 -0.1880  0.1110 -0.0984
15162W        W19562  14.237   4.928   4.618  0.0530 -0.0566  0.0859
15163W        W19563   7.475   4.342   6.724 -0.0265  0.0850 -0.0562
15164W        W19564   6.729   4.616   6.016 -0.0106 -0.1506  0.0839
15165W        W19565  21.019   0.924  27.094  0.2934 -0.0047 -0.1984
15166W        W19566  19.916   0.986  27.844  0.0260 -0.0285 -0.3208
15167W        W19567   4.768   2.271  33.292  0.1079  0.1413 -0.0297
15168W        W19568   1.693   0.720  39.666 -0.1691 -0.2264 -0.0793
15169W        W19569  12.753   0.333   9.853 -0.0235  0.1591  0.3392
15170W        W19570  17.603   5.303  42.069 -0.2192 -0.0945  0.0477
15171W        W19571  19.584   3.482  23.986 -0.0444 -0.0475  0.2718
15172W        W19572   8.010   5.966  38.648  0.0941  0.3067 -0.1701
15173W        W19573  17.503   5.862   4.228  0.1036  0.1210  0.1908
15174W        W19574   8.029   5.654  43.992 -0.1030  0.0131 -0.2305
15175W        W19575  10.445   5.640  44.171  0.1406  0.0465  0.2713
15176W        W19576   2.653   6.589  11.960 -0.0128  0.1688 -0.0446
15177W        W19577   0.788   0.621   2.294  0.1105  0.5119 -0.0561
15178W        W19578   6.847   4.282  36.314  0.3470  0.1039  0.1755
15179W        W19579  20.042   6.579   5.563 -0.0865 -0.2400  0.4668
15180W        W19580  16.691   5.675  16.396  0.0970 -0.2729 -0.1860
15181W        W19581  14.459   5.210  10.449 -0.2372 -0.1486  0.3562
15182W        W19582   8.233   4.474  13.673  0.0138  0.0367 -0.1624
15183W        W19583  14.885   0.561  10.906 -0.1353 -0.4321 -0.3600
15184W        W19584   4.633   4.067   5.236 -0.0899 -0.3224  0.0025
15185W        W19585  13.023   3.528  34.431  0.0404 -0.0613 -0.2402
15186W        W19586   1.942   5.079  12.994  0.3055  0.0958  0.1573
15187W        W19587  15.817   0.569   8.445 -0.2702 -0.2064 -0.1456
15188W        W19588   8.228   2.559  23.842 -0.1483 -0.0862 -0.3139
15189W        W19589  12.001   2.012   2.029  0.1286  0.0433  0.2663
15190W        W19590  20.049   1.754   6.838 -0.0062  0.1522 -0.0741
15191W        W19591  13.658   5.816  10.292  0.3067  0.0673  0.3675
15192W        W19592  20.149   5.785  44.420  0.0209  0.0113  0.1259
15193W        W19593  11.464   4.221  14.496 -0.1125  0.0609 -0.4261
15194W        W19594   3.856   5.598  37.403  0.0978  0.0600  0.0288
15195W        W19595  19.005   1.712  38.327  0.2105 -0.1531  0.0304
15196W        W19596  18.509   3.697   6.944  0.0371  0.2004  0.1026
15197W        W19597   1.635   0.006  30.063 -0.0512  0.1250 -0.4151
15198W        W19598  12.671   0.112  43.339 -0.0780  0.0069 -0.1057
15199W        W19599  10.009   6.188  12.968 -0.0704 -0.2692 -0.1295
15200W        W19600  11.140   2.081   0.693  0.0961 -0.2276 -0.2376
15201W        W19601  19.772   4.112  34.482 -0.0528  0.4558  0.1764
15202W        W19602  13.206   3.048   2.974  0.1255  0.0015 -0.0157
15203W        W19603  19.891   2.491  36.367  0.0485  0.0238  0.1246
15204W        W19604  18.778   2.305  27.126  0.0188 -0.1227 -0.1031
15205W        W19605  17.128   3.008  24.363  0.2640 -0.3807  0.1770
15206W        W19606   3.722   4.834  34.863  0.1336  0.1138 -0.0158
15207W        W19607   1.828   6.465  36.622 -0.4113  0.1069  0.0209
15208W        W19608  12.031   6.020  30.352 -0.2095 -0.0703 -0.2369
15209W        W19609   4.944   3.051  12.784 -0.0238 -0.4743  0.1857
15210W        W19610  19.229   4.785  15.867 -0.0894 -0.0865  0.1364
15211W        W19611  10.587   2.358  40.581 -0.0864 -0.0954  0.2248
15212W        W19612  18.651   2.281  36.615 -0.0806  0.1070 -0.0293
15213W        W19613  14.047   2.318   8.293 -0.2269  0.1000  0.0683
15214W        W19614  18.540   5.068   1.763 -0.1470 -0.0396  0.1360
15215W        W19615  19.213   3.847   5.411  0.0471 -0.0763 -0.1693
15216W        W19616  19.096   5.098  28.124 -0.1041  0.0142 -0.3627
15217W        W19617   8.398   0.600  23.590 -0.0267 -0.3332  0.0493
15218W        W19618   3.867   1.165   4.549 -0.0119  0.2873  0.0905
15219W        W19619  19.044   0.187  30.297 -0.1716 -0.0448  0.0671
15220W        W19620   2.722   3.436  15.618  0.0403 -0.0287 -0.0959
15221W        W19621  18.102   1.803  25.861 -0.2158 -0.1781 -0.1344
15222W        W19622   6.865   1.255   0.938  0.0088  0.2215  0.0228
15223W        W19623   4.178   3.854   1.255  0.2294 -0.0492  0.4469
15224W        W19624  12.776   5.106   6.851  0.0696 -0.0261 -0.0980
15225W        W19625  21.104   3.957  33.394 -0.1082  0.0500  0.1182
15226W        W19626   7.156   0.532  33.498  0.1415 -0.0875 -0.1024
15227W        W19627  10.686   0.294  38.057 -0.1834  0.0415 -0.0249
15228W        W19628  17.741   5.959  34.399 -0.0083 -0.2731 -0.0976
15229W        W19629   4.413   4.662  42.787  0.0367  0.1208 -0.0304
15230W        W19630  13.430   4.463  31.089  0.1143 -0.0303 -0.1067
15231W        W19631  15.078   4.804   1.892  0.0276 -0.2060 -0.1261
15232W        W19632  17.741   5.951   1.403 -0.1824  0.1077 -0.0335
15233W        W19633  17.458   0.973   6.541  0.0960  0.1827 -0.2771
15234W        W19634  10.663   5.883   0.145 -0.1983 -0.2184 -0.1908
15235W        W19635   2.341   6.123  25.210  0.1145 -0.1921 -0.0504
15236W        W19636  19.824   3.324  44.515  0.1573 -0.0174 -0.1634
15237W        W19637   1.010   2.164  15.302 -0.0995  0.0350 -0.3312
15238W        W19638   2.863   1.635  41.036 -0.3812 -0.1423  0.1218
15239W        W19639  10.539   2.703   8.142  0.2389 -0.1186  0.0105
15240W        W19640  16.906   0.445  41.797  0.3210 -0.0040 -0.1202
15241W        W19641   3.820   0.036  38.069 -0.0688 -0.1421  0.1821
15242W        W19642   3.499   0.486   5.483 -0.0847 -0.4882 -0.0790
15243W        W19643  13.928   1.787  43.937  0.1942  0.0523 -0.0508
15244W        W19644  13.805   2.781   5.913  0.2303 -0.2304 -0.0619
15245W        W19645  13.462   3.179  33.630 -0.1931  0.3358  0.1346
15246W        W19646  12.307   0.928   8.735  0.0604 -0.0318  0.1210
15247W        W19647  13.594   6.072  35.887  0.1185  0.0583  0.0402
15248W        W19648  10.503   5.355  43.219  0.2819  0.2386  0.0692
15249W        W19649   3.452   2.293  15.680  0.2421  0.0263 -0.0100
15250W        W19650  20.086   6.529  34.681  0.1261 -0.0764 -0.2178
15251W        W19651  15.279   5.939  38.205 -0.0900  0.2030  0.1761
15252W        W19652   5.719   5.087  36.268 -0.1950 -0.3984 -0.0742
15253W        W19653  16.405   0.921  30.065  0.1866  0.1470 -0.0881
15254W        W19654   3.646   0.225  15.794  0.1041 -0.1499  0.0989
15255W        W19655  11.190   2.386  19.760 -0.0009 -0.1746  0.0460
15256W        W19656  18.062   2.304  25.992  0.3662 -0.0005  0.1979
15257W        W19657  12.208   3.703  30.715  0.0183  0.3363  0.1083
15258W        W19658   8.774   4.792  16.578  0.3070  0.0788  0.0924
15259W        W19659   1.236   4.472  12.404 -0.0707  0.0193  0.1415
15260W        W19660   9.992   4.385  20.189  0.3209 -0.3364  0.1933
15261W        W19661  14.694   4.722  27.279  0.2358 -0.2115  0.0470
15262W        W19662   4.017   4.546  15.296  0.1427 -0.0030  0.1526
15263W        W19663  20.715   2.597   8.507  0.0793  0.0245 -0.3505
15264W        W19664  19.334   0.065  42.905  0.2575 -0.0594 -0.0571
15265W        W19665  21.068   2.148  29.127 -0.2428  0.1730  0.0831
15266W        W19666   1.751   4.262   8.344  0.0602  0.0091  0.0932
15267W        W19667  17.399   6.106  29.979  0.3622  0.1071 -0.1370
15268W        W19668   0.478   6.103   2.466 -0.1262 -0.1306 -0.0824
15269W        W19669   1.425   1.918  35.978 -0.1256  0.2574 -0.0246
15270W        W19670  12.011   2.265  41.165 -0.2359 -0.0647  0.0973
15271W        W19671   3.606   4.669   2.339 -0.3451 -0.0718 -0.1444
15272W        W19672   8.361   4.389  11.894 -0.1372 -0.2168  0.1781
15273W        W19673  10.753   6.388   4.048  0.0400 -0.3866  0.0444
15274W        W19674   6.860   4.508  14.641  0.1071  0.0012  0.0159
15275W        W19675  10.485   2.310   0.094 -0.2552 -0.5358  0.1120
15276W        W19676   4.317   5.267  30.474 -0.1322 -0.1623  0.0843
15277W        W19677   8.507   0.448  40.283  0.2745 -0.2239 -0.1184
15278W        W19678  12.715   1.755  36.118  0.0856 -0.0235 -0.2767
15279W        W19679   7.125   6.502  36.038  0.1659  0.0049  0.2593
15280W        W19680   7.847   5.129  36.253 -0.1525 -0.2082 -0.0678
15281W        W19681   6.430   0.725  31.787  0.1924  0.0809 -0.3949
15282W        W19682   6.418   4.053   0.395  0.3037 -0.1386 -0.0448
15283W        W19683  14.256   0.094  29.586  0.0738  0.0742  0.2875
15284W        W19684  21.133   3.482  22.582  0.0343  0.0633 -0.0467
15285W        W19685   2.563   4.603  31.679  0.3667  0.1481 -0.2362
15286W        W19686   1.089   0.078   0.847 -0.0490 -0.2351  0.0161
15287W        W19687  17.706   1.945   0.164 -0.0771  0.2593 -0.0030
15288W        W19688   6.831   1.300  34.854  0.1220 -0.1323 -0.2950
15289W        W19689  19.390   5.962   2.482 -0.0719  0.3447  0.0427
15290W        W19690  12.367   3.365  31.461 -0.2156  0.1197 -0.3583
15291W        W19691   2.093   5.775  13.670 -0.0551  0.0493  0.0185
15292W        W19692   6.932   2.935  35.054  0.0820 -0.2052  0.1011
15293W        W19693  11.819   3.350  40.780  0.0958  0.0232 -0.4291
15294W        W19694   9.659   6.384   5.203 -0.2644 -0.3439 -0.1004
15295W        W19695   7.423   1.032  38.076 -0.1779 -0.1634  0.1456
15296W        W19696  15.522   3.674  15.223  0.0137  0.0941  0.1633
15297W        W19697   5.105   1.341  44.954 -0.3668  0.0767 -0.1837
15298W        W19698  19.133   3.566   4.120 -0.1414  0.0960  0.0563
15299W        W19699  14.681   4.942  34.726 -0.0912 -0.1222  0.1537
15300W        W19700  11.355   3.018  18.002 -0.2099 -0.3726 -0.1381
15301W        W19701  11.476   4.373   5.772 -0.3181  0.5000 -0.0276
15302W        W19702  20.563   2.807  23.874 -0.0070  0.1309  0.2363
15303W        W19703   3.611   1.957  39.329 -0.0359 -0.3138 -0.1194
15304W        W19704  11.038   0.986   7.419 -0.1270  0.1157 -0.0513
15305W        W19705   3.147   2.507  39.741 -0.1414  0.3735  0.1754
15306W        W19706   6.356   0.071  16.818  0.0305 -0.1343 -0.1491
15307W        W19707  15.045   3.085  35.035  0.0406 -0.1214  0.1436
15308W        W19708  14.915   0.859  12.904 -0.1481  0.1066 -0.0573
15309W        W19709   5.220   2.528  28.674  0.0038 -0.0930 -0.4211
15310W        W19710  10.429   2.612  39.571  0.0682 -0.2882  0.0791
15311W        W19711   9.263   1.309  39.091 -0.2400  0.0220 -0.0283
15312W        W19712  11.664   3.778  17.423  0.1938  0.0839 -0.0676
15313W        W19713   4.873   5.693   0.209 -0.0536 -0.2779  0.0057
15314W        W19714   8.574   0.645  14.472 -0.1987 -0.4062 -0.1756
15315W        W19715   7.556   6.209  44.215  0.4219 -0.0975  0.1801
15316W        W19716  11.276   3.020  32.446 -0.0918 -0.3264 -0.0866
15317W        W19717   5.869   5.356  28.837  0.4064  0.1474 -0.1730
15318W        W19718  12.935   3.154  33.808  0.2446  0.0587 -0.3153
15319W        W19719   6.290   0.647  11.575 -0.0427  0.2190 -0.2873
15320W        W19720   1.656   2.848   2.590  0.0946  0.1483  0.1611
15321W        W19721   0.568   1.683  23.584  0.1571 -0.0799  0.2411
15322W        W19722   5.668   4.367  14.025  0.2107 -0.2197 -0.0150
15323W        W19723   8.672   2.487  10.878  0.1271 -0.0979 -0.0448
15324W        W19724  12.917   5.265  13.221 -0.0399  0.2421 -0.0856
15325W        W19725   5.828   0.847   6.007 -0.0745  0.1632 -0.2379
15326W        W19726  12.659   5.839   4.106  0.0001 -0.1233 -0.0690
15327W        W19727   9.582   2.685  32.903  0.0161  0.5662  0.1698
15328W        W19728   5.282   3.388  31.859  0.0719 -0.0773 -0.2240
15329W        W19729   7.880   2.455  36.074 -0.0905 -0.0163 -0.1200
15330W        W19730  11.044   3.654   1.773 -0.0488  0.0309 -0.0264
15331W        W19731   2.489   3.232   4.504 -0.1920 -0.3269  0.2635
15332W        W19732   0.951   5.836  34.991 -0.1417 -0.0133  0.1877
15333W        W19733  16.913   1.946  44.428 -0.2648 -0.2193  0.0538
15334W        W19734  11.925   5.231   0.113  0.1527  0.2287 -0.0690
15335W        W19735   9.732   0.957  23.414 -0.2377  0.0633 -0.1213
15336W        W19736   9.802   0.128  31.734  0.3102  0.0622  0.0504
15337W        W19737  17.234   1.704   1.780 -0.1779 -0.0072 -0.2533
15338W        W19738   6.803   4.454   2.770  0.0610 -0.1595  0.0210
15339W        W19739   3.171   1.190  15.482 -0.2915  0.1141  0.1934
15340W        W19740   5.235   4.926  32.410 -0.0537 -0.0212 -0.2449
15341W        W19741   2.561   4.300   7.479 -0.0236 -0.1066  0.2425
15342W        W19742   0.125   0.666  44.571  0.1889 -0.1990 -0.0240
15343W        W19743  11.094   2.657  20.201 -0.2372 -0.0635 -0.2064
15344W        W19744  19.072   2.489  36.863  0.0171  0.3558 -0.0669
15345W        W19745  13.129   6.434   5.288  0.0309  0.0844 -0.0680
15346W        W19746  20.346   4.467  23.784 -0.1485 -0.0265  0.1292
15347W        W19747  12.111   3.211  32.347  0.0451 -0.1833 -0.1588
15348W        W19748  20.624   2.370  41.666  0.3495  0.0143  0.3646
15349W        W19749   4.985   2.636  36.012 -0.1871 -0.2241  0.0619
15350W        W19750   8.758   0.483   8.052  0.0211  0.0382 -0.4449
15351W        W19751  13.044   5.625   1.387  0.0353  0.0491 -0.1140
15352W        W19752  13.252   6.210   2.220 -0.2372  0.1098  0.1642
15353W        W19753   0.249   1.231   0.889 -0.0685  0.2982 -0.1823
15354W        W19754   7.035   6.374  31.995  0.0613  0.0670 -0.1713
15355W        W19755   8.219   3.253   4.204 -0.1497 -0.0857  0.0732
15356W        W19756   5.296   3.464  37.986 -0.0846 -0.0050 -0.2214
15357W        W19757  13.035   0.211   1.745  0.3088  0.1479 -0.2031
15358W        W19758   2.054   5.815  39.811  0.0834  0.1043 -0.1718
15359W        W19759   3.049   6.404   5.815  0.1356  0.3818 -0.2965
15360W        W19760   2.338   2.997  26.896 -0.1658  0.0145  0.2522
15361W        W19761   7.412   1.505  12.912  0.0926  0.1489 -0.0852
15362W        W19762   8.052   4.590  15.895  0.1575 -0.0193 -0.1588
15363W        W19763  15.029   1.362  16.069  0.6014  0.0176 -0.1090
15364W        W19764   5.217   5.953   2.043  0.1347  0.0101  0.0179
15365W        W19765   8.186   3.216  14.570 -0.1574 -0.4621 -0.0857
15366W        W19766  19.853   0.461  31.240  0.0927  0.0452 -0.1340
15367W        W19767   7.849   2.800  20.736 -0.1529  0.1978  0.2500
15368W        W19768  18.558   4.702  11.068 -0.1734 -0.2261  0.0483
15369W        W19769   9.987   5.003  42.468 -0.1950  0.0489  0.0030
15370W        W19770  11.052   0.217  30.810 -0.1130 -0.2934  0.0817
15371W        W19771   0.293   5.166  14.330 -0.0103  0.0525 -0.0908
15372W        W19772  16.999   5.194   8.239  0.3799 -0.0388  0.1745
15373W        W19773  11.795   1.473  12.490  0.2375 -0.0608  0.0857
15374W        W19774   6.219   2.896   1.270 -0.1358  0.1331 -0.0952
15375W        W19775   7.297   4.246  38.184 -0.0959 -0.1805 -0.1416
15376W        W19776   8.713   5.446  33.659  0.0018 -0.0649 -0.1051
15377W        W19777  10.825   6.389  33.387  0.1610 -0.1013  0.1161
15378W        W19778   4.716   1.362   1.632 -0.1720 -0.1144 -0.2581
15379W        W19779   4.366   5.708   0.391  0.1373 -0.2156 -0.0132
15380W        W19780   7.399   0.004  21.448  0.1458 -0.1847 -0.2266
15381W        W19781  19.895   0.769  38.804 -0.1289  0.2176 -0.3262
15382W        W19782  16.751   4.383  36.663 -0.0541 -0.0543  0.0931
15383W        W19783  19.898   3.576  37.977  0.1116 -0.1472 -0.0094
15384W        W19784  13.738   1.437   4.936 -0.0929 -0.0941 -0.0668
15385W        W19785  12.072   2.107  36.213  0.0013  0.0234  0.0362
15386W        W19786  18.279   3.070  10.068 -0.1090 -0.4052  0.2867
15387W        W19787  20.785   4.733   6.843  0.2498 -0.2802 -0.1521
15388W        W19788  16.244   1.949   6.645 -0.3414 -0.0133  0.0044
15389W        W19789   0.161   6.180   9.058  0.1747  0.0677  0.0284
15390W        W19790   7.252   0.413   2.115  0.1777  0.1699  0.0257
15391W        W19791  17.195   2.510  31.232  0.0594  0.0886 -0.2525
15392W        W19792   5.846   3.719  38.034  0.2590  0.1328 -0.1837
15393W        W19793  11.208   5.575   1.703  0.1904  0.1798 -0.0365
15394W        W19794   8.578   6.563  13.295  0.1533 -0.0300  0.1339
15395W        W19795   7.213   1.675  37.341  0.1993 -0.0063 -0.0001
15396W        W19796   6.011   6.174  15.358 -0.0351  0.0386  0.0392
15397W        W19797  10.160   3.397  44.291 -0.1545  0.1130  0.0895
15398W        W19798  15.596   6.393   2.666 -0.1432  0.0366  0.2929
15399W        W19799  14.744   2.609  10.860 -0.0022  0.1481 -0.2219
15400W        W19800   1.849   2.656  41.056 -0.0191  0.0035 -0.2479
15401W        W19801   5.720   6.174   6.755  0.0101 -0.2503 -0.0770
15402W        W19802   8.821   2.213  17.077 -0.3478  0.0166 -0.2634
15403W        W19803   7.102   5.375  32.347  0.0719  0.0682  0.0284
15404W        W19804  14.179   0.578  34.028 -0.1003  0.0374 -0.1166
15405W        W19805   9.414   4.388  12.035  0.6723 -0.1108  0.0112
15406W        W19806   5.777   0.445  33.231  0.0247  0.1358  0.1166
15407W        W19807   3.207   5.366  43.223  0.3471  0.0650  0.1649
15408W        W19808   5.922   0.719  42.947 -0.2002  0.1564 -0.0808
15409W        W19809  11.080   1.689   0.999 -0.1183 -0.0906 -0.0250
15410W        W19810   4.483   0.571   5.041 -0.1057 -0.2759 -0.1056
15411W        W19811  17.930   4.421  24.372 -0.2105 -0.1268 -0.1992
15412W        W19812   6.173   4.990   3.689 -0.0536 -0.0191 -0.1069
15413W        W19813   8.508   5.022  11.077  0.0469  0.2961 -0.3570
15414W        W19814  20.836   0.880   6.265 -0.1108  0.0925  0.1393
15415W        W19815   8.858   0.279   5.263 -0.2406  0.2609 -0.4016
15416W        W19816   7.881   6.020  30.121 -0.0776  0.1025 -0.2932
15417W        W19817   0.047   4.016  24.130 -0.2698  0.0453  0.1552
15418W        W19818   0.989   3.341  27.169 -0.0430 -0.1703  0.1306
15419W        W19819  10.572   5.025  31.157  0.1291  0.2334 -0.0826
15420W        W19820   3.299   3.322  39.531 -0.1975 -0.1609 -0.0344
15421W        W19821  16.813   4.655  33.280 -0.1392 -0.0464  0.3307
15422W        W19822   7.213   3.242   3.990  0.0660  0.1090  0.1586
15423W        W19823   7.687   0.642  20.168  0.4239 -0.1128 -0.0563
15424W        W19824   2.886   0.916  34.304 -0.2742  0.2417 -0.2076
15425W        W19825  20.471   5.736  23.677  0.1999 -0.0485  0.1112
15426W        W19826  11.695   0.252   3.549 -0.0176 -0.1386 -0.0599
15427W        W19827   6.272   3.307  30.900 -0.0785 -0.0262 -0.2335
15428W        W19828  19.224   1.815  44.663  0.0255 -0.0230 -0.0243
15429W        W19829   8.614   3.843  19.673 -0.0255 -0.3959  0.0106
15430W        W19830   9.069   5.279  22.864  0.0875 -0.3035 -0.3119
15431W        W19831   6.257   3.281  13.636  0.0427  0.2017  0.0461
15432W        W19832  10.026   5.983   2.875  0.2549  0.1665  0.2803
15433W        W19833   7.214   5.904  20.854 -0.0895 -0.0810  0.0019
15434W        W19834  14.784   0.024  40.443  0.2027 -0.0627 -0.3312
15435W        W19835   5.099   0.196  39.183 -0.3365  0.1641 -0.0526
15436W        W19836   6.051   2.586  15.891 -0.0044 -0.0046 -0.1808
15437W        W19837   0.786   3.539  24.653 -0.0513  0.0434 -0.0844
15438W        W19838   4.452   0.913   8.230  0.0572  0.1461  0.1932
15439W        W19839  11.851   0.361  14.774  0.1267  0.0445 -0.2901
15440W        W19840  13.569   6.365  39.604  0.0089  0.3821  0.1142
15441W        W19841  19.097   4.820  28.616  0.0000 -0.1024  0.0364
15442W        W19842  18.015   0.651  40.221  0.1108 -0.0941  0.0200
15443W        W19843  20.582   1.246  35.934  0.0404  0.2232 -0.2631
15444W        W19844  17.864   5.042   8.810  0.1290 -0.5315 -0.1512
15445W        W19845  10.839   1.373  16.092  0.1502 -0.1486  0.0284
15446W        W19846   4.323   1.674  41.465 -0.0729  0.1732  0.3705
15447W        W19847   0.888   0.318  25.828  0.1160 -0.2927  0.4086
15448W        W19848   3.325   4.026   0.200  0.0586 -0.1168  0.2111
15449W        W19849  19.845   4.036  43.493 -0.1337  0.1557 -0.0434
15450W        W19850   8.569   2.401   1.164 -0.1137 -0.0823  0.0188
15451W        W19851  14.183   0.719  34.794  0.1123  0.1488  0.0811
15452W        W19852  15.316   5.136  10.108 -0.0110  0.1085  0.0406
15453W        W19853  11.585   0.714  44.373  0.2485  0.0686 -0.0813
15454W        W19854   5.455   5.501   6.066 -0.0917  0.0404  0.0670
15455W        W19855   2.611   2.988   9.045  0.0385 -0.1908 -0.0997
15456W        W19856   4.886   2.554   0.825  0.3321  0.0568  0.2413
15457W        W19857   7.409   1.390  38.480  0.1324 -0.1306 -0.1997
15458W        W19858  20.988   2.467  13.751 -0.0768 -0.0883  0.4963
15459W        W19859  13.832   4.726   3.760 -0.0262 -0.0135 -0.2427
15460W        W19860  17.709   1.646  41.884  0.2079  0.1320  0.1336
15461W        W19861  19.136   3.502  30.222 -0.1471  0.0228  0.0745
15462W        W19862  13.419   1.006  37.500 -0.0638  0.2634  0.1216
15463W        W19863  19.971   4.375  40.919  0.0286  0.1800 -0.0587
15464W        W19864   3.424   6.103  13.525  0.3205 -0.0735 -0.1157
15465W        W19865   8.552   1.906  14.456 -0.0539  0.1761 -0.0240
15466W        W19866   2.537   3.335   1.770  0.0944  0.2272 -0.1606
15467W        W19867   9.781   2.294  15.513  0.1300 -0.1861  0.1483
15468W        W19868   8.026   1.675  20.080 -0.3466  0.0631  0.0610
15469W        W19869  16.033   1.366   0.379  0.1836  0.2505  0.1787
15470W        W19870  16.585   3.562   5.269 -0.3379  0.1649  0.1362
15471W        W19871   5.449   5.849  41.883 -0.1494 -0.1251  0.0828
15472W        W19872   7.980   4.712  44.795  0.3219  0.1951  0.1227
15473W        W19873   0.779   2.680   7.756  0.1025 -0.2188  0.0942
15474W        W19874   6.052   3.499  37.217  0.0419  0.4224  0.2451
15475W        W19875  17.489   2.123   1.822 -0.1267  0.1803  0.0562
15476W        W19876   0.523   1.713  22.242 -0.2714 -0.0537 -0.2451
15477W        W19877  19.078   5.775   5.231 -0.1296 -0.0779 -0.0725
15478W        W19878  19.893   5.917  29.384  0.1014  0.2080  0.1752
15479W        W19879   4.673   1.060  36.348  0.0963 -0.2935 -0.0237
15480W        W19880  16.918   6.489  41.565 -0.0713  0.2970  0.2194
15481W        W19881  20.869   4.198  22.719 -0.0347  0.2130 -0.1262
15482W        W19882   1.850   4.357  36.957 -0.0274  0.1675  0.2032
15483W        W19883  10.926   2.375  16.982  0.2947 -0.1257 -0.2356
15484W        W19884   4.250   5.164   6.988  0.0293  0.2188  0.0081
15485W        W19885  13.422   0.662  27.944 -0.0623 -0.0000 -0.1379
15486W        W19886  14.682   3.748   6.118  0.0087  0.0577  0.0091
15487W        W19887   8.753   0.025   2.924  0.0370 -0.0600 -0.2967
15488W        W19888   7.950   1.352   3.945  0.1782  0.0438 -0.0505
15489W        W19889  16.473   5.558   6.368 -0.3485  0.0656 -0.5052
15490W        W19890   0.461   3.351  30.113  0.0453 -0.1459 -0.1457
15491W        W19891  12.637   5.196  41.191 -0.0745 -0.0651  0.0100
15492W        W19892  19.440   0.198  30.606 -0.2145 -0.1558  0.0347
15493W        W19893  20.609   0.459  22.191  0.0726  0.1711  0.1269
15494W        W19894  13.851   2.579  16.080 -0.1600 -0.3859 -0.2306
15495W        W19895   0.870   2.748  13.811 -0.1879 -0.2614 -0.0252
15496W        W19896  20.105   2.757  35.185 -0.0808 -0.1422  0.3700
15497W        W19897  20.813   2.919  21.488  0.3628 -0.1033  0.1085
15498W        W19898   6.011   0.859  36.252 -0.0164 -0.1709 -0.0152
15499W        W19899   0.503   3.572  25.791  0.2022 -0.1031 -0.2399
15500W        W19900   8.452   3.851   7.909  0.0560 -0.3980  0.1780
15501W        W19901   5.515   1.230   5.773 -0.1631 -0.1979  0.1648
15502W        W19902  14.103   5.854  35.026 -0.0778 -0.0185 -0.0624
15503W        W19903   3.219   2.106  33.760  0.0669  0.1659 -0.0098
15504W        W19904  18.573   5.049  30.809  0.1525 -0.4032  0.3676
15505W        W19905  14.268   2.679  33.746 -0.0525  0.0743 -0.3048
15506W        W19906  19.119   2.326   7.013  0.1905  0.3895 -0.0147
15507W        W19907   5.294   4.552  31.068 -0.0916  0.0593 -0.0505
15508W        W19908   5.143   5.207  16.508 -0.0273  0.1512 -0.1061
15509W        W19909  20.133   3.443  26.348 -0.0715 -0.4216  0.0193
15510W        W19910   2.873   2.510  33.720 -0.2874 -0.1802 -0.1469
15511W        W19911  14.790   0.506  15.379  0.1695  0.2315 -0.2969
15512W        W19912  12.379   4.406  38.308 -0.0960  0.0445  0.4669
15513W        W19913  11.169   4.840  41.240  0.2682  0.0092  0.0541
15514W        W19914  17.817   1.367   4.759  0.0032  0.2735 -0.0210
15515W        W19915  14.855   5.755  13.388  0.1096 -0.4128  0.1673
15516W        W19916   1.763   1.572  10.815 -0.0919  0.0715 -0.0352
15517W        W19917  10.505   3.460  21.967  0.1572  0.1890 -0.0080
15518W        W19918  16.163   5.388  30.721 -0.0373 -0.1349 -0.3416
15519W        W19919  15.185   0.643  16.121 -0.1674 -0.1543  0.0052
15520W        W19920   9.174   4.114  12.613  0.0047 -0.1205  0.0853
15521W        W19921  10.047   1.205   9.098 -0.3241 -0.1214  0.2245
15522W        W19922  10.171   6.098   5.126  0.1069 -0.1510  0.3521
15523W        W19923  19.000   2.139  41.193 -0.0412 -0.1306 -0.0856
15524W        W19924   7.475   6.534   9.043  0.3023  0.0345 -0.3167
15525W        W19925  16.433   5.299  39.977  0.0817 -0.0562 -0.1349
15526W        W19926   3.750   0.177  10.805 -0.0014  0.0918  0.1212
15527W        W19927   6.517   3.313  36.991  0.2975 -0.1944 -0.2063
15528W        W19928  17.270   4.899  27.272 -0.0557  0.0792 -0.1582
15529W        W19929  16.019   2.482  11.004  0.1902 -0.1196 -0.0546
15530W        W19930   1.515   4.875   4.132 -0.1788  0.0074 -0.1754
15531W        W19931  14.863   1.306   4.858 -0.0446  0.1325 -0.0365
15532W        W19932  12.858   4.907  36.120 -0.1065  0.4550  0.1036
15533W        W19933   2.825   4.610   4.599  0.1793 -0.0326  0.0228
15534W        W19934   8.603   3.772  34.149  0.0962  0.0031 -0.2547
15535W        W19935  17.813   4.173   6.840  0.0123  0.0389  0.0700
15536W        W19936  20.050   4.147  12.335 -0.0174 -0.0493  0.1630
15537W        W19937   4.633   5.534   8.813  0.0539 -0.2364 -0.0541
15538W        W19938  17.071   5.041  33.597  0.4550 -0.1837 -0.1602
15539W        W19939  19.472   0.353  40.855 -0.0360  0.1669 -0.2065
15540W        W19940   8.677   3.183  19.001 -0.2042 -0.2699 -0.2143
15541W        W19941   7.091   4.370  32.411  0.0127 -0.0281  0.1299
15542W        W19942   1.803   1.194   8.241 -0.0975 -0.1734 -0.0466
15543W        W19943   8.201   5.230  22.334 -0.0641  0.1721 -0.0561
15544W        W19944   5.206   3.412  35.668 -0.3223 -0.0894 -0.0146
15545W        W19945   6.561   4.374   1.749  0.2557  0.1406 -0.0035
15546W        W19946   1.504   1.382  30.285 -0.0402 -0.1824 -0.0815
15547W        W19947  17.190   3.514   4.693  0.1652 -0.1603 -0.1283
15548W        W19948   4.929   0.640   5.299  0.1871  0.1699  0.2084
15549W        W19949  10.542   4.649   0.818 -0.0668 -0.1165 -0.0998
15550W        W19950  20.708   2.020  26.316 -0.0056 -0.1216  0.1456
15551W        W19951   3.243   0.612   2.266 -0.3123 -0.2754  0.0257
15552W        W19952  19.595   4.904  20.215 -0.2365 -0.2274  0.0710
15553W        W19953   9.387   0.462  20.229  0.1865 -0.3478 -0.2699
15554W        W19954  15.387   5.520   7.578  0.1270  0.3045 -0.0388
15555W        W19955   7.486   6.251  44.739  0.1854 -0.1559 -0.0422
15556W        W19956  20.907   5.433  44.104  0.0508  0.1945  0.1383
15557W        W19957  13.256   1.136  36.157  0.0079  0.0753 -0.0252
15558W        W19958  10.939   4.702  31.079  0.0317  0.1419 -0.1411
15559W        W19959   8.956   3.296  38.576  0.1033  0.0431 -0.0072
15560W        W19960  12.654   2.653   1.842  0.2299 -0.0159 -0.0087
15561W        W19961   8.126   2.705  11.000  0.3089  0.1458 -0.1575
15562W        W19962  11.916   0.300  18.456  0.0545  0.1019  0.1675
15563W        W19963   2.837   1.218  35.428  0.0968  0.4852 -0.0715
15564W        W19964   4.779   2.791   9.819 -0.0322  0.1778 -0.1427
15565W        W19965  12.933   1.403   5.407 -0.1637  0.0266 -0.0179
15566W        W19966  20.171   0.005  15.401 -0.1484 -0.1575  0.0238
15567W        W19967   9.419   5.394  13.979 -0.1276 -0.0635 -0.2753
15568W        W19968   1.780   0.621  25.442  0.0928 -0.0567 -0.1239
15569W        W19969   2.701   3.293  37.475  0.5064  0.0574  0.0735
15570W        W19970  19.332   5.664   9.640  0.0780 -0.0312 -0.1282
15571W        W19971   4.827   1.760  12.406 -0.0268  0.2086 -0.0559
15572W        W19972  11.305   6.578  44.880 -0.0069  0.0213  0.0614
15573W        W19973  13.752   4.273   3.566  0.0431 -0.1581  0.0961
15574W        W19974  18.275   0.170  35.354  0.0874  0.2646 -0.0807
15575W        W19975   6.639   0.948   7.853 -0.3262 -0.2700  0.2114
15576W        W19976  11.657   5.635   2.995  0.2874 -0.0701 -0.0874
15577W        W19977   3.991   3.302  10.730 -0.1458  0.0876  0.2521
15578W        W19978  14.345   5.079   1.000 -0.2121  0.1779 -0.0778
15579W        W19979   0.165   3.817  13.860 -0.1578  0.1123  0.0810
15580W        W19980  12.326   0.528  17.308 -0.0558 -0.1132  0.1154
15581W        W19981   0.215   0.968  10.927 -0.0018  0.2163 -0.0307
15582W        W19982  16.228   1.800   5.619 -0.0345  0.1314 -0.2263
15583W        W19983   1.044   4.018  34.817  0.2428 -0.3752 -0.4677
15584W        W19984   3.951   4.193  37.190  0.0416  0.0246  0.3061
15585W        W19985  11.594   0.407  16.102  0.1980  0.0822  0.1252
15586W        W19986  21.102   4.159  43.413 -0.0523  0.2308 -0.0265
15587W        W19987   6.496   0.049   6.161 -0.0283  0.1782  0.1587
15588W        W19988  18.224   3.845  10.294 -0.1067 -0.0930 -0.0352
15589W        W19989  15.466   4.511  30.292 -0.1733  0.2633 -0.0004
15590W        W19990  16.111   5.203   3.195  0.1836 -0.1129 -0.1081
15591W        W19991   7.645   2.267  40.149 -0.0260 -0.1276  0.0573
15592W        W19992  19.548   3.966  12.193 -0.1320 -0.0284  0.0759
15593W        W19993  16.084   5.364   2.392  0.2377  0.2108  0.0622
15594W        W19994   3.011   6.299  35.692  0.1328 -0.0648  0.1497
15595W        W19995   2.758   3.772  37.358 -0.0602 -0.0337 -0.0456
15596W        W19996  19.039   0.945  44.494  0.1676  0.2587  0.1833
15597W        W19997   4.892   4.330  15.288  0.0574 -0.0966 -0.1411
15598W        W19998   1.915   1.115  10.914  0.1838 -0.0300 -0.1014
15599W        W19999   2.055   3.959  36.632 -0.1382  0.2054 -0.1934
15600W        W20000   1.985   2.626  39.806  0.3090  0.0108  0.0905
15601W        W20001   1.436   2.247  12.829  0.1530 -0.1379  0.0681
15602W        W20002  14.805   4.720  10.852 -0.2903  0.0507 -0.1362
15603W        W20003  16.768   2.804  25.892  0.0347 -0.0065  0.2366
15604W        W20004   3.416   2.799   1.091  0.2229 -0.0558 -0.0740
15605W        W20005  19.804   2.644  21.672  0.1951 -0.1449 -0.2784
15606W        W20006  14.490   4.526   7.203  0.3214  0.1915  0.2761
15607W        W20007  12.162   6.238   3.015 -0.1192  0.0624 -0.0876
15608W        W20008   7.743   0.962   8.742  0.0122 -0.3060  0.2563
15609W        W20009   0.732   4.735  27.853  0.2440  0.2555 -0.0686
15610W        W20010  16.138   3.098   1.900  0.1520 -0.1882  0.1174
15611W        W20011  10.428   5.283  24.192  0.2083 -0.0349 -0.0633
15612W        W20012  10.301   6.592   8.695  0.0849 -0.0204 -0.0568
15613W        W20013  15.511   4.681  37.434  0.1911  0.0356 -0.1787
15614W        W20014  18.443   4.255   1.695  0.1006 -0.1612 -0.0309
15615W        W20015  19.830   0.989   9.675  0.0445 -0.1909 -0.2426
15616W        W20016  18.561   5.342  27.112 -0.0362  0.2132  0.0017
15617W        W20017   3.757   1.441  43.941 -0.3697  0.1740 -0.2988
15618W        W20018   1.028   3.479   2.178  0.3492  0.0395  0.1454
15619W        W20019   0.237   0.070  24.693  0.0200 -0.2616 -0.0503
15620W        W20020   8.418   6.558  36.960 -0.2693 -0.1921 -0.0322
15621W        W20021   2.853   2.597  41.010  0.0502  0.0196 -0.1018
15622W        W20022  11.905   3.954  36.887  0.2065  0.0948 -0.0744
15623W        W20023   4.373   0.302  28.403  0.1058  0.2058  0.2673
15624W        W20024  18.408   2.485   8.666 -0.1120  0.1902 -0.2028
15625W        W20025  12.826   4.324  12.359 -0.0542  0.0091  0.3115
15626W        W20026  18.730   5.520   7.211  0.0097  0.1110  0.2347
15627W        W20027  14.028   2.365  33.338 -0.0354 -0.1617 -0.1555
15628W        W20028   9.173   0.019  35.642 -0.3720 -0.2104 -0.0089
15629W        W20029  18.900   5.950  25.444  0.2905 -0.1247 -0.1269
15630W        W20030  14.888   5.885  16.968  0.1615 -0.1781  0.0862
15631W        W20031   6.778   1.410   7.715  0.0943 -0.2092 -0.2105
15632W        W20032  12.576   6.507   4.639 -0.1462  0.2140 -0.2367
15633W        W20033  20.707   2.144  12.157  0.0479  0.2088 -0.0797
15634W        W20034  19.514   5.552  23.649  0.0037 -0.1847  0.0485
15635W        W20035  10.637   2.771   1.342  0.1568 -0.2156  0.0752
15636W        W20036  15.715   3.256  35.517  0.2215 -0.5778 -0.2518
15637W        W20037   7.415   1.289  32.939 -0.0457 -0.1762  0.2262
15638W        W20038  12.301   2.877  34.560 -0.3058 -0.2389  0.0561
15639W        W20039   6.170   4.627  31.580  0.1077  0.3450  0.1243
15640W        W20040  16.832   0.565  12.433 -0.0444 -0.1099 -0.2126
15641W        W20041  13.950   2.494  10.535 -0.1305 -0.3461  0.1387
15642W        W20042   8.370   2.671  36.095 -0.0854 -0.2099  0.0677
15643W        W20043  16.826   0.875  34.013  0.1588 -0.2612  0.1321
15644W        W20044  19.611   0.535   1.462  0.1579 -0.0066 -0.2494
15645W        W20045   6.584   3.839  31.488 -0.0480  0.2891 -0.0200
15646W        W20046   8.481   1.836  19.921 -0.1007 -0.0645  0.1619
15647W        W20047  14.862   0.367  40.890 -0.3150 -0.0055  0.0394
15648W        W20048   6.584   2.755   0.524  0.3414 -0.1501 -0.1048
15649W        W20049  12.378   2.557   5.462 -0.0258  0.0703 -0.2732
15650W        W20050   9.687   4.464  36.155 -0.0563  0.0028  0.1089
15651W        W20051   3.973   5.073   0.825  0.4825  0.1420 -0.2769
15652W        W20052  12.758   5.925  19.728  0.0466  0.0934 -0.1608
15653W        W20053  17.249   4.458   5.350 -0.2269  0.3547 -0.0139
15654W        W20054   9.339   5.745  41.497 -0.2637 -0.1671 -0.2551
15655W        W20055  12.664   3.075   4.680 -0.4985  0.0687 -0.1142
15656W        W20056  20.182   5.813  24.256  0.0063 -0.2683  0.0335
15657W        W20057  14.808   4.245  28.486  0.2202 -0.0020  0.0357
15658W        W20058   7.573   3.566  18.002 -0.0695 -0.1536 -0.3375
15659W        W20059   1.859   5.317  37.084  0.1002 -0.2292 -0.0135
15660W        W20060  10.479   3.993   0.904 -0.2109  0.0415 -0.2289
15661W        W20061  18.335   4.427  25.266 -0.3806 -0.1360  0.2971
15662W        W20062   7.879   5.338  34.422 -0.1981  0.3208  0.2604
15663W        W20063  10.450   5.813  15.719  0.2361 -0.1750 -0.1286
15664W        W20064   8.431   1.728  38.686 -0.1052 -0.2210 -0.0364
15665W        W20065  20.234   2.936   3.678 -0.0118 -0.0267 -0.2536
15666W        W20066  16.525   2.695   9.483  0.2984  0.0740 -0.0979
15667W        W20067  15.132   6.507  41.181  0.1637 -0.1962 -0.2904
15668W        W20068  11.583   1.278   6.663  0.1477 -0.0098 -0.0169
15669W        W20069   7.375   1.967   3.593  0.1094 -0.2027  0.3431
15670W        W20070   4.155   4.690  14.111  0.0702 -0.0809  0.0092
15671W        W20071   6.855   5.817   5.390  0.2556 -0.0637 -0.2313
15672W        W20072   0.201   4.220  39.027 -0.1205  0.0023 -0.0601
15673W        W20073   8.355   0.943  16.753  0.1042  0.0638  0.1191
15674W        W20074   2.199   4.507  32.474  0.0717 -0.0814 -0.4104
15675W        W20075   3.836   1.669   4.285 -0.1492 -0.2634 -0.2105
15676W        W20076  17.356   0.656  30.381  0.3080  0.1053 -0.1146
15677W        W20077  20.051   0.286  14.034 -0.3545 -0.0356 -0.1156
15678W        W20078   4.897   2.589  12.931  0.0537 -0.0944 -0.0933
15679W        W20079  18.436   1.214  43.830  0.0583  0.2306 -0.0672
15680W        W20080  12.492   1.788  43.129  0.0604  0.2533 -0.0623
15681W        W20081  14.957   2.138  42.033 -0.0710  0.0739  0.1296
15682W        W20082  17.061   1.406   2.113  0.2210  0.0386 -0.1054
15683W        W20083  13.203   5.623  10.365  0.1584  0.0689  0.3570
15684W        W20084  20.040   6.109   0.974  0.0518 -0.0707 -0.0053
15685W        W20085  10.612   4.340  15.029 -0.2053  0.0513 -0.0726
15686W        W20086   3.857   1.212  29.001 -0.3069 -0.1110  0.0376
15687W        W20087   7.427   4.215  12.836 -0.1384 -0.3389 -0.1911
15688W        W20088   0.141   1.346  29.546  0.4014  0.0302 -0.2997
15689W        W20089   6.971   6.390  44.061  0.1895 -0.3224 -0.1256
15690W        W20090  18.332   4.302   2.285 -0.1475  0.1851 -0.3611
15691W        W20091   8.958   0.574  19.333 -0.3602  0.1100  0.2533
15692W        W20092  11.517   4.230  13.845 -0.0400 -0.1073  0.0839
15693W        W20093  14.138   2.189  38.925  0.0299 -0.0607  0.0481
15694W        W20094  15.594   5.308  27.994 -0.0626  0.1571  0.0600
15695W        W20095   0.062   0.616  39.183 -0.1304 -0.2963 -0.2172
15696W        W20096   8.225   3.885  38.352  0.2526  0.0287  0.1400
15697W        W20097  15.609   0.709  26.470 -0.2118  0.2636 -0.0452
15698W        W20098   8.446   2.938  13.177 -0.1049  0.1404 -0.0152
15699W        W20099   5.396   0.232  41.252  0.1597  0.0045  0.0811
15700W        W20100  14.812   4.336  27.628  0.2137 -0.0651  0.1476
15701W        W20101  17.900   0.184   2.328 -0.3070  0.1550  0.0579
15702W        W20102  16.368   3.479   2.212 -0.1873  0.1333 -0.1282
15703W        W20103   7.709   3.125  17.838  0.2639  0.1192 -0.1078
15704W        W20104  10.017   2.695  15.252  0.1187  0.0191  0.3254
15705W        W20105   3.517   0.514  16.797  0.1641 -0.0011 -0.1589
15706W        W20106   2.319   5.590  35.773  0.2524  0.0132  0.5051
15707W        W20107   1.746   5.903  42.964  0.2717  0.2753 -0.4236
15708W        W20108   5.034   0.511  15.273  0.0579 -0.0073  0.0736
15709W        W20109  16.709   3.321  15.641 -0.0853 -0.1466  0.0089
15710W        W20110  13.584   0.935  28.360 -0.1033  0.1939 -0.2171
15711W        W20111   2.215   4.848  25.835 -0.2436  0.1669  0.0191
15712W        W20112  13.241   3.100  34.630 -0.1278 -0.1330 -0.0711
15713W        W20113   3.796   3.631  31.719 -0.1011 -0.1631 -0.1178
15714W        W20114  19.904   3.507  39.200 -0.0038 -0.2020 -0.2771
15715W        W20115  16.112   5.717  14.240  0.1353  0.0144  0.0948
15716W        W20116   7.094   4.514  22.314  0.0152  0.1370  0.0693
15717W        W20117  10.187   2.812  37.058  0.3287  0.0318 -0.1197
15718W        W20118   3.080   2.270   1.269 -0.1613  0.0572 -0.2838
15719W        W20119  18.249   5.367   0.909 -0.0601 -0.0633 -0.0322
15720W        W20120   7.123   5.488  11.339 -0.2047  0.1792  0.0979
15721W        W20121   2.150   5.278  27.979  0.1868  0.1147  0.0896
15722W        W20122   7.937   6.590   6.514  0.0078 -0.0327  0.0851
15723W        W20123  11.460   6.082  37.468 -0.0743  0.2163 -0.0159
15724W        W20124  20.461   0.600  14.827  0.2251  0.2186 -0.1487
15725W        W20125   6.395   3.203   6.935 -0.2262 -0.1280  0.1197
15726W        W20126  18.196   1.608   8.694  0.0926 -0.1041 -0.0831
15727W        W20127  20.832   1.160  28.333 -0.0634  0.1018  0.0798
15728W        W20128  14.110   5.100  14.506  0.1254  0.1277  0.0307
15729W        W20129   3.661   0.356   8.508 -0.0700 -0.0536  0.0547
15730W        W20130  13.941   4.817  34.699  0.2841  0.1422  0.0961
15731W        W20131  14.170   3.239  35.045 -0.0577  0.1857 -0.0571
15732W        W20132  20.940   1.870  13.651  0.1145 -0.0557  0.0234
15733W        W20133   9.438   5.170  43.152  0.0154 -0.2886 -0.3131
15734W        W20134  12.740   2.523  34.062 -0.0483 -0.0184  0.2239
15735W        W20135   3.081   1.481  13.594  0.1186  0.1206  0.1295
15736W        W20136  20.897   3.144  29.039  0.0867 -0.1649 -0.0559
15737W        W20137   7.453   2.501   6.370  0.0965 -0.0545 -0.0496
15738W        W20138  16.930   4.031  14.986 -0.2346  0.0928  0.2816
15739W        W20139  12.320   2.168  12.190  0.2523  0.1636 -0.2704
15740W        W20140   2.431   1.759   9.736  0.2099  0.1144 -0.2369
15741W        W20141   0.186   4.543   6.779  0.1184  0.0682  0.1413
15742W        W20142  10.628   1.245   2.071 -0.0355 -0.0967 -0.1823
15743W        W20143  14.865   5.271   1.123  0.0407 -0.0960  0.0057
15744W        W20144   0.046   3.960  30.928 -0.2245 -0.1043  0.1535
15745W        W20145  15.185   3.377  31.353  0.2446  0.0704  0.1611
15746W        W20146  14.667   3.966  15.386 -0.0618  0.0089  0.2131
15747W        W20147   7.865   1.564  32.963 -0.1568 -0.1093 -0.0542
15748W        W20148  17.537   4.874  32.602 -0.1321 -0.0244  0.2144
15749W        W20149   4.557   6.538   4.409  0.3383  0.2384 -0.0177
15750W        W20150   7.612   6.430  17.283 -0.2726 -0.1512 -0.3035
15751W        W20151  19.936   4.846   9.616  0.0950 -0.0281 -0.0308
15752W        W20152   1.672   6.420  15.749 -0.0289 -0.1485 -0.1516
15753W        W20153  10.157   5.004  32.751  0.1562 -0.0448 -0.3167
15754W        W20154  15.264   3.337  13.888 -0.3572 -0.0849 -0.0855
15755W        W20155  14.738   6.365   8.231  0.0376 -0.1916  0.0463
15756W        W20156  20.398   4.783  20.981 -0.3202  0.2301 -0.1475
15757W        W20157   8.164   1.785  10.659 -0.1519 -0.1675 -0.0011
15758W        W20158   8.916   4.603   1.710  0.1107  0.2533 -0.0290
15759W        W20159   6.825   5.511   6.335 -0.0939  0.1947 -0.0018
15760W        W20160  19.096   2.417   9.891  0.1500 -0.0095 -0.0459
15761W        W20161  18.932   6.095  22.358 -0.1489  0.3594  0.1959
15762W        W20162   7.094   1.500   5.028 -0.0672 -0.1803  0.2990
15763W        W20163   5.744   3.508  43.527 -0.3315 -0.0213  0.0183
15764W        W20164   3.843   2.317  14.834  0.2472  0.0728  0.3212
15765W        W20165  11.550   3.833   0.987 -0.1733 -0.0005 -0.1141
15766W        W20166  19.590   3.249   2.759  0.1237 -0.1897  0.0437
15767W        W20167   6.123   3.707  44.523  0.0397  0.0428  0.2811
15768W        W20168   8.020   2.793  33.004  0.0016  0.0311  0.0576
15769W        W20169  11.682   5.274  32.629 -0.2950 -0.1791 -0.0972
15770W        W20170  16.419   3.077  43.292  0.2858 -0.0382 -0.1109
15771W        W20171   8.367   4.145   8.378 -0.2168 -0.1045  0.0623
15772W        W20172  17.622   3.965  32.220  0.3532 -0.4303  0.1655
15773W        W20173   3.066   3.046  33.874 -0.1862  0.0359  0.0350
15774W        W20174  10.810   6.502  34.855 -0.1371  0.1376  0.0387
15775W        W20175  14.284   1.914  43.570  0.2697  0.1488  0.2157
15776W        W20176   9.162   4.997  42.792  0.3207  0.1129  0.1185
15777W        W20177  14.807   3.690   7.146  0.2026 -0.0067  0.0105
15778W        W20178   2.957   5.736  11.502  0.2507 -0.2726  0.3214
15779W        W20179  13.391   0.983  15.325 -0.1779 -0.1916 -0.0543
15780W        W20180  19.815   1.831  26.567 -0.0647 -0.2672  0.1800
15781W        W20181  16.828   1.463  31.826 -0.0687  0.0177 -0.0641
15782W        W20182  17.037   1.360  23.451  0.3047 -0.0231  0.1448
15783W        W20183  11.459   0.733  35.106 -0.3116 -0.0594  0.0271
15784W        W20184   2.785   5.958  31.353 -0.2219  0.2034 -0.0118
15785W        W20185  12.885   4.313   7.666 -0.2395  0.0949 -0.0835
15786W        W20186   8.843   3.532  43.819 -0.1033 -0.1711  0.0223
15787W        W20187   1.751   5.290   6.287 -0.2704 -0.1751  0.2075
15788W        W20188  17.490   5.540  40.720 -0.3151 -0.0143  0.2722
15789W        W20189  15.097   1.942  14.386  0.0032 -0.0859  0.0690
15790W        W20190   4.027   2.110  40.324 -0.2105  0.0773  0.1978
15791W        W20191   4.432   4.129  15.305  0.0684 -0.0907 -0.0768
15792W        W20192   2.543   1.281  42.811 -0.2048  0.1524  0.0407
15793W        W20193  17.922   0.362  37.615 -0.2067  0.0455 -0.3213
15794W        W20194   6.649   2.899  10.361  0.0013  0.0824 -0.2148
15795W        W20195  15.330   2.043  32.582  0.5692  0.1255  0.0870
15796W        W20196  14.868   3.976  36.728  0.2855  0.2319  0.1554
15797W        W20197  17.306   6.575  40.751  0.1945 -0.0244  0.0791
15798W        W20198  14.695   2.154   3.758  0.2012 -0.0232  0.1394
15799W        W20199   2.458   2.744  36.311  0.0654 -0.0225 -0.0821
15800W        W20200   9.784   0.307  36.728  0.3202 -0.0308  0.1348
15801W        W20201   6.494   0.794   7.369  0.0132 -0.2055  0.0435
15802W        W20202   4.291   5.938  36.730 -0.1331  0.1516 -0.0395
15803W        W20203   7.902   4.826  20.198 -0.1114  0.0229 -0.0187
15804W        W20204  19.964   6.249  36.531  0.4101  0.1927  0.0637
15805W        W20205  12.649   1.383  39.530 -0.1567 -0.0880  0.3293
15806W        W20206  13.704   5.721  28.491  0.0962 -0.0728 -0.0116
15807W        W20207  17.640   5.184  12.728  0.0903  0.2303  0.2654
15808W        W20208  12.205   2.730  21.172 -0.0410 -0.1545  0.3425
15809W        W20209   4.102   1.411  12.601 -0.0355 -0.1585 -0.1500
15810W        W20210  10.242   3.509  14.941  0.0794  0.0117  0.5230
15811W        W20211  10.576   0.040  42.002  0.1570 -0.3839 -0.0300
15812W        W20212  12.592   5.089  12.416  0.1122 -0.0351  0.2612
15813W        W20213  11.351   4.342  31.111 -0.0337 -0.2560  0.2176
15814W        W20214  10.826   1.877  32.368 -0.0968  0.0367  0.2152
15815W        W20215   6.789   1.039  39.691 -0.2300  0.1289  0.0180
15816W        W20216  10.349   3.788   7.446  0.0635  0.3550  0.0076
15817W        W20217   3.988   1.892   1.911 -0.2044  0.2163  0.3061
15818W        W20218   8.885   3.519  34.974  0.0232  0.1378 -0.0351
15819W        W20219  14.312   5.552  39.259 -0.1058  0.1812  0.5586
15820W        W20220   8.502   5.447  16.030 -0.0947  0.2415  0.1420
15821W        W20221  10.809   3.627  30.360 -0.2809 -0.1250  0.1470
15822W        W20222  20.021   3.864   5.038  0.0476 -0.3411 -0.0155
15823W        W20223   7.441   6.550  34.899  0.1226 -0.0334  0.0546
15824W        W20224   1.516   5.600  16.429 -0.1924 -0.0292 -0.0596
15825W        W20225   2.337   3.574  27.800 -0.0903  0.1102 -0.1178
15826W        W20226   3.882   2.020  10.546  0.3425  0.2083 -0.0701
15827W        W20227   7.097   0.324  11.774  0.0671 -0.3449  0.1979
15828W        W20228  18.808   5.940  32.720 -0.0439  0.1069 -0.0370
15829W        W20229   0.589   4.448  29.209 -0.0037  0.0866  0.1179
15830W        W20230  17.513   0.297  31.265 -0.0868  0.0558 -0.1207
15831W        W20231   1.209   4.279   7.651  0.3949 -0.1928  0.1157
15832W        W20232  15.047   1.936  27.936  0.2694  0.1642 -0.1294
15833W        W20233  14.334   0.152  16.346 -0.2710 -0.3235  0.0050
15834W        W20234  16.991   1.327  26.342  0.2156  0.2874  0.2774
15835W        W20235   9.566   3.299  29.997 -0.0284  0.0516 -0.0649
15836W        W20236  20.429   1.108  42.869  0.0316  0.0702 -0.0956
15837W        W20237   7.461   1.353   8.599  0.0574  0.0503  0.0934
15838W        W20238   4.079   1.821  17.124 -0.0549  0.0612  0.0360
15839W        W20239   4.502   1.802   1.900  0.0022 -0.1440  0.3792
15840W        W20240  14.516   4.659  18.207  0.1790 -0.2201 -0.0728
15841W        W20241   0.012   2.586   0.121  0.0977 -0.0498 -0.1749
15842W        W20242   2.810   4.538  38.252  0.0192 -0.0879 -0.0869
15843W        W20243   2.906   2.944  17.505 -0.1600  0.1957  0.0179
15844W        W20244   2.001   0.110  40.869  0.1044  0.1017 -0.2153
15845W        W20245   9.259   5.936   0.196  0.1470 -0.1180 -0.1028
15846W        W20246  17.427   2.885  44.053 -0.1016  0.4562 -0.0518
15847W        W20247  18.171   5.154  27.436 -0.2464 -0.0571 -0.1831
15848W        W20248  15.541   2.128  40.099  0.1111  0.0877 -0.2190
15849W        W20249   6.742   0.644  32.206  0.1590  0.1830  0.1018
15850W        W20250   5.051   6.239  31.134  0.3123 -0.0847  0.0312
15851W        W20251  11.320   0.209  44.393 -0.3030  0.0067  0.3363
15852W        W20252   7.978   2.561  39.066 -0.2069  0.0387 -0.1075
15853W        W20253  20.257   4.539  22.826 -0.2799 -0.0163 -0.2781
15854W        W20254  17.122   5.625  38.962  0.0037  0.0480  0.1469
15855W        W20255  11.950   1.053  10.001  0.1122 -0.0673 -0.0409
15856W        W20256  10.223   2.639  38.642 -0.0498 -0.2333  0.3991
15857W        W20257  20.755   6.269   7.174 -0.1461  0.1276  0.1221
15858W        W20258   6.017   5.356  14.941 -0.0323  0.1168  0.1211
15859W        W20259  13.951   3.178  35.492 -0.3605 -0.2365  0.1935
15860W        W20260   2.371   3.804  34.935  0.2520  0.2121  0.3205
15861W        W20261   8.784   0.255  37.944  0.0985 -0.0354 -0.0927
15862W        W20262  10.870   4.573   6.950  0.3165 -0.1924 -0.1335
15863W        W20263  13.843   1.780   8.184 -0.0153 -0.0544 -0.2697
15864W        W20264  10.795   6.420  17.083  0.2526  0.0348 -0.1219
15865W        W20265   0.318   1.028   5.202 -0.2987 -0.0013  0.2179
15866W        W20266   5.788   3.891  42.784  0.0917 -0.0858 -0.1105
15867W        W20267  20.080   5.353  30.249  0.2817 -0.1018  0.0863
15868W        W20268   9.537   4.097  44.136  0.2107 -0.1212 -0.2431
15869W        W20269   4.001   3.756  39.989 -0.0491 -0.2193  0.0517
15870W        W20270  15.262   0.166   6.355 -0.2193 -0.0192  0.1343
15871W        W20271  16.559   5.436   8.085 -0.2121 -0.1391 -0.0192
15872W        W20272  10.458   2.328   7.145 -0.1444 -0.1649 -0.1037
15873W        W20273   0.163   0.689  44.041  0.2109  0.2084 -0.3337
15874W        W20274   4.722   3.876  29.418  0.0322  0.1851  0.0052
15875W        W20275   6.624   4.806  41.756  0.0262  0.0311 -0.0294
15876W        W20276  10.507   2.486  11.241 -0.1616  0.1124  0.1452
15877W        W20277   3.253   2.452  32.839  0.0274  0.0270 -0.0628
15878W        W20278  18.497   3.227   0.128  0.0719 -0.0899  0.0010
15879W        W20279  13.402   0.558   9.431  0.0980  0.2642 -0.5249
15880W        W20280  13.866   2.503  36.186  0.0199 -0.1333  0.1306
15881W        W20281  10.281   2.989   0.517  0.3581  0.0482  0.2998
15882W        W20282   0.544   0.611   7.084  0.4062 -0.3294 -0.0699
15883W        W20283   7.439   0.815  17.715 -0.0714 -0.0508  0.0629
15884W        W20284   9.606   1.835   6.932  0.0942  0.3318  0.2001
15885W        W20285  10.377   5.239  19.066  0.1039  0.0006  0.0099
15886W        W20286  20.257   3.538  14.028  0.1560  0.0088 -0.1567
15887W        W20287  15.758   6.275  35.561 -0.1734 -0.3674  0.1608
15888W        W20288   2.105   6.257  24.671 -0.1041  0.0843 -0.0838
15889W        W20289  13.534   0.630  11.152  0.0138 -0.4921  0.0853
15890W        W20290  12.834   4.891  29.992 -0.0181 -0.1118  0.2527
15891W        W20291  15.207   0.130  13.238  0.0123  0.1955 -0.1989
15892W        W20292   1.122   4.777  38.889  0.4969  0.1834 -0.4845
15893W        W20293  13.637   3.574   0.040 -0.3779  0.3389  0.1821
15894W        W20294  10.171   4.167   9.249 -0.3735  0.1903 -0.2249
15895W        W20295  10.798   3.572  16.995  0.2422  0.3230 -0.0004
15896W        W20296   0.766   4.269   7.345  0.1191 -0.4159 -0.1940
15897W        W20297  12.223   2.055  14.382 -0.2133  0.1831  0.1348
15898W        W20298  19.601   5.956  21.648 -0.1467 -0.1404 -0.1979
15899W        W20299   6.497   3.499  20.808  0.2052 -0.2118  0.0595
15900W        W20300   6.349   0.738  41.171  0.3982 -0.0200 -0.0580
15901W        W20301  20.763   6.152  33.936 -0.0911  0.1248  0.2278
15902W        W20302   9.658   3.043  42.215 -0.0087  0.1380  0.1445
15903W        W20303  20.763   5.459  24.945  0.1445  0.1257 -0.0208
15904W        W20304   7.427   6.157  13.469  0.0957 -0.2168  0.0154
15905W        W20305  16.043   3.586  14.681  0.2921  0.0597  0.1094
15906W        W20306  10.415   0.139  12.064  0.0496 -0.4825  0.0271
15907W        W20307  10.531   4.727  11.209  0.1464 -0.1103  0.1766
15908W        W20308  16.194   2.090  17.445  0.0631  0.0822  0.0286
15909W        W20309  14.100   6.360  16.240  0.0256 -0.0655  0.1679
15910W        W20310   5.347   2.891  42.140 -0.0582 -0.0345  0.1578
15911W        W20311   9.803   4.032  22.223  0.1014 -0.1012 -0.0931
15912W        W20312  10.720   5.535  16.735  0.0155 -0.1701 -0.3022
15913W        W20313   7.246   3.060  10.205  0.0940  0.2204 -0.4509
15914W        W20314  20.812   1.903  15.954  0.1671  0.1628  0.2484
15915W        W20315   6.721   3.473   9.713  0.0813 -0.1937  0.1136
15916W        W20316   4.616   4.406   5.618  0.2273 -0.1585 -0.0811
15917W        W20317   6.629   0.030   4.010  0.0832 -0.1050 -0.0428
15918W        W20318   1.831   4.347  38.941  0.0138 -0.1571  0.2965
15919W        W20319  11.544   0.491   8.970  0.2118  0.2037  0.0225
15920W        W20320  18.600   3.521   3.940 -0.0173 -0.0213 -0.1478
15921W        W20321  16.256   4.375  14.821  0.2207 -0.1098  0.1561
15922W        W20322   4.188   1.481  38.310 -0.1175  0.2285  0.0100
15923W        W20323   5.230   3.514  36.254 -0.0397  0.1849 -0.1712
15924W        W20324  11.624   5.996   7.449 -0.0928  0.3553  0.1682
15925W        W20325  14.781   4.794   5.865 -0.0087  0.3314 -0.2822
15926W        W20326  13.433   1.348  34.763 -0.2093  0.1159 -0.0082
15927W        W20327   6.439   3.812  37.186 -0.0845 -0.1670  0.3451
15928W        W20328   6.843   4.797  21.998 -0.2764 -0.1275  0.0898
15929W        W20329  13.050   5.856  12.125  0.2078  0.1085 -0.0876
15930W        W20330   7.498   5.683  37.354 -0.1456  0.0101  0.2362
15931W        W20331  17.286   5.534  36.147 -0.0772 -0.0660  0.3599
15932W        W20332   4.135   6.423  10.953 -0.1299  0.0037 -0.1634
15933W        W20333  12.358   4.742  32.843  0.2296  0.0201 -0.1515
15934W        W20334  10.686   0.635  19.730 -0.1600  0.1823  0.1116
15935W        W20335  12.892   0.914  30.554 -0.0353 -0.1621  0.2114
15936W        W20336   6.738   4.896   2.448  0.1062 -0.3207  0.3096
15937W        W20337  21.047   1.793  42.051 -0.5146 -0.1776  0.0506
15938W        W20338  10.735   5.405  20.633 -0.0911 -0.0504  0.0510
15939W        W20339  17.833   2.958  16.058  0.1517  0.1168  0.1897
15940W        W20340  19.815   4.022  39.129  0.0112  0.0526 -0.0233
15941W        W20341  16.290   0.704  29.222 -0.1299  0.0742 -0.3012
15942W        W20342  17.765   0.280   9.845 -0.1411  0.0501  0.1280
15943W        W20343  12.581   2.402  39.479 -0.1849 -0.1655 -0.2229
15944W        W20344   0.033   5.480  37.893  0.3665  0.1012 -0.0481
15945W        W20345   7.201   3.108  31.867  0.0557 -0.0368 -0.2417
15946W        W20346  20.173   2.228  31.681  0.1470  0.0347  0.1996
15947W        W20347  11.212   1.930   2.560  0.0188 -0.1544 -0.3186
15948W        W20348  16.709   1.942  36.193 -0.0898 -0.0613  0.0711
15949W        W20349   4.463   5.689  30.724 -0.1520  0.0724  0.1851
15950W        W20350  10.138   3.837  30.095  0.4285  0.3484 -0.1150
15951W        W20351  11.727   5.424   7.533  0.1034  0.1620  0.0926
15952W        W20352   8.141   5.261  30.849  0.1147  0.1438  0.1884
15953W        W20353   0.032   2.277  30.742  0.0935 -0.0342 -0.0246
15954W        W20354   0.260   3.576   9.175  0.0083 -0.0480  0.0243
15955W        W20355  16.523   1.360   5.887  0.1094  0.1824  0.3054
15956W        W20356  12.889   0.799  38.572  0.2508 -0.1096 -0.1819
15957W        W20357   3.288   0.916   7.588  0.2758 -0.0336 -0.0112
15958W        W20358   3.079   1.346   3.617 -0.0578  0.1695  0.0488
15959W        W20359   8.811   4.971  21.827 -0.1063  0.0451 -0.0414
15960W        W20360  14.676   5.343  15.529  0.1055 -0.2695 -0.0180
15961W        W20361   8.471   1.493  37.731 -0.1061 -0.0005  0.0908
15962W        W20362   9.691   1.770  43.940 -0.0914 -0.1756 -0.1631
15963W        W20363   8.134   6.168  33.022  0.1814 -0.2306 -0.0228
15964W        W20364   6.730   0.923  41.971  0.0506 -0.0452 -0.1874
15965W        W20365  17.303   1.971  14.648  0.0391 -0.3147  0.0549
15966W        W20366  15.134   1.498   1.002 -0.3001  0.2311 -0.0560
15967W        W20367  18.042   4.343  10.065 -0.2199  0.0276  0.0979
15968W        W20368  10.760   2.257  15.768  0.4529  0.1569  0.1783
15969W        W20369   7.745   4.497  11.129  0.0668  0.2270 -0.2706
15970W        W20370   6.984   5.988  40.766  0.1791  0.0610  0.0138
15971W        W20371   9.124   3.549  32.715 -0.1040  0.0328  0.1484
15972W        W20372  12.639   1.638  37.215  0.4991  0.0851  0.0775
15973W        W20373   0.514   4.194  13.664  0.0165  0.0655  0.2107
15974W        W20374   4.473   2.875   5.862  0.3282 -0.1829 -0.1250
15975W        W20375   6.817   2.017  31.931 -0.1107  0.0119  0.1207
15976W        W20376  18.425   1.180  35.737  0.3480 -0.2137  0.1850
15977W        W20377   9.899   2.229  35.584  0.1141 -0.1942  0.1009
15978W        W20378   6.498   3.193  11.266 -0.1434 -0.1605  0.1842
15979W        W20379   4.646   2.365  30.592 -0.2374  0.0126 -0.1050
15980W        W20380  17.122   0.476   7.911  0.0845 -0.0369  0.4333
15981W        W20381  13.862   6.143   4.228 -0.0036  0.2331 -0.1282
15982W        W20382   6.103   0.500  41.547  0.0947  0.1093  0.0013
15983W        W20383   9.324   4.884  23.427  0.3378 -0.1552 -0.1965
15984W        W20384   1.989   1.805   8.472 -0.1493  0.3070  0.1521
15985W        W20385  11.751   5.396  43.244  0.0048 -0.3288  0.1809
15986W        W20386  10.084   5.239  21.973  0.0052 -0.0099 -0.1049
15987W        W20387   0.259   6.351  27.481 -0.0045  0.1609 -0.1784
15988W        W20388  10.115   5.747   5.660  0.0961 -0.0049  0.1814
15989W        W20389  15.340   2.943   9.764  0.0940 -0.1168 -0.1055
15990W        W20390  12.228   0.088  13.566  0.2368 -0.0041 -0.1809
15991W        W20391   3.062   0.230  14.540  0.0023 -0.2093  0.1763
15992W        W20392   9.862   2.337  42.660  0.1138  0.2096  0.2919
15993W        W20393  10.242   3.571   0.253  0.2078 -0.0610  0.0402
15994W        W20394   3.565   4.093   7.795  0.1582  0.2266  0.1598
15995W        W20395   0.934   1.263  31.451 -0.0710 -0.0379  0.0083
15996W        W20396  17.875   0.797  14.658 -0.4519  0.2390  0.2919
15997W        W20397  11.305   2.737  18.381 -0.0176  0.0008 -0.5680
15998W        W20398   7.306   1.738   0.354 -0.0492  0.1135 -0.1207
15999W        W20399  10.798   5.214  36.637  0.0495 -0.0780 -0.0046
16000W        W20400  14.206   4.346  33.705  0.5168 -0.5146  0.2047
16001W        W20401  20.700   6.492  29.762 -0.0761 -0.1583 -0.1739
16002W        W20402  18.164   5.458  37.918 -0.1757 -0.0239  0.2565
16003W        W20403  12.292   0.529  31.451  0.2938 -0.1596  0.2815
16004W        W20404  11.552   6.236  32.647 -0.1470  0.1708 -0.1120
16005W        W20405   4.551   1.303  18.715  0.2952 -0.2226  0.0772
16006W        W20406  19.667   5.114  41.693  0.0067  0.0161 -0.3844
16007W        W20407   9.200   0.740  22.493  0.1228 -0.1124 -0.0886
16008W        W20408  15.416   4.694  14.295  0.0265 -0.0894  0.0593
16009W        W20409   4.723   0.282  14.248 -0.3023  0.2648 -0.4393
16010W        W20410  15.599   5.649  25.888  0.2450  0.4037  0.2348
16011W        W20411  13.579   5.415   2.821  0.1258 -0.1569  0.1727
16012W        W20412  10.593   0.459  11.666 -0.2875 -0.1903  0.2015
16013W        W20413  18.571   3.131  27.071  0.2319  0.0596 -0.1171
16014W        W20414  10.462   1.152  11.898  0.2393  0.1968 -0.0268
16015W        W20415   8.506   5.310  33.063  0.2416  0.0054 -0.3564
16016W        W20416   1.851   3.270  29.934  0.0403 -0.1376  0.2612
16017W        W20417  14.878   4.546  11.551 -0.0322 -0.0217 -0.0536
16018W        W20418   9.082   1.679   6.689 -0.0056  0.2227  0.0812
16019W        W20419  19.988   4.148  41.410  0.0013 -0.0821  0.0278
16020W        W20420   0.589   5.553  42.590  0.0075 -0.0727 -0.4335
16021W        W20421  20.068   4.627   9.130 -0.0583 -0.2040 -0.2391
16022W        W20422  17.659   4.794  40.528  0.0617  0.4011  0.0033
16023W        W20423  13.435   6.373  29.015  0.0984 -0.2797  0.1158
16024W        W20424   1.461   3.924  27.151 -0.1099  0.2263  0.0892
16025W        W20425   3.499   1.453  32.651  0.1078  0.1728  0.0453
16026W        W20426   2.510   5.387  12.407  0.1868  0.1062 -0.0108
16027W        W20427  13.806   4.547   2.438  0.0383  0.3389 -0.1247
16028W        W20428   2.475   6.481  41.040 -0.2730 -0.2207 -0.0855
16029W        W20429  18.582   1.964  43.312 -0.2341 -0.1063 -0.0958
16030W        W20430   0.587   2.934   0.539  0.1837 -0.6302 -0.2528
16031W        W20431   8.259   5.749  23.928  0.1128 -0.1873  0.1031
16032W        W20432   9.959   1.379  36.672 -0.1272 -0.3114 -0.0644
16033W        W20433  10.645   0.914  42.075  0.3136 -0.1928  0.2712
16034W        W20434  14.336   0.073  15.004 -0.1915 -0.2516  0.0004
16035W        W20435   5.706   5.394  18.289  0.0407 -0.3270  0.5053
16036W        W20436   2.608   0.894  32.364  0.1521  0.0503 -0.0830
16037W        W20437   0.095   4.507   0.900  0.0333  0.1611  0.1229
16038W        W20438   9.439   6.239  34.577 -0.0240  0.0526  0.1140
16039W        W20439  12.167   1.096   2.921 -0.1271  0.0315  0.0883
16040W        W20440   9.373   4.025   4.744  0.0239 -0.1701 -0.1316
16041W        W20441  10.299   1.626  11.581  0.0970  0.0068 -0.3493
16042W        W20442  17.685   2.838  10.755 -0.2088 -0.0095 -0.2472
16043W        W20443   8.808   4.606   2.244  0.2225 -0.2762  0.1985
16044W        W20444   3.523   5.904   1.259 -0.1687  0.2393 -0.1608
16045W        W20445  16.026   5.111   9.798  0.1844  0.1399  0.1410
16046W        W20446  12.003   5.289   1.625  0.1535  0.2514  0.1959
16047W        W20447  14.617   2.655  15.544  0.2293  0.0897  0.1558
16048W        W20448   1.255   4.798  26.601  0.1089  0.4305  0.0214
16049W        W20449   4.994   5.918  42.319  0.3094 -0.0421 -0.0046
16050W        W20450  10.850   2.178  30.570 -0.1160  0.0438  0.1216
16051W        W20451   9.294   4.498  22.434  0.0916 -0.0663 -0.0863
16052W        W20452   6.880   1.980   0.635 -0.0387 -0.1707 -0.1046
16053W        W20453  10.203   2.670  18.362  0.3842  0.1291  0.1930
16054W        W20454  10.452   0.993   3.578  0.0486 -0.2233 -0.1641
16055W        W20455   1.052   1.545   1.987  0.1215  0.0196 -0.1135
16056W        W20456  12.258   0.294  19.570  0.2298  0.1201 -0.0811
16057W        W20457  15.581   4.333  16.153 -0.0009  0.1266 -0.2796
16058W        W20458   5.644   2.992  10.296  0.0499 -0.3796 -0.1103
16059W        W20459   9.117   1.015  38.631  0.1093  0.0021 -0.1551
16060W        W20460   7.929   2.670  34.502  0.2750  0.1412  0.2055
16061W        W20461   6.747   3.117   6.108 -0.1189  0.2160  0.1548
16062W        W20462  11.264   2.972  12.567  0.0317  0.0709 -0.1132
16063W        W20463  17.733   2.817  38.433 -0.2126  0.3763  0.0421
16064W        W20464  11.501   5.859  30.169  0.0692  0.1899  0.2986
16065W        W20465   7.570   5.785  19.708 -0.1791 -0.3081  0.1596
16066W        W20466  11.730   4.024  31.283 -0.0802  0.2254  0.0502
16067W        W20467  17.125   1.802  15.431 -0.0391 -0.2201 -0.1891
16068W        W20468  17.438   6.388  23.735  0.1743 -0.1562  0.1522
16069W        W20469   5.275   5.157  35.411  0.0848 -0.0922 -0.2539
16070W        W20470  19.029   4.504  26.140  0.0009  0.1628 -0.2823
16071W        W20471  19.241   5.104  14.104  0.1440  0.2142  0.1777
16072W        W20472  20.453   5.394  28.561  0.1478 -0.1566  0.0709
16073W        W20473  16.319   4.153  35.258 -0.0513 -0.1655 -0.0040
16074W        W20474  20.762   0.318  10.573 -0.0374  0.1912  0.0908
16075W        W20475   4.397   2.265   0.099 -0.1092 -0.0440 -0.0676
16076W        W20476  14.597   2.934   4.629 -0.3007 -0.2119 -0.1628
16077W        W20477  20.738   4.604  13.150 -0.0578  0.0018  0.3297
16078W        W20478   2.668   1.765   6.959 -0.0162 -0.0495  0.0648
16079W        W20479  20.088   4.970  41.095 -0.1715 -0.0092 -0.3160
16080W        W20480  20.090   1.103   8.852 -0.1285 -0.0911 -0.1487
16081W        W20481  18.854   0.678  10.098  0.1347  0.1987 -0.0545
16082W        W20482  12.242   1.122  28.605 -0.0076  0.0345 -0.0944
16083W        W20483  19.678   6.419   0.852 -0.3038 -0.0232 -0.0482
16084W        W20484   6.636   3.968   4.067  0.3498  0.1301  0.3027
16085W        W20485   3.018   2.981  29.284  0.3935  0.2949 -0.0904
16086W        W20486   7.985   0.293   9.656  0.1530 -0.4147  0.1350
16087W        W20487  12.994   3.226  17.471  0.3630  0.1361 -0.1712
16088W        W20488   2.039   5.791  15.651  0.1158 -0.0834 -0.0465
16089W        W20489  18.771   2.205  34.347 -0.0459 -0.1073  0.1925
16090W        W20490  17.917   5.963  32.218 -0.0620  0.2604  0.1556
16091W        W20491   1.531   1.622   2.015  0.1884 -0.0195 -0.1500
16092W        W20492  12.488   2.919  38.091 -0.3129  0.0681  0.0876
16093W        W20493  11.834   1.169  10.559 -0.1620  0.3538 -0.3561
16094W        W20494  15.311   4.403  43.892 -0.0556  0.2828 -0.2983
16095W        W20495  17.840   5.351   2.180  0.1611  0.2040 -0.1000
16096W        W20496  18.149   3.129  15.687  0.2101  0.1797 -0.2314
16097W        W20497  12.396   3.499   7.733 -0.0269  0.1860 -0.0204
16098W        W20498   8.095   5.444  12.476 -0.0669  0.1774  0.1233
16099W        W20499  15.469   5.270  34.637  0.1547  0.0690 -0.1589
16100W        W20500   7.372   0.251  12.638 -0.0818 -0.1907  0.0128
16101W        W20501   7.062   4.572   1.585  0.1662 -0.1037  0.0984
16102W        W20502  14.432   2.642   0.451 -0.0639 -0.3373 -0.3678
16103W        W20503   0.601   5.652  15.538  0.1875 -0.1103 -0.1610
16104W        W20504  16.454   2.433  35.999 -0.2527  0.2964  0.0291
16105W        W20505  15.170   0.360  41.535  0.2637  0.0816  0.2998
16106W        W20506  12.144   2.629   0.616  0.1038  0.1570 -0.0120
16107W        W20507  16.539   5.727  39.107  0.0633  0.1313  0.2779
16108W        W20508  15.273   6.030   7.698 -0.1590  0.0995  0.1155
16109W        W20509  17.277   1.416  10.769 -0.0203  0.0219 -0.1562
16110W        W20510  17.400   0.989  34.043  0.0382 -0.1225  0.1015
16111W        W20511   5.988   0.644  40.370  0.0608 -0.0466  0.0476
16112W        W20512  15.849   3.220  38.987  0.0584  0.1237 -0.1330
16113W        W20513  19.534   0.320  25.767 -0.3477 -0.0795 -0.1309
16114W        W20514  13.119   3.856  43.399 -0.2137  0.1192  0.0042
16115W        W20515  18.649   2.402   1.385  0.4080  0.1893 -0.1737
16116W        W20516   4.589   6.331   5.587 -0.2652 -0.0941  0.0485
16117W        W20517  10.672   3.303  42.689 -0.1933  0.0477 -0.3202
16118W        W20518  15.528   2.603  13.400  0.1504 -0.0247  0.2439
16119W        W20519  13.129   5.414  43.170 -0.0833  0.1489 -0.0522
16120W        W20520   2.083   5.700  17.300  0.0405 -0.0074 -0.0865
16121W        W20521  20.677   4.944   8.503 -0.0235  0.1137 -0.0204
16122W        W20522  10.324   3.335  11.542 -0.0294  0.0891 -0.0000
16123W        W20523  20.325   2.781  21.664 -0.1435  0.2320 -0.0180
16124W        W20524   3.210   4.818  44.633  0.1980 -0.1458 -0.1126
16125W        W20525   8.145   4.587  40.331  0.0090  0.0805 -0.1825
16126W        W20526  16.021   3.542  29.673  0.0282  0.1570 -0.0509
16127W        W20527  15.496   2.057  13.372  0.0113  0.0322  0.1670
16128W        W20528   0.197   4.224  35.230  0.1844 -0.0285  0.0666
16129W        W20529   1.229   0.507  39.781  0.0362  0.1811 -0.1261
16130W        W20530  15.043   3.869   8.385 -0.3143  0.4367 -0.0389
16131W        W20531   1.747   2.513   5.230  0.0399  0.0787 -0.0423
16132W        W20532  15.479   3.187  32.052  0.0772 -0.1587  0.3788
16133W        W20533  11.332   5.175   4.803 -0.0323 -0.0819  0.2011
16134W        W20534  19.630   3.940  25.874  0.5307 -0.0365 -0.0266
16135W        W20535   3.581   5.236  17.361  0.1174 -0.1323 -0.1510
16136W        W20536  15.371   3.640  29.627 -0.1252 -0.2710  0.3584
16137W        W20537  10.081   6.193  41.485  0.2131  0.1882 -0.1538
16138W        W20538  10.083   6.582  23.256 -0.0743  0.2617 -0.0626
16139W        W20539  11.855   0.433  10.923 -0.1071  0.0113  0.0446
16140W        W20540   4.387   6.074  34.461  0.2858  0.1730  0.2575
16141W        W20541  18.172   2.644  16.202 -0.1106 -0.0004 -0.0243
16142W        W20542  20.680   1.280  32.414 -0.1060 -0.1509  0.1230
16143W        W20543  14.239   1.091  39.800  0.2921 -0.0650  0.0209
16144W        W20544  19.344   2.497  11.539 -0.2500 -0.0827 -0.2178
16145W        W20545   9.022   6.496  42.015 -0.0896  0.2668 -0.0674
16146W        W20546  20.321   2.390  11.176 -0.2781  0.2547  0.0168
16147W        W20547  11.067   4.904  13.566  0.3220 -0.0016 -0.0388
16148W        W20548   5.531   5.155  32.799 -0.0519  0.0504 -0.0743
16149W        W20549  10.260   4.222   4.506 -0.4501 -0.2651 -0.3569
16150W        W20550   7.989   3.539  20.394  0.0835 -0.1480  0.1505
16151W        W20551   3.530   3.021  35.368  0.0504  0.0372  0.2645
16152W        W20552  15.948   5.544  10.617 -0.1129 -0.2247 -0.0756
16153W        W20553  12.957   3.183   5.079 -0.2980 -0.0925 -0.0551
16154W        W20554   4.218   3.397  14.157  0.1141 -0.2024  0.2010
16155W        W20555   3.909   3.953   0.462 -0.0789  0.1234  0.1101
16156W        W20556  16.565   6.486   8.389  0.0286 -0.1517  0.2447
16157W        W20557   4.706   2.769  15.625  0.2464 -0.1452 -0.2216
16158W        W20558  19.746   4.871  43.759  0.1118  0.2348  0.1032
16159W        W20559  19.124   2.682  37.323  0.2281 -0.3116  0.0659
16160W        W20560   6.872   4.435   7.963 -0.4340  0.1338 -0.0270
16161W        W20561  14.129   5.149   7.661  0.1189 -0.0759  0.0607
16162W        W20562   4.117   5.156  30.992  0.2001 -0.0610  0.1756
16163W        W20563  17.240   5.413   6.466 -0.1870 -0.0566 -0.0838
16164W        W20564  11.755   1.649   8.209 -0.1397 -0.2454 -0.2276
16165W        W20565   4.695   2.980   7.048  0.0302  0.1488  0.4629
16166W        W20566   8.261   3.357  39.208  0.0219  0.1302  0.0732
16167W        W20567  11.026   2.514  13.958 -0.3178  0.0899 -0.1965
16168W        W20568  20.307   2.399   8.397  0.0259 -0.2909 -0.1037
16169W        W20569  18.703   3.100   2.773 -0.0901  0.1696  0.0737
16170W        W20570   8.769   4.929  32.877  0.1618 -0.0691  0.0566
16171W        W20571  12.780   3.183  34.787  0.1917  0.0047  0.1453
16172W        W20572  12.122   2.937  39.302 -0.1360 -0.3281 -0.0418
16173W        W20573  12.664   2.869  17.638 -0.0817 -0.1669 -0.0740
16174W        W20574   7.713   4.811  17.275  0.3123 -0.0851  0.2583
16175W        W20575   7.673   4.847  11.730 -0.1290  0.0622  0.2064
16176W        W20576  18.334   3.777  21.927  0.0302 -0.0728  0.3822
16177W        W20577  14.553   6.051  35.407  0.1949  0.0590  0.1861
16178W        W20578  14.959   6.537  38.898 -0.0052  0.1301 -0.0425
16179W        W20579  16.729   3.478   6.227  0.1645 -0.1701 -0.1866
16180W        W20580  14.974   0.185  43.954 -0.2158  0.1420 -0.0355
16181W        W20581  15.238   5.306  11.394 -0.2621  0.0875  0.1115
16182W        W20582  18.443   1.123  43.242  0.3819  0.2705 -0.0316
16183W        W20583  17.933   0.073  35.760 -0.0540 -0.1063 -0.0737
16184W        W20584   3.431   4.957   5.737 -0.0036 -0.1560 -0.1149
16185W        W20585   6.742   3.656  34.058  0.0354  0.0851  0.0919
16186W        W20586   9.672   4.453  38.276 -0.0124 -0.0328  0.1573
16187W        W20587   0.051   4.617  34.834  0.3429 -0.0582 -0.4120
16188W        W20588   3.703   4.401  26.559 -0.2679  0.3007 -0.1353
16189W        W20589   5.775   6.160  20.295 -0.1777 -0.0630 -0.1534
16190W        W20590   9.191   1.758  10.298 -0.1969  0.0687 -0.1493
16191W        W20591   1.359   3.036  43.259 -0.1829  0.2587 -0.0974
16192W        W20592  10.237   0.493  24.197 -0.0662 -0.0006  0.2348
16193W        W20593  20.076   1.497  15.455  0.2506  0.1600 -0.1726
16194W        W20594   7.322   4.575  39.296 -0.0099  0.1528  0.3733
16195W        W20595   9.629   5.499  19.651 -0.1951  0.0186 -0.0892
16196W        W20596   4.544   2.198  38.104  0.1537 -0.0657  0.2915
16197W        W20597  10.647   0.067  18.799  0.0040  0.2900 -0.3006
16198W        W20598   9.072   2.952  42.100  0.0194  0.2479  0.2087
16199W        W20599  19.334   0.578   9.493 -0.1617  0.5091 -0.1518
16200W        W20600  15.297   6.264  27.255  0.1544  0.4325  0.2933
16201W        W20601   9.285   2.433  41.065  0.2740 -0.1213  0.1518
16202W        W20602   8.368   2.092  33.638 -0.0560 -0.0070 -0.0788
16203W        W20603   7.295   0.737  34.785 -0.2982  0.0239  0.0074
16204W        W20604  11.220   5.704  12.173  0.0096  0.1257  0.2354
16205W        W20605  20.665   6.024  44.286 -0.0075 -0.3043 -0.0444
16206W        W20606  19.140   1.621  21.633 -0.1985 -0.2109  0.1598
16207W        W20607   8.784   4.360  41.407 -0.1999 -0.3241  0.0353
16208W        W20608   2.913   4.202  40.597  0.1209  0.0913 -0.0442
16209W        W20609   4.493   6.436  43.636  0.2522  0.0699  0.3463
16210W        W20610  20.809   5.017   3.861 -0.3703 -0.3858 -0.0507
16211W        W20611   8.879   2.316   7.365  0.0793  0.0130  0.0773
16212W        W20612  14.157   1.409  15.022  0.0737  0.2146 -0.4385
16213W        W20613   4.793   0.656   9.823 -0.0066  0.0020 -0.1024
16214W        W20614  15.818   0.720   0.298  0.0262 -0.1656  0.2155
16215W        W20615   3.134   4.207   1.188 -0.2049 -0.3299 -0.0588
16216W        W20616  12.443   2.570   4.573 -0.2961 -0.1746  0.2578
16217W        W20617   0.734   3.222  30.542  0.2050  0.2465  0.1985
16218W        W20618   6.488   2.265  35.800 -0.0588  0.0155  0.1127
16219W        W20619  11.909   0.135  32.099  0.0469  0.1299 -0.1783
16220W        W20620  16.889   4.825   5.267 -0.2057  0.3649  0.0857
16221W        W20621  15.589   3.243  31.013 -0.2728 -0.0752  0.1255
16222W        W20622  19.554   0.436  26.239 -0.2539 -0.1483  0.2480
16223W        W20623   2.507   4.309  41.370 -0.0982 -0.1645  0.2915
16224W        W20624  14.835   4.195   9.505  0.1572  0.0774 -0.0817
16225W        W20625   7.026   5.576  38.623  0.2233  0.1001 -0.0786
16226W        W20626  16.289   5.375  25.335  0.2088 -0.0462  0.0870
16227W        W20627  18.272   4.944  13.242  0.0440  0.0781 -0.0149
16228W        W20628  18.146   3.476   8.509 -0.0189  0.0338  0.1457
16229W        W20629   5.953   1.821  38.217 -0.1572  0.1322  0.0037
16230W        W20630  14.599   2.459  29.858 -0.3215  0.0859 -0.2605
16231W        W20631  13.327   5.662  39.018  0.1999  0.2664  0.0375
16232W        W20632  15.086   5.495  10.413  0.2201 -0.1581 -0.3884
16233W        W20633   6.898   3.020  36.777 -0.1873 -0.0106  0.3969
16234W        W20634  18.483   3.975  41.785 -0.0887 -0.0389  0.0171
16235W        W20635  20.977   6.516  11.822  0.1262  0.3107 -0.4546
16236W        W20636  18.848   4.194  28.095  0.2062  0.0324  0.0251
16237W        W20637   0.172   5.104  12.240  0.1383 -0.1280  0.0200
16238W        W20638   4.069   3.385   2.512  0.0347  0.0293  0.0148
16239W        W20639   4.921   4.290   7.843 -0.0515 -0.3776 -0.1573
16240W        W20640  11.798   1.226  14.038  0.3599  0.6313  0.2790
16241W        W20641   8.481   3.026  20.163  0.2973 -0.2726 -0.1598
16242W        W20642   8.938   2.257  34.663  0.0713 -0.2702  0.0866
16243W        W20643   7.319   4.018  29.225  0.0515  0.0318 -0.3101
16244W        W20644  11.817   3.818  21.237  0.1793 -0.2324  0.1966
16245W        W20645   8.561   1.308  11.580  0.0710 -0.2837 -0.0527
16246W        W20646  19.096   4.526  33.287 -0.2101 -0.0266 -0.0641
16247W        W20647   7.918   1.829   3.808 -0.1823 -0.1790  0.1613
16248W        W20648   7.930   0.213  22.385  0.1456  0.0006  0.0406
16249W        W20649  19.317   1.961  10.603 -0.0925  0.1353  0.0714
16250W        W20650   7.388   1.678  43.223  0.3715 -0.0161 -0.2693
16251W        W20651   9.265   5.481   0.016  0.1260 -0.0756 -0.4117
16252W        W20652   7.222   5.060  11.659  0.1813 -0.0436  0.0806
16253W        W20653   3.699   1.425   2.263 -0.0877  0.0957 -0.1476
16254W        W20654   8.596   2.341  13.858 -0.0619  0.3029 -0.2065
16255W        W20655  11.365   4.719   6.998  0.1284 -0.2128  0.0832
16256W        W20656   7.909   2.446   5.652  0.0060  0.1279  0.1501
16257W        W20657   0.867   5.219  10.323 -0.0186  0.0805  0.2411
16258W        W20658  13.664   3.136  44.172 -0.3448  0.1246 -0.0365
16259W        W20659   2.054   5.835  44.026  0.3100 -0.0736 -0.1437
16260W        W20660  13.882   0.146  40.610  0.1809  0.0866  0.2930
16261W        W20661   8.081   0.479  10.524 -0.0762  0.2214  0.1406
16262W        W20662  19.810   4.584  27.019  0.0392 -0.0560 -0.0251
16263W        W20663   2.300   1.908  28.857 -0.0234  0.1831 -0.0112
16264W        W20664   2.606   6.527   4.443  0.2237 -0.0963 -0.2412
16265W        W20665   4.653   0.987  27.612 -0.0032  0.0724  0.0130
16266W        W20666   1.236   0.811   6.238  0.1320 -0.1438  0.0998
16267W        W20667  14.915   1.471  29.940 -0.0570 -0.0282  0.1516
16268W        W20668  14.622   5.415  34.739 -0.0656 -0.2733 -0.1318
16269W        W20669  18.159   3.544  36.274 -0.0318 -0.0837  0.0454
16270W        W20670  17.373   4.852  35.509 -0.2301  0.0049 -0.0586
16271W        W20671   3.486   4.056  44.256 -0.0993 -0.1716 -0.2186
16272W        W20672  14.456   5.938   4.309 -0.1463 -0.2127 -0.1393
16273W        W20673  17.728   3.924   4.165 -0.1180 -0.1720 -0.1368
16274W        W20674   5.630   2.260  11.024  0.3901 -0.0226 -0.1102
16275W        W20675   9.788   6.474   1.998 -0.2084 -0.1859  0.2689
16276W        W20676   1.055   1.056  25.654 -0.0023 -0.0998 -0.0042
16277W        W20677  15.437   2.559  32.497  0.0355 -0.1878  0.1740
16278W        W20678  11.158   0.092  33.737 -0.0027 -0.0490 -0.2294
16279W        W20679   5.206   5.289  33.551 -0.1270  0.0327  0.2068
16280W        W20680   3.148   2.590  32.365  0.2608 -0.2050 -0.0583
16281W        W20681   0.973   5.217  34.061 -0.1209  0.2369 -0.3914
16282W        W20682  12.232   5.697   0.817 -0.2186  0.1850 -0.1073
16283W        W20683  18.786   4.271  26.980  0.0715  0.3495 -0.3869
16284W        W20684  12.457   2.433  18.856 -0.2237  0.1929 -0.1311
16285W        W20685   6.978   3.151  10.690 -0.0308 -0.0805 -0.1135
16286W        W20686   8.038   4.283  19.375  0.2258 -0.2409 -0.1078
16287W        W20687  20.405   4.091  10.369 -0.1766 -0.0345 -0.1319
16288W        W20688   8.806   5.960  33.758 -0.2014 -0.1671 -0.2081
16289W        W20689   6.603   3.555  34.595 -0.2028  0.0243  0.0348
16290W        W20690  14.462   1.078  44.138 -0.1145 -0.0943 -0.0934
16291W        W20691   7.153   4.187  32.877 -0.1721  0.0289  0.0057
16292W        W20692   7.622   0.291  36.903 -0.0349 -0.1591 -0.1303
16293W        W20693   9.450   3.136  18.095  0.4107  0.1975  0.0003
16294W        W20694  19.789   0.307  33.984  0.1225 -0.3561 -0.0164
16295W        W20695  21.029   3.849  40.820  0.3528  0.2117  0.2064
16296W        W20696  17.501   3.319  25.351  0.0034  0.1478 -0.1473
16297W        W20697  19.614   5.312  37.982  0.0742 -0.2027  0.0242
16298W        W20698   7.428   4.946   1.589  0.1491  0.1457  0.2484
16299W        W20699   8.546   6.068   8.709 -0.0946  0.0083 -0.0390
16300W        W20700   4.631   0.357   6.826 -0.1202  0.1069  0.2697
16301W        W20701   6.358   1.346   9.433  0.0094 -0.2578  0.0231
16302W        W20702  20.311   4.851  11.798  0.1262 -0.0494 -0.2177
16303W        W20703  11.715   5.677  34.560  0.2893 -0.2966  0.6092
16304W        W20704  19.716   2.529  24.927 -0.0803 -0.1146  0.3163
16305W        W20705  12.467   6.127   5.421  0.0109  0.1699 -0.0621
16306W        W20706  15.682   1.745  39.807 -0.0598 -0.1664 -0.0474
16307W        W20707   2.189   5.828   2.909  0.0604 -0.1485 -0.0477
16308W        W20708   7.270   1.979   1.451 -0.0093 -0.1377 -0.3713
16309W        W20709  10.436   0.703  32.164 -0.0611 -0.1454 -0.2075
16310W        W20710  13.160   6.277   1.072  0.0635  0.0017 -0.0479
16311W        W20711   0.818   2.573  28.148  0.2612  0.1238 -0.1654
16312W        W20712  18.041   0.101   6.402 -0.0310  0.2858  0.1746
16313W        W20713  10.533   1.822  45.046 -0.1230 -0.2669  0.2267
16314W        W20714  11.347   2.226  39.541 -0.1187  0.0679 -0.2459
16315W        W20715   1.300   3.743  30.102  0.0152  0.4707  0.1497
16316W        W20716  13.162   3.836  20.100 -0.0903  0.1199  0.1721
16317W        W20717   8.410   6.125  41.199 -0.0822 -0.2499  0.1932
16318W        W20718  18.609   1.549  42.359 -0.1372  0.1461  0.0831
16319W        W20719   6.238   1.925   9.414  0.1191  0.3874 -0.0309
16320W        W20720  12.848   3.845  16.077  0.2227 -0.0468 -0.0959
16321W        W20721   8.864   0.660  18.471 -0.0551  0.1708  0.0311
16322W        W20722  18.027   2.800  40.762  0.2226 -0.0479  0.0551
16323W        W20723   6.642   1.390  30.567 -0.1370 -0.1483 -0.0222
16324W        W20724  19.418   1.900  33.741 -0.1082 -0.2645 -0.1439
16325W        W20725   0.327   2.451  29.089 -0.0507  0.1726  0.2106
16326W        W20726   9.349   0.366  10.759  0.2149 -0.3508 -0.0849
16327W        W20727  12.010   3.310   7.494  0.0922 -0.1797 -0.3270
16328W        W20728  12.571   0.465   8.537 -0.1631  0.1759 -0.1478
16329W        W20729  10.227   2.053  31.841 -0.0196  0.0926 -0.0629
16330W        W20730   9.920   0.254  13.975 -0.0607  0.4345  0.0942
16331W        W20731  21.120   2.489  22.920 -0.1504  0.0260  0.2621
16332W        W20732   7.111   2.770  39.422 -0.0088  0.2301  0.0014
16333W        W20733   6.340   4.459  33.182  0.0130  0.0493  0.5127
16334W        W20734   7.160   0.544  13.749  0.2496 -0.1408  0.1516
16335W        W20735  12.696   6.521  33.851  0.3599 -0.4546 -0.3340
16336W        W20736  20.251   6.399  42.967  0.2227 -0.0188 -0.0357
16337W        W20737  11.135   5.851   5.496 -0.3102 -0.0094  0.0283
16338W        W20738  15.094   1.080   8.098 -0.2673 -0.2381 -0.0383
16339W        W20739  17.437   3.854  13.783  0.1584  0.0629  0.0847
16340W        W20740   1.320   3.436   0.768 -0.4425  0.1144 -0.2070
16341W        W20741   7.453   0.299  16.053 -0.1101 -0.1810  0.1969
16342W        W20742  16.523   0.106  37.542 -0.0692 -0.2368  0.3208
16343W        W20743   5.266   3.821  41.967  0.0176 -0.0708 -0.0646
16344W        W20744  15.014   4.992  26.984  0.3215 -0.0531 -0.0421
16345W        W20745   0.152   6.354  35.092 -0.0995 -0.1539 -0.1221
16346W        W20746   1.423   2.801  11.772 -0.0474 -0.1345  0.1941
16347W        W20747  19.038   2.999  15.764 -0.1033 -0.1592  0.0778
16348W        W20748  16.016   4.441   5.102 -0.0591  0.1447 -0.1048
16349W        W20749  14.707   3.149  33.528 -0.0508 -0.0723 -0.0167
16350W        W20750  13.634   0.659  16.167 -0.0128 -0.3076  0.1502
16351W        W20751   9.893   5.794  11.716 -0.0535 -0.3398  0.0998
16352W        W20752  13.065   6.560   4.799  0.2026  0.1844 -0.0742
16353W        W20753   7.197   2.839  17.068 -0.0629  0.0030 -0.1135
16354W        W20754  12.757   6.205  29.825 -0.0407  0.0786 -0.0068
16355W        W20755   6.668   3.646  40.445 -0.1566 -0.1519 -0.2349
16356W        W20756   9.239   0.066  11.171  0.2652  0.3499 -0.1817
16357W        W20757  16.402   2.393  29.117  0.3109 -0.0056  0.0307
16358W        W20758   5.615   4.006  13.214 -0.0695  0.2074 -0.3948
16359W        W20759   7.340   2.854  34.762 -0.0941 -0.1995 -0.1318
16360W        W20760  18.600   0.910  31.528  0.2922 -0.0961 -0.1049
16361W        W20761  17.202   5.252  31.963  0.1934 -0.0384  0.1019
16362W        W20762  13.166   4.783  17.245 -0.3630 -0.2706  0.1955
16363W        W20763  15.438   3.568  42.755  0.2858 -0.3912  0.3012
16364W        W20764  13.982   2.348  17.625  0.0684  0.0660 -0.1254
16365W        W20765  18.847   6.091  35.468 -0.0100 -0.4451  0.0150
16366W        W20766  12.910   6.302  37.441  0.1219  0.2815 -0.0936
16367W        W20767  11.320   1.018  34.723 -0.0967  0.0414 -0.2025
16368W        W20768  16.460   2.664  42.676 -0.1277 -0.0998 -0.1237
16369W        W20769   3.157   2.477   0.268  0.0289  0.6086  0.1823
16370W        W20770   6.272   0.700  36.706  0.0779 -0.1096  0.0361
16371W        W20771  10.314   2.371  14.055  0.0413  0.2031 -0.0289
16372W        W20772   5.096   4.426  32.407 -0.0923 -0.0049 -0.2818
16373W        W20773  10.500   2.358  22.892 -0.0786  0.0725  0.2234
16374W        W20774   1.858   0.607   3.003 -0.1966  0.2916 -0.0100
16375W        W20775  19.754   1.349  34.996 -0.1592  0.1823 -0.2649
16376W        W20776   8.630   3.886  38.682 -0.0448 -0.0805  0.1500
16377W        W20777  12.562   5.939   8.579  0.0853 -0.0829  0.2749
16378W        W20778  15.282   4.410  31.150  0.1659 -0.3728  0.1620
16379W        W20779  16.800   3.729   4.465 -0.1221 -0.0154 -0.0159
16380W        W20780  14.355   2.644  17.863 -0.1964  0.0630  0.1855
16381W        W20781  15.084   0.818  41.800  0.0099 -0.0186 -0.2930
16382W        W20782  18.174   4.543  12.533  0.1261  0.0464  0.3798
16383W        W20783   4.999   4.530  39.831 -0.0972  0.1569 -0.0886
16384W        W20784   0.046   3.874  23.174  0.1328  0.2947 -0.1634
16385W        W20785  11.980   0.578   3.167 -0.1004 -0.0745  0.1161
16386W        W20786  11.677   5.573  17.794  0.3372  0.1545 -0.0118
16387W        W20787  12.774   1.995  40.502  0.1221 -0.1587 -0.0163
16388W        W20788  16.602   0.539  28.038  0.0300 -0.0730  0.2168
16389W        W20789  17.816   0.438   4.978 -0.1715 -0.3123  0.2599
16390W        W20790   1.735   2.649  12.824 -0.2820  0.2482  0.0671
16391W        W20791  12.639   3.780  39.665  0.2639 -0.0223 -0.0915
16392W        W20792  19.110   2.910   8.512 -0.0604  0.0345  0.0554
16393W        W20793   5.953   4.661  10.004  0.1001  0.1186  0.0722
16394W        W20794  16.656   1.757   2.304  0.0260 -0.1480  0.1707
16395W        W20795   5.894   2.084   9.774  0.0931 -0.1152 -0.0030
16396W        W20796   5.478   6.591  39.455  0.0795  0.1428 -0.1562
16397W        W20797  16.487   3.699  27.888 -0.0070  0.1494  0.0419
16398W        W20798   3.613   4.880  44.918 -0.2033  0.0604 -0.0792
16399W        W20799   1.820   5.351   8.368  0.0441  0.1386 -0.1751
16400W        W20800  19.347   0.415  31.604 -0.0342  0.1474  0.3927
16401W        W20801   9.284   5.851  40.472 -0.3113 -0.0136  0.1011
16402W        W20802   1.853   0.011   1.563 -0.2985 -0.2892  0.0025
16403W        W20803   9.884   5.803  10.763  0.0403 -0.1722  0.1045
16404W        W20804  13.506   1.298  38.937 -0.1802 -0.1487  0.0838
16405W        W20805   2.394   4.477  37.437 -0.1269 -0.2585 -0.2245
16406W        W20806  10.543   0.698  20.392  0.0719  0.0102 -0.4272
16407W        W20807   3.691   4.500  37.614  0.2368  0.1431 -0.2116
16408W        W20808   1.972   1.814   1.079  0.1057 -0.1484 -0.1039
16409W        W20809   3.492   1.099  36.138  0.2774  0.0252 -0.1592
16410W        W20810  12.120   4.214  35.480  0.0209 -0.0536  0.2871
16411W        W20811  19.324   6.089  23.654  0.0419 -0.2527 -0.0464
16412W        W20812   7.338   2.067  33.624  0.1978 -0.2014 -0.0766
16413W        W20813  13.071   4.929  34.873  0.3024  0.2118 -0.3106
16414W        W20814  15.078   0.123  28.220 -0.0258  0.2831  0.1213
16415W        W20815  18.564   2.979  24.436  0.0053  0.0599 -0.2720
16416W        W20816   8.628   4.801  40.888  0.2134  0.2130 -0.2279
16417W        W20817   4.348   2.115  18.465  0.2058  0.1555 -0.0986
16418W        W20818  10.356   5.534  29.081 -0.0138 -0.0640 -0.0694
16419W        W20819   9.160   0.347  11.569  0.1266 -0.0882  0.0518
16420W        W20820   4.524   5.595   4.375 -0.2632  0.0865 -0.3678
16421W        W20821  16.909   2.680  31.614  0.0393  0.3678  0.1788
16422W        W20822   8.635   1.295  18.827 -0.2932 -0.6831 -0.1609
16423W        W20823  14.225   6.367  34.544 -0.1045 -0.1741 -0.1726
16424W        W20824  13.598   5.263  14.396  0.1407 -0.1417 -0.0586
16425W        W20825  18.932   1.159  14.747 -0.0219 -0.1077 -0.0444
16426W        W20826   9.742   5.064  12.813 -0.0587 -0.1633 -0.2310
16427W        W20827  11.365   5.177  17.017 -0.2027 -0.0320 -0.1942
16428W        W20828   1.134   2.986  26.277  0.1514  0.0380  0.0122
16429W        W20829   4.263   0.749  37.617  0.4255  0.1198 -0.2849
16430W        W20830  12.573   0.840  29.472 -0.1634  0.3391  0.1208
16431W        W20831  13.786   5.382  30.657  0.1431  0.2190 -0.1302
16432W        W20832  15.605   2.051  14.184 -0.2344 -0.1049 -0.3058
16433W        W20833  10.232   1.184  32.274  0.1152 -0.2903  0.3371
16434W        W20834  20.601   2.672  40.130 -0.1653 -0.0754 -0.0850
16435W        W20835   9.525   4.383  30.294  0.0605 -0.0026 -0.0983
16436W        W20836  16.245   0.992  37.155 -0.1975  0.2268  0.0820
16437W        W20837   6.440   1.281  16.584 -0.3031  0.1240 -0.4473
16438W        W20838   5.722   5.060   0.956  0.1979  0.1689  0.4800
16439W        W20839   5.987   5.211   6.232 -0.1988 -0.0333  0.4351
16440W        W20840  16.977   0.351  35.652 -0.2834 -0.0079  0.0093
16441W        W20841  18.987   0.823   3.871 -0.2850 -0.1586 -0.3527
16442W        W20842   5.077   3.055  28.664  0.1975  0.1062  0.0445
16443W        W20843  13.498   2.620  39.573  0.1914 -0.0708 -0.0012
16444W        W20844   3.190   0.746  17.132 -0.0935 -0.0304  0.2458
16445W        W20845   9.325   2.595  35.375 -0.1156  0.1439  0.1269
16446W        W20846   8.445   6.070  19.042  0.0325 -0.2450  0.1347
16447W        W20847  10.164   0.134  10.342 -0.1328  0.1168 -0.0737
16448W        W20848   8.277   1.427  17.554  0.0559  0.1121  0.0703
16449W        W20849  14.350   3.583  28.082  0.0147  0.0486  0.0717
16450W        W20850  15.895   3.137  29.944  0.4623 -0.2318 -0.2419
16451W        W20851   1.217   2.892  42.375  0.1517 -0.0874 -0.1531
16452W        W20852  13.937   2.266   1.052  0.0366 -0.0841 -0.0608
16453W        W20853  12.229   2.418  37.166 -0.1718  0.0595  0.3359
16454W        W20854   1.408   0.138  41.709 -0.2731  0.0441  0.1922
16455W        W20855   6.041   5.458   5.423  0.2723  0.4474 -0.1002
16456W        W20856   9.333   4.414  20.386  0.1267 -0.1066 -0.1451
16457W        W20857  17.046   2.238   1.080  0.0648  0.1087  0.2069
16458W        W20858  18.972   4.979  22.853 -0.0361 -0.0182 -0.0587
16459W        W20859  14.193   4.565  31.304  0.1797  0.1165 -0.0988
16460W        W20860  18.331   6.301  29.036 -0.0943  0.1703 -0.0368
16461W        W20861   1.021   1.709  37.234 -0.2982  0.1732  0.0795
16462W        W20862   4.008   0.137   9.313 -0.2870 -0.0276  0.3357
16463W        W20863   9.821   3.074  31.082 -0.3164  0.0815 -0.0762
16464W        W20864  11.599   4.645  42.071  0.3923 -0.2108  0.3302
16465W        W20865  19.431   0.049   1.407 -0.0789  0.0080 -0.1115
16466W        W20866   3.969   1.186  37.768  0.2084 -0.0876 -0.1290
16467W        W20867   0.663   0.086  41.178  0.2184 -0.0074  0.1707
16468W        W20868  17.348   5.141   9.244  0.0629  0.0927 -0.3127
16469W        W20869   6.133   1.622   5.127 -0.1042 -0.0169 -0.0233
16470W        W20870   1.334   1.004  32.268  0.0532  0.1227  0.2509
16471W        W20871  10.682   2.681  34.439  0.3278  0.2971 -0.2989
16472W        W20872   3.228   5.053  16.946 -0.2019 -0.2721 -0.5074
16473W        W20873  10.751   2.836   2.296 -0.1015  0.0814 -0.1069
16474W        W20874  18.686   2.688  38.213  0.1605 -0.0387 -0.0201
16475W        W20875   6.015   6.393  38.379  0.0649 -0.2449  0.0759
16476W        W20876  17.952   0.875  16.797  0.2819 -0.3537  0.4048
16477W        W20877   7.288   5.594  15.419 -0.2109  0.1738  0.0158
16478W        W20878  18.390   6.243  35.359  0.0156 -0.1832  0.3169
16479W        W20879  13.957   2.211  41.135  0.2590 -0.1807  0.1239
16480W        W20880  20.375   2.276  32.268 -0.2487 -0.1250  0.0572
16481W        W20881  13.880   3.615   5.610 -0.0575 -0.0735 -0.0877
16482W        W20882   1.085   6.575  40.787  0.0967  0.2257  0.1534
16483W        W20883  17.548   3.803   2.340  0.3460 -0.0894 -0.1280
16484W        W20884  17.796   2.485  14.031  0.3333 -0.1875 -0.2438
16485W        W20885  17.386   0.302  24.322 -0.0941 -0.2335  0.0695
16486W        W20886  11.925   5.719  20.021  0.0399 -0.0284 -0.0097
16487W        W20887  14.350   5.505  33.750 -0.2021 -0.1410  0.0395
16488W        W20888   0.076   4.166   1.917  0.1656  0.1293  0.0756
16489W        W20889   8.733   4.869  34.406  0.2210  0.3095 -0.1635
16490W        W20890   8.882   6.221  29.622  0.0471  0.1517 -0.5362
16491W        W20891   0.322   5.804  23.490 -0.0892  0.1852  0.0988
16492W        W20892   7.620   3.969   4.268 -0.0430 -0.1255  0.1178
16493W        W20893  15.284   4.538  29.311 -0.0300  0.1299 -0.3559
16494W        W20894  20.598   0.030  12.071  0.0612  0.2440 -0.1450
16495W        W20895  20.885   2.538  39.170  0.1206  0.2814 -0.3026
16496W        W20896   2.520   3.930   8.915  0.2458 -0.1324  0.2703
16497W        W20897  10.662   6.196  36.024 -0.4118 -0.0065 -0.0124
16498W        W20898   1.677   1.498  40.045  0.0154 -0.1332 -0.2007
16499W        W20899   4.915   4.495   0.887  0.0762  0.0289 -0.6328
16500W        W20900  16.353   1.347   6.728 -0.2478 -0.2521  0.3150
16501W        W20901  10.545   0.835  13.558 -0.0990  0.2345  0.1193
16502W        W20902  14.317   2.861  35.815  0.3070  0.0309 -0.0875
16503W        W20903  12.017   6.171  21.851  0.1938  0.0259  0.0866
16504W        W20904   8.500   3.865  35.069  0.2009  0.0094  0.1876
16505W        W20905   3.400   6.444  38.470 -0.1938 -0.1078 -0.0326
16506W        W20906   2.492   5.382   4.023  0.1028  0.0098  0.0226
16507W        W20907  11.904   3.463  35.208  0.1048  0.1875  0.1074
16508W        W20908   2.492   5.804  43.208  0.0656  0.1610  0.1736
16509W        W20909  15.057   5.712  36.475 -0.0667  0.0439 -0.2650
16510W        W20910  18.050   4.321   8.265 -0.0166  0.1235  0.2214
16511W        W20911  14.471   2.925   1.163  0.2250  0.2355 -0.1077
16512W        W20912   0.610   4.607  14.724  0.2025  0.0208 -0.0018
16513W        W20913  15.722   0.375  42.390 -0.0084 -0.0766  0.0566
16514W        W20914   8.088   2.312  18.149 -0.1805 -0.1154  0.0559
16515W        W20915  14.448   3.203  16.068 -0.1740  0.0791 -0.0473
16516W        W20916   6.209   1.796  12.781 -0.2748  0.1584  0.2702
16517W        W20917  17.332   6.190   0.271 -0.0622 -0.0505 -0.2237
16518W        W20918  19.580   1.388   6.209  0.1888  0.1481  0.0473
16519W        W20919  19.148   3.904   9.904  0.1534  0.1434 -0.1272
16520W        W20920   3.222   4.429   6.788  0.1093  0.0244 -0.0121
16521W        W20921  11.507   0.364   6.802  0.3171 -0.0047 -0.0208
16522W        W20922  18.901   5.916   0.524  0.0963 -0.0972 -0.3162
16523W        W20923   5.072   1.583  38.068  0.3304 -0.0206 -0.0449
16524W        W20924   1.796   2.227   3.831  0.1509 -0.0054  0.1992
16525W        W20925   0.514   5.976  14.261 -0.0623 -0.0110  0.1720
16526W        W20926   6.417   2.924   5.618  0.1118 -0.3072 -0.1490
16527W        W20927  16.014   1.923  42.721  0.3266  0.0771  0.1011
16528W        W20928  16.998   1.613  44.037  0.0858 -0.0265  0.0276
16529W        W20929  18.740   1.626   3.410 -0.2214  0.2693  0.0053
16530W        W20930  13.495   3.853   6.692 -0.1270 -0.1775  0.3287
16531W        W20931  15.390   0.871  36.614 -0.0966 -0.1299 -0.0644
16532W        W20932  17.875   5.049  15.713 -0.0615  0.1170 -0.1003
16533W        W20933  13.724   1.928  39.552 -0.0942  0.0457 -0.3950
16534W        W20934  18.594   5.488  32.630  0.0778 -0.2263 -0.2142
16535W        W20935  12.230   0.522  42.136  0.0909 -0.2903  0.1571
16536W        W20936   7.182   4.763  32.659 -0.0287 -0.0058 -0.3279
16537W        W20937   5.595   5.603  13.874 -0.0272 -0.1440 -0.1624
16538W        W20938   4.960   5.493   5.938 -0.0519  0.0417 -0.0996
16539W        W20939   2.226   4.067   8.178 -0.3253 -0.0039 -0.0132
16540W        W20940   2.909   3.300  14.584 -0.0326  0.3311 -0.3403
16541W        W20941  14.188   5.270  13.437  0.2331 -0.4351 -0.0658
16542W        W20942   0.223   1.497  15.934 -0.1256 -0.0906  0.0955
16543W        W20943  15.120   2.820  35.824  0.0953 -0.0419  0.0467
16544W        W20944  15.717   1.528  27.221  0.0128 -0.1746 -0.0378
16545W        W20945  10.416   0.592  29.002 -0.0365  0.0598 -0.0612
16546W        W20946  20.837   5.226  22.233 -0.0260  0.1582 -0.6221
16547W        W20947  13.087   4.286  37.745 -0.0531  0.1984  0.0676
16548W        W20948  13.883   0.134  32.337  0.1649  0.1719  0.3741
16549W        W20949  20.119   6.349   2.993  0.1909  0.1625 -0.0212
16550W        W20950   4.622   0.072  38.760 -0.0312 -0.0099 -0.2757
16551W        W20951   5.520   2.731   6.710 -0.0141 -0.2340 -0.1396
16552W        W20952   4.165   2.515  10.478  0.0121  0.2154 -0.0935
16553W        W20953  12.029   4.597  18.171  0.3216  0.0935 -0.0274
16554W        W20954  11.163   3.201  34.568 -0.0617 -0.0363 -0.1761
16555W        W20955  14.591   0.273   2.991 -0.0720  0.0842  0.0585
16556W        W20956   9.698   3.107  12.167 -0.1338 -0.2117 -0.0082
16557W        W20957  17.474   0.900   7.341 -0.4142  0.0173  0.1844
16558W        W20958  18.391   5.274  15.645 -0.3800 -0.1017 -0.0304
16559W        W20959  11.106   1.075  10.517 -0.1151  0.2415 -0.0729
16560W        W20960   1.592   6.256  12.445  0.1512 -0.0976  0.0239
16561W        W20961   3.225   1.506   2.294  0.1270 -0.0083 -0.1795
16562W        W20962  20.674   2.302  38.598 -0.1390 -0.1420  0.0688
16563W        W20963  15.798   6.467  12.616 -0.0222  0.0639  0.1966
16564W        W20964  20.929   1.321  35.518 -0.2498 -0.0740  0.1342
16565W        W20965  19.511   4.880  34.577 -0.1023 -0.1977  0.1242
16566W        W20966  12.331   3.779  33.241  0.0752  0.2176  0.0314
16567W        W20967  17.022   0.444   5.567 -0.0033 -0.0930  0.0777
16568W        W20968  20.538   1.887  42.044 -0.0680  0.0722  0.1732
16569W        W20969  15.315   6.587  17.121  0.0250  0.1499  0.1609
16570W        W20970  12.492   1.702  43.905  0.0510  0.0505  0.1708
16571W        W20971   2.339   2.067  12.656 -0.0920 -0.0287 -0.3369
16572W        W20972   7.660   2.252  31.412 -0.2758 -0.0164 -0.2910
16573W        W20973  11.726   5.899   8.449  0.0384 -0.1775 -0.1779
16574W        W20974   4.222   3.246  42.678 -0.0399  0.0662  0.0394
16575W        W20975  10.542   4.354   7.461  0.0673 -0.0540  0.0518
16576W        W20976  20.215   2.294  38.238 -0.1531 -0.2140 -0.2315
16577W        W20977  12.768   5.872  10.468  0.0234  0.0947 -0.0736
16578W        W20978   3.912   6.390   3.331  0.3043 -0.1468 -0.1034
16579W        W20979   2.937   5.448  28.496 -0.1705 -0.0211  0.0468
16580W        W20980   5.605   5.079  40.260 -0.1640  0.1007  0.1129
16581W        W20981  18.386   5.825   2.963 -0.0024 -0.3321  0.0192
16582W        W20982  14.120   0.866  32.752 -0.0591 -0.3378  0.0861
16583W        W20983   4.846   0.333  11.528  0.0696  0.1327 -0.0540
16584W        W20984   1.934   0.219  29.694 -0.4029 -0.0457  0.1830
16585W        W20985  17.306   2.352  35.206  0.5007  0.0423  0.0243
16586W        W20986   0.246   3.012  38.369  0.1298 -0.0793  0.2767
16587W        W20987   0.088   0.223   0.959  0.1535  0.1430  0.1871
16588W        W20988   0.335   2.026  30.299  0.0475  0.2599 -0.0476
16589W        W20989   2.029   2.154  40.463  0.0022  0.1762  0.0844
16590W        W20990   9.138   5.172  37.014  0.0992  0.3251  0.3222
16591W        W20991   2.460   1.161  36.919  0.2109 -0.0579 -0.3510
16592W        W20992  11.608   0.520  40.431 -0.1257  0.4668 -0.0188
16593W        W20993   6.876   0.404   4.222  0.1233 -0.0437  0.0824
16594W        W20994  13.262   5.187  39.198 -0.4984 -0.0625  0.0016
16595W        W20995   3.814   0.615   3.366 -0.2011 -0.1004  0.4923
16596W        W20996   9.914   1.610   8.841 -0.1102 -0.2739 -0.0973
16597W        W20997  19.886   6.377  29.222 -0.0449 -0.0122 -0.1756
16598W        W20998  11.366   2.304   7.121  0.0529 -0.0576  0.2237
16599W        W20999  20.496   5.125  32.478  0.0393  0.0420  0.0057
16600W        W21000  16.991   3.306  25.194  0.0277  0.0099  0.1130
16601W        W21001   9.430   1.653  41.766 -0.0929 -0.1586  0.2812
16602W        W21002   1.294   1.545  35.576  0.0191 -0.1059  0.0925
16603W        W21003  15.210   0.775  15.280  0.0671 -0.1683 -0.1057
16604W        W21004   4.364   0.362  11.716  0.0429  0.0979  0.1527
16605W        W21005  19.024   3.824  19.009 -0.4085 -0.2775 -0.2199
16606W        W21006   8.863   6.262  23.628  0.5541  0.2684  0.3305
16607W        W21007  16.139   0.339  30.577  0.2506  0.2374  0.2681
16608W        W21008   9.279   3.583  43.367  0.1063  0.0833  0.2081
16609W        W21009  14.393   0.400  40.209  0.0235  0.2256  0.0191
16610W        W21010   1.610   6.073   6.092  0.1510 -0.1747  0.0675
16611W        W21011  19.050   4.159   2.858  0.1832 -0.1855 -0.1169
16612W        W21012  16.507   6.073   7.024  0.1564 -0.3145  0.1890
16613W        W21013  16.437   4.671   4.834  0.2397 -0.0911  0.0264
16614W        W21014  13.240   6.600  29.995  0.0289  0.1656  0.3803
16615W        W21015  10.435   3.059  13.571  0.2135  0.2319 -0.0904
16616W        W21016  11.587   1.728   1.823 -0.0328 -0.0239  0.1680
16617W        W21017   1.180   2.180  12.056  0.0097 -0.2918 -0.0715
16618W        W21018   5.777   3.368   1.725  0.0543  0.0077  0.1750
16619W        W21019   2.645   3.009  10.348 -0.0292 -0.5611 -0.1021
16620W        W21020   0.412   0.852  32.363  0.0971 -0.0429 -0.0375
16621W        W21021  16.694   3.229   0.073  0.2078  0.0427  0.1522
16622W        W21022  10.294   0.065  41.595 -0.0745 -0.3043 -0.3681
16623W        W21023  12.282   1.792  18.209  0.4464  0.2197  0.2624
16624W        W21024   2.515   6.404  11.514 -0.0297  0.0063 -0.1687
16625W        W21025  17.528   4.238  36.306 -0.2452  0.0258 -0.0930
16626W        W21026  10.781   5.378  30.891  0.0934 -0.0138  0.1428
16627W        W21027   3.851   3.829  42.572  0.3595  0.1592  0.0682
16628W        W21028  16.962   1.561  36.505 -0.2592  0.2513  0.0546
16629W        W21029  19.636   3.985  41.083 -0.0108 -0.0149 -0.0773
16630W        W21030  20.608   6.489  13.477  0.1993  0.1624 -0.0202
16631W        W21031  14.715   5.537  40.486 -0.1321  0.0075 -0.1444
16632W        W21032  20.928   2.643  21.891  0.0833  0.5813  0.2182
16633W        W21033  19.497   1.839   0.046  0.0721 -0.0876 -0.0545
16634W        W21034   6.863   0.087  13.886 -0.0714  0.0214  0.2416
16635W        W21035   9.725   3.859  14.319  0.1138 -0.1097  0.2909
16636W        W21036  19.233   1.994  34.717  0.1948  0.0266  0.0652
16637W        W21037   0.636   3.251   1.906 -0.1123 -0.0266 -0.1511
16638W        W21038   3.825   3.320  38.183 -0.0987  0.1912  0.0507
16639W        W21039  17.041   2.822  14.209 -0.0254  0.1555 -0.0452
16640W        W21040  10.985   4.734   4.805  0.1616 -0.0876 -0.0216
16641W        W21041  16.263   6.183  10.562 -0.0467 -0.0099 -0.2762
16642W        W21042  12.376   4.638  17.722 -0.0720 -0.1868 -0.0451
16643W        W21043   1.490   2.725  11.236 -0.1221  0.1149  0.0920
16644W        W21044   7.619   0.963  11.263 -0.0542  0.0495  0.0419
16645W        W21045   4.128   5.874   4.237  0.3076  0.2321  0.2135
16646W        W21046  11.156   3.827  38.045  0.1132 -0.2062 -0.1535
16647W        W21047   9.996   5.798  10.037  0.2526 -0.0342 -0.1207
16648W        W21048   6.629   5.160  19.278  0.2164  0.0652 -0.0659
16649W        W21049   7.371   6.476  36.922  0.3667 -0.2062 -0.3207
16650W        W21050   1.422   3.120  27.380  0.3590  0.2073 -0.0154
16651W        W21051  10.351   3.258  24.456  0.2218 -0.0226 -0.0630
16652W        W21052  19.535   4.057  35.210  0.0243  0.2683 -0.0704
16653W        W21053  15.700   6.353  16.520  0.0854 -0.0038 -0.1106
16654W        W21054   1.386   2.054  26.519  0.0071  0.0739 -0.0842
16655W        W21055   3.635   6.250   0.907 -0.1450 -0.3525 -0.3491
16656W        W21056  14.794   2.020  28.589  0.0277  0.0513  0.3869
16657W        W21057  11.194   4.934  30.065 -0.1828 -0.1639  0.0218
16658W        W21058  12.458   5.997  37.599 -0.2730  0.0489 -0.1298
16659W        W21059  17.748   4.048   9.092  0.2267  0.0209  0.0990
16660W        W21060  12.919   5.135  43.587 -0.3022  0.0460  0.0787
16661W        W21061  12.177   1.334   4.935 -0.0622 -0.0241 -0.3595
16662W        W21062  11.258   5.061  12.611  0.0064 -0.1286 -0.4739
16663W        W21063   6.569   1.195  42.287 -0.1908  0.0961 -0.2072
16664W        W21064   0.429   3.054  23.003  0.0732 -0.0789  0.2751
16665W        W21065  11.017   2.128  35.496 -0.2220 -0.1270  0.0692
16666W        W21066  10.693   1.612  12.054  0.3426  0.0110 -0.1712
16667W        W21067  12.311   4.939   1.453 -0.1226  0.0780  0.0468
16668W        W21068  18.929   1.290  31.437  0.1244 -0.1733  0.2882
16669W        W21069  13.342   2.269  38.854 -0.2340  0.1422  0.0386
16670W        W21070  17.365   2.834   7.991 -0.0384 -0.1910  0.1702
16671W        W21071   9.478   3.132   4.377  0.0896  0.1031 -0.0531
16672W        W21072   7.703   5.241  16.377 -0.0295  0.3267 -0.1687
16673W        W21073  12.680   1.421  33.618 -0.2145 -0.1096  0.0911
16674W        W21074  11.438   0.779  31.342 -0.1232  0.0082 -0.2252
16675W        W21075  17.298   0.202  28.732  0.2585 -0.1221  0.0294
16676W        W21076  15.223   2.401  33.857  0.3562 -0.0106  0.1957
16677W        W21077   8.169   1.779  32.015  0.0288  0.2074  0.0396
16678W        W21078  10.260   1.429  42.136  0.2980  0.0045  0.1689
16679W        W21079  10.749   3.704   9.856 -0.3322  0.1724  0.0144
16680W        W21080  12.590   1.247  22.020 -0.0886  0.0427  0.1298
16681W        W21081  15.371   1.097   4.734  0.1253  0.2500  0.1167
16682W        W21082   0.678   4.831   1.928 -0.2443 -0.4424  0.1697
16683W        W21083   4.933   0.522  44.145  0.0015  0.1628 -0.1869
16684W        W21084   3.667   1.339   8.724  0.0825  0.1464 -0.3057
16685W        W21085  12.248   3.224   4.265  0.0002 -0.0768  0.1742
16686W        W21086  13.043   6.258  13.894 -0.0077  0.0053  0.0096
16687W        W21087   1.542   4.376   4.457  0.0109 -0.2542 -0.2991
16688W        W21088   7.365   2.015  23.356 -0.1294  0.1555 -0.1308
16689W        W21089   8.013   1.434  37.423 -0.0189  0.0446  0.0594
16690W        W21090  18.518   2.020  38.412 -0.0765  0.0715  0.1708
16691W        W21091   5.457   3.886   5.668 -0.2532 -0.0225 -0.2032
16692W        W21092  21.052   3.158  42.431 -0.1607  0.0631 -0.3197
16693W        W21093  19.961   5.577  14.527 -0.4272 -0.1872  0.0398
16694W        W21094   7.153   2.103  37.655 -0.0772 -0.0772  0.5104
16695W        W21095   9.062   2.210  16.396  0.0905 -0.0767  0.1214
16696W        W21096   7.874   1.712  35.577  0.2227 -0.0041 -0.3510
16697W        W21097  13.788   1.540  35.920  0.3282  0.2470 -0.2480
16698W        W21098  18.053   5.676  26.168  0.0509 -0.1169 -0.0184
16699W        W21099  16.562   1.598  29.447  0.3157 -0.2133  0.0859
16700W        W21100  10.629   4.243   9.883  0.4310  0.1389 -0.0448
16701W        W21101  19.152   1.157   5.456  0.1479 -0.0236 -0.0476
16702W        W21102  13.054   1.800  17.146 -0.0870  0.0837 -0.2118
16703W        W21103  10.423   5.377  17.142  0.2249  0.1979  0.3568
16704W        W21104  18.251   5.237  35.348  0.0013  0.0563 -0.3605
16705W        W21105   6.902   2.095  32.575 -0.3782  0.0492 -0.0060
16706W        W21106  12.928   2.927   3.694 -0.2405  0.3696 -0.0842
16707W        W21107  20.178   1.276  21.961  0.1181  0.2832  0.1759
16708W        W21108   1.884   4.683   0.221 -0.0380 -0.1967 -0.1642
16709W        W21109  12.724   0.603  40.453  0.0455  0.4596  0.0761
16710W        W21110   6.714   3.690  17.985 -0.1432 -0.1819  0.1298
16711W        W21111   2.907   2.227  10.896 -0.2584 -0.1657  0.2348
16712W        W21112  20.811   1.557   2.805  0.3234  0.3506  0.0750
16713W        W21113  12.885   2.297  29.712 -0.0984 -0.0048 -0.3282
16714W        W21114  17.377   6.186  39.024  0.0375 -0.3292  0.2568
16715W        W21115   1.334   2.739   0.114  0.2556 -0.2277 -0.1054
16716W        W21116   1.180   2.815  42.877  0.0067  0.0463  0.1864
16717W        W21117  18.519   3.665  14.185 -0.2216 -0.0891  0.0597
16718W        W21118  11.264   1.576  35.560  0.0471 -0.2749 -0.0514
16719W        W21119   3.557   5.428  11.965  0.1780 -0.0200  0.1198
16720W        W21120  16.015   4.731  44.510  0.2303 -0.1234  0.1785
16721W        W21121   0.815   5.670  13.331  0.0836 -0.2162 -0.1930
16722W        W21122  10.829   6.092  28.430  0.0708  0.2797  0.0632
16723W        W21123   7.895   6.416  12.405 -0.1229  0.1907  0.4271
16724W        W21124  13.095   3.797  37.361  0.1858 -0.1254  0.1775
16725W        W21125  16.385   5.661  44.250  0.0495 -0.0405  0.3107
16726W        W21126  14.929   6.256  39.770 -0.0791  0.2353 -0.1305
16727W        W21127   8.216   6.444  32.628  0.1825  0.2125  0.1398
16728W        W21128  17.160   4.949  14.181  0.1054  0.0296 -0.1393
16729W        W21129   3.643   2.132   3.700  0.2122 -0.1169 -0.0785
16730W        W21130  10.267   3.680  11.062 -0.0736 -0.1299 -0.2573
16731W        W21131  12.310   4.288   6.816  0.0163  0.1971  0.1044
16732W        W21132  20.076   1.771  21.927  0.0877  0.1979 -0.0981
16733W        W21133  12.181   0.850  19.573  0.0370 -0.2652 -0.0701
16734W        W21134  16.757   3.910  34.449 -0.1201  0.1590 -0.3259
16735W        W21135  15.751   4.864  36.425 -0.1339  0.2198  0.0039
16736W        W21136  13.391   4.172  36.741 -0.2471  0.0574 -0.1267
16737W        W21137  14.587   5.954   9.483  0.1638  0.0305 -0.0023
16738W        W21138  14.347   2.085  34.220 -0.0976 -0.2156 -0.1293
16739W        W21139   9.064   0.647   0.505  0.2403  0.0936  0.2291
16740W        W21140  16.467   3.182  25.610 -0.2020  0.0679  0.0086
16741W        W21141   6.717   6.115   6.160  0.0055 -0.0282 -0.4698
16742W        W21142  11.696   4.498   8.687  0.1416 -0.3204 -0.3917
16743W        W21143   2.023   6.309  27.040 -0.1635 -0.4408 -0.1211
16744W        W21144  15.378   4.718  35.943  0.2577  0.0876  0.4310
16745W        W21145  19.973   4.165  23.107 -0.1019 -0.0392  0.2354
16746W        W21146   8.244   3.989  13.624  0.0073 -0.2526 -0.2348
16747W        W21147  17.385   5.667   6.868 -0.0867  0.1279 -0.4699
16748W        W21148  18.622   5.816  39.870  0.0709  0.2043  0.2034
16749W        W21149  15.150   2.499  17.733 -0.0142 -0.2317 -0.0737
16750W        W21150  16.712   5.765  26.287 -0.5574  0.1597  0.0474
16751W        W21151  19.946   6.290  24.172 -0.0735 -0.0198  0.1191
16752W        W21152   1.005   1.085  28.673 -0.0291 -0.0571 -0.3136
16753W        W21153  18.233   3.239   9.551  0.2219  0.1034 -0.0295
16754W        W21154  18.711   3.203  29.147 -0.1590  0.0512  0.1851
16755W        W21155   6.973   4.864  33.881 -0.1292  0.0706 -0.1412
16756W        W21156   8.184   0.733  19.840 -0.3071  0.0429 -0.0565
16757W        W21157  18.250   2.238   1.634 -0.0374 -0.0511 -0.0073
16758W        W21158   4.371   3.428  29.540 -0.2152 -0.1580 -0.2058
16759W        W21159  11.236   5.291   9.108 -0.1747  0.0269  0.1270
16760W        W21160  11.276   5.568  10.838 -0.1086  0.2242 -0.2009
16761W        W21161   4.233   5.404  16.561 -0.1823 -0.0554 -0.0826
16762W        W21162   3.245   6.092  40.309 -0.1816 -0.1123 -0.0134
16763W        W21163  19.207   2.432  20.281  0.0054  0.2331  0.5618
16764W        W21164  18.944   3.374   6.064  0.0087 -0.2073 -0.0254
16765W        W21165  17.368   5.010  43.561  0.1010 -0.1461  0.3455
16766W        W21166  13.734   3.301  32.547 -0.2423 -0.0409 -0.0833
16767W        W21167  11.295   6.247  21.463  0.1229 -0.1888  0.0585
16768W        W21168  14.004   0.557  36.829 -0.2529  0.1089  0.0324
16769W        W21169   8.962   1.851  12.194 -0.1609  0.0795 -0.0078
16770W        W21170   9.095   5.289  44.270  0.0658 -0.0740  0.1886
16771W        W21171  16.359   5.339  36.623  0.1099 -0.0071  0.2004
16772W        W21172   4.021   5.799  41.257 -0.3796  0.2335 -0.1365
16773W        W21173  10.578   0.699  18.932 -0.1006  0.3651 -0.3608
16774W        W21174   5.130   0.317  42.186 -0.1683 -0.2591 -0.2874
16775W        W21175  12.466   3.691  18.492 -0.1662 -0.1329  0.0346
16776W        W21176  18.958   2.080  31.492 -0.0537  0.1146  0.2365
16777W        W21177   4.962   5.371   9.486  0.0929  0.2753  0.0270
16778W        W21178   1.176   4.989  40.239 -0.0580 -0.1511  0.0330
16779W        W21179  13.489   4.743  39.236  0.0315  0.1425  0.0581
16780W        W21180  10.062   0.554   4.323 -0.2940  0.4362  0.1577
16781W        W21181  18.945   3.879  28.547  0.0767 -0.2142 -0.1007
16782W        W21182  20.071   4.955  38.400  0.0702  0.2027  0.0443
16783W        W21183   2.255   5.577  30.160  0.0618  0.0894 -0.0159
16784W        W21184   0.378   0.195  43.975 -0.0363  0.1467  0.2875
16785W        W21185  13.756   6.356  34.133  0.2736 -0.0564  0.3006
16786W        W21186   2.067   0.662  12.787 -0.2000  0.0423 -0.0096
16787W        W21187  14.372   0.908   1.208 -0.0125 -0.1785  0.2692
16788W        W21188   3.034   1.396  34.314  0.1015  0.1430  0.3415
16789W        W21189   3.117   6.072  30.978  0.1041 -0.0312  0.0567
16790W        W21190  20.390   1.835  41.079  0.0622  0.1608  0.3021
16791W        W21191  17.885   1.232  15.837  0.5546  0.1489  0.2351
16792W        W21192   7.263   5.198  22.587 -0.0322 -0.0942 -0.1938
16793W        W21193   9.506   5.727  13.372 -0.0835 -0.2041 -0.2849
16794W        W21194   5.683   5.550  17.822  0.3111 -0.1543 -0.1505
16795W        W21195   1.616   3.312  39.897 -0.0582  0.2893 -0.1288
16796W        W21196  10.325   2.956   5.704  0.1416 -0.0124 -0.0546
16797W        W21197   9.434   6.311  24.527 -0.0254 -0.0007  0.1187
16798W        W21198   9.489   4.706   4.589 -0.4938 -0.0685  0.0291
16799W        W21199   2.522   2.647   3.417 -0.2183 -0.2148 -0.0370
16800W        W21200   0.769   1.583  13.134 -0.0370  0.0018 -0.0232
16801W        W21201   5.200   2.764  31.061 -0.3117 -0.0366 -0.0361
16802W        W21202  20.743   0.009   8.368  0.0572 -0.0542  0.0771
16803W        W21203  16.619   4.260   7.147  0.2803  0.0283  0.3427
16804W        W21204  15.150   1.288  15.203  0.0527  0.1254 -0.2587
16805W        W21205   5.710   1.464   4.821 -0.1805 -0.2418  0.2210
16806W        W21206   9.276   0.644  16.402 -0.0965 -0.3547  0.1576
16807W        W21207  19.951   5.486   8.992 -0.2778 -0.0287 -0.0444
16808W        W21208  11.466   0.878   6.356 -0.1175 -0.0729 -0.0246
16809W        W21209   9.247   5.045  39.551 -0.1759  0.1262 -0.0758
16810W        W21210  16.383   6.283  40.671 -0.1466 -0.2013  0.1161
16811W        W21211   1.116   4.550  39.458  0.0553  0.3152 -0.2595
16812W        W21212   1.541   0.684   4.590  0.0176 -0.0998 -0.3712
16813W        W21213   3.966   0.605  10.061 -0.1310  0.0419  0.1514
16814W        W21214  12.151   6.420  44.426 -0.0230 -0.1373 -0.1423
16815W        W21215   5.434   3.863  33.681  0.3734 -0.0208  0.0077
16816W        W21216  16.762   2.260   9.749  0.2447 -0.2800 -0.0048
16817W        W21217   2.623   0.175  39.186 -0.0334  0.1438  0.0302
16818W        W21218  17.144   0.800  12.030 -0.1058  0.3774  0.2371
16819W        W21219   2.583   2.562  33.287  0.0774 -0.2884 -0.2356
16820W        W21220   3.853   4.699  43.384  0.0796  0.2512  0.1713
16821W        W21221  17.965   1.952  13.848 -0.0043  0.1031  0.1597
16822W        W21222  16.523   4.626  41.311 -0.1884 -0.1032  0.1573
16823W        W21223  13.759   4.054  30.088 -0.0497  0.1422  0.3191
16824W        W21224   6.300   2.581  34.696  0.2305  0.0158  0.1057
16825W        W21225  17.103   2.030  28.281  0.1321  0.0698  0.0846
16826W        W21226  10.236   1.314  44.787  0.2905 -0.0053 -0.2156
16827W        W21227  16.295   1.482   8.521 -0.1914  0.0191  0.1073
16828W        W21228  18.455   1.249   2.293  0.1762  0.1674  0.1482
16829W        W21229  18.817   3.925   9.489  0.1202 -0.2115  0.2070
16830W        W21230  11.829   3.571  11.925 -0.5267 -0.4378 -0.0338
16831W        W21231   1.209   2.913  37.875 -0.1526 -0.0274 -0.0545
16832W        W21232  15.614   1.584  43.945  0.0870 -0.3456  0.1262
16833W        W21233   5.784   2.068  41.499 -0.0227 -0.0908 -0.0299
16834W        W21234  17.501   5.028   6.102 -0.0656 -0.0368  0.2167
16835W        W21235  20.924   4.930   5.171  0.0434 -0.1506 -0.1485
16836W        W21236   4.898   0.942   0.554  0.2173  0.1576  0.0938
16837W        W21237  12.378   6.320  37.214  0.0195 -0.1897  0.0594
16838W        W21238  14.326   5.808  13.288  0.0206  0.2009 -0.4252
16839W        W21239  15.330   4.805   8.723  0.1462 -0.0792  0.0673
16840W        W21240  15.084   2.454  15.856  0.0711  0.3382  0.0052
16841W        W21241  17.108   2.875  10.849 -0.3512  0.1738  0.1705
16842W        W21242  17.156   1.585  32.521 -0.5678 -0.0273 -0.2451
16843W        W21243   4.182   5.365   6.502 -0.3000 -0.0310 -0.1647
16844W        W21244   2.771   5.141  15.487  0.0551 -0.1950  0.2047
16845W        W21245   5.926   2.045  37.195 -0.1254  0.3161  0.0099
16846W        W21246  17.894   6.138   5.580  0.0553 -0.1096  0.2403
16847W        W21247  15.938   4.664  12.671 -0.4777  0.1205 -0.0392
16848W        W21248   3.123   1.796  14.735  0.0992  0.1271  0.0963
16849W        W21249  11.766   4.854  34.284 -0.0481  0.2565  0.1817
16850W        W21250  18.104   2.242   6.787  0.0575  0.2069 -0.1575
16851W        W21251   2.280   2.481  38.402  0.0810  0.1623  0.1298
16852W        W21252  18.728   1.192  23.208 -0.1783 -0.0486  0.2612
16853W        W21253  18.785   2.556  11.712 -0.0700 -0.0102 -0.1709
16854W        W21254  15.801   6.556   6.551 -0.0509  0.0803  0.1557
16855W        W21255   6.666   2.591   5.960 -0.0203  0.1447 -0.2656
16856W        W21256   4.492   5.782  36.270  0.0868  0.0020 -0.2249
16857W        W21257  20.166   6.176  43.977  0.2430  0.5159  0.0028
16858W        W21258  15.440   1.946   2.792 -0.1142  0.0402  0.0276
16859W        W21259   6.491   1.313  37.162 -0.1453 -0.1797 -0.0921
16860W        W21260   9.429   3.364  19.604 -0.4017 -0.3972 -0.0125
16861W        W21261  19.202   2.209  41.844  0.0800  0.0452  0.0490
16862W        W21262  17.697   0.230   4.248  0.1594  0.1059  0.1345
16863W        W21263   6.457   2.636  36.349 -0.0169 -0.0222 -0.1077
16864W        W21264   7.684   3.484   8.099  0.1396  0.1655 -0.2262
16865W        W21265  20.530   5.810  15.061 -0.1679 -0.0244 -0.0395
16866W        W21266  16.073   3.245  31.823  0.2689 -0.3100  0.3527
16867W        W21267  18.690   2.278  45.075 -0.1511  0.0930 -0.1763
16868W        W21268   8.332   3.403   9.300 -0.4389 -0.0996  0.1407
16869W        W21269   9.241   5.276  17.802 -0.2616 -0.1232  0.0471
16870W        W21270   3.592   4.494  15.013 -0.2385  0.0405 -0.0439
16871W        W21271  19.619   4.679  32.365 -0.0818  0.2516  0.0665
16872W        W21272   6.789   3.715  10.617  0.1482 -0.1896 -0.1287
16873W        W21273  13.261   0.665  44.303  0.0626  0.0504  0.0028
16874W        W21274   2.401   2.497  11.467  0.0690  0.3342 -0.1722
16875W        W21275  10.590   1.120   0.603 -0.0398 -0.1845 -0.0572
16876W        W21276  16.136   4.644  28.122  0.0358  0.0448  0.1944
16877W        W21277   0.213   4.816   7.929  0.0775 -0.2172 -0.1727
16878W        W21278   8.603   5.462   8.257  0.0600  0.0300 -0.0112
16879W        W21279   7.248   0.712  19.275 -0.0936 -0.1764  0.0703
16880W        W21280   0.436   0.293  10.297 -0.1326  0.0841  0.0807
16881W        W21281   8.397   1.059  19.280 -0.2051 -0.3096  0.1724
16882W        W21282   8.014   3.778   2.534  0.0445 -0.2600  0.1919
16883W        W21283  16.901   4.055   9.352 -0.1017  0.2355 -0.3170
16884W        W21284   6.051   0.603   7.783 -0.1027  0.0079 -0.0619
16885W        W21285   6.452   0.689  36.039 -0.0451 -0.0041  0.0777
16886W        W21286   4.247   5.714  31.643  0.0298  0.1328  0.0533
16887W        W21287   2.319   6.074  32.534 -0.0671 -0.0735 -0.1075
16888W        W21288  16.293   5.626   8.497  0.3415  0.0798 -0.0818
16889W        W21289   0.276   6.039   6.713 -0.1822 -0.0884  0.1566
16890W        W21290  17.539   2.126  28.581  0.0136 -0.0939  0.0766
16891W        W21291  13.564   4.454  33.086 -0.1252 -0.0299  0.3274
16892W        W21292  13.179   4.769   1.311 -0.0035 -0.3367  0.1771
16893W        W21293  14.897   1.196  12.097 -0.0753 -0.2082  0.1562
16894W        W21294  15.455   3.016   1.747 -0.1596  0.1290 -0.0928
16895W        W21295  13.872   0.180   6.813  0.0253 -0.0419  0.1148
16896W        W21296   4.600   6.114  44.072 -0.0080  0.1147 -0.0570
16897W        W21297  18.905   4.273   7.727  0.1193 -0.0771 -0.1226
16898W        W21298  10.968   3.741  28.967 -0.1296 -0.0068 -0.1211
16899W        W21299  13.517   0.839  39.457  0.2424  0.0496  0.0050
16900W        W21300  18.014   5.669  10.994 -0.3767  0.3259  0.0497
16901W        W21301  21.098   0.599  41.726  0.4245  0.2926 -0.3364
16902W        W21302  15.199   1.262  34.313 -0.1960  0.0090 -0.0065
16903W        W21303   5.741   3.222  31.072  0.3502  0.3207  0.1798
16904W        W21304  17.884   1.798  31.342 -0.0511 -0.1527 -0.1758
16905W        W21305   0.893   1.165   6.150 -0.1028 -0.0717  0.0238
16906W        W21306   8.706   2.314  45.020  0.1985  0.1432  0.1128
16907W        W21307   9.208   6.302  19.550  0.1683 -0.0677 -0.1533
16908W        W21308  10.493   1.459   1.592 -0.0061  0.0160  0.5560
16909W        W21309   3.155   2.724  10.407 -0.1605 -0.1759  0.0143
16910W        W21310  14.483   1.906  41.963 -0.0745  0.1276 -0.0145
16911W        W21311   4.956   3.244   1.365 -0.3807 -0.1531 -0.0386
16912W        W21312   0.211   5.811  24.843 -0.1046  0.1628 -0.1499
16913W        W21313   7.251   4.504   7.178 -0.1720  0.1907  0.4683
16914W        W21314  17.545   4.780  45.006 -0.0756  0.6712  0.2016
16915W        W21315  15.073   2.697  14.676  0.2504 -0.0911  0.2803
16916W        W21316   1.179   2.371  40.100 -0.1000  0.0209 -0.1683
16917W        W21317   0.433   0.250   0.310  0.1159  0.2734 -0.0033
16918W        W21318  12.025   0.196  29.839 -0.2090  0.2118 -0.2386
16919W        W21319  13.331   4.730  41.204  0.0131 -0.0567  0.1541
16920W        W21320  11.568   4.014  11.231  0.1167  0.2658 -0.0794
16921W        W21321   5.493   2.497  43.285 -0.0109 -0.2146 -0.2770
16922W        W21322  20.272   1.703   0.688 -0.0944  0.2884 -0.2209
16923W        W21323  16.800   2.931  24.914 -0.1284  0.1667 -0.1204
16924W        W21324   8.597   3.862  37.257  0.0885  0.1549  0.2461
16925W        W21325   2.826   5.115  30.211 -0.1141  0.1146 -0.1846
16926W        W21326  13.984   0.597   9.566  0.0035  0.0245 -0.2682
16927W        W21327   0.767   5.247  15.223 -0.1934 -0.1208  0.1289
16928W        W21328  11.186   5.250  16.171  0.2158 -0.1782 -0.2035
16929W        W21329   3.979   3.073   1.204 -0.3027  0.1364  0.0256
16930W        W21330   9.122   2.743  32.655  0.1141  0.2048  0.3934
16931W        W21331   8.137   4.043  19.810 -0.0552 -0.0613  0.1034
16932W        W21332   5.572   1.935   4.332 -0.2645 -0.0306  0.0366
16933W        W21333   6.940   3.135   2.392  0.2567  0.1178 -0.0301
16934W        W21334  15.128   0.938  43.548 -0.1450 -0.2340 -0.1883
16935W        W21335  16.869   2.602  35.047 -0.0821  0.1263  0.0669
16936W        W21336   5.797   5.909   1.310 -0.2728 -0.1426  0.0850
16937W        W21337  15.301   5.969  31.758  0.1685 -0.0707 -0.0473
16938W        W21338   1.794   6.381  17.074 -0.2023 -0.3683  0.3028
16939W        W21339   3.610   6.417  44.751 -0.1543  0.3035 -0.0136
16940W        W21340   4.826   6.539  37.097  0.0816 -0.0288 -0.0365
16941W        W21341   7.121   0.279  21.819  0.0920  0.1710 -0.0999
16942W        W21342   1.941   1.795  33.414  0.4279  0.1461 -0.1278
16943W        W21343   9.522   3.515   5.243  0.1093 -0.1753 -0.0168
16944W        W21344   3.627   5.426  16.421 -0.0147 -0.0436  0.0790
16945W        W21345   8.962   6.226  17.402 -0.2852 -0.1486  0.1826
16946W        W21346   0.929   3.482  12.143 -0.0981  0.1134  0.1339
16947W        W21347   8.118   6.317  11.105 -0.1628  0.0649  0.0673
16948W        W21348   4.997   5.404  43.531  0.1911  0.2438  0.3063
16949W        W21349   4.444   0.788  28.453  0.1789 -0.0313  0.1016
16950W        W21350  11.982   4.385  41.877  0.1090  0.0518 -0.3154
16951W        W21351  15.386   0.500  11.869 -0.1778 -0.1208  0.1028
16952W        W21352   7.300   0.572  39.064  0.1581 -0.2088 -0.2266
16953W        W21353  13.145   4.870  29.477 -0.0647 -0.0404 -0.1304
16954W        W21354   4.276   4.259   2.013 -0.2297  0.3964  0.1112
16955W        W21355  20.012   2.540   3.597  0.3858  0.0894 -0.2619
16956W        W21356   5.683   2.853   7.130 -0.0675 -0.1644  0.1473
16957W        W21357   3.239   2.004  17.362 -0.0741 -0.2454 -0.0446
16958W        W21358  19.323   4.700  31.926 -0.0877  0.3339 -0.2255
16959W        W21359  11.086   5.262  42.493  0.0768  0.1040  0.0119
16960W        W21360   6.493   5.166  30.970 -0.0517  0.1619  0.0528
16961W        W21361   3.540   0.217  14.623 -0.1210 -0.0972  0.3902
16962W        W21362   7.264   5.449   3.429 -0.1686 -0.1640  0.2451
16963W        W21363  15.026   2.877   3.033  0.1105  0.1107 -0.2621
16964W        W21364  12.730   5.647  17.433  0.0086  0.0598  0.2841
16965W        W21365  18.468   4.863   2.404 -0.0882 -0.0205  0.1656
16966W        W21366  20.463   4.848  28.663  0.3266  0.2417  0.0829
16967W        W21367  11.849   0.201  40.974  0.1428 -0.0916 -0.1328
16968W        W21368   5.120   2.960   8.896  0.2132  0.2426  0.0392
16969W        W21369   7.849   1.362  37.890 -0.1048 -0.0633  0.2742
16970W        W21370  16.634   5.134  35.915 -0.1906 -0.2003  0.2367
16971W        W21371   8.668   3.524  21.711 -0.1392  0.2249 -0.1586
16972W        W21372  10.007   3.335   5.285  0.2436 -0.1241  0.2732
16973W        W21373  11.916   5.702   9.529 -0.5075  0.0151  0.2269
16974W        W21374  15.967   4.816  42.052  0.0155  0.0752 -0.3451
16975W        W21375  13.632   5.711  27.528  0.1933 -0.0462  0.1785
16976W        W21376   1.287   4.186  40.118 -0.0798  0.3169 -0.1249
16977W        W21377  19.667   5.069  38.771 -0.3333  0.0063  0.1074
16978W        W21378  19.293   1.530   5.014 -0.0466 -0.0312  0.1572
16979W        W21379  12.687   3.453   0.497  0.1552 -0.2251  0.5415
16980W        W21380  13.069   5.472  36.544 -0.1196  0.2106  0.0252
16981W        W21381  13.513   5.923  33.915 -0.1170 -0.0054 -0.0107
16982W        W21382   5.093   3.040  15.134  0.3050  0.1152 -0.1375
16983W        W21383   8.404   1.751   5.079  0.5977 -0.1676  0.1471
16984W        W21384  15.857   2.390  34.088 -0.0644  0.1702  0.0907
16985W        W21385  12.365   2.990  15.766  0.0369  0.1656 -0.2949
16986W        W21386  10.271   1.557  13.018 -0.1282  0.0032  0.0181
16987W        W21387  19.570   1.428  36.753  0.0452 -0.0236  0.0073
16988W        W21388   1.728   6.517  39.410  0.2979  0.0737 -0.2365
16989W        W21389  19.543   4.520  12.266  0.1171 -0.1960 -0.1309
16990W        W21390  15.923   0.150  10.924  0.0489  0.2180 -0.3023
16991W        W21391   7.685   2.979  28.961  0.0578  0.2590  0.2671
16992W        W21392  15.475   3.704  10.371  0.4455  0.1228 -0.2539
16993W        W21393  14.405   2.519   3.364  0.0569  0.2437 -0.2315
16994W        W21394  11.813   4.599  19.711  0.1277  0.0201 -0.0785
16995W        W21395  10.799   3.310   2.083 -0.2790 -0.0785 -0.0131
16996W        W21396  20.185   5.772   0.453  0.0856 -0.0540  0.1042
16997W        W21397   9.242   3.846  43.807  0.1030  0.0157 -0.0374
16998W        W21398   2.939   5.828  37.758 -0.1442  0.0936 -0.1366
16999W        W21399  18.038   2.083  31.804  0.1634 -0.1219 -0.2484
17000W        W21400  10.211   4.742   5.762 -0.0724 -0.1485  0.3776
17001W        W21401   7.876   4.611  42.703 -0.0923 -0.1287  0.0487
17002W        W21402  11.219   5.317   3.859 -0.1388  0.0384  0.0953
17003W        W21403  17.483   2.267   2.395  0.0212 -0.0419  0.1033
17004W        W21404  18.183   5.733  40.515 -0.1983 -0.0641 -0.1984
17005W        W21405  17.264   6.572  14.187  0.1210  0.1877 -0.0650
17006W        W21406  18.022   1.382  14.425  0.1218  0.0538 -0.1278
17007W        W21407  19.275   2.872  38.732  0.2255 -0.0123  0.2835
17008W        W21408   8.016   3.683   4.416 -0.1086 -0.0021  0.1348
17009W        W21409   1.792   1.606   6.522 -0.0407 -0.2587 -0.2568
17010W        W21410   2.205   3.529   5.289  0.2528  0.0086 -0.1161
17011W        W21411  16.188   3.148  37.818 -0.2374 -0.2127 -0.0342
17012W        W21412  12.019   3.549  44.965 -0.1100  0.3111  0.1497
17013W        W21413  15.439   3.508   0.073 -0.0654 -0.2850 -0.0328
17014W        W21414   0.605   4.433   0.645  0.3273 -0.0580  0.0909
17015W        W21415   9.622   1.702  20.289 -0.1296 -0.2016 -0.0265
17016W        W21416  10.317   4.090  41.604  0.1064  0.0662 -0.1362
17017W        W21417  18.319   5.550   8.312 -0.4968 -0.0516 -0.1056
17018W        W21418   7.512   6.379  12.655 -0.0293  0.0446 -0.0102
17019W        W21419  16.964   2.412  44.779 -0.2542 -0.0979 -0.0031
17020W        W21420   4.882   6.485   3.116 -0.0717  0.0227  0.3439
17021W        W21421  17.716   1.568  14.030 -0.0113 -0.1717 -0.1466
17022W        W21422   4.128   3.218  16.322 -0.1103  0.0274 -0.0893
17023W        W21423  17.693   2.724   7.550  0.4491  0.2041 -0.1051
17024W        W21424   5.034   1.102  18.303  0.2888  0.0774  0.2017
17025W        W21425   8.554   0.632  15.910  0.0026  0.1499  0.0274
17026W        W21426   0.019   6.399  29.913  0.1774  0.1794  0.1819
17027W        W21427   9.047   4.360  13.736 -0.0945  0.1519  0.1883
17028W        W21428  19.212   1.494  28.565  0.1415  0.0027  0.0926
17029W        W21429  15.823   1.932  41.754  0.1008 -0.0556 -0.1092
17030W        W21430  18.926   3.269   6.862 -0.2176  0.2387 -0.0108
17031W        W21431  17.004   1.328  27.497 -0.1064 -0.0449  0.0601
17032W        W21432  19.716   4.658  22.921 -0.0926  0.2925  0.0746
17033W        W21433   3.860   4.984  15.038  0.1077  0.2373 -0.1929
17034W        W21434  20.958   2.233  43.010  0.0665 -0.1054 -0.0417
17035W        W21435  11.121   6.459  15.454  0.1371  0.2879 -0.0866
17036W        W21436   2.404   5.218  33.088  0.0789 -0.0259  0.2264
17037W        W21437  16.570   2.127   6.058 -0.0353 -0.1854 -0.1158
17038W        W21438  16.569   2.793  35.397  0.0129  0.0742  0.1091
17039W        W21439  13.525   5.606  14.033 -0.0831 -0.0668 -0.1149
17040W        W21440   2.529   4.482   9.331 -0.4747 -0.1454 -0.1022
17041W        W21441   4.285   3.732   0.212  0.1425  0.1604 -0.4126
17042W        W21442   5.971   4.153  35.325 -0.4025  0.0774 -0.1243
17043W        W21443  20.813   5.257  40.295 -0.0568 -0.1392 -0.2757
17044W        W21444   1.024   5.812  29.136  0.1077 -0.1516 -0.1228
17045W        W21445  10.251   3.756   2.819 -0.3617  0.1445 -0.0907
17046W        W21446  10.470   6.594  20.031  0.2368 -0.1447 -0.1985
17047W        W21447   7.070   5.503  21.349 -0.1866 -0.2699 -0.3633
17048W        W21448  14.411   3.323   4.844 -0.1166 -0.1598 -0.1580
17049W        W21449   9.439   3.105  29.549  0.0825  0.3547  0.1002
17050W        W21450  10.138   4.297   0.755  0.0180 -0.1492 -0.0136
17051W        W21451   9.088   6.285  10.329  0.0668  0.1689 -0.1906
17052W        W21452   1.808   1.901  26.717 -0.1110 -0.1775  0.4716
17053W        W21453  13.989   1.568  17.739 -0.0105 -0.0104  0.2880
17054W        W21454   0.220   4.369  44.829  0.0898  0.1354  0.1752
17055W        W21455   5.974   5.295  33.031  0.1223  0.0783 -0.1965
17056W        W21456  20.030   2.451  44.649  0.2834  0.1530  0.2424
17057W        W21457  10.859   4.414   3.181 -0.1035 -0.2929  0.1531
17058W        W21458  20.081   6.090  25.790 -0.1133 -0.2347 -0.2208
17059W        W21459  20.415   5.706  27.618  0.1975  0.2140  0.1874
17060W        W21460  11.260   2.442  28.317  0.1877 -0.1025  0.1895
17061W        W21461   3.083   3.061  29.980 -0.2123 -0.3390  0.1836
17062W        W21462  19.368   3.368  31.518  0.0380  0.4386 -0.0754
17063W        W21463   4.439   6.480   3.428 -0.1004 -0.0377  0.3056
17064W        W21464  10.364   2.157  16.123  0.1159  0.2493 -0.0286
17065W        W21465  19.942   1.691  15.927 -0.0897  0.2519 -0.0490
17066W        W21466   7.151   2.744  14.315 -0.1935  0.1198  0.1916
17067W        W21467  14.060   5.968   2.452  0.3975 -0.0458  0.2607
17068W        W21468   7.722   4.013   9.484 -0.0008 -0.0496  0.3307
17069W        W21469   1.907   5.413  14.009  0.0680  0.5465 -0.2244
17070W        W21470  14.630   6.417  33.821  0.1334 -0.1391 -0.2387
17071W        W21471   2.255   0.062   5.758 -0.0941  0.0975  0.0095
17072W        W21472   8.013   4.422  11.566  0.1431  0.1366 -0.0884
17073W        W21473   4.144   2.089  15.674  0.5170  0.1523  0.0426
17074W        W21474   5.710   2.362  44.547  0.3017  0.3880 -0.0457
17075W        W21475   1.271   3.357  24.513  0.1029 -0.0412  0.0710
17076W        W21476   5.460   6.189  28.665 -0.0841 -0.1395 -0.0951
17077W        W21477  17.943   0.299   5.481 -0.1907  0.2885 -0.0264
17078W        W21478   0.917   2.515   6.437  0.3422 -0.1071 -0.1124
17079W        W21479  14.206   6.510   5.858 -0.0160  0.1367 -0.1204
17080W        W21480   9.483   4.434   8.371 -0.2094  0.1039  0.0696
17081W        W21481  16.796   2.901  17.023  0.2127 -0.2792  0.1197
17082W        W21482   2.310   2.995  29.990  0.3054 -0.1863 -0.1598
17083W        W21483   0.363   3.300  37.924 -0.0883  0.0836 -0.0518
17084W        W21484   4.111   1.962  10.051 -0.1640  0.0816 -0.1706
17085W        W21485   1.305   6.533  27.397  0.1357 -0.0223 -0.2672
17086W        W21486   7.285   0.481  32.099  0.0433  0.1375  0.1923
17087W        W21487   5.933   5.258  38.173 -0.0909  0.2115 -0.1917
17088W        W21488   8.386   0.225  34.644  0.2911  0.0061 -0.2882
17089W        W21489  15.780   1.448  30.508 -0.3849 -0.1061  0.3847
17090W        W21490   0.845   6.600  24.682 -0.1470  0.1124 -0.0024
17091W        W21491  11.094   2.893   6.227  0.1184  0.3425 -0.0909
17092W        W21492   5.155   3.001  10.364  0.0109  0.2281 -0.1080
17093W        W21493  11.232   6.029  10.634  0.2079  0.1351 -0.2427
17094W        W21494  15.848   3.050  12.631 -0.0032 -0.0569 -0.1309
17095W        W21495  11.177   1.603  42.273 -0.2708  0.0179  0.1206
17096W        W21496  18.527   3.177  32.404 -0.1637  0.3805  0.0411
17097W        W21497  12.118   2.566  36.412  0.3637  0.1041  0.1078
17098W        W21498  15.331   2.747   5.509 -0.1390 -0.1002 -0.0139
17099W        W21499  21.018   1.256  35.033  0.2606 -0.0843  0.0581
17100W        W21500   2.283   4.041  32.655  0.0608  0.1278  0.0581
17101W        W21501  14.211   3.160  30.374 -0.3833 -0.0144  0.1368
17102W        W21502  18.533   0.194   6.180  0.1358  0.0554  0.0061
17103W        W21503   1.060   1.807  35.167 -0.0263 -0.0364 -0.2163
17104W        W21504   0.384   6.009  42.318  0.3699  0.2794 -0.1794
17105W        W21505  10.919   4.209  29.618 -0.0383 -0.1391 -0.2833
17106W        W21506  11.183   6.218  22.319 -0.1246  0.0719  0.1748
17107W        W21507   2.275   4.732   6.565 -0.0876 -0.0507  0.3647
17108W        W21508  10.762   5.080  37.941  0.0125  0.3628  0.1511
17109W        W21509  13.253   0.788  13.889 -0.3687 -0.0988  0.0871
17110W        W21510   0.943   6.538   1.311  0.1322  0.1422 -0.0064
17111W        W21511  13.006   5.078  40.392  0.2990 -0.0909  0.0366
17112W        W21512   0.523   4.846  10.224 -0.0074 -0.0870 -0.1233
17113W        W21513  20.000   2.205  43.784  0.1706  0.3745 -0.1436
17114W        W21514   9.364   5.820   1.715 -0.5480  0.1661 -0.1718
17115W        W21515  19.075   3.221  27.957 -0.2126 -0.1138 -0.2646
17116W        W21516   1.072   4.764  13.352 -0.0570  0.1977  0.0259
17117W        W21517   0.419   0.686   8.426 -0.1919  0.0253  0.0012
17118W        W21518   8.830   2.944  38.933 -0.0464  0.0498  0.0854
17119W        W21519  14.712   3.326  18.223 -0.4110  0.0384  0.4947
17120W        W21520  13.580   6.301  33.595 -0.0857 -0.0244 -0.0521
17121W        W21521   8.862   3.452   7.912  0.2137 -0.0122  0.0269
17122W        W21522  12.763   4.284  39.012  0.1800 -0.1303 -0.0117
17123W        W21523  16.482   5.809  27.953  0.0742  0.2946  0.1972
17124W        W21524  18.156   3.805  11.243  0.2666 -0.0095 -0.0036
17125W        W21525   6.133   6.331  14.899 -0.0408  0.0132  0.0538
17126W        W21526   2.644   1.426   8.095 -0.5786 -0.0780 -0.3011
17127W        W21527  10.395   1.971   0.422 -0.0984  0.2530  0.4142
17128W        W21528   6.756   0.574   0.114 -0.0363  0.0209  0.1417
17129W        W21529   6.635   0.580  14.603  0.1338 -0.5159  0.0596
17130W        W21530  20.318   0.376  38.810 -0.0731 -0.0400 -0.1476
17131W        W21531   8.210   4.140  30.727  0.0552  0.0575  0.0333
17132W        W21532   2.629   4.819   9.737 -0.1450 -0.0161 -0.1489
17133W        W21533   6.731   4.331  41.726  0.1100  0.0692  0.0847
17134W        W21534  15.157   0.127  10.979 -0.2073  0.2304 -0.0838
17135W        W21535  11.459   4.397  41.652  0.0353  0.2352  0.0634
17136W        W21536   7.818   5.894  40.259 -0.2561  0.1345 -0.0164
17137W        W21537   0.812   4.146  39.894  0.0923 -0.1549 -0.0468
17138W        W21538   1.997   0.780   9.216  0.1158 -0.0196 -0.1369
17139W        W21539   0.792   3.933  25.071  0.3060  0.1512 -0.1653
17140W        W21540  19.578   6.117   7.704  0.1720  0.3230 -0.0174
17141W        W21541  14.470   5.378  12.230  0.4574  0.1763 -0.0078
17142W        W21542  12.461   5.580  12.136 -0.0847  0.1582  0.3245
17143W        W21543  11.411   1.415  29.622 -0.0318  0.1428 -0.0477
17144W        W21544   4.719   1.354  41.335 -0.1106  0.0900  0.0790
17145W        W21545   6.025   1.647  21.322 -0.0386 -0.0081 -0.0743
17146W        W21546  10.719   0.992  37.014  0.1712 -0.2925 -0.2451
17147W        W21547  21.047   3.270  38.071  0.1533 -0.2460  0.0085
17148W        W21548  11.298   5.520  15.139  0.1939 -0.0847 -0.0737
17149W        W21549   6.082   5.494  42.515  0.1487 -0.1331 -0.1613
17150W        W21550   7.421   4.695  32.196 -0.4374  0.2436  0.3733
17151W        W21551  13.044   5.617  30.363  0.0958  0.0786 -0.0479
17152W        W21552  11.164   5.593   4.325  0.3810  0.0012  0.1257
17153W        W21553   0.395   0.143  38.368  0.0047  0.1397  0.2339
17154W        W21554  18.944   1.823  12.247  0.2520  0.0110 -0.0827
17155W        W21555  12.383   3.044   9.566  0.2389 -0.0150  0.0391
17156W        W21556  17.164   5.780  42.858 -0.1591 -0.2843 -0.1447
17157W        W21557   3.262   1.611  44.057  0.2100 -0.0112  0.1057
17158W        W21558  13.432   0.158  34.246  0.1665  0.0201 -0.0781
17159W        W21559  20.927   1.957   9.686 -0.1039  0.2662  0.0118
17160W        W21560  19.599   0.220  36.029 -0.0600 -0.0405  0.0044
17161W        W21561  11.145   6.059  34.864  0.0987  0.0291  0.0381
17162W        W21562   4.642   3.493  33.402 -0.1706 -0.0502 -0.0493
17163W        W21563   9.457   3.490  36.187  0.0806  0.2386 -0.0260
17164W        W21564   7.175   2.073   5.317  0.2486  0.0169  0.3637
17165W        W21565  20.374   6.035  10.107  0.2517  0.0768  0.2124
17166W        W21566   1.398   3.762  37.459  0.3210 -0.0761 -0.2660
17167W        W21567  14.525   5.426  44.269  0.1980  0.1917  0.1071
17168W        W21568  20.418   1.915  24.503 -0.0270 -0.0349 -0.2410
17169W        W21569   6.862   0.918  35.794 -0.4198  0.1164  0.1383
17170W        W21570   4.478   3.481   4.590 -0.0582 -0.2927 -0.0339
17171W        W21571   1.704   2.387   9.256  0.0880  0.2156 -0.1795
17172W        W21572   8.838   0.492  39.878 -0.2680  0.2007  0.0543
17173W        W21573  17.003   0.484  39.287  0.2322 -0.2638  0.1794
17174W        W21574   5.277   6.454   2.049 -0.1187  0.2208 -0.1125
17175W        W21575   4.611   6.081  33.562 -0.2804 -0.2777  0.1595
17176W        W21576   3.243   6.151  16.677  0.0720 -0.1502  0.0693
17177W        W21577  21.111   6.193   4.507 -0.2302 -0.2707 -0.1813
17178W        W21578  11.682   1.042  37.995  0.2696 -0.3587 -0.1916
17179W        W21579  19.198   1.257  13.473  0.2417 -0.0797  0.1438
17180W        W21580  13.498   2.398  16.394 -0.2975 -0.0200  0.2042
17181W        W21581  18.030   5.590   0.315 -0.2623 -0.1196  0.0959
17182W        W21582  16.019   3.493  30.327 -0.1746 -0.0366  0.2212
17183W        W21583  20.182   5.447  26.713 -0.0808 -0.2960 -0.4018
17184W        W21584   5.142   0.355  30.186 -0.0062 -0.0516  0.0076
17185W        W21585  19.736   5.795   0.750 -0.1293  0.2265  0.0090
17186W        W21586  18.744   1.928  13.110  0.0874  0.2135  0.0631
17187W        W21587  15.925   4.435   5.600  0.1422 -0.1517  0.1087
17188W        W21588  13.172   4.029  31.366  0.3448 -0.2187 -0.2376
17189W        W21589  14.782   4.621  43.209 -0.0829  0.0213 -0.1880
17190W        W21590  15.232   5.877  32.352  0.0809 -0.1453 -0.1142
17191W        W21591  11.208   6.389  42.771 -0.1499  0.1477  0.0024
17192W        W21592  16.731   0.804  14.613 -0.0006 -0.1513  0.0776
17193W        W21593  12.784   4.435  12.854 -0.1130  0.0436  0.1414
17194W        W21594  19.877   3.807  30.383 -0.1877 -0.4747 -0.1235
17195W        W21595   1.099   5.539  43.717  0.1836  0.3259 -0.0169
17196W        W21596  17.742   4.053   0.594 -0.2842 -0.3465 -0.0320
17197W        W21597   1.002   5.739  31.916  0.3739  0.0823  0.0419
17198W        W21598  10.099   1.650  38.510 -0.2099  0.1977  0.2884
17199W        W21599   8.119   5.540   7.016  0.1593  0.1432  0.1323
17200W        W21600   4.864   0.287  34.681 -0.0281  0.0769  0.0263
17201W        W21601  11.807   1.657  33.076  0.0232  0.1897 -0.1217
17202W        W21602   8.165   6.051  21.972  0.1503  0.1046  0.0515
17203W        W21603   4.535   5.868   3.358 -0.2964  0.0755 -0.3774
17204W        W21604   3.880   3.630  11.674  0.3521 -0.1033  0.0247
17205W        W21605  11.680   4.964  41.219  0.2461 -0.0636 -0.0775
17206W        W21606   0.726   5.441  40.368  0.3651 -0.1189 -0.1664
17207W        W21607   0.797   1.941   4.080  0.0014  0.0496 -0.0057
17208W        W21608  10.956   2.664   7.862 -0.0686 -0.0434  0.1816
17209W        W21609   6.063   0.711  33.520  0.0831  0.2383  0.0887
17210W        W21610  17.167   0.714   2.778  0.3041 -0.0677  0.2343
17211W        W21611  12.067   1.963  16.203  0.2052  0.0197 -0.0624
17212W        W21612  10.338   4.069   1.540 -0.2029 -0.1128 -0.1178
17213W        W21613  13.291   2.050  18.414 -0.1592  0.1527 -0.2186
17214W        W21614   5.224   0.634  37.444  0.1575  0.2092  0.0687
17215W        W21615  16.515   2.839  10.407  0.0992 -0.1648  0.0987
17216W        W21616   4.298   1.025  45.015  0.3103  0.0285 -0.0783
17217W        W21617  19.319   6.602  27.076 -0.0307 -0.0444 -0.0677
17218W        W21618   9.776   3.000  37.415 -0.0984 -0.1055  0.0239
17219W        W21619   8.522   0.771  41.631  0.2927  0.1171  0.3823
17220W        W21620  17.263   1.751  40.275  0.1809  0.0824  0.0732
17221W        W21621  12.293   1.833  37.801  0.1157  0.0482  0.0199
17222W        W21622  14.678   3.345  33.042 -0.2837 -0.2856 -0.2328
17223W        W21623   8.379   4.013   6.102  0.2190  0.2746  0.4256
17224W        W21624   6.819   5.614   7.193 -0.0269  0.2266 -0.0073
17225W        W21625   3.375   0.329  36.405  0.0413  0.0245 -0.0939
17226W        W21626  15.717   2.820  35.995 -0.1372  0.0824  0.0909
17227W        W21627  18.772   1.702   2.472 -0.1151 -0.1400  0.2720
17228W        W21628  15.356   3.738  40.937 -0.0319  0.1230  0.0365
17229W        W21629  15.203   3.804  11.130 -0.0038  0.0206  0.0756
17230W        W21630  15.119   5.981  28.713 -0.1657  0.1698  0.0396
17231W        W21631  11.187   3.002  43.924  0.0524  0.0348  0.2644
17232W        W21632   4.728   2.078  33.802  0.1803  0.0039  0.2221
17233W        W21633  15.918   2.918  11.248  0.0912  0.1455  0.3266
17234W        W21634  11.019   5.279  29.005  0.3220 -0.1081  0.1059
17235W        W21635   1.418   2.879   6.380 -0.0062  0.2309 -0.1225
17236W        W21636   8.392   2.019  15.841 -0.1190 -0.1440  0.1276
17237W        W21637   3.114   3.459   8.145 -0.0386  0.1833  0.2891
17238W        W21638  15.242   0.657  44.017  0.1209  0.1941  0.1944
17239W        W21639   8.022   6.335  17.001  0.0581  0.0156 -0.0789
17240W        W21640   6.160   2.194  37.688  0.1261  0.0378 -0.0397
17241W        W21641  19.082   0.331  24.788  0.0918 -0.0331 -0.0292
17242W        W21642   0.286   1.622  22.785  0.1591  0.0016  0.1904
17243W        W21643   4.579   0.245  29.352 -0.0646 -0.1497 -0.2391
17244W        W21644   7.060   4.448  16.635  0.0219 -0.1227 -0.0013
17245W        W21645   5.299   2.809   7.521 -0.0520 -0.1115  0.0917
17246W        W21646   4.506   4.738  44.818  0.1264 -0.4301  0.0264
17247W        W21647   1.061   2.892   2.051  0.0909  0.1439 -0.1055
17248W        W21648  18.387   4.247   9.514 -0.2226  0.0376 -0.1119
17249W        W21649   5.766   2.546  13.513 -0.1151 -0.0696  0.2513
17250W        W21650  17.881   5.964  15.332 -0.0573  0.0286 -0.3600
17251W        W21651  11.156   4.357   4.370 -0.3999  0.1082  0.0509
17252W        W21652   9.377   0.951  17.768  0.0308  0.2028 -0.1040
17253W        W21653   3.902   2.180   5.355 -0.1589  0.0154  0.1115
17254W        W21654  16.882   6.414   6.770  0.1122 -0.1413 -0.0190
17255W        W21655   2.919   4.968  27.801  0.1063  0.1088  0.2182
17256W        W21656  17.250   1.278  43.803 -0.1375  0.0981 -0.1226
17257W        W21657  19.301   3.277  41.307 -0.1049  0.3279  0.0502
17258W        W21658  12.349   0.286  39.731 -0.0833  0.1535 -0.0257
17259W        W21659  15.967   3.823  12.580 -0.1037 -0.0701 -0.0017
17260W        W21660  16.354   1.680  14.588  0.0172 -0.0632  0.2497
17261W        W21661   6.414   5.251  12.749  0.0547 -0.1654  0.0317
17262W        W21662  11.825   3.812  10.599  0.2119  0.0207 -0.0500
17263W        W21663   4.688   6.078  12.062  0.1271  0.1976 -0.1532
17264W        W21664   1.239   3.760  42.643  0.1396 -0.0816  0.0539
17265W        W21665   0.986   4.948  14.863 -0.1493 -0.1750  0.0177
17266W        W21666  12.241   0.070  31.660  0.1121 -0.2517  0.2296
17267W        W21667  16.313   4.125   0.171  0.0633 -0.0540  0.1441
17268W        W21668   5.207   4.462  12.606 -0.1880 -0.1865  0.1338
17269W        W21669   8.571   1.864  13.890  0.2188 -0.2465  0.0345
17270W        W21670  17.702   2.877   5.684  0.0641  0.1319  0.0428
17271W        W21671   2.547   6.360  35.034 -0.0439  0.1546  0.0567
17272W        W21672   3.756   6.418  14.367 -0.2113 -0.2673 -0.1457
17273W        W21673  17.550   5.701  39.074  0.0429  0.0207  0.5324
17274W        W21674   6.551   4.278  30.514 -0.0290 -0.0362 -0.0073
17275W        W21675   7.868   2.181  32.791  0.2081 -0.0182 -0.1317
17276W        W21676   1.326   0.456  24.161 -0.1449 -0.1496  0.1549
17277W        W21677   3.841   4.530  40.855 -0.0460 -0.0096  0.1165
17278W        W21678  16.277   3.845  34.317 -0.1132 -0.1210 -0.2333
17279W        W21679   8.778   0.331  41.783  0.2933 -0.0594  0.1655
17280W        W21680   7.384   1.615  19.422  0.3152  0.1104 -0.0295
17281W        W21681  18.727   6.035  15.250 -0.0993  0.2304  0.0371
17282W        W21682  14.216   0.338  27.592 -0.1489 -0.0231  0.0606
17283W        W21683  21.082   1.223  44.278  0.2381 -0.0659 -0.3303
17284W        W21684   9.081   3.852  39.916 -0.0259 -0.1552 -0.1271
17285W        W21685  10.707   1.921  34.383  0.1855 -0.1834  0.0930
17286W        W21686   0.845   3.084   8.160 -0.1647 -0.0752 -0.0220
17287W        W21687  13.944   3.322  14.771 -0.0779 -0.2825  0.0077
17288W        W21688  12.461   1.416  36.402 -0.1390 -0.0132 -0.2010
17289W        W21689  16.455   0.592  40.998  0.0609 -0.0715 -0.0495
17290W        W21690  11.932   2.306   4.183  0.0495  0.0713  0.1224
17291W        W21691  13.545   2.014   4.241  0.1508  0.1077 -0.0565
17292W        W21692   0.891   3.248  37.062 -0.2405  0.0994 -0.3985
17293W        W21693  14.417   6.492  35.626  0.0905  0.0574 -0.0577
17294W        W21694   6.860   1.760   6.806  0.0517  0.4805  0.0331
17295W        W21695  19.863   5.997  38.538  0.0425 -0.0644 -0.0420
17296W        W21696   0.587   4.797   0.290  0.0950 -0.0670  0.1263
17297W        W21697  10.868   2.004  37.761  0.0771 -0.2276  0.4025
17298W        W21698  19.288   0.071   8.888 -0.1527 -0.2325  0.0807
17299W        W21699   8.848   3.325  15.551 -0.1403  0.0135  0.0158
17300W        W21700  18.885   3.264  25.125 -0.1294 -0.2638  0.0602
17301W        W21701  16.009   0.871   4.753  0.4347 -0.2176 -0.0425
17302W        W21702  15.954   5.955  16.511 -0.3474  0.3413 -0.1738
17303W        W21703   2.031   6.001  13.233 -0.0951 -0.0925 -0.0040
17304W        W21704  15.060   5.940  12.984  0.6082  0.3056  0.2518
17305W        W21705   7.401   2.500   5.605  0.2356  0.0783  0.0243
17306W        W21706   7.222   5.768  16.934 -0.0703 -0.0118  0.0322
17307W        W21707   5.945   2.501   6.811  0.0182 -0.0586  0.0998
17308W        W21708  19.383   5.889  42.599 -0.2487  0.2759 -0.1564
17309W        W21709   0.504   3.561  23.420 -0.0256 -0.2905 -0.0399
17310W        W21710   2.931   2.561   6.942  0.1883 -0.1025  0.3823
17311W        W21711   1.603   3.244  32.458 -0.1296  0.1611 -0.1804
17312W        W21712  13.597   1.945  37.327  0.0919 -0.1337 -0.1346
17313W        W21713   3.447   5.986  39.571 -0.0732 -0.1975  0.0741
17314W        W21714   3.219   5.773   4.233  0.1718 -0.2584  0.2917
17315W        W21715  20.073   1.589  32.144  0.2956  0.0981 -0.3084
17316W        W21716   6.465   5.273   1.585 -0.0026 -0.1836  0.1266
17317W        W21717   1.889   1.745  11.668 -0.1598  0.3085 -0.1607
17318W        W21718  19.528   1.873   9.546  0.2357  0.1759 -0.0696
17319W        W21719  15.681   2.497  33.594 -0.5097 -0.3748 -0.2761
17320W        W21720   4.624   4.515  35.056  0.0382  0.0851 -0.2350
17321W        W21721  12.228   0.478  30.932 -0.2524  0.1024 -0.0775
17322W        W21722  10.063   2.520  32.823 -0.3127  0.0212  0.0319
17323W        W21723  10.388   3.417  12.668  0.2836  0.0636  0.1175
17324W        W21724  12.225   2.372   1.306 -0.0204  0.0988 -0.1336
17325W        W21725  13.283   3.952   7.370  0.0471 -0.3610  0.0777
17326W        W21726   9.918   5.908  17.460  0.0410  0.2335  0.1523
17327W        W21727   2.071   5.704  27.611  0.0467  0.0843 -0.0089
17328W        W21728   1.425   2.849  40.795 -0.0943  0.1093  0.0378
17329W        W21729   3.735   0.489  15.009 -0.1329 -0.3396  0.1961
17330W        W21730  13.347   1.763  10.708 -0.1828  0.0281  0.0430
17331W        W21731  13.203   1.230  19.881 -0.0746  0.1153 -0.1093
17332W        W21732  12.785   1.063  15.793 -0.0872  0.1160  0.0658
17333W        W21733   6.046   5.262   1.330  0.0152  0.1938 -0.2005
17334W        W21734   7.355   5.509  45.000 -0.2243  0.2977  0.1457
17335W        W21735  13.281   4.502  11.549  0.0831 -0.1997  0.0605
17336W        W21736   8.141   1.167  31.162 -0.4454 -0.1810  0.0205
17337W        W21737   0.144   2.656  25.580  0.0696 -0.0948 -0.0089
17338W        W21738   4.780   4.258  35.935  0.1167 -0.0398  0.0984
17339W        W21739   7.643   6.095  16.931  0.2993  0.1972 -0.1629
17340W        W21740  20.758   3.656  34.115  0.1215  0.0360  0.1175
17341W        W21741  12.558   2.565   7.268  0.0539  0.2177  0.0637
17342W        W21742   4.485   6.052  37.586 -0.1589  0.1002  0.1466
17343W        W21743  12.194   4.942  34.548 -0.1214 -0.2153 -0.1724
17344W        W21744  10.364   3.750  42.074  0.1406  0.4151  0.0156
17345W        W21745   8.453   3.273  16.897 -0.2837  0.0021 -0.2315
17346W        W21746   3.967   2.067   7.855 -0.1684  0.3550  0.0312
17347W        W21747   3.466   4.101   8.954  0.0409 -0.1711 -0.0352
17348W        W21748  18.613   3.357  30.563 -0.3216  0.0727  0.3648
17349W        W21749   2.056   1.663   2.788 -0.0696 -0.0209 -0.3467
17350W        W21750  16.311   2.468  27.254  0.2758 -0.0051  0.2089
17351W        W21751   7.401   1.058  15.878 -0.1933  0.2976 -0.1852
17352W        W21752   9.308   0.925   0.014  0.0565  0.3864  0.2547
17353W        W21753  18.532   0.951  13.978 -0.1962 -0.2099  0.1427
17354W        W21754  20.289   3.897  14.998  0.1980  0.0616 -0.1426
17355W        W21755  13.599   6.134  45.074  0.0260 -0.1561  0.0706
17356W        W21756   1.346   2.381  43.063  0.3964 -0.0139  0.0406
17357W        W21757  11.395   5.912  14.861  0.1532  0.2599  0.0040
17358W        W21758   2.803   2.419   9.107 -0.1783 -0.1381  0.0283
17359W        W21759   7.435   0.298  11.317  0.1460 -0.0728  0.2708
17360W        W21760  15.878   4.415   6.706  0.1243  0.1117  0.2012
17361W        W21761   9.272   3.644  33.748 -0.0692 -0.1885  0.1739
17362W        W21762   7.019   1.196   4.605  0.0536  0.1415  0.1368
17363W        W21763  11.931   2.455  18.138 -0.0434  0.1375 -0.1481
17364W        W21764   8.394   6.427  21.690 -0.5099 -0.0889  0.0121
17365W        W21765   9.485   0.326   5.058 -0.0386  0.0150 -0.0184
17366W        W21766  15.445   0.982  33.935 -0.2735 -0.1908  0.3146
17367W        W21767  17.178   2.745   5.757 -0.2011  0.1622  0.0996
17368W        W21768  10.802   6.383  42.437 -0.0302  0.1766  0.2110
17369W        W21769  17.629   2.399  40.202 -0.2135  0.0856  0.0372
17370W        W21770   5.232   5.085   6.021 -0.1111  0.0098  0.1058
17371W        W21771  15.640   4.166  12.701 -0.0792 -0.2719  0.2593
17372W        W21772  16.880   0.248  37.855 -0.0866 -0.0621 -0.5156
17373W        W21773  14.848   2.139   4.742 -0.0264  0.2969  0.0042
17374W        W21774  20.536   6.021  44.821  0.1128 -0.3014 -0.0417
17375W        W21775   4.914   3.496  13.621 -0.1009 -0.0708  0.2772
17376W        W21776  20.020   1.416  42.906  0.0783 -0.0896  0.0268
17377W        W21777  18.781   5.553   0.896  0.2991 -0.0727 -0.2919
17378W        W21778   8.990   1.061  19.941  0.2025  0.1869 -0.1635
17379W        W21779  15.763   3.283  11.774  0.0555  0.1728  0.1585
17380W        W21780  17.293   0.080   7.111  0.1501 -0.0427 -0.2456
17381W        W21781  11.361   2.738  42.315 -0.0350 -0.0906  0.0053
17382W        W21782   5.162   6.400   9.741  0.0897  0.1333 -0.2031
17383W        W21783   4.944   0.869   2.726 -0.0840 -0.2716  0.0845
17384W        W21784   9.102   3.698  41.747 -0.0821  0.0007  0.1411
17385W        W21785  12.682   0.057  20.942 -0.0232  0.1659 -0.0246
17386W        W21786  11.786   6.382  15.555 -0.0259  0.0418  0.0017
17387W        W21787   0.906   5.026  12.035 -0.0003 -0.1750  0.2727
17388W        W21788   5.166   0.746   2.256  0.1310 -0.0418 -0.1956
17389W        W21789   8.832   6.465  34.044 -0.2932 -0.2886 -0.2515
17390W        W21790  11.534   4.000   9.743 -0.0007 -0.0322 -0.2719
17391W        W21791  19.691   5.689   5.719 -0.4193  0.0076 -0.2455
17392W        W21792  11.267   1.560   0.429 -0.1567  0.0229  0.1778
17393W        W21793  12.227   0.035   8.372 -0.2501 -0.0367 -0.3026
17394W        W21794  12.108   2.914   7.246  0.0597  0.0095  0.1637
17395W        W21795  17.689   3.882  43.440 -0.0086  0.0803  0.2520
17396W        W21796   8.818   0.749   2.110 -0.1473  0.1515  0.0659
17397W        W21797   4.456   1.100   8.756 -0.1941 -0.4232  0.1457
17398W        W21798  14.468   2.080  33.089  0.1917  0.0495 -0.0725
17399W        W21799  10.191   3.116   3.696 -0.0080  0.2166  0.1520
17400W        W21800  14.753   5.551  12.873  0.1533  0.1524  0.0388
17401W        W21801  13.394   3.584  35.331 -0.0017 -0.0575 -0.3035
17402W        W21802  20.400   0.322  35.519  0.1730  0.0706 -0.3835
17403W        W21803  16.295   1.888  12.540  0.0631  0.3042  0.1346
17404W        W21804   9.484   5.289  23.733  0.3162 -0.1426 -0.0501
17405W        W21805  21.101   0.068   9.780 -0.0152  0.2561 -0.1481
17406W        W21806   3.747   4.278  30.330 -0.1118 -0.0679 -0.0973
17407W        W21807   9.378   3.662  29.270  0.0979  0.2338  0.0097
17408W        W21808   7.004   0.591  37.191  0.1409  0.3228 -0.2517
17409W        W21809   8.182   5.079  42.865 -0.1201  0.3337 -0.0850
17410W        W21810  19.224   1.475  39.365 -0.0558  0.0105  0.2683
17411W        W21811   6.480   0.069  31.401  0.2403 -0.1361  0.0247
17412W        W21812   4.189   5.105  42.444  0.0466 -0.4349 -0.1473
17413W        W21813   6.250   3.885  17.609  0.3158 -0.4253 -0.4304
17414W        W21814   2.033   0.091  13.750 -0.0521 -0.0300 -0.0063
17415W        W21815  19.068   3.473   9.468  0.0899 -0.1680 -0.2404
17416W        W21816  15.040   4.384  12.856 -0.4149  0.2089  0.0252
17417W        W21817   3.519   1.856  40.458 -0.0763  0.0846 -0.1753
17418W        W21818   7.652   0.101  32.057 -0.0953 -0.2492  0.2563
17419W        W21819   5.129   0.665   4.014 -0.3561  0.3021  0.1093
17420W        W21820  10.817   3.383  16.540  0.0030 -0.0018  0.1558
17421W        W21821  10.856   6.234  13.613  0.3920 -0.1723 -0.1432
17422W        W21822   9.650   6.459  14.174  0.0435 -0.0047  0.3462
17423W        W21823   0.183   3.671   4.896  0.2718  0.1147  0.0807
17424W        W21824   8.516   1.227  33.543 -0.0194  0.1144  0.1069
17425W        W21825   9.187   4.917  16.899 -0.1054 -0.0920 -0.1445
17426W        W21826  14.360   1.789   2.222  0.2530 -0.1185  0.0900
17427W        W21827  12.788   1.965  34.752  0.0492 -0.0496  0.0578
17428W        W21828  10.588   3.245  39.028  0.0601 -0.0256 -0.0614
17429W        W21829  19.052   5.894   1.059 -0.0102  0.2001 -0.0025
17430W        W21830  19.520   4.600  35.103  0.0119 -0.0793  0.2882
17431W        W21831  21.012   3.297  25.197 -0.0805  0.0512  0.1670
17432W        W21832   5.764   0.128   4.507 -0.0128 -0.1059  0.1244
17433W        W21833  19.299   0.529   7.614  0.5427  0.0731 -0.0125
17434W        W21834  10.346   3.641   1.253 -0.1434 -0.0883  0.2041
17435W        W21835  10.709   6.510  39.327  0.2829  0.1217  0.1679
17436W        W21836  14.993   6.162   3.530 -0.1073 -0.3523  0.0636
17437W        W21837  13.916   1.801  40.205 -0.2174 -0.2670  0.0030
17438W        W21838  17.002   6.579  32.749 -0.1582  0.0140 -0.5059
17439W        W21839  11.257   5.613   7.282 -0.3876 -0.0034  0.1567
17440W        W21840  19.119   5.979   9.248 -0.0564 -0.0289  0.1856
17441W        W21841   3.271   0.383  13.197 -0.1283 -0.2238 -0.1027
17442W        W21842  11.341   1.945   5.545  0.0568  0.1142 -0.0557
17443W        W21843   6.316   2.904   3.849  0.0389 -0.1850 -0.0688
17444W        W21844  17.839   2.568  36.661 -0.1981  0.2245  0.2453
17445W        W21845  15.836   0.717  16.116 -0.0131  0.0681 -0.1524
17446W        W21846   2.758   2.277   6.169 -0.2672  0.1221  0.1774
17447W        W21847  10.176   3.571  38.260 -0.1082 -0.0177  0.3166
17448W        W21848  14.041   4.935  18.224  0.0882  0.0566  0.1717
17449W        W21849  16.647   1.803  34.178  0.1377 -0.0294  0.0195
17450W        W21850  19.861   3.490   3.141 -0.1388 -0.0017  0.1865
17451W        W21851   9.623   5.865  12.131 -0.2549  0.3778  0.0740
17452W        W21852   9.730   4.295  10.057 -0.3317  0.0505  0.1235
17453W        W21853  11.694   1.060  30.025 -0.0902 -0.0972 -0.3670
17454W        W21854   1.952   3.671  33.197 -0.1140  0.3017 -0.1365
17455W        W21855  11.360   3.477  11.988 -0.2010 -0.1549  0.1351
17456W        W21856  16.238   2.247  10.087  0.2195 -0.1197 -0.0643
17457W        W21857   5.297   5.782  27.431 -0.1251  0.2671 -0.0857
17458W        W21858  12.051   5.561  13.053 -0.2285 -0.1381 -0.1001
17459W        W21859  18.623   4.393  36.006  0.3355  0.2924 -0.1171
17460W        W21860  12.336   2.923   2.216  0.0552  0.0737 -0.0431
17461W        W21861  11.885   5.617  28.248 -0.0300  0.0638  0.0435
17462W        W21862   1.053   0.457  28.756 -0.0650 -0.2746 -0.0399
17463W        W21863  11.272   2.351  22.244  0.2758 -0.0132 -0.1078
17464W        W21864   9.872   2.523  17.645 -0.0704 -0.1396 -0.1629
17465W        W21865   9.137   2.470  22.457 -0.0687 -0.1970  0.1630
17466W        W21866  11.636   5.942  37.006 -0.1535 -0.1215  0.1760
17467W        W21867  15.973   0.635   2.036  0.0078 -0.0228  0.0830
17468W        W21868   9.626   0.652  41.028  0.1293 -0.0848  0.0113
17469W        W21869   7.695   1.176  21.497 -0.0969 -0.2193  0.3745
17470W        W21870   0.574   0.999  31.751 -0.2161 -0.0354  0.0011
17471W        W21871   0.186   5.785  43.851 -0.2040  0.0550  0.0520
17472W        W21872   5.089   5.074  33.092  0.0047  0.0201 -0.0272
17473W        W21873   8.712   5.613  31.724 -0.0920  0.3097 -0.2230
17474W        W21874   2.436   0.931  12.940  0.0385 -0.3259 -0.3085
17475W        W21875  17.001   5.904  24.887  0.1921 -0.0793 -0.0104
17476W        W21876  15.615   5.194   7.985 -0.1428 -0.0720 -0.2405
17477W        W21877  17.985   0.023  23.519  0.0043  0.1344 -0.1138
17478W        W21878   6.061   1.466   5.655 -0.1552  0.1111 -0.0590
17479W        W21879  20.429   3.652   1.547  0.0579 -0.0910 -0.2442
17480W        W21880   8.615   3.932  10.926 -0.0597 -0.0348 -0.0837
17481W        W21881  18.175   5.049  40.852 -0.1396  0.1344 -0.2237
17482W        W21882   1.273   1.047   0.914 -0.0581  0.0357 -0.0912
17483W        W21883  17.191   2.203   4.219 -0.2865 -0.0958 -0.1937
17484W        W21884   8.244   3.662   0.397  0.3269 -0.2828  0.1336
17485W        W21885   8.190   3.305   6.364 -0.2272  0.2751 -0.0539
17486W        W21886  17.698   3.998  39.967  0.1690  0.1620  0.0034
17487W        W21887  11.046   6.287   5.268  0.0116  0.1199  0.2388
17488W        W21888   6.414   2.558  19.359 -0.1987  0.1121  0.0403
17489W        W21889   2.413   5.732   5.858  0.0993  0.0166 -0.1069
17490W        W21890  20.681   2.046  28.293  0.0644  0.1152  0.0038
17491W        W21891   9.547   4.817  36.470  0.0362  0.1597  0.0358
17492W        W21892   5.760   4.514  34.377 -0.1962 -0.3578  0.0953
17493W        W21893   1.470   3.426  35.142 -0.0208  0.0689 -0.0815
17494W        W21894   8.085   6.250  40.079  0.0748 -0.0020 -0.0493
17495W        W21895   7.203   3.618  14.407  0.0031  0.1181  0.3213
17496W        W21896  17.615   1.285  32.831  0.0697  0.1782 -0.0356
17497W        W21897   6.293   4.618  18.298  0.1767  0.2402  0.1480
17498W        W21898  20.622   4.224  28.375  0.1822  0.0433 -0.2089
17499W        W21899  14.758   6.543  39.439 -0.0764 -0.1217 -0.1458
17500W        W21900   0.331   1.664  32.589  0.3771  0.1107 -0.0146
17501W        W21901  14.695   5.221  39.140  0.2147  0.0262 -0.0387
17502W        W21902   1.764   2.562   6.034 -0.0631 -0.0900  0.0610
17503W        W21903   2.797   0.363  41.272  0.0513 -0.0279 -0.1105
17504W        W21904  11.296   5.110  38.151  0.0908  0.1215 -0.1296
17505W        W21905  13.703   1.965   4.743  0.1058  0.1031 -0.0444
17506W        W21906  18.371   1.651  26.749 -0.0581 -0.2619 -0.2082
17507W        W21907  12.377   6.053  36.631  0.0050  0.0647 -0.0370
17508W        W21908  16.858   1.559   3.126 -0.5675 -0.0879  0.0780
17509W        W21909  10.350   6.466  43.874  0.0865  0.0895  0.0924
17510W        W21910  14.267   0.516   7.482 -0.1964 -0.4268 -0.1360
17511W        W21911  16.425   2.542  24.820  0.2929 -0.3508 -0.0663
17512W        W21912  13.486   0.895  18.662  0.0192 -0.0968  0.4665
17513W        W21913  14.268   0.590   0.417 -0.1580 -0.1150  0.3480
17514W        W21914   8.312   3.373  35.025  0.0532 -0.3539  0.0382
17515W        W21915  17.143   5.871  37.483  0.2496  0.0329  0.0662
17516W        W21916  12.456   0.936  41.933 -0.2932  0.1832  0.1374
17517W        W21917   7.560   5.486  42.866 -0.0871 -0.0082 -0.3972
17518W        W21918  18.710   2.978  27.780 -0.0427  0.0892 -0.1420
17519W        W21919  16.783   5.454   0.276 -0.1482 -0.0032  0.2354
17520W        W21920  11.958   3.508  12.857 -0.1080 -0.0112 -0.0725
17521W        W21921  17.243   0.815   8.972 -0.3457 -0.0610  0.1803
17522W        W21922  12.234   6.202  19.219 -0.0465  0.0712  0.4695
17523W        W21923  18.269   0.420  40.609 -0.0456  0.0462 -0.4481
17524W        W21924   6.977   1.695  43.658 -0.1542  0.3381 -0.0245
17525W        W21925  14.461   4.794  33.919 -0.0117  0.2983 -0.0832
17526W        W21926  16.096   1.285  44.679 -0.0907 -0.0966  0.0788
17527W        W21927   9.333   2.534   9.563  0.0794 -0.0269  0.2430
17528W        W21928  18.850   3.546   7.327  0.0101  0.0749  0.0561
17529W        W21929   2.701   6.260   7.717 -0.0060 -0.0330 -0.4355
17530W        W21930   4.420   5.021   0.743  0.1904 -0.0840 -0.2369
17531W        W21931   0.379   6.451  26.961  0.0400  0.1797  0.3038
17532W        W21932  10.469   5.676  33.724 -0.4895 -0.1173 -0.0344
17533W        W21933  19.226   3.669  33.154 -0.3005  0.1018 -0.2587
17534W        W21934   3.856   0.743  39.998 -0.0087 -0.2649  0.0657
17535W        W21935  17.736   5.389  27.399  0.0567  0.2291 -0.1270
17536W        W21936  11.284   5.306  21.691 -0.0039  0.0961  0.1886
17537W        W21937   2.513   1.466   2.981  0.0435 -0.0893 -0.0086
17538W        W21938   1.636   0.081  14.105  0.0961  0.0091 -0.0823
17539W        W21939  14.228   1.108   6.710  0.2142  0.2891 -0.1092
17540W        W21940  13.350   1.472   8.963 -0.1648  0.0504 -0.0486
17541W        W21941  12.402   3.663  10.730 -0.2899 -0.1788  0.0746
17542W        W21942   6.705   5.763  20.170 -0.3856 -0.0627  0.0174
17543W        W21943   2.909   1.186  39.588  0.1152 -0.1749  0.1685
17544W        W21944  12.225   6.400  15.302 -0.0007  0.1132 -0.1438
17545W        W21945   2.087   3.494  36.823  0.1752  0.0721 -0.1982
17546W        W21946   9.626   6.028   4.349  0.1011 -0.1044 -0.0194
17547W        W21947  10.543   6.473  34.433 -0.1310 -0.2682 -0.1535
17548W        W21948  19.391   3.954  30.200  0.1610 -0.0356  0.0222
17549W        W21949  13.327   1.929   7.129  0.2645 -0.3050  0.1213
17550W        W21950   6.104   5.218  15.471  0.0739  0.1503  0.0042
17551W        W21951   3.820   3.815  36.179  0.1404  0.1706  0.1737
17552W        W21952   1.682   4.643   5.490  0.1199  0.4225 -0.1323
17553W        W21953  11.188   2.037  18.994  0.0221 -0.1505 -0.1677
17554W        W21954   7.321   0.842  42.302  0.0826  0.0755  0.1157
17555W        W21955  10.540   4.343  33.881 -0.0517 -0.0261  0.0817
17556W        W21956   9.594   3.678  33.005  0.1060 -0.0242  0.1104
17557W        W21957   6.091   2.734  12.593 -0.0015 -0.2263  0.1410
17558W        W21958  12.497   4.917  10.536 -0.0519  0.0739 -0.0774
17559W        W21959  17.363   2.919  23.828 -0.3492  0.0405 -0.0197
17560W        W21960   4.831   1.806   9.852 -0.1346  0.1694 -0.1051
17561W        W21961  17.346   6.192  13.790 -0.3879 -0.0967  0.1529
17562W        W21962  19.495   0.539  35.652 -0.0947 -0.0202  0.0205
17563W        W21963   7.101   5.803  32.005 -0.2645  0.0901  0.0019
17564W        W21964   6.690   5.267  38.391 -0.0600  0.1879 -0.3608
17565W        W21965   0.407   3.553  12.038 -0.4730 -0.2163 -0.0620
17566W        W21966  19.683   3.857  22.305  0.0271  0.2017 -0.0898
17567W        W21967   7.751   1.165  43.960  0.1836 -0.0970 -0.2126
17568W        W21968  17.627   1.724   3.637 -0.2097  0.0719  0.0146
17569W        W21969   7.830   4.226  15.573  0.2106 -0.1071  0.1042
17570W        W21970  11.546   5.468  31.229  0.4391 -0.1747 -0.1786
17571W        W21971   5.841   6.466  34.626 -0.0266  0.1166 -0.2246
17572W        W21972   9.901   1.649  44.932  0.3270  0.3432 -0.0290
17573W        W21973  18.992   3.847  12.650 -0.4807  0.1965 -0.4012
17574W        W21974  19.450   6.552  33.897  0.0481  0.0145  0.1199
17575W        W21975   1.267   3.925   0.839  0.0856 -0.1224 -0.1898
17576W        W21976  16.452   2.709  27.664  0.0167 -0.0181 -0.0233
17577W        W21977  18.687   0.077  22.611 -0.1461 -0.0234  0.0222
17578W        W21978   2.642   2.891   7.798 -0.0785  0.2506  0.1012
17579W        W21979  16.133   3.651  40.706 -0.1439 -0.2178  0.0263
17580W        W21980  12.847   5.057  10.100  0.2011  0.1965  0.2067
17581W        W21981  14.816   6.136  29.951 -0.0296 -0.2683  0.1321
17582W        W21982  16.977   6.292  44.503  0.1526  0.0320 -0.1862
17583W        W21983   9.416   5.253  36.620 -0.4372 -0.0927  0.0478
17584W        W21984   4.586   4.979  40.819 -0.3801 -0.2077  0.1344
17585W        W21985   6.586   2.896  20.157 -0.0024  0.1356 -0.0656
17586W        W21986   0.929   2.084  24.297  0.1570 -0.1036  0.2570
17587W        W21987  11.803   1.751  39.817 -0.2025  0.1304 -0.3999
17588W        W21988   2.331   1.879  31.560 -0.1031 -0.0046  0.2106
17589W        W21989   2.182   0.479  15.282  0.1245 -0.0145  0.0271
17590W        W21990   6.213   6.137   6.065  0.0674  0.0610  0.2369
17591W        W21991   2.167   2.136   9.278  0.2031  0.0243 -0.0169
17592W        W21992   9.487   5.348  23.126 -0.0716  0.0306 -0.1031
17593W        W21993  13.840   3.525   6.556  0.3044  0.1449  0.0309
17594W        W21994   0.664   1.370  15.689  0.0325 -0.1267  0.2065
17595W        W21995   8.239   1.468  13.292 -0.1205 -0.0156  0.0100
17596W        W21996   9.026   3.853  13.795  0.0903 -0.2489 -0.0250
17597W        W21997  11.897   5.704  42.793  0.1399 -0.0001 -0.4881
17598W        W21998  17.949   3.421   2.137 -0.0652  0.2961 -0.2952
17599W        W21999   7.988   2.858   0.798  0.0375  0.0096 -0.4169
17600W        W22000  10.329   5.941  17.703  0.0611 -0.2171 -0.0596
17601W        W22001   6.979   1.704   1.055  0.3153  0.0582 -0.0383
17602W        W22002  20.795   4.425  33.387  0.1907 -0.0121  0.3331
17603W        W22003   6.700   0.340  22.158 -0.0164  0.4238 -0.2741
17604W        W22004   9.147   1.862   6.211  0.1007  0.1638  0.1420
17605W        W22005   2.192   4.948   2.630  0.0598 -0.0816 -0.1075
17606W        W22006  15.800   1.515   4.786 -0.1821  0.0449 -0.1720
17607W        W22007   2.660   3.308  13.089  0.0372  0.0044 -0.3909
17608W        W22008  17.344   3.995   6.911 -0.0004  0.2743  0.1245
17609W        W22009  18.772   1.154  25.375 -0.1094 -0.0396 -0.0209
17610W        W22010  13.040   4.787  16.432  0.0761  0.1781 -0.2446
17611W        W22011  14.079   3.611  43.536  0.0338 -0.1263  0.1741
17612W        W22012  10.163   3.942  23.107  0.0792 -0.1949  0.1243
17613W        W22013  10.974   6.048  21.846 -0.3277  0.2330 -0.0884
17614W        W22014  13.616   4.984   2.401  0.0101  0.0109  0.1045
17615W        W22015  11.514   3.108  41.950  0.0988 -0.0144  0.1460
17616W        W22016  18.391   4.012   6.220 -0.1065  0.0270 -0.1318
17617W        W22017  18.825   2.073   1.791  0.1933 -0.0049  0.1479
17618W        W22018   7.034   1.495   9.375 -0.1771 -0.2097 -0.0961
17619W        W22019   7.508   2.615  20.451 -0.3028 -0.0585  0.1048
17620W        W22020   7.990   4.827  22.646  0.1288 -0.0904 -0.1504
17621W        W22021   3.340   4.020  41.376  0.0623  0.0372  0.1111
17622W        W22022  14.890   5.808  31.633 -0.2576 -0.0138 -0.0389
17623W        W22023  14.952   3.731   9.739 -0.0542  0.0809  0.0024
17624W        W22024  16.171   2.274  41.563 -0.2456 -0.1853 -0.0723
17625W        W22025  21.079   0.613  13.230  0.0106 -0.0134  0.0989
17626W        W22026   3.940   5.645  18.237  0.0423 -0.0611  0.0670
17627W        W22027   9.893   4.945  32.278 -0.2320 -0.1027  0.1222
17628W        W22028   0.189   1.964   4.127  0.0060  0.0428  0.2838
17629W        W22029  11.877   2.475  28.889 -0.1497 -0.2628 -0.1398
17630W        W22030  20.713   5.838  30.614  0.1352  0.3595 -0.0302
17631W        W22031  18.645   2.834  36.898 -0.0322 -0.1051 -0.4583
17632W        W22032  15.203   2.416  10.913 -0.1997  0.1890  0.1590
17633W        W22033  15.300   3.608  32.300 -0.0632 -0.2844  0.0168
17634W        W22034   7.851   1.998  36.269 -0.4019  0.2362  0.3909
17635W        W22035   0.227   2.111   0.045 -0.1792  0.0053  0.2397
17636W        W22036  14.939   4.469  38.837  0.0861 -0.1676 -0.2170
17637W        W22037   2.311   0.062  27.281 -0.0618  0.3289  0.0231
17638W        W22038  13.233   1.301  42.008  0.0106 -0.1158 -0.2091
17639W        W22039  18.272   1.560  30.886  0.0884  0.0948  0.2631
17640W        W22040  10.796   4.865  23.274  0.1476 -0.1079  0.0033
17641W        W22041   7.255   0.264  18.871 -0.1170  0.0472  0.1855
17642W        W22042  14.522   4.935  36.185  0.1057  0.1470  0.3055
17643W        W22043  12.192   1.600  14.117  0.1359 -0.1816  0.2781
17644W        W22044  18.143   0.676  33.611 -0.2434 -0.0892  0.0524
17645W        W22045   9.572   1.835   9.210 -0.3191 -0.3262 -0.2254
17646W        W22046   7.083   0.042  12.972 -0.1579  0.0918  0.1534
17647W        W22047   8.200   2.038  42.453 -0.0956  0.0447 -0.2347
17648W        W22048   5.344   4.457  44.508  0.0201  0.1224  0.0141
17649W        W22049  12.171   0.536  28.342  0.0928  0.3520  0.1280
17650W        W22050  19.723   1.406  39.589  0.1563  0.2115 -0.2456
17651W        W22051  14.629   3.777   4.012  0.1848  0.1905  0.0252
17652W        W22052  21.033   3.047   3.109 -0.2818  0.1294  0.2073
17653W        W22053  18.211   2.346  14.523 -0.0526 -0.5137 -0.0972
17654W        W22054   9.595   4.548   1.837  0.1931  0.2763  0.1537
17655W        W22055   6.347   6.054   1.948  0.1923 -0.0392  0.1925
17656W        W22056   5.785   0.436  17.479 -0.0529  0.2372  0.0110
17657W        W22057  19.613   1.339  40.695  0.1635 -0.1414  0.1556
17658W        W22058   6.210   5.758  19.850  0.0411 -0.1576 -0.0891
17659W        W22059   4.487   0.698  43.794  0.3023 -0.4461 -0.0927
17660W        W22060  19.331   0.562  37.933 -0.0611 -0.1439 -0.0183
17661W        W22061  14.969   5.158  39.598 -0.1788  0.0129  0.0424
17662W        W22062  17.121   1.015  36.721  0.0338  0.0091  0.0330
17663W        W22063  10.962   1.469  32.642 -0.0281  0.2518 -0.0669
17664W        W22064  14.156   1.278  44.902 -0.1042 -0.0538  0.0793
17665W        W22065   0.690   2.714  31.735 -0.1202 -0.1626 -0.0878
17666W        W22066  18.682   6.396   5.849 -0.3078 -0.0237 -0.2970
17667W        W22067  11.562   1.084  30.913  0.2118  0.0708  0.3088
17668W        W22068   3.330   4.779  37.072  0.1337  0.0496 -0.1549
17669W        W22069   5.815   4.502  18.166  0.0435  0.3249  0.2308
17670W        W22070   6.315   2.711  18.421  0.1891  0.1596 -0.1693
17671W        W22071   0.467   5.315  24.696 -0.0347  0.0525  0.1721
17672W        W22072  19.159   4.520  29.009 -0.0580 -0.1529 -0.0561
17673W        W22073  20.659   3.765  14.719  0.1057 -0.1624  0.4057
17674W        W22074   1.980   2.827  14.407 -0.1853 -0.3310  0.0183
17675W        W22075   3.896   2.623  29.626  0.0978  0.1687 -0.2131
17676W        W22076  19.608   5.620  39.397 -0.0075  0.0547 -0.0923
17677W        W22077  12.703   1.848  14.251  0.0151  0.0140 -0.4169
17678W        W22078   1.251   6.209  42.361  0.0507 -0.0147  0.0896
17679W        W22079  14.028   0.752  19.955  0.0137 -0.0292 -0.2939
17680W        W22080  14.646   4.669   4.443  0.2068  0.0073 -0.0412
17681W        W22081  14.935   3.000   1.266  0.2837 -0.0489  0.0237
17682W        W22082  18.090   5.843  12.218  0.1651  0.3134  0.1577
17683W        W22083  15.161   2.808  32.009 -0.0770 -0.0030  0.2145
17684W        W22084   0.697   4.728  42.342 -0.3436 -0.0190 -0.1352
17685W        W22085   7.024   3.905   0.987  0.0559  0.1600 -0.1589
17686W        W22086  20.116   4.827  44.068  0.3053 -0.1692  0.1332
17687W        W22087   8.133   5.854  43.543 -0.0365 -0.1061  0.1078
17688W        W22088  15.981   4.997  14.631  0.0352 -0.0528 -0.0916
17689W        W22089  12.615   5.921   1.459  0.2338  0.0615  0.0082
17690W        W22090  17.798   0.921  23.580  0.0507  0.0448 -0.2904
17691W        W22091  16.042   1.754  37.886  0.0462 -0.0472 -0.0134
17692W        W22092   0.288   5.680  27.577 -0.3506 -0.0799  0.1307
17693W        W22093   0.983   2.319  35.231  0.3920  0.0229 -0.0647
17694W        W22094   4.341   6.407  19.210 -0.3564  0.2180 -0.2081
17695W        W22095  10.217   0.052  30.716  0.2271 -0.1370  0.0453
17696W        W22096   7.941   1.944  13.226  0.1262  0.1593  0.2371
17697W        W22097  17.636   6.507  40.236  0.2658 -0.1608  0.0529
17698W        W22098   5.051   3.416   3.456  0.3329  0.1131 -0.1775
17699W        W22099   3.663   4.182   6.933 -0.0749 -0.0043 -0.0778
17700W        W22100   1.016   6.036  37.533  0.0484 -0.0763 -0.0274
17701W        W22101   6.494   6.360   6.511 -0.0153  0.0592  0.1501
17702W        W22102  17.936   5.455   6.814 -0.3454 -0.1284  0.1211
17703W        W22103   2.882   4.225  34.149  0.0624  0.3198 -0.0464
17704W        W22104   4.910   1.178   2.356 -0.0973  0.0218 -0.0500
17705W        W22105   7.770   3.571   8.610 -0.0980 -0.0101 -0.1238
17706W        W22106  18.961   6.528   7.007 -0.1623  0.0603  0.1295
17707W        W22107   7.947   2.181   0.234  0.0802 -0.0376 -0.2066
17708W        W22108  17.600   4.164  25.201  0.3517  0.0932 -0.1279
17709W        W22109   7.124   3.392  35.201  0.2803 -0.2823 -0.1727
17710W        W22110  12.124   1.400   8.783 -0.2267 -0.0656  0.1129
17711W        W22111  11.500   0.395  17.172  0.1136  0.0610 -0.2162
17712W        W22112  17.053   4.116   7.353  0.2076  0.0356 -0.3488
17713W        W22113  14.694   1.911  29.940  0.1648  0.0306 -0.1074
17714W        W22114   9.007   6.300  13.191  0.1455 -0.1206  0.2373
17715W        W22115   8.627   2.999  21.486 -0.0965  0.0026 -0.3974
17716W        W22116  15.945   4.909  40.501  0.1032 -0.4493 -0.0538
17717W        W22117  11.678   3.461  33.155 -0.5453 -0.1825 -0.0159
17718W        W22118   9.031   0.676   5.698  0.0400  0.1686  0.1031
17719W        W22119  10.103   4.605  38.030  0.4721  0.0012  0.4825
17720W        W22120   8.241   2.980  30.352  0.0253  0.3575  0.4329
17721W        W22121  18.070   4.537  44.208 -0.2554  0.0707  0.0233
17722W        W22122   2.991   0.594   7.397  0.2262  0.1837  0.0841
17723W        W22123  12.712   3.419  10.405 -0.3053  0.3748 -0.2836
17724W        W22124  11.560   5.679   3.934 -0.4058  0.1742  0.1788
17725W        W22125  17.862   1.992  38.534 -0.2370 -0.2020  0.1026
17726W        W22126   5.776   5.794  16.755  0.2391  0.0006 -0.2207
17727W        W22127  15.695   3.749  29.975  0.0227 -0.1372  0.0454
17728W        W22128  10.226   0.974   2.102  0.1732 -0.1140  0.1615
17729W        W22129   2.412   1.401   8.639 -0.0729  0.2432  0.1352
17730W        W22130   0.908   0.078   3.789 -0.4491 -0.1612 -0.0738
17731W        W22131  18.369   1.112  44.904 -0.1939 -0.1644  0.1479
17732W        W22132  11.944   2.880  36.123 -0.3101 -0.2247 -0.1351
17733W        W22133  15.904   6.126  15.570 -0.1154 -0.0664  0.1768
17734W        W22134   3.119   4.160  27.344 -0.2020  0.0583  0.0886
17735W        W22135   5.343   4.783  44.055  0.0717 -0.0563 -0.0695
17736W        W22136  20.451   0.745   2.798 -0.0595  0.1352  0.4226
17737W        W22137   3.309   3.731   4.431  0.0382  0.0803 -0.0749
17738W        W22138   3.038   0.569  11.189  0.0321 -0.3148 -0.0893
17739W        W22139   0.705   5.748  38.893 -0.2917  0.1324 -0.3599
17740W        W22140   0.634   5.954  30.567  0.0109 -0.0992 -0.3127
17741W        W22141   0.456   4.742  12.132  0.3338  0.1505  0.1231
17742W        W22142   7.126   2.538  43.309  0.0003 -0.1300  0.0137
17743W        W22143  17.074   1.884  44.974  0.0036  0.1860 -0.0944
17744W        W22144   1.036   1.056   6.666  0.3395 -0.4437 -0.2253
17745W        W22145  11.485   4.040  36.514  0.0400 -0.1392  0.0854
17746W        W22146  10.212   2.762  16.890 -0.1525  0.3142 -0.0562
17747W        W22147   4.106   3.118  29.238 -0.1339 -0.1572  0.1081
17748W        W22148   5.947   5.698  35.670 -0.2724 -0.0621  0.2636
17749W        W22149  19.029   6.366  33.602  0.4423 -0.0099 -0.1615
17750W        W22150  15.364   4.979  33.022 -0.0032 -0.0346  0.0937
17751W        W22151   7.972   1.183  42.606  0.1391 -0.2763  0.0006
17752W        W22152   9.972   3.019  17.987 -0.0023  0.0494  0.0450
17753W        W22153  13.532   6.055  29.865 -0.0775 -0.2067  0.4113
17754W        W22154   2.080   3.960  34.035  0.1350 -0.2608  0.0515
17755W        W22155  13.349   2.354  15.913 -0.3270  0.0222 -0.0167
17756W        W22156   9.784   6.398  12.576  0.1777 -0.0843  0.3128
17757W        W22157  11.797   1.057  12.293 -0.2402  0.1154  0.1024
17758W        W22158   1.364   2.601  15.608 -0.0190 -0.1919  0.2484
17759W        W22159   2.355   3.710  12.947 -0.0468  0.4361 -0.3098
17760W        W22160  12.259   0.791  12.858 -0.0584  0.2929  0.0170
17761W        W22161   5.096   4.402  36.360 -0.1287  0.1023  0.1715
17762W        W22162  11.132   2.604   1.430 -0.0414  0.1530 -0.1950
17763W        W22163  20.212   6.037  35.888 -0.3489  0.1673  0.1505
17764W        W22164   9.536   3.925  33.477  0.2645  0.1380  0.1371
17765W        W22165  16.767   2.174  15.471 -0.0626  0.0302 -0.2035
17766W        W22166  12.527   4.715  35.780 -0.0424 -0.0482  0.3218
17767W        W22167   8.720   1.942  23.500 -0.0337 -0.0087 -0.2585
17768W        W22168   9.213   2.289  11.660  0.1865 -0.1859  0.2655
17769W        W22169  13.829   3.014  29.128 -0.2770  0.4426  0.0572
17770W        W22170   1.792   2.712  36.360 -0.1138 -0.0323  0.0321
17771W        W22171  17.752   5.038  43.038 -0.0871  0.1686 -0.0423
17772W        W22172  13.202   4.112   3.430 -0.1014  0.4521  0.1176
17773W        W22173  20.800   1.636   7.632 -0.3143 -0.0589  0.0055
17774W        W22174   4.586   6.249  42.363  0.1464  0.1172  0.0741
17775W        W22175  15.677   2.119  27.363  0.1637  0.1809  0.5618
17776W        W22176  12.985   2.912  19.096  0.0279 -0.2366 -0.4176
17777W        W22177  13.722   2.632  11.357  0.4384  0.2694 -0.0614
17778W        W22178  18.112   6.375  12.135  0.2789 -0.0769  0.0119
17779W        W22179   8.712   5.253  22.219  0.2262  0.1059 -0.0608
17780W        W22180  12.115   1.855  42.724  0.4677 -0.1162 -0.0184
17781W        W22181  18.892   3.799  42.121 -0.1116 -0.0866  0.5073
17782W        W22182  10.422   3.423   5.538  0.0581 -0.0991 -0.0474
17783W        W22183   7.789   1.151  15.613  0.0207  0.3312  0.1217
17784W        W22184   1.547   2.100  32.218  0.0668 -0.0468 -0.0522
17785W        W22185   1.381   4.226  42.544 -0.0629 -0.3723  0.2267
17786W        W22186   1.649   4.926  31.861  0.1964 -0.1633  0.1346
17787W        W22187   5.538   4.445  17.148 -0.1033  0.1790 -0.0675
17788W        W22188  16.457   1.520  38.681  0.2834  0.3873  0.1057
17789W        W22189  19.677   1.324  26.786 -0.1329  0.1110  0.0064
17790W        W22190  13.979   3.678   6.085  0.3308  0.1236  0.1062
17791W        W22191   7.325   3.711   6.087 -0.3514  0.2449 -0.0552
17792W        W22192  13.519   1.686  39.955  0.1337  0.1523 -0.1009
17793W        W22193   1.834   3.222  14.899  0.1793  0.0345 -0.2049
17794W        W22194  17.843   2.840  37.504 -0.2738 -0.3197  0.2897
17795W        W22195   3.076   0.631  29.905 -0.2579 -0.2169  0.3950
17796W        W22196  10.369   3.095   7.856 -0.1002 -0.0181  0.0964
17797W        W22197   5.490   6.446  14.380  0.2101  0.0469 -0.0500
17798W        W22198   5.378   4.013  11.153 -0.0874 -0.0998  0.1561
17799W        W22199  16.500   1.648  44.637 -0.2093 -0.1728  0.1726
17800W        W22200  13.038   4.187  11.819 -0.1139  0.1318  0.0925
17801W        W22201  14.425   2.890  32.459 -0.3508  0.3100 -0.0107
17802W        W22202  15.266   2.093  10.030 -0.0064 -0.1256  0.0625
17803W        W22203  16.159   6.123   2.865  0.4250 -0.3078  0.1987
17804W        W22204   0.782   2.883  44.560 -0.1699  0.0515 -0.5018
17805W        W22205  10.248   2.891   5.168 -0.1648  0.1490 -0.2272
17806W        W22206   1.565   1.764  41.698  0.1187 -0.0004  0.4251
17807W        W22207   4.341   0.422  13.971  0.0672  0.0777 -0.1960
17808W        W22208  18.740   0.452   4.830 -0.0208 -0.1325 -0.1700
17809W        W22209   7.686   1.028  12.941  0.0638  0.1407  0.1518
17810W        W22210  14.022   4.000   8.533  0.0896  0.1503 -0.0032
17811W        W22211  13.531   3.102  11.883 -0.0130 -0.0445 -0.0736
17812W        W22212  15.589   4.139  40.125  0.2175 -0.1340  0.0125
17813W        W22213   3.910   3.681  15.822  0.0000 -0.0314  0.2485
17814W        W22214  20.483   2.214  43.792 -0.3879  0.2327  0.3846
17815W        W22215  18.799   5.816  35.973 -0.0200 -0.1594  0.3496
17816W        W22216   2.628   4.650  16.396 -0.0819 -0.1435  0.1792
17817W        W22217   9.529   3.505   2.634 -0.1153  0.4156 -0.0031
17818W        W22218  15.475   5.824   5.378 -0.1533  0.2215 -0.0654
17819W        W22219   8.536   5.013   8.637 -0.1611  0.2786 -0.2035
17820W        W22220   9.601   1.465  11.157  0.0750  0.0912 -0.0237
17821W        W22221  16.688   6.160  33.659 -0.0402  0.2258  0.2545
17822W        W22222  20.674   5.722   1.286 -0.2305  0.0652  0.0674
17823W        W22223  12.797   4.542   2.135 -0.2510 -0.0643  0.0844
17824W        W22224  20.322   2.035  20.099 -0.0604 -0.2363 -0.0394
17825W        W22225  10.603   6.354  17.534  0.0744 -0.0671  0.2978
17826W        W22226   8.965   5.661   7.957  0.0224  0.0307 -0.0011
17827W        W22227   7.519   3.479   3.531  0.1970  0.0833  0.0989
17828W        W22228  18.967   1.764  15.052  0.0588 -0.2179  0.1719
17829W        W22229   2.794   2.631  13.889 -0.0276 -0.1115 -0.0484
17830W        W22230   9.099   0.477   7.526  0.2599  0.3205  0.0271
17831W        W22231   3.082   0.722  32.001  0.2900 -0.0243 -0.0657
17832W        W22232   2.732   4.110  30.770  0.0897  0.0883 -0.1091
17833W        W22233  10.788   5.888  33.316 -0.1556  0.0118 -0.2350
17834W        W22234  12.179   2.077  44.100  0.2061 -0.1990  0.0993
17835W        W22235   2.032   6.296  12.219  0.0839  0.0403 -0.0775
17836W        W22236  19.919   4.433  32.033  0.1105 -0.0607 -0.2313
17837W        W22237  15.238   1.353   3.884  0.0419  0.0078 -0.4200
17838W        W22238  12.897   3.443   6.084  0.0781  0.1316  0.1849
17839W        W22239   5.095   6.197  36.882  0.0594 -0.0367  0.2748
17840W        W22240   7.779   2.015  31.789 -0.1706  0.0874 -0.1975
17841W        W22241   7.827   0.075  44.893  0.1765  0.0819 -0.2562
17842W        W22242  15.424   0.344  33.485 -0.2260 -0.0029  0.3312
17843W        W22243   6.062   1.284  38.022 -0.1972  0.1890  0.0513
17844W        W22244  16.922   2.374   3.812  0.0813  0.2321  0.1680
17845W        W22245   7.175   0.836  44.759 -0.3858 -0.0882 -0.2398
17846W        W22246  15.496   4.943  32.542  0.0464 -0.2158  0.0843
17847W        W22247   5.217   2.200  30.670 -0.3309 -0.0475 -0.1976
17848W        W22248  21.029   0.478  34.371 -0.2956 -0.3144  0.1434
17849W        W22249   0.753   5.156  13.421  0.2468  0.2513  0.2127
17850W        W22250   3.338   3.836  32.820 -0.2812 -0.4171  0.1092
17851W        W22251   8.022   2.737  41.311  0.0654 -0.0707 -0.1207
17852W        W22252   0.789   0.210  39.779  0.2324  0.0670 -0.2681
17853W        W22253  20.335   2.668   3.233 -0.1570 -0.0052  0.0260
17854W        W22254   5.914   1.150   1.135 -0.2067 -0.1795 -0.0029
17855W        W22255  16.121   3.597  11.571 -0.2037  0.0111 -0.0048
17856W        W22256  16.372   0.388  11.021 -0.2358  0.1208  0.0369
17857W        W22257   3.810   1.965  32.700 -0.1923  0.1675 -0.3767
17858W        W22258  18.141   5.490   4.962 -0.1329 -0.1714 -0.1502
17859W        W22259  12.763   3.297   8.129  0.2435 -0.1950  0.0091
17860W        W22260  17.089   4.109  32.293  0.1740  0.1810 -0.0094
17861W        W22261   6.967   2.360  22.001 -0.1115  0.1900 -0.1202
17862W        W22262   7.005   3.092  21.738 -0.0711  0.0969 -0.0543
17863W        W22263   2.839   5.795  35.718 -0.6106  0.0393 -0.0562
17864W        W22264   5.656   0.574   7.508 -0.1544  0.3201 -0.2206
17865W        W22265  12.133   4.704  29.904 -0.0919  0.2100 -0.1349
17866W        W22266  11.396   1.382  16.159  0.0775 -0.0588 -0.1985
17867W        W22267  13.928   6.483  39.300 -0.2892  0.2204  0.1484
17868W        W22268  12.424   3.938   4.039 -0.1529  0.0889 -0.0727
17869W        W22269   6.184   3.721  37.621 -0.0285 -0.2097 -0.1774
17870W        W22270   3.824   3.993   1.580  0.1970  0.1728  0.0408
17871W        W22271   0.864   1.583  34.233 -0.0866  0.0426  0.1596
17872W        W22272   6.475   1.633  10.489 -0.0716 -0.1584  0.2657
17873W        W22273   8.301   6.389  44.936  0.3176  0.0248  0.0105
17874W        W22274  19.681   4.239  14.592 -0.1840 -0.0867  0.0218
17875W        W22275   2.616   1.002  36.452 -0.1370  0.1046  0.2211
17876W        W22276   3.346   3.031  32.391  0.0682  0.2180 -0.1126
17877W        W22277   0.689   5.909   8.282  0.2536 -0.1653  0.0566
17878W        W22278   9.286   0.865  14.078 -0.3069 -0.1797 -0.0865
17879W        W22279   3.264   4.184   9.485 -0.0823 -0.1782  0.0947
17880W        W22280  10.896   2.759  11.063  0.0937  0.2093  0.0807
17881W        W22281  10.926   4.926  13.009 -0.1944  0.1909  0.0125
17882W        W22282   1.071   4.511   9.093  0.0963  0.1384  0.0540
17883W        W22283   6.613   2.783  16.990 -0.0358 -0.1345 -0.0770
17884W        W22284  13.349   6.197  42.168 -0.1949 -0.0601 -0.2774
17885W        W22285   7.799   1.153  29.844 -0.0873  0.2800  0.3061
17886W        W22286   4.690   0.727  29.283 -0.1240 -0.2749 -0.3194
17887W        W22287   2.055   6.296   9.991 -0.0181 -0.1658 -0.0709
17888W        W22288   4.023   4.650  33.575  0.2106  0.4240  0.0423
17889W        W22289   3.361   2.126  12.775 -0.3682  0.0591  0.3960
17890W        W22290  19.147   3.365   5.491  0.3467  0.1301  0.1990
17891W        W22291  15.453   3.021  44.911 -0.3411 -0.3523  0.1150
17892W        W22292  11.874   2.690   8.870 -0.1824 -0.0649 -0.0231
17893W        W22293   2.625   2.251  35.344  0.0782  0.3395  0.3716
17894W        W22294  13.722   0.545   9.065  0.1481 -0.2471  0.1003
17895W        W22295  17.109   3.781  30.103  0.0610 -0.0676 -0.3338
17896W        W22296  10.180   0.254  34.477  0.0603  0.0428 -0.3909
17897W        W22297  18.713   5.549  36.768  0.0225  0.0385  0.1613
17898W        W22298   2.767   3.181  33.127 -0.0383  0.3020  0.0764
17899W        W22299   4.953   6.069   8.785 -0.0173 -0.3778 -0.1664
17900W        W22300  11.624   0.965  21.076 -0.1018 -0.2717  0.0651
17901W        W22301  11.087   0.323   2.258  0.2654 -0.1038 -0.0078
17902W        W22302   0.288   4.038  38.281 -0.0411  0.0139 -0.0524
17903W        W22303   7.460   4.649  38.375 -0.3431 -0.4749 -0.0165
17904W        W22304   1.426   5.708   0.802  0.2731  0.0474 -0.0214
17905W        W22305   7.955   0.986  13.399 -0.0470 -0.1047  0.1105
17906W        W22306  17.445   6.314  32.741 -0.3551 -0.0297  0.0996
17907W        W22307   3.023   5.069  13.272 -0.1283  0.1035  0.1669
17908W        W22308   2.468   1.010  33.628 -0.0012 -0.0767 -0.0255
17909W        W22309   4.853   3.151  29.576 -0.2597  0.0136  0.2585
17910W        W22310   2.144   4.884  13.921  0.4477  0.0284  0.1566
17911W        W22311   9.624   5.234  13.495  0.2610  0.0437  0.0268
17912W        W22312   8.558   1.251   5.318  0.0199  0.2107  0.1517
17913W        W22313  12.663   2.053  10.438 -0.1236 -0.1702  0.0144
17914W        W22314   3.656   5.352  42.865  0.1701  0.1190  0.0026
17915W        W22315   6.089   2.816  42.566  0.3686 -0.0739 -0.0991
17916W        W22316  10.197   3.165  40.894  0.0168 -0.1211 -0.1228
17917W        W22317   4.927   2.302  35.658 -0.0930 -0.0479 -0.2044
17918W        W22318   0.603   4.810  24.742  0.1673  0.3129  0.2567
17919W        W22319  13.770   1.787   6.857  0.3250 -0.3589 -0.0826
17920W        W22320  11.701   5.184  43.680 -0.1830  0.1031 -0.0743
17921W        W22321   0.439   5.264   2.127 -0.0634 -0.1420 -0.1877
17922W        W22322   9.459   0.434  23.659  0.0077  0.1546 -0.0696
17923W        W22323   3.606   2.038  35.301 -0.1564  0.0201  0.1521
17924W        W22324   4.286   6.257  33.953 -0.2747  0.2058  0.2419
17925W        W22325  12.921   1.160  42.510  0.3147 -0.0631  0.1765
17926W        W22326   6.847   1.222  32.890  0.1159 -0.2074 -0.2843
17927W        W22327  18.700   3.938  27.672  0.0408 -0.2141 -0.2761
17928W        W22328  10.082   4.306   2.963  0.1752 -0.1641 -0.0836
17929W        W22329   0.733   1.099  27.891 -0.0063 -0.0477 -0.0686
17930W        W22330   5.119   1.867  41.028 -0.0793  0.2142 -0.0146
17931W        W22331  20.575   3.367  44.167  0.2398 -0.2337  0.0009
17932W        W22332  20.839   5.594   4.353 -0.1566 -0.0556 -0.0077
17933W        W22333   4.182   2.820  41.173  0.1004  0.0667  0.0592
17934W        W22334  13.927   0.696   3.547  0.1851 -0.1939 -0.1117
17935W        W22335  18.712   1.658   4.774  0.1995 -0.1445  0.0330
17936W        W22336  16.671   0.963   3.478 -0.0087  0.3764  0.1099
17937W        W22337  20.127   1.526  25.843  0.1286  0.0827  0.2517
17938W        W22338  10.988   3.981  32.803  0.2439  0.3594 -0.0054
17939W        W22339  14.131   5.934   1.889 -0.1932 -0.1690 -0.0133
17940W        W22340  11.577   1.345   8.659 -0.0488 -0.0004 -0.0485
17941W        W22341   8.810   4.062  15.536  0.2248  0.2107 -0.1862
17942W        W22342  18.510   0.501  37.642  0.2761  0.2248 -0.0665
17943W        W22343   0.758   1.588  36.399 -0.1473 -0.2429  0.0371
17944W        W22344  11.395   1.319  40.097  0.2115 -0.4072  0.1961
17945W        W22345  17.425   3.397  32.903  0.1588 -0.1720 -0.0996
17946W        W22346   5.075   0.127  37.479  0.1902  0.2474 -0.2056
17947W        W22347   9.095   2.772  44.357  0.2505  0.0345  0.3272
17948W        W22348  14.471   0.754  36.742  0.0479  0.0524  0.1377
17949W        W22349  14.980   6.362  13.744  0.1926  0.0181 -0.1579
17950W        W22350  14.527   1.345  17.910  0.0219  0.3229  0.0174
17951W        W22351  18.268   6.481  25.329  0.2350  0.0164 -0.1156
17952W        W22352  16.512   5.351  10.654  0.2332  0.3282 -0.1808
17953W        W22353   6.443   2.143   7.242  0.2672 -0.1407 -0.1596
17954W        W22354  16.150   5.367  12.921 -0.0529 -0.0621 -0.2057
17955W        W22355   0.996   3.475  33.168  0.0934 -0.3603 -0.1687
17956W        W22356   2.648   1.683  12.875  0.1799 -0.0683 -0.1219
17957W        W22357   3.818   3.658  31.195  0.3819 -0.0802  0.0528
17958W        W22358  17.712   1.123  11.341 -0.0066  0.1575  0.0201
17959W        W22359   9.413   0.335  19.313 -0.3176 -0.2066  0.1520
17960W        W22360   7.612   0.222  19.965 -0.0043  0.4978 -0.1598
17961W        W22361   9.146   1.926  38.000 -0.1877  0.1659 -0.0693
17962W        W22362   2.060   1.098   7.714  0.5241  0.0051 -0.1308
17963W        W22363   3.245   2.629  30.431 -0.1888  0.2794 -0.3005
17964W        W22364  14.342   6.430  13.291 -0.0693  0.2909  0.1046
17965W        W22365   6.365   3.544   0.242 -0.4687  0.0057 -0.2231
17966W        W22366   6.093   6.550  32.614  0.0551 -0.1080  0.1270
17967W        W22367   8.208   3.673  39.698  0.2114 -0.1027 -0.1375
17968W        W22368  12.614   1.928   2.646  0.2247 -0.2768  0.0479
17969W        W22369  18.927   0.749  42.069  0.1978 -0.0889 -0.1056
17970W        W22370  16.040   5.170  16.943 -0.0404 -0.0383  0.0111
17971W        W22371  19.759   0.003  35.154 -0.5456  0.0587 -0.1271
17972W        W22372  15.936   2.704  37.611  0.4535  0.1292 -0.0215
17973W        W22373  10.831   0.958  20.109  0.0143 -0.3550  0.0722
17974W        W22374  11.663   4.488   7.374  0.1603 -0.0183  0.2020
17975W        W22375   2.862   0.543   8.823 -0.3739  0.2756 -0.2372
17976W        W22376   7.939   1.032  18.918  0.0421  0.1170  0.0804
17977W        W22377   9.801   3.456  23.095  0.3010 -0.0490  0.1147
17978W        W22378  19.367   3.507  44.063 -0.0497  0.1429 -0.2233
17979W        W22379  19.429   0.266  31.159  0.0008  0.0449  0.1630
17980W        W22380  15.925   3.822  43.332  0.1703 -0.0824  0.0037
17981W        W22381  19.100   3.260  36.060  0.1642  0.0250 -0.1126
17982W        W22382   3.390   3.877  43.649 -0.0080 -0.0435 -0.1119
17983W        W22383   7.453   2.175   0.488  0.2036 -0.3334 -0.2499
17984W        W22384   4.856   4.423   1.428 -0.1708  0.0714 -0.0534
17985W        W22385  15.683   5.520   4.603 -0.2809 -0.1376 -0.4242
17986W        W22386   6.780   1.738  31.540 -0.2551 -0.2283 -0.0709
17987W        W22387   2.273   0.605   9.593 -0.0436 -0.0778  0.2228
17988W        W22388  11.149   3.034  31.987  0.2584 -0.0779 -0.0514
17989W        W22389   2.677   0.919  37.323  0.0411 -0.0481 -0.0328
17990W        W22390   0.132   2.461  34.883 -0.2212 -0.1581  0.0609
17991W        W22391  19.397   1.474  19.808  0.1472 -0.0240  0.2116
17992W        W22392  10.994   3.865  44.344  0.0632  0.0333  0.0096
17993W        W22393  11.737   4.496  39.549 -0.1085 -0.0948 -0.1246
17994W        W22394  10.054   0.732  10.954  0.0067  0.1093  0.3904
17995W        W22395  19.450   0.341  36.555 -0.0179 -0.4636  0.0001
17996W        W22396   0.310   5.251  36.274  0.0759 -0.0282  0.1581
17997W        W22397  11.912   1.231  39.782 -0.2013  0.1398  0.0374
17998W        W22398  10.727   4.376   1.180  0.2109  0.2687 -0.0683
17999W        W22399   4.114   6.065  29.465 -0.0075  0.1725 -0.0715
18000W        W22400   7.516   0.215  39.313  0.0457  0.1070 -0.1288
18001W        W22401  13.577   5.104  44.148  0.2068  0.0290  0.2437
18002W        W22402  20.283   2.037  22.339 -0.3541 -0.1091 -0.1092
18003W        W22403  14.348   5.910   6.720  0.0640 -0.1727  0.2879
18004W        W22404   6.374   6.383  37.487  0.0898  0.2691  0.2007
18005W        W22405  18.021   3.766   4.717 -0.1296 -0.1367 -0.1466
18006W        W22406  12.237   6.162   4.438 -0.0620 -0.2642 -0.3038
18007W        W22407   7.185   5.744   9.497 -0.1618  0.2685 -0.2036
18008W        W22408   7.655   5.875  22.300  0.3469  0.3106  0.5207
18009W        W22409  14.787   3.936  26.663 -0.1627 -0.0619 -0.4715
18010W        W22410   5.464   0.950  31.564  0.2161 -0.0067 -0.1840
18011W        W22411  11.939   2.698  11.603  0.1037 -0.1265 -0.0781
18012W        W22412   6.729   0.030   1.472 -0.1630  0.3030 -0.0878
18013W        W22413   0.427   5.839  32.414 -0.0065 -0.5391  0.0545
18014W        W22414  13.518   0.454  13.679  0.0791  0.2757 -0.1668
18015W        W22415  16.504   4.786  10.415 -0.2404 -0.0245  0.0555
18016W        W22416  17.778   3.735  23.685  0.1748 -0.2821  0.0288
18017W        W22417  19.900   3.037  21.250 -0.2774 -0.0244 -0.0545
18018W        W22418   2.119   3.853   4.802  0.5043 -0.2601  0.0082
18019W        W22419   7.083   4.126  16.094  0.2396 -0.1633 -0.1679
18020W        W22420  20.446   4.860  29.151 -0.2261  0.1605 -0.0927
18021W        W22421   3.081   2.614  26.926 -0.1030  0.0651  0.1720
18022W        W22422   2.532   1.203  40.354  0.0014  0.0110 -0.1585
18023W        W22423  10.812   1.970  16.191 -0.0896  0.2228 -0.2066
18024W        W22424  17.656   5.175   6.533 -0.2546  0.0814 -0.0384
18025W        W22425   3.087   5.429   5.773 -0.1199 -0.0990 -0.0783
18026W        W22426  17.589   2.027   8.796  0.2068 -0.2180 -0.1145
18027W        W22427   1.884   3.628  38.095 -0.0730 -0.1325 -0.0002
18028W        W22428  16.777   2.662  26.771 -0.4481  0.2014 -0.1376
18029W        W22429  12.407   4.031   7.673 -0.1041 -0.0584 -0.0284
18030W        W22430  11.128   5.571   9.567 -0.1103 -0.0717 -0.0096
18031W        W22431  18.028   2.140   5.429 -0.0685  0.3883  0.0852
18032W        W22432   1.952   1.694  39.529 -0.2425  0.0903 -0.0612
18033W        W22433   2.340   6.305  44.284  0.1208  0.0340 -0.0989
18034W        W22434   0.640   3.669  43.812  0.0055 -0.2473  0.3718
18035W        W22435   9.484   1.720   3.800 -0.3906  0.3316  0.1188
18036W        W22436  19.802   5.874   2.029 -0.2686 -0.2040  0.0302
18037W        W22437   2.844   3.583   9.049  0.1651  0.1664  0.0070
18038W        W22438  12.070   4.082  40.941  0.1648 -0.0418  0.0210
18039W        W22439   2.873   2.195  25.880 -0.0618 -0.0539  0.0088
18040W        W22440   4.998   3.402  34.073  0.0501  0.2458  0.0276
18041W        W22441  10.541   2.664  16.127 -0.2812  0.0766  0.2211
18042W        W22442   5.394   2.800   5.460  0.3109 -0.2081  0.0822
18043W        W22443  12.043   1.458   6.577  0.0962  0.0237 -0.0631
18044W        W22444  19.809   0.036  13.514 -0.1974 -0.1402 -0.2048
18045W        W22445  13.974   6.264  15.390  0.2729 -0.3101 -0.2858
18046W        W22446  16.218   1.964  29.358 -0.1170 -0.0476 -0.0052
18047W        W22447   9.601   5.827  22.277 -0.2102 -0.0197  0.1299
18048W        W22448   2.678   1.449   0.499  0.1868 -0.1813  0.0649
18049W        W22449   9.835   1.923  41.482 -0.1518 -0.2243  0.5518
18050W        W22450  20.490   5.132  13.802 -0.3217 -0.1482  0.1651
18051W        W22451  12.622   6.154  30.330  0.0761  0.1138  0.1696
18052W        W22452  17.815   2.627   2.634  0.0748  0.2312 -0.0632
18053W        W22453  13.285   2.489  18.850 -0.0414 -0.0438 -0.2103
18054W        W22454  18.220   3.171  37.516 -0.1012  0.3345 -0.2152
18055W        W22455   9.493   3.042   0.801 -0.0096  0.0514 -0.0784
18056W        W22456  18.611   6.214  21.757  0.1193 -0.1791 -0.2485
18057W        W22457   2.373   3.401  40.735  0.0768 -0.0922 -0.0001
18058W        W22458  12.326   5.678   8.969  0.2292  0.0893  0.1932
18059W        W22459  13.594   0.217  31.923  0.1190  0.0614  0.0456
18060W        W22460  20.954   1.537  37.549 -0.0075 -0.0764 -0.0407
18061W        W22461  20.360   4.840  40.713 -0.2174 -0.0004 -0.0206
18062W        W22462   7.647   6.202  36.560 -0.0869  0.0764 -0.0882
18063W        W22463  15.713   1.845  36.277 -0.0356 -0.1713  0.1923
18064W        W22464  13.032   3.862   0.880  0.0287  0.2360 -0.0820
18065W        W22465  19.546   5.570  31.618  0.0946 -0.2892 -0.0573
18066W        W22466  17.434   2.256  11.136 -0.1764  0.0650 -0.1635
18067W        W22467   1.234   2.285  32.548  0.2655 -0.1362 -0.2311
18068W        W22468   1.410   6.373  28.238 -0.0315 -0.2154 -0.1180
18069W        W22469   0.169   0.501  33.434  0.1052 -0.2507 -0.3651
18070W        W22470   1.754   6.090   2.357  0.0899 -0.1712  0.0453
18071W        W22471  10.272   0.119  14.271  0.0440 -0.3424 -0.1571
18072W        W22472  19.676   6.150  29.804  0.0702 -0.1600 -0.0647
18073W        W22473  17.552   1.619  27.037 -0.1772 -0.0137  0.0017
18074W        W22474   4.067   4.809   4.610  0.0659  0.1497  0.0193
18075W        W22475  12.328   4.857   6.748  0.1076  0.1944 -0.2483
18076W        W22476   2.746   5.846  41.930 -0.0099  0.0401  0.0013
18077W        W22477  10.030   1.256  16.087  0.3476  0.2609  0.0496
18078W        W22478   1.937   5.099  32.798 -0.1904  0.0476 -0.2237
18079W        W22479  13.815   6.576  44.603  0.0217  0.0650 -0.1753
18080W        W22480  16.804   3.588  43.827 -0.1819  0.1645 -0.0599
18081W        W22481  16.985   1.616  37.431  0.1825  0.1660 -0.0422
18082W        W22482   4.306   1.075  40.637 -0.1466 -0.0778  0.1269
18083W        W22483   8.562   2.445  13.173 -0.1367  0.2303 -0.0218
18084W        W22484  10.948   5.360   2.579 -0.0075 -0.2149  0.1788
18085W        W22485   5.833   1.358  32.118  0.0176  0.2131 -0.1416
18086W        W22486  19.736   1.158  14.114 -0.1243 -0.1157  0.1258
18087W        W22487  10.429   1.811  14.850  0.2741 -0.1870  0.1998
18088W        W22488  16.372   3.277  29.287 -0.1789 -0.0872  0.4974
18089W        W22489   6.494   1.257  30.014  0.1961 -0.2333  0.3175
18090W        W22490  14.280   2.181  12.540 -0.1765  0.1380 -0.1104
18091W        W22491  13.653   5.543  29.003 -0.1228 -0.2982  0.0954
18092W        W22492   5.572   3.134   0.114 -0.0196 -0.2430  0.1313
18093W        W22493   6.188   4.432   8.708  0.0103 -0.1360  0.1927
18094W        W22494  16.722   6.245   5.931 -0.0162 -0.1480 -0.0154
18095W        W22495  16.750   0.963  12.915  0.0239  0.0952  0.2266
18096W        W22496  17.022   5.286   0.728  0.1984 -0.1221  0.1500
18097W        W22497  11.223   6.351  41.739 -0.0059  0.0041  0.1431
18098W        W22498  16.329   3.066  36.162 -0.0530  0.3370 -0.0519
18099W        W22499  20.414   4.626   7.550 -0.0962  0.0872 -0.1272
18100W        W22500   5.376   4.234  11.684 -0.1166 -0.0876  0.1509
18101W        W22501   5.047   2.535  16.659  0.1525  0.1472 -0.1638
18102W        W22502   6.225   5.343  18.479  0.1306 -0.3320  0.1138
18103W        W22503   1.089   6.289  37.117  0.2199  0.0053  0.0911
18104W        W22504   7.164   1.658  31.182  0.1818 -0.1134 -0.1444
18105W        W22505   2.683   0.907  32.835  0.0128  0.0050  0.1710
18106W        W22506   4.111   4.888  43.774  0.0273 -0.0634 -0.0027
18107W        W22507   4.792   6.084  13.007  0.0399 -0.1489 -0.0283
18108W        W22508  14.781   5.641  39.434  0.2484  0.2874 -0.3745
18109W        W22509  14.189   6.482  13.775 -0.2775  0.1693 -0.0988
18110W        W22510   4.391   3.389   3.993 -0.1318 -0.0725 -0.0750
18111W        W22511  20.619   5.551  39.490 -0.2128  0.1427  0.2196
18112W        W22512  12.775   4.044  40.182 -0.0149 -0.0474  0.3047
18113W        W22513   3.211   5.228  29.562  0.0369 -0.0301 -0.3303
18114W        W22514   3.813   4.321  14.141 -0.2536 -0.1116 -0.0383
18115W        W22515   8.231   6.356  16.276  0.1191  0.0996 -0.1522
18116W        W22516  11.514   3.806  32.838  0.0034 -0.2189  0.2016
18117W        W22517  10.664   3.085   3.737 -0.1801 -0.1035  0.1276
18118W        W22518  19.761   0.431  40.421  0.0529  0.0445 -0.1458
18119W        W22519   9.095   2.673  42.871 -0.1769 -0.0151 -0.2226
18120W        W22520  17.605   5.001  34.299 -0.3376  0.0147 -0.0027
18121W        W22521  10.914   3.679  42.979  0.2310 -0.0242 -0.0212
18122W        W22522   5.152   1.417  28.257 -0.0175 -0.1105 -0.0175
18123W        W22523   6.768   5.091   7.266 -0.1674 -0.3414 -0.4700
18124W        W22524   5.715   2.736  36.687  0.2504 -0.0255  0.3055
18125W        W22525  18.565   2.680   3.224  0.0344  0.0998  0.1562
18126W        W22526   5.696   2.962   5.120 -0.0189 -0.0184  0.3822
18127W        W22527   8.973   4.313   2.541 -0.0530  0.0396 -0.3379
18128W        W22528   7.283   3.734  42.384 -0.1945  0.3349  0.1522
18129W        W22529  12.201   4.298  27.419  0.1569  0.0893  0.1547
18130W        W22530  10.880   4.854   2.434 -0.1517  0.2647  0.0997
18131W        W22531  15.365   5.845   2.853 -0.2828 -0.0048  0.1277
18132W        W22532  13.443   0.701  32.086 -0.1815  0.2783  0.3274
18133W        W22533  14.430   2.872  12.738  0.1962  0.0629 -0.2727
18134W        W22534   6.815   3.160   4.750  0.1092  0.0988 -0.2749
18135W        W22535   4.684   4.147   4.116  0.0462  0.0700 -0.0613
18136W        W22536  12.585   4.255   2.606 -0.0546 -0.1712  0.0196
18137W        W22537   3.893   1.268   5.794 -0.0332 -0.4180  0.0401
18138W        W22538  11.809   1.742  36.993 -0.0345  0.3083 -0.5176
18139W        W22539  19.806   3.752  24.641 -0.2777  0.2578  0.0377
18140W        W22540   8.729   2.506   0.394  0.2312  0.2514 -0.1359
18141W        W22541  15.048   5.404  35.423  0.1426  0.0052  0.0965
18142W        W22542   0.818   0.299  44.608  0.1239 -0.0202  0.0947
18143W        W22543   1.625   3.721   8.960 -0.2444  0.0551  0.2860
18144W        W22544   3.397   1.969   2.590  0.0663  0.1425  0.6501
18145W        W22545  12.229   5.579  32.132  0.0064  0.4774  0.0838
18146W        W22546   8.207   0.090  32.191 -0.1739 -0.4546  0.0091
18147W        W22547   3.782   1.854   9.632  0.1237  0.0592 -0.0530
18148W        W22548   8.383   4.026  32.675 -0.0925  0.1521 -0.0515
18149W        W22549   6.474   6.362   8.190  0.1308 -0.0622 -0.1624
18150W        W22550  17.548   3.398  22.547  0.2712  0.1359 -0.4280
18151W        W22551  15.554   0.469  34.639  0.1234 -0.0700  0.0508
18152W        W22552  14.495   4.061   7.019 -0.4153 -0.0505  0.0253
18153W        W22553  14.338   1.384  14.570  0.0760  0.2350  0.0196
18154W        W22554  18.474   4.408  37.821 -0.2039 -0.0755 -0.1290
18155W        W22555   3.969   5.423  34.082  0.1145 -0.4910 -0.2829
18156W        W22556  16.085   3.261  30.936  0.0618  0.5457 -0.1393
18157W        W22557  10.370   6.566  19.301 -0.0888 -0.0103 -0.1626
18158W        W22558  13.983   4.738  27.675  0.0768 -0.1491  0.1783
18159W        W22559   1.832   0.063  33.524 -0.3829  0.2733  0.2194
18160W        W22560  10.726   0.757   4.939 -0.1093 -0.0606 -0.1336
18161W        W22561   4.249   0.546  40.902 -0.0668  0.1646 -0.1198
18162W        W22562  12.892   4.402  34.133 -0.1006  0.1823 -0.0755
18163W        W22563   7.480   4.717  16.528  0.2156 -0.1034 -0.0918
18164W        W22564  20.922   2.760  41.801  0.2885 -0.1354  0.2477
18165W        W22565  17.787   1.500  43.600  0.0353  0.1069 -0.0416
18166W        W22566   7.632   6.061  11.267  0.0264 -0.3021  0.1867
18167W        W22567  18.469   6.265   3.382 -0.0613  0.2802  0.0010
18168W        W22568  18.020   2.266   4.387 -0.0754 -0.1103 -0.3215
18169W        W22569  12.291   0.294  14.461  0.0284 -0.1099 -0.0224
18170W        W22570  16.706   5.242  26.220 -0.0240 -0.0687  0.1014
18171W        W22571  20.137   1.040  12.709  0.1191  0.1241 -0.2109
18172W        W22572   7.160   0.110   7.489 -0.2384  0.2699  0.0837
18173W        W22573  16.280   0.478  44.546 -0.2379  0.3160  0.0168
18174W        W22574  11.726   1.387  31.284 -0.1310 -0.1988  0.2687
18175W        W22575   6.738   2.807  19.720  0.1782 -0.1475  0.0917
18176W        W22576   3.524   0.822  10.268  0.2521 -0.0606 -0.2339
18177W        W22577   8.802   5.856  40.957 -0.1254 -0.0061  0.1950
18178W        W22578  12.084   2.040  34.128  0.0733 -0.1482  0.1069
18179W        W22579  20.262   6.390   3.846  0.0269  0.1158 -0.0185
18180W        W22580  13.475   0.116  28.583 -0.0820 -0.1971 -0.0995
18181W        W22581  15.655   6.544  41.650 -0.0130 -0.2152 -0.0027
18182W        W22582   5.494   1.336  11.193  0.3022  0.1290 -0.2552
18183W        W22583  10.386   2.425   5.322 -0.3091  0.2292 -0.0483
18184W        W22584   5.039   0.587   3.199  0.2542  0.2197  0.1559
18185W        W22585  15.246   1.073  13.349  0.0112  0.3120  0.3170
18186W        W22586   3.069   4.179   2.152 -0.1224  0.0538  0.2221
18187W        W22587  17.604   1.720  38.085 -0.0854  0.0029  0.0073
18188W        W22588   2.824   2.104  35.830  0.1360 -0.1896 -0.0744
18189W        W22589  17.575   1.183  32.301  0.2246 -0.0327 -0.0292
18190W        W22590  21.034   5.686  22.590 -0.1484 -0.0137  0.1180
18191W        W22591   2.543   4.861  34.313  0.1979  0.2623 -0.1553
18192W        W22592  13.398   1.030  31.301  0.0070  0.0458 -0.2852
18193W        W22593   5.637   2.035  11.551 -0.2242 -0.1406  0.1504
18194W        W22594   9.596   2.261   2.708  0.0331 -0.0158  0.0763
18195W        W22595   1.473   3.257  40.449  0.1232  0.0824 -0.1131
18196W        W22596  17.862   2.123  10.909 -0.3950 -0.2574 -0.1595
18197W        W22597   7.612   6.480  16.536 -0.0363  0.0219 -0.0201
18198W        W22598   3.261   2.492  40.595 -0.0278  0.2150  0.0137
18199W        W22599  12.833   0.905   8.577 -0.0743 -0.2244  0.0854
18200W        W22600   0.963   4.942  13.888  0.0680 -0.0516 -0.1281
18201W        W22601  12.057   3.230  34.282  0.0804 -0.1288 -0.1437
18202W        W22602   6.154   1.452  34.011 -0.0475  0.1859 -0.0715
18203W        W22603   4.005   6.324  29.958 -0.0577  0.1099 -0.0008
18204W        W22604  14.758   2.232  17.682  0.1678  0.0254 -0.0307
18205W        W22605  19.489   4.814   3.324 -0.0848  0.1122 -0.2221
18206W        W22606   6.526   3.740  43.780  0.0376 -0.1449 -0.1295
18207W        W22607   5.787   1.742  32.488  0.2581  0.0637 -0.1324
18208W        W22608   7.586   3.087  40.581 -0.0503 -0.0344  0.2425
18209W        W22609  14.335   5.587   2.744  0.2188  0.3667  0.2025
18210W        W22610   6.366   4.738  10.967 -0.1911 -0.2643 -0.1761
18211W        W22611   8.764   3.860   2.981 -0.1529  0.0397  0.1391
18212W        W22612   9.158   2.108  22.862  0.3606 -0.1624 -0.4510
18213W        W22613   9.698   4.513  40.132  0.1753 -0.1071 -0.1047
18214W        W22614  13.389   6.235  10.678 -0.2385  0.3561 -0.0732
18215W        W22615  14.380   3.291  10.993 -0.1229 -0.0991  0.3670
18216W        W22616   5.278   3.032  38.249 -0.1406 -0.0058 -0.0342
18217W        W22617  15.844   2.297  29.232 -0.1610  0.1583  0.2051
18218W        W22618  10.416   2.788  17.739 -0.2905  0.0439  0.0320
18219W        W22619   0.775   1.527  35.563  0.0115  0.2191  0.1084
18220W        W22620   5.079   4.100  43.274 -0.0434 -0.4519 -0.2125
18221W        W22621  14.470   0.774  33.725  0.1126  0.0957 -0.1280
18222W        W22622   4.631   4.665  10.686  0.2167 -0.0126 -0.1437
18223W        W22623   9.404   1.740   8.392 -0.1800  0.0006 -0.0959
18224W        W22624  20.473   2.253  15.815 -0.3454 -0.0964 -0.3585
18225W        W22625   9.539   3.446  22.647  0.1961  0.1770 -0.0214
18226W        W22626   2.528   5.797  34.076  0.0243  0.2572 -0.1040
18227W        W22627  15.741   0.120  26.620 -0.2090 -0.2543  0.0944
18228W        W22628   1.936   2.797  32.750  0.1248 -0.2231 -0.0867
18229W        W22629  17.279   4.738  32.144  0.1482  0.0319  0.2157
18230W        W22630  13.169   4.889  12.942  0.0452 -0.1791  0.2008
18231W        W22631  16.783   0.562  15.736 -0.0123  0.0543  0.1567
18232W        W22632   1.819   3.299   2.454  0.0140 -0.0051  0.1228
18233W        W22633  19.571   1.442  44.835 -0.3630 -0.2354 -0.1906
18234W        W22634  15.947   1.004  16.470 -0.0526 -0.1244 -0.2062
18235W        W22635   1.436   5.490   2.467  0.0317  0.2102 -0.1176
18236W        W22636  10.424   5.935  34.135  0.0545  0.1150  0.0504
18237W        W22637  19.428   3.239  38.424 -0.0558 -0.1939 -0.0912
18238W        W22638   3.155   0.906  30.831 -0.0746 -0.0536  0.0838
18239W        W22639  17.359   6.496  14.742  0.3405  0.0469  0.0068
18240W        W22640   6.478   2.875  39.492 -0.0328 -0.0582  0.2845
18241W        W22641  15.964   3.325  44.365  0.0317  0.2731  0.2846
18242W        W22642  19.821   3.587  21.437 -0.2316  0.0245 -0.0211
18243W        W22643  19.841   3.298  14.379 -0.2340  0.1425  0.2931
18244W        W22644   2.625   1.225  29.552 -0.1773  0.1856 -0.0585
18245W        W22645   5.470   5.946   9.735 -0.1794 -0.2706 -0.0871
18246W        W22646  16.094   4.953   5.100  0.0938  0.2315 -0.0416
18247W        W22647  14.118   0.174  30.108  0.2029 -0.2866  0.3019
18248W        W22648  19.806   5.735  26.070  0.1561 -0.0567 -0.1328
18249W        W22649   1.783   0.228  12.756 -0.0736  0.0047  0.1267
18250W        W22650  15.621   2.010  32.179  0.0150  0.1055  0.1574
18251W        W22651  10.658   1.860  22.012  0.3872 -0.1272 -0.1912
18252W        W22652   3.743   3.789  40.445  0.0030  0.1522 -0.1467
18253W        W22653  19.990   3.826  10.060 -0.1758 -0.1180 -0.1050
18254W        W22654   1.825   2.122  13.128  0.0574 -0.0239  0.2384
18255W        W22655  10.466   1.813   3.772 -0.0703 -0.1031  0.2985
18256W        W22656   3.858   5.479  30.609 -0.0067  0.5368  0.0394
18257W        W22657  18.536   1.417  34.337  0.1826  0.0303  0.0708
18258W        W22658   1.652   2.915   7.703 -0.2000  0.1693 -0.0052
18259W        W22659  20.606   2.542  42.181  0.1568 -0.0306  0.1608
18260W        W22660  18.400   4.400   7.561  0.1898 -0.1894 -0.2096
18261W        W22661  12.695   0.721  34.003 -0.0214 -0.1161  0.1625
18262W        W22662  12.261   4.738  41.109  0.1865  0.1401  0.0674
18263W        W22663   6.502   5.699  18.260  0.0162 -0.0810 -0.0270
18264W        W22664  16.286   3.808  27.399  0.1004 -0.0441 -0.1474
18265W        W22665  14.379   0.294  10.502  0.4845  0.1582  0.1111
18266W        W22666   9.796   6.147  19.097 -0.0231 -0.0490 -0.0017
18267W        W22667  10.908   4.310  38.010 -0.0210 -0.1741 -0.0172
18268W        W22668   8.171   6.284  36.367 -0.0144  0.3621 -0.0578
18269W        W22669  13.860   4.286  36.008  0.1477 -0.1025  0.0292
18270W        W22670   3.926   1.340  34.663  0.3329 -0.1104 -0.0484
18271W        W22671  10.623   6.388  21.749  0.2302 -0.0978  0.1022
18272W        W22672   0.071   3.915  10.351  0.2903 -0.0068  0.1309
18273W        W22673  10.283   5.452  43.675 -0.1925  0.1870 -0.1668
18274W        W22674  14.269   1.664  35.806 -0.1002 -0.0584  0.0346
18275W        W22675   6.528   5.372  39.738 -0.1607  0.0472 -0.3894
18276W        W22676   7.432   5.542  37.935 -0.0241  0.0390  0.0014
18277W        W22677   3.637   2.830  10.251 -0.0828 -0.1848 -0.0387
18278W        W22678  19.073   3.941  38.247 -0.1872 -0.0470  0.0345
18279W        W22679  14.550   0.925   0.649 -0.0108 -0.1906  0.2833
18280W        W22680  17.196   0.881  14.798 -0.3374  0.2255 -0.3402
18281W        W22681  18.796   0.673  14.889 -0.3540  0.2136  0.2538
18282W        W22682   3.821   2.641  28.539  0.2510  0.1007 -0.1268
18283W        W22683  18.037   1.546  34.473  0.1030 -0.2088  0.1752
18284W        W22684  12.740   3.215   2.453  0.2080  0.0058  0.0087
18285W        W22685   4.133   0.924  31.881 -0.0082  0.1430 -0.1928
18286W        W22686  18.407   5.996  25.173 -0.1806 -0.3276  0.0336
18287W        W22687  15.140   4.871  16.937  0.0394 -0.0655 -0.2024
18288W        W22688  13.508   2.288  17.959  0.0876 -0.1993  0.2099
18289W        W22689  16.761   2.296  39.735 -0.0507 -0.1466  0.1212
18290W        W22690  10.742   4.637  44.787  0.3396  0.1457  0.1559
18291W        W22691   9.707   1.229  32.869 -0.2677  0.0154 -0.0551
18292W        W22692   2.397   3.543   9.698  0.2252 -0.2965 -0.0133
18293W        W22693  11.832   0.321  43.439 -0.2547  0.0658 -0.3573
18294W        W22694  19.988   5.718  43.847 -0.1541  0.2079  0.0883
18295W        W22695   9.500   1.902   7.908 -0.0350 -0.0711  0.1781
18296W        W22696  10.588   2.051  32.791 -0.1673  0.1856 -0.0132
18297W        W22697   7.864   3.086  14.028  0.2646  0.0934  0.0348
18298W        W22698  12.622   5.179  36.473  0.2394  0.0631  0.3699
18299W        W22699   0.838   6.208  40.993 -0.0270 -0.2647  0.1378
18300W        W22700  16.090   5.604  32.101 -0.1805  0.2552  0.0806
18301W        W22701   7.440   4.173  35.536 -0.2098 -0.1256  0.0122
18302W        W22702  18.605   2.839  37.436  0.1363  0.2999  0.2196
18303W        W22703  10.657   6.138  18.822 -0.0899  0.1093 -0.1048
18304W        W22704  17.459   6.124  37.269 -0.1464  0.3066  0.1178
18305W        W22705   8.639   1.719  33.933  0.2071 -0.0264 -0.0451
18306W        W22706   1.602   1.815  14.088 -0.0318  0.0815 -0.1089
18307W        W22707  16.077   3.447   0.692 -0.1433  0.1614 -0.1409
18308W        W22708  17.429   5.449  10.366  0.0458  0.1572 -0.0442
18309W        W22709  20.304   2.629  43.630 -0.0186  0.0131  0.2894
18310W        W22710   6.586   3.375  30.214  0.1074 -0.0236  0.1448
18311W        W22711   1.806   3.024   1.179 -0.0694  0.0151  0.0439
18312W        W22712  20.973   5.856  21.006  0.1503 -0.1972  0.1728
18313W        W22713  18.462   2.243   4.666  0.0844 -0.0849 -0.0156
18314W        W22714  13.588   0.323  15.820  0.2577 -0.0823 -0.1599
18315W        W22715   3.621   4.742   6.972 -0.0195  0.4123 -0.0628
18316W        W22716  11.846   2.637  28.325 -0.1391 -0.2238  0.1175
18317W        W22717   1.612   0.394   5.197  0.0791  0.0909  0.2577
18318W        W22718   5.472   1.887   6.901 -0.1059 -0.1638 -0.0225
18319W        W22719  16.115   0.563  26.502 -0.2052 -0.1611  0.2726
18320W        W22720   4.263   2.406  39.936 -0.0182 -0.0999  0.0336
18321W        W22721   1.769   4.461  30.563  0.0831  0.0812 -0.1047
18322W        W22722   7.282   0.289  42.681  0.1974 -0.2145 -0.2915
18323W        W22723   4.929   0.425  37.053  0.0264 -0.5096  0.1804
18324W        W22724  12.861   0.852  37.535 -0.0957  0.1346 -0.1449
18325W        W22725  11.246   0.738   1.580 -0.0127  0.2932  0.4024
18326W        W22726   3.313   1.463  33.806 -0.0226  0.3759 -0.1951
18327W        W22727  19.107   4.359   9.723  0.2956  0.2669 -0.0428
18328W        W22728   3.112   5.276  43.782  0.1507 -0.0095 -0.1242
18329W        W22729   2.456   2.321  34.910  0.1966 -0.1154  0.1112
18330W        W22730  11.187   0.614  37.780  0.0538 -0.2929  0.3595
18331W        W22731  19.452   0.168  37.127 -0.0714  0.2308  0.0413
18332W        W22732   2.275   5.630  14.269 -0.1929 -0.5429  0.2521
18333W        W22733  13.685   5.188  30.180 -0.0131 -0.0680 -0.1145
18334W        W22734  11.864   0.950   8.953  0.2085 -0.1062 -0.1922
18335W        W22735  16.124   1.059  41.198  0.0319  0.2734 -0.2011
18336W        W22736   1.211   2.967  44.217 -0.2632 -0.1162  0.1231
18337W        W22737  15.110   3.961   6.785 -0.3110 -0.1096 -0.2981
18338W        W22738   4.772   2.871  38.506  0.0007  0.0545  0.0629
18339W        W22739   0.853   2.602   3.942 -0.0774 -0.3411 -0.3638
18340W        W22740   3.822   6.411  18.014  0.1208  0.2963 -0.1192
18341W        W22741  10.742   0.709  24.109 -0.0753 -0.0187 -0.0802
18342W        W22742   4.999   0.399  14.738 -0.0173 -0.1709  0.1899
18343W        W22743  17.198   6.472  24.183 -0.1012 -0.1248  0.0122
18344W        W22744   7.492   4.154  33.838  0.2477  0.0433  0.2241
18345W        W22745  12.483   2.376  11.122 -0.1977  0.1235  0.0286
18346W        W22746   2.514   2.957  14.770  0.0445 -0.2201  0.0009
18347W        W22747  14.482   3.468  19.023 -0.0003 -0.1250  0.0798
18348W        W22748   4.537   0.484   9.395 -0.3356  0.0942 -0.2051
18349W        W22749  20.528   6.247  11.687 -0.2173  0.0743 -0.0794
18350W        W22750   5.461   3.034   1.495  0.1610  0.2784  0.5055
18351W        W22751   0.363   0.594  23.232 -0.0956 -0.0478  0.1804
18352W        W22752  11.896   3.515  40.309 -0.0763  0.0274 -0.0383
18353W        W22753   1.516   0.668  37.103  0.3520 -0.2413  0.2682
18354W        W22754   0.747   3.059  33.044  0.1726  0.1066 -0.2002
18355W        W22755  15.643   0.044   3.414 -0.0745 -0.1211  0.0352
18356W        W22756   6.689   0.324  20.371  0.3887  0.2688  0.2455
18357W        W22757  13.560   4.883  18.566  0.0438 -0.0810  0.2470
18358W        W22758  11.565   3.532   7.563 -0.2589 -0.0031 -0.1963
18359W        W22759  10.833   2.321   2.816 -0.1392  0.1696 -0.0836
18360W        W22760  19.196   0.995  15.155 -0.2873  0.0560  0.0635
18361W        W22761  11.491   4.514   7.875 -0.0014 -0.2572  0.0746
18362W        W22762   5.561   3.306  18.442  0.3279  0.0314 -0.1601
18363W        W22763  15.052   3.994   4.297  0.1974 -0.2203 -0.3159
18364W        W22764   3.759   1.729   5.635  0.0695  0.0158  0.1893
18365W        W22765  18.202   0.420  23.345  0.0348 -0.1081 -0.2473
18366W        W22766   9.611   6.171   3.856 -0.1813 -0.4284 -0.1754
18367W        W22767   8.139   4.130  37.301 -0.1157  0.0737 -0.0424
18368W        W22768  13.117   5.969  15.037  0.0179 -0.3145 -0.2422
18369W        W22769  19.425   0.684  16.433 -0.1115  0.0894 -0.2302
18370W        W22770   2.166   0.245  36.879  0.0306 -0.1434 -0.0248
18371W        W22771  15.738   3.897  27.430 -0.1404  0.1438 -0.0624
18372W        W22772   3.623   6.418  40.317 -0.1356 -0.1537  0.1078
18373W        W22773  16.217   3.157  43.865  0.1483  0.0808  0.0948
18374W        W22774  15.974   2.918  13.439 -0.0709 -0.0894 -0.0870
18375W        W22775  13.704   1.999  11.719  0.1706 -0.1698  0.0409
18376W        W22776  16.197   0.923  35.440  0.1072  0.0320 -0.0886
18377W        W22777  17.473   2.143  43.243  0.2619  0.1082 -0.0371
18378W        W22778  12.728   3.174  10.852 -0.0310  0.1215 -0.2451
18379W        W22779  15.210   3.599  17.402 -0.0855  0.1683 -0.2404
18380W        W22780  17.615   0.444  39.615  0.0362 -0.0854 -0.2168
18381W        W22781   8.849   0.761  35.027 -0.2565 -0.0746 -0.1064
18382W        W22782  11.192   5.154  10.532  0.1833 -0.0732  0.0348
18383W        W22783   7.828   3.249  29.691 -0.0559 -0.2563 -0.3287
18384W        W22784  14.262   0.781  35.818  0.0336  0.1634 -0.2245
18385W        W22785   7.587   0.466   0.010  0.1779  0.3443  0.0127
18386W        W22786   5.147   2.942  29.215 -0.0901  0.3366  0.1148
18387W        W22787  14.520   1.896   3.335 -0.3031  0.0577  0.0422
18388W        W22788  17.337   4.956  37.199 -0.1014 -0.2365  0.0265
18389W        W22789  17.111   5.358  30.439 -0.0384 -0.1730 -0.5255
18390W        W22790  18.824   3.864  32.197 -0.2392  0.1383 -0.0544
18391W        W22791   6.028   6.466  22.266  0.0518 -0.2207 -0.0934
18392W        W22792  20.444   2.741  13.623  0.2613  0.0056 -0.1522
18393W        W22793   2.709   5.690  33.591  0.0908 -0.0393  0.0999
18394W        W22794   9.457   2.048  24.178 -0.1355 -0.2306  0.2939
18395W        W22795   8.541   0.408  33.182 -0.0945 -0.2961  0.1294
18396W        W22796  20.564   1.556   9.726  0.2632 -0.0522  0.0461
18397W        W22797  15.215   0.032  30.772 -0.0224  0.1985 -0.0438
18398W        W22798  15.214   3.711   1.027  0.0062 -0.2769 -0.0878
18399W        W22799  16.604   6.306  29.547 -0.2003  0.2475  0.3857
18400W        W22800  11.070   5.225  31.733 -0.1894  0.1404  0.0207
18401W        W22801  11.960   3.125   0.388 -0.1340 -0.1314  0.2368
18402W        W22802   3.838   2.403  43.789 -0.2478 -0.4486  0.2895
18403W        W22803   4.936   3.489  13.120  0.1077 -0.2097 -0.0973
18404W        W22804  18.773   4.853  37.901 -0.0139 -0.1005 -0.0748
18405W        W22805  13.086   4.498  29.816 -0.2199 -0.1731  0.1331
18406W        W22806   3.887   5.894  17.839 -0.1782  0.3425  0.0729
18407W        W22807   1.639   0.941   3.883 -0.2461  0.2295 -0.0603
18408W        W22808  18.828   0.933  23.636 -0.4050  0.1147  0.1229
18409W        W22809   0.290   0.418  13.571  0.1315  0.1221  0.0906
18410W        W22810   9.623   3.040   1.284  0.2382  0.3408  0.4894
18411W        W22811  10.003   2.379   3.410 -0.0347 -0.1214 -0.1585
18412W        W22812   0.934   3.421  23.821 -0.0626  0.0126  0.0187
18413W        W22813   9.428   6.171   0.610 -0.1315 -0.1460 -0.0960
18414W        W22814  15.896   3.422   7.945  0.1137  0.0966 -0.0654
18415W        W22815   4.087   1.868  34.903 -0.1217  0.2287  0.2174
18416W        W22816  16.025   2.315  14.718  0.1328 -0.1783 -0.2885
18417W        W22817  15.246   4.573  41.525 -0.0570  0.0975 -0.1421
18418W        W22818   7.185   3.714  30.483  0.2975  0.0749  0.0761
18419W        W22819  19.222   0.276  14.739  0.1462 -0.2901  0.0764
18420W        W22820  13.032   1.122  18.234  0.0189 -0.1585 -0.0892
18421W        W22821  16.526   5.025   9.985 -0.1110 -0.4720  0.1947
18422W        W22822   0.386   4.287  43.895 -0.2048  0.2227  0.1734
18423W        W22823  18.241   3.445  35.794 -0.0397 -0.1359 -0.0959
18424W        W22824  11.401   1.411  22.309 -0.1130 -0.1461 -0.1198
18425W        W22825  13.215   1.019  11.405  0.2797 -0.3881  0.1004
18426W        W22826  16.419   4.716   3.025 -0.3038 -0.0703  0.0295
18427W        W22827  20.172   2.192   9.293  0.1570 -0.3317  0.0374
18428W        W22828  15.163   2.525  17.151  0.1314 -0.2634 -0.0499
18429W        W22829  10.594   0.652  12.246 -0.0086 -0.0021  0.2993
18430W        W22830  14.579   4.258  10.837  0.1970 -0.0592  0.0007
18431W        W22831   3.557   2.000   1.420  0.1285 -0.1429  0.0947
18432W        W22832  13.011   1.805  44.644 -0.2613 -0.0823 -0.1649
18433W        W22833   0.983   0.318  12.813 -0.1323  0.2835  0.2246
18434W        W22834  13.062   3.380  43.170  0.0064  0.2037 -0.2234
18435W        W22835   4.772   1.373  14.614 -0.2185 -0.0232  0.1864
18436W        W22836   0.888   4.040  33.919  0.2530 -0.0854  0.0072
18437W        W22837   7.858   5.732  22.778 -0.2001 -0.0691 -0.0950
18438W        W22838  19.653   1.698  30.146  0.2007  0.0195  0.4718
18439W        W22839  19.581   5.998  11.344  0.0669  0.1923 -0.1846
18440W        W22840  16.643   6.260  24.885 -0.2970 -0.4076  0.3080
18441W        W22841   4.281   6.137  13.823  0.0863  0.0752 -0.3570
18442W        W22842  18.859   3.293  11.233 -0.2315 -0.2798  0.1367
18443W        W22843   7.095   6.150  13.048 -0.1718 -0.2095 -0.1262
18444W        W22844  10.871   6.303  28.904 -0.1604 -0.2178 -0.0600
18445W        W22845  10.101   3.695  16.813 -0.0813  0.0812 -0.0299
18446W        W22846   4.605   6.248  14.260 -0.1454 -0.0673  0.3253
18447W        W22847  16.428   6.181  12.697 -0.0994 -0.3622 -0.2006
18448W        W22848  15.836   3.539  33.824  0.0300  0.1336 -0.0305
18449W        W22849  11.011   4.227   5.759 -0.0512 -0.0406 -0.0922
18450W        W22850   0.602   1.154   6.992  0.3486  0.0477 -0.1431
18451W        W22851   4.746   1.503  37.331  0.2833 -0.1672 -0.1663
18452W        W22852   2.215   6.115  28.766 -0.1597 -0.1704 -0.2524
18453W        W22853  18.502   4.745  37.404  0.0802 -0.1404 -0.1546
18454W        W22854   1.963   1.431  12.056  0.1535 -0.0345 -0.1244
18455W        W22855   0.596   1.778  35.912 -0.0426 -0.0263  0.1280
18456W        W22856  16.448   4.550  43.004  0.1763  0.0320 -0.1845
18457W        W22857   4.847   2.931  40.157 -0.3662  0.1193  0.3806
18458W        W22858  18.364   5.090  24.887  0.0156 -0.0478  0.1173
18459W        W22859   6.415   4.909   2.829 -0.0108  0.2223 -0.0296
18460W        W22860  17.465   3.455  44.901  0.1839  0.0314  0.1633
18461W        W22861  18.830   4.170  10.884 -0.2190  0.2550 -0.1782
18462W        W22862   7.975   2.357   2.762  0.0153  0.2415  0.2204
18463W        W22863   5.854   3.531  10.111  0.1395 -0.2592  0.0487
18464W        W22864  19.903   5.602  33.670  0.0941 -0.0440  0.0797
18465W        W22865   7.880   3.183   9.354 -0.0065  0.0094 -0.0665
18466W        W22866  18.277   0.103  14.363  0.1126 -0.3234  0.1845
18467W        W22867   3.124   5.093  31.216  0.3426 -0.1550  0.0054
18468W        W22868  13.847   5.411  17.377  0.1198  0.0108  0.1847
18469W        W22869  12.924   5.911  44.673  0.0624  0.2171  0.3417
18470W        W22870   8.418   2.186   0.662  0.0230  0.0096  0.0279
18471W        W22871   4.433   3.149  40.395  0.3696  0.0177  0.0136
18472W        W22872   2.870   4.477  31.227  0.5361  0.1606 -0.2496
18473W        W22873   8.901   0.868  43.662 -0.1241 -0.0427 -0.1118
18474W        W22874  15.717   0.157  15.307  0.2781 -0.3216  0.1061
18475W        W22875  20.554   5.494  12.243  0.0239 -0.1490  0.1306
18476W        W22876  18.986   6.245  34.464 -0.2519 -0.0009  0.4352
18477W        W22877   6.492   2.494  11.785  0.0463  0.1573 -0.2119
18478W        W22878  15.753   0.715  44.580 -0.1494  0.2149 -0.0543
18479W        W22879  14.160   3.179  40.147 -0.4364 -0.1246 -0.4984
18480W        W22880  15.020   4.425   8.686 -0.2472  0.0921  0.2203
18481W        W22881  18.034   4.006  13.342 -0.2469 -0.0479 -0.0951
18482W        W22882  19.641   2.696  32.756  0.3280  0.0186 -0.3026
18483W        W22883   1.244   2.307  38.512 -0.2273 -0.0374  0.0217
18484W        W22884  16.910   0.396  12.891  0.0260 -0.4575 -0.2050
18485W        W22885   9.245   4.829  30.130 -0.0557  0.0674 -0.0727
18486W        W22886   1.355   6.579  12.683  0.0970 -0.1655  0.0833
18487W        W22887  19.337   3.973  24.694  0.3838 -0.2637  0.2333
18488W        W22888   1.737   5.027  30.012  0.2717 -0.1933 -0.1733
18489W        W22889   2.216   2.261  27.968 -0.0110  0.1303  0.0039
18490W        W22890  18.108   3.626  28.904  0.1157  0.2687  0.1312
18491W        W22891   7.204   4.364  30.866 -0.1557 -0.2876  0.1865
18492W        W22892  12.418   6.104  39.130 -0.0754  0.1617 -0.0570
18493W        W22893   2.345   2.662  32.444 -0.0287  0.3937  0.3109
18494W        W22894   7.586   3.402  19.922 -0.0968  0.2844  0.0673
18495W        W22895   5.366   4.725  43.103 -0.0426 -0.1948 -0.0143
18496W        W22896  17.235   1.659   8.933  0.3384  0.0751 -0.3007
18497W        W22897   4.519   4.485  40.185  0.0670 -0.1188 -0.4739
18498W        W22898   7.207   5.617  41.570  0.0268 -0.1083 -0.0965
18499W        W22899   0.228   1.062  42.548  0.2371  0.0410  0.3187
18500W        W22900   9.475   3.550  16.934 -0.1155 -0.1327 -0.0088
18501W        W22901   8.352   2.824   3.734 -0.1476  0.1169  0.0312
18502W        W22902   8.967   3.834  17.963  0.1296 -0.0620  0.1888
18503W        W22903  12.914   1.336  38.307  0.0595  0.0704 -0.0072
18504W        W22904   3.145   0.556  30.450  0.0313  0.0445 -0.2279
18505W        W22905  19.487   2.831  15.511  0.3625  0.0967  0.4556
18506W        W22906   8.247   3.922  36.828 -0.5308  0.2905  0.3158
18507W        W22907   9.624   2.086   6.288 -0.0302  0.1863  0.1361
18508W        W22908  19.446   2.709  33.895  0.0477  0.0609 -0.0227
18509W        W22909  11.037   4.745  17.927  0.0803 -0.2793 -0.0274
18510W        W22910  12.315   2.375  15.083  0.2837  0.2643  0.0515
18511W        W22911   1.110   5.021   8.151 -0.2504  0.0156  0.1243
18512W        W22912   7.600   3.245   9.849 -0.3176  0.2141  0.1127
18513W        W22913  14.137   3.062  39.567 -0.1820  0.1197 -0.1898
18514W        W22914   3.525   6.185   2.890 -0.3122  0.1334  0.0855
18515W        W22915  13.295   2.520   2.362 -0.0766  0.2219  0.0966
18516W        W22916  14.752   0.676  17.203 -0.1563 -0.1381 -0.0278
18517W        W22917  18.122   1.196  41.782 -0.2102 -0.1948 -0.0667
18518W        W22918  10.132   5.570   4.549  0.0769  0.1027 -0.0364
18519W        W22919  12.651   1.001  34.456 -0.0015  0.4047  0.0040
18520W        W22920  13.678   3.775  10.657  0.0371  0.0519 -0.1310
18521W        W22921   6.834   4.657  20.952 -0.1726  0.0253 -0.0543
18522W        W22922  15.075   6.456  29.653  0.1644  0.2131  0.0342
18523W        W22923   2.003   0.031  42.395 -0.4098 -0.3768  0.0714
18524W        W22924   0.134   2.129  34.523 -0.0120 -0.1442 -0.1879
18525W        W22925  15.655   5.634  16.219 -0.2661 -0.0839 -0.2503
18526W        W22926   0.259   1.287  23.740  0.0071  0.0712  0.1045
18527W        W22927  15.480   0.655  13.205  0.0618  0.0973  0.0762
18528W        W22928   6.539   6.467  35.924  0.2423 -0.2446 -0.0537
18529W        W22929   1.676   3.031  34.901  0.0253 -0.0845  0.3476
18530W        W22930   8.511   2.288  16.721 -0.2450  0.1647  0.3488
18531W        W22931   8.436   0.801  39.112 -0.1792 -0.1711  0.0023
18532W        W22932  19.399   4.466  42.904  0.1595 -0.0005 -0.3409
18533W        W22933  10.112   5.237   3.369 -0.1483  0.1931 -0.1070
18534W        W22934   4.751   6.460  29.121  0.0532 -0.0663  0.0092
18535W        W22935   6.965   0.657  18.893 -0.0338  0.1353 -0.0748
18536W        W22936  17.196   2.952  28.842 -0.3263 -0.2427 -0.0412
18537W        W22937  19.016   1.077  26.936 -0.1736  0.0377 -0.0088
18538W        W22938  12.310   1.114  42.959 -0.0394 -0.2593  0.0024
18539W        W22939  10.905   3.414  20.980  0.1270  0.3291  0.1959
18540W        W22940   3.509   4.711  25.897 -0.1294 -0.1684 -0.0007
18541W        W22941   0.805   3.672  23.043 -0.0959  0.0711  0.1801
18542W        W22942   4.055   2.559  35.676  0.2584  0.1458  0.1161
18543W        W22943   0.862   5.062  24.361 -0.0151  0.2450 -0.1086
18544W        W22944  18.307   6.599  26.070  0.1185  0.0096 -0.1168
18545W        W22945  13.740   2.237  31.846  0.0418 -0.0855  0.0329
18546W        W22946  13.423   3.790  40.400  0.2389  0.1366 -0.0552
18547W        W22947  17.293   0.684  37.122  0.2419 -0.0853  0.3167
18548W        W22948   3.274   3.515  29.155 -0.1242  0.1878  0.0349
18549W        W22949   0.306   5.035  44.506  0.2366  0.2523 -0.1497
18550W        W22950   1.103   4.690   8.582  0.2069 -0.0779  0.1206
18551W        W22951   5.363   1.441  18.389  0.0161  0.0559  0.3588
18552W        W22952  19.997   6.495  33.848  0.4137 -0.0408 -0.0552
18553W        W22953  12.560   3.660  13.245 -0.1054  0.0125  0.1496
18554W        W22954  11.533   1.202  32.760  0.0816 -0.2212  0.1907
18555W        W22955   7.824   3.278  41.828 -0.0580  0.0616 -0.0632
18556W        W22956  19.686   0.898   5.680 -0.0024  0.1664  0.0112
18557W        W22957  19.938   4.311  25.889 -0.4004 -0.0439 -0.1910
18558W        W22958   3.458   0.988   5.533  0.0705 -0.0719 -0.0073
18559W        W22959   8.154   2.858  42.900 -0.0345  0.1452 -0.3087
18560W        W22960  10.212   2.223  35.097  0.2041 -0.0003 -0.0522
18561W        W22961  13.858   1.135   8.699 -0.0870 -0.2599  0.0614
18562W        W22962  11.752   0.999  12.786  0.3274  0.1139 -0.3266
18563W        W22963   2.441   1.877  40.261 -0.2123  0.0164  0.1387
18564W        W22964   5.967   2.301  38.997  0.0397  0.3866 -0.1050
18565W        W22965   8.537   1.024  13.564 -0.0496 -0.1219  0.1794
18566W        W22966   4.918   1.489  10.384 -0.2076  0.2410  0.0617
18567W        W22967   6.235   3.184  21.114  0.2312 -0.0768  0.1980
18568W        W22968   8.561   1.761  42.745  0.1292 -0.1648 -0.1533
18569W        W22969  19.201   3.671  36.387  0.1298 -0.3606  0.1281
18570W        W22970   6.304   5.708   6.996  0.2287  0.0703  0.0266
18571W        W22971  11.778   6.198   2.237 -0.1608  0.0843 -0.1854
18572W        W22972  10.977   5.779  20.354 -0.1501  0.0828 -0.0861
18573W        W22973   9.854   3.270  23.589  0.0676  0.1808 -0.2166
18574W        W22974  19.663   3.217  26.530  0.1710 -0.0992  0.0957
18575W        W22975  11.196   3.462   4.316  0.3599 -0.1355  0.0234
18576W        W22976  10.217   3.006  12.849  0.0450  0.0987  0.2646
18577W        W22977  20.354   5.819  12.570  0.2394 -0.0326 -0.2224
18578W        W22978  13.708   1.172  42.920 -0.2329 -0.5357  0.0557
18579W        W22979   8.980   1.881   8.042  0.1361  0.0853 -0.2122
18580W        W22980  15.934   3.539   7.042 -0.2804 -0.2956 -0.1108
18581W        W22981  17.904   2.726  34.627  0.0301  0.3642  0.0656
18582W        W22982  20.278   0.828  27.571 -0.2049  0.0267  0.2330
18583W        W22983  12.660   0.308  11.226 -0.0553 -0.2462 -0.0780
18584W        W22984   8.247   3.012  31.229  0.0498 -0.0311 -0.0450
18585W        W22985   3.816   4.094  32.965 -0.1808 -0.1294  0.0358
18586W        W22986  12.429   1.743   8.972 -0.1579  0.2881  0.1110
18587W        W22987  13.145   0.367  31.772 -0.0791 -0.1009  0.0746
18588W        W22988   2.123   0.680  11.564 -0.0064 -0.3022  0.0776
18589W        W22989   9.073   2.708  44.938 -0.1121  0.0242 -0.0540
18590W        W22990  20.538   6.415   9.019  0.0095 -0.1556 -0.0356
18591W        W22991  16.657   4.978  30.711 -0.1629 -0.1962 -0.0880
18592W        W22992  20.047   4.293   9.992  0.0805 -0.0609 -0.2743
18593W        W22993   9.945   1.978  14.123 -0.0991 -0.0833  0.1902
18594W        W22994  10.400   5.106  32.188  0.0777 -0.3093  0.0279
18595W        W22995  10.582   2.595  32.708 -0.0470 -0.3133  0.0216
18596W        W22996  17.446   0.923  42.500  0.0309  0.3315  0.1452
18597W        W22997   0.014   4.323  34.333  0.5061  0.0540  0.1476
18598W        W22998  20.590   1.820   3.603  0.1320  0.3629 -0.1896
18599W        W22999   1.092   4.057   2.117 -0.2072 -0.1589  0.3110
18600W        W23000  18.677   0.515   1.650  0.0895  0.0518 -0.0330
18601W        W23001  16.620   5.361  34.412 -0.0393  0.1231 -0.0254
18602W        W23002  17.876   1.457   4.173  0.1476 -0.2007 -0.1148
18603W        W23003   4.724   2.436  28.841  0.0648  0.1285 -0.2788
18604W        W23004   3.324   2.520  28.134  0.0806 -0.0375 -0.0720
18605W        W23005  15.041   1.162   4.314  0.0933 -0.0292 -0.1067
18606W        W23006   5.732   4.534  42.661  0.0085 -0.1772  0.0690
18607W        W23007   1.445   0.579  42.464 -0.0842  0.1932  0.0554
18608W        W23008   0.818   4.082  11.263  0.2483  0.0376  0.0859
18609W        W23009  17.043   4.847  41.375  0.1791 -0.1118  0.1156
18610W        W23010   0.044   3.456  36.791 -0.0614  0.1644 -0.0053
18611W        W23011   0.975   3.055  10.565  0.1780 -0.2674  0.2390
18612W        W23012  19.094   4.539  31.496  0.3074 -0.1717  0.0815
18613W        W23013   2.158   3.602  22.865  0.2418  0.2325 -0.0673
18614W        W23014  12.902   1.645  43.488  0.1023  0.4921 -0.0225
18615W        W23015   4.670   2.313  29.838  0.2833 -0.2480 -0.2887
18616W        W23016  16.874   3.879  25.986  0.1144  0.0339  0.1203
18617W        W23017  12.875   5.483   0.515  0.0148  0.0460 -0.0174
18618W        W23018  12.127   3.990  34.615 -0.0169  0.0384 -0.1255
18619W        W23019   6.669   0.879  14.199 -0.0823  0.0461 -0.0289
18620W        W23020  14.725   5.822  39.917  0.0291  0.1261  0.2865
18621W        W23021   7.189   1.780   5.928 -0.5279  0.2163 -0.1068
18622W        W23022  18.938   4.172  43.023 -0.1716  0.1790  0.0369
18623W        W23023  11.441   3.078  13.362  0.1964  0.0733 -0.0149
18624W        W23024   4.714   1.951  32.942 -0.0946  0.1880  0.0606
18625W        W23025   0.030   3.349  14.056 -0.4753  0.1319 -0.2461
18626W        W23026  17.060   3.605  12.304 -0.0669  0.2556 -0.1575
18627W        W23027   7.429   5.985  30.323  0.0146 -0.2563 -0.1450
18628W        W23028  12.363   1.453  31.930  0.2843 -0.0817  0.0160
18629W        W23029  15.079   5.002  10.499  0.0367  0.3128 -0.0893
18630W        W23030   6.208   4.749   6.171  0.0074 -0.1082  0.1282
18631W        W23031  18.506   0.118   4.550  0.0541 -0.1677 -0.3499
18632W        W23032   9.148   3.546  38.197 -0.3073 -0.0998  0.5416
18633W        W23033  16.875   3.798   4.956  0.3479 -0.1006 -0.3624
18634W        W23034  20.774   3.840  22.397 -0.1979 -0.3102 -0.0597
18635W        W23035  12.569   4.946   4.874 -0.1631 -0.1993 -0.1210
18636W        W23036   2.470   1.909   8.211 -0.5319 -0.5460 -0.0286
18637W        W23037   8.681   6.185  24.487  0.3071  0.2951  0.0472
18638W        W23038  20.522   3.025  27.760 -0.0914  0.2161  0.1160
18639W        W23039  15.724   1.738  35.757 -0.0355  0.1313  0.0452
18640W        W23040   7.098   3.023  19.134 -0.2964 -0.1826 -0.0719
18641W        W23041   9.281   2.876  12.128  0.1583 -0.2009  0.0707
18642W        W23042  15.664   3.097  38.064  0.0247  0.0577  0.2422
18643W        W23043  12.898   5.935  31.137  0.0131  0.2592 -0.1198
18644W        W23044   5.250   2.356  18.432  0.0457  0.2236 -0.0088
18645W        W23045  19.632   5.356  42.113  0.3418  0.1524  0.0209
18646W        W23046   2.627   1.750  13.418 -0.1778  0.2212 -0.0209
18647W        W23047  12.740   1.989  13.333 -0.1652 -0.0101  0.1476
18648W        W23048   7.150   2.106   8.208 -0.1914  0.1682 -0.1321
18649W        W23049  19.675   0.533  13.363 -0.0700  0.3374 -0.1661
18650W        W23050   6.809   3.652   1.706  0.0009  0.1067  0.0684
18651W        W23051   3.169   6.006  41.727  0.0307 -0.0359 -0.0086
18652W        W23052  17.959   0.523  36.028 -0.1381  0.1040 -0.2455
18653W        W23053   3.989   5.428  10.083  0.0495 -0.0980  0.1193
18654W        W23054   5.378   0.855  12.894  0.0701  0.0899 -0.0963
18655W        W23055  11.373   0.303  10.794  0.2086 -0.1004 -0.0127
18656W        W23056  18.316   2.700  25.655  0.4639  0.2438 -0.0403
18657W        W23057   1.502   4.560   6.649  0.2346  0.2839 -0.3418
18658W        W23058   4.018   5.577  13.143  0.1668  0.0309  0.1764
18659W        W23059  10.090   4.168  38.371 -0.1346 -0.4126  0.0870
18660W        W23060   4.605   2.952  14.317 -0.3978  0.2228 -0.0190
18661W        W23061  10.523   5.699  20.160 -0.0257  0.0113 -0.0897
18662W        W23062  18.312   1.641  24.493  0.2997  0.1894 -0.0748
18663W        W23063  13.852   0.918   7.423 -0.4406 -0.2203  0.1170
18664W        W23064   3.726   6.183  38.096  0.0790  0.2262 -0.1281
18665W        W23065  17.758   0.482  31.647  0.2064 -0.0269  0.2349
18666W        W23066   8.152   2.181  19.790  0.0565 -0.3393 -0.2843
18667W        W23067  15.043   2.476  32.852 -0.2134  0.0850  0.3556
18668W        W23068  10.344   1.181  10.685  0.0200 -0.1648  0.2083
18669W        W23069   4.973   1.780  15.368 -0.0432 -0.1161 -0.1199
18670W        W23070  15.353   4.819  30.664  0.1651  0.0269  0.1926
18671W        W23071   9.927   6.033   0.998 -0.2428 -0.0602 -0.0323
18672W        W23072  20.650   6.220  35.490 -0.1335  0.0115 -0.2533
18673W        W23073  10.512   2.550  21.657  0.3266  0.1400  0.1128
18674W        W23074   9.257   2.349  23.389 -0.0857 -0.0847  0.2569
18675W        W23075  10.598   0.094   6.537  0.0441  0.1351 -0.1869
18676W        W23076  11.168   1.250  28.539 -0.2553  0.0340  0.1149
18677W        W23077   2.799   0.086  13.282  0.3423 -0.1365  0.1555
18678W        W23078  18.148   6.542  13.909  0.0942 -0.0481  0.2778
18679W        W23079   5.880   1.011  12.226 -0.1082 -0.0739 -0.0741
18680W        W23080  14.781   6.364   1.453  0.2346 -0.0628  0.0225
18681W        W23081  17.584   0.652  25.236 -0.1092  0.1773  0.1739
18682W        W23082  17.864   1.347   0.265 -0.0952  0.3698  0.0311
18683W        W23083  18.789   3.687  23.332  0.1700 -0.0306  0.0065
18684W        W23084  19.093   4.305  30.918  0.1375  0.1837 -0.0774
18685W        W23085   7.811   0.249  10.966  0.0201  0.0006 -0.0061
18686W        W23086  15.075   6.543   9.417  0.0216 -0.0687 -0.0031
18687W        W23087   0.328   4.818   4.014 -0.1454  0.0428  0.0327
18688W        W23088   3.997   3.067  35.619 -0.0682 -0.0387 -0.0929
18689W        W23089  16.895   0.903  40.636  0.0552  0.0944  0.0113
18690W        W23090  15.927   0.460   0.749 -0.0895 -0.0006 -0.0027
18691W        W23091   5.795   2.844   7.590  0.1735  0.0329 -0.3467
18692W        W23092   5.854   4.208  17.425 -0.0783  0.0755 -0.0898
18693W        W23093  19.318   1.379   1.735  0.1299 -0.1817 -0.1084
18694W        W23094  16.630   1.069  40.209  0.0953 -0.1705 -0.0925
18695W        W23095  20.862   2.692  29.670  0.0791  0.1804 -0.1733
18696W        W23096  21.086   6.147   2.118  0.1202  0.3457 -0.1699
18697W        W23097  18.331   5.867  10.555 -0.2036  0.3583  0.1989
18698W        W23098  17.923   0.856   0.056 -0.3837  0.0216 -0.2334
18699W        W23099   9.185   5.506  42.869 -0.1320  0.0777 -0.0298
18700W        W23100  16.068   5.683  44.669  0.1210  0.1272 -0.0850
18701W        W23101   9.853   1.824  15.982 -0.0035 -0.1669  0.0562
18702W        W23102   7.996   3.727  34.806 -0.2567 -0.0400 -0.3320
18703W        W23103  18.742   5.028  11.893  0.1301 -0.2057  0.3241
18704W        W23104   9.060   5.539  19.004  0.1299  0.1756  0.0907
18705W        W23105   4.561   5.604  34.253 -0.0183 -0.0541  0.0409
18706W        W23106   4.907   4.404   2.730  0.2511  0.2033  0.0998
18707W        W23107  13.694   4.365   9.442 -0.1023  0.0683 -0.0846
18708W        W23108  11.216   2.533   6.492  0.0472  0.0949 -0.1837
18709W        W23109  10.929   4.883  39.572  0.3666  0.1827  0.0993
18710W        W23110   0.409   3.464   7.518 -0.0634 -0.3181 -0.3216
18711W        W23111   4.832   0.635  13.656  0.1401 -0.0814  0.1219
18712W        W23112   7.644   4.181   8.969  0.0665 -0.2232  0.0038
18713W        W23113   9.567   1.873  23.668  0.4063  0.0500  0.1357
18714W        W23114  11.557   5.586  21.192  0.1232 -0.1025  0.0416
18715W        W23115  10.831   3.566  22.948 -0.2916  0.5563  0.1243
18716W        W23116  16.930   0.387   9.880 -0.0338  0.2912  0.0135
18717W        W23117   3.762   2.795  29.025 -0.2438  0.0395 -0.1147
18718W        W23118   0.963   0.552  13.248  0.1609  0.3186 -0.3294
18719W        W23119  12.918   6.541  37.954 -0.0545 -0.3021  0.3179
18720W        W23120   3.922   4.915   6.529  0.1712 -0.2039 -0.2438
18721W        W23121   2.940   1.628   6.547 -0.2543 -0.0995 -0.0575
18722W        W23122  18.735   2.744  25.388  0.1267  0.0764 -0.0432
18723W        W23123   1.163   4.863  34.497  0.0732  0.0655  0.2533
18724W        W23124  18.035   5.105  41.324  0.2177 -0.0521 -0.0088
18725W        W23125  20.599   0.540   5.302  0.1823  0.2708 -0.2828
18726W        W23126  17.541   2.180  24.589  0.2260  0.3417  0.0158
18727W        W23127  11.274   6.402   8.623 -0.2339  0.4835  0.0893
18728W        W23128  19.354   5.790  13.515 -0.3113 -0.2902  0.1312
18729W        W23129   6.339   3.989  32.383  0.3052 -0.0124 -0.0126
18730W        W23130   9.011   0.725  31.505 -0.0995  0.1064 -0.0123
18731W        W23131   4.831   3.793   6.336 -0.1586 -0.0910  0.1374
18732W        W23132   3.190   1.411   6.102 -0.0038  0.4111  0.0709
18733W        W23133  20.203   4.053  32.580  0.0881  0.1840  0.0835
18734W        W23134   4.204   2.738  17.866 -0.1548 -0.2690 -0.3474
18735W        W23135  17.703   4.628   7.829  0.4528 -0.1114  0.1983
18736W        W23136  10.009   0.605  44.235 -0.0972  0.1112  0.3307
18737W        W23137   7.486   3.602  44.509  0.2028 -0.2325  0.1024
18738W        W23138   3.635   2.060   8.262 -0.3273 -0.2491 -0.1755
18739W        W23139  10.265   2.878  30.139 -0.0343 -0.4310 -0.2506
18740W        W23140  14.525   3.324   7.122 -0.0022  0.0983  0.1695
18741W        W23141   9.354   2.978   7.100 -0.1212  0.2980 -0.6024
18742W        W23142   4.856   5.520  33.190  0.1181  0.3528 -0.3272
18743W        W23143   2.332   6.358  12.615 -0.3516  0.0378 -0.0188
18744W        W23144  11.585   3.008   1.212 -0.0367  0.0961  0.0935
18745W        W23145  11.191   4.339   7.267 -0.2816 -0.0125 -0.0752
18746W        W23146   8.724   5.906   5.461  0.1273 -0.1371 -0.0931
18747W        W23147  18.746   4.438  24.994 -0.4209  0.0120  0.0562
18748W        W23148   8.024   6.463   0.665  0.1137 -0.0674  0.0853
18749W        W23149   3.586   3.808  15.488 -0.0046 -0.1321  0.2995
18750W        W23150   0.707   5.469   0.761 -0.1756 -0.3553 -0.0116
18751W        W23151  11.695   1.348  42.308  0.0096  0.0999 -0.1925
18752W        W23152   7.542   1.960  35.873 -0.1598  0.0536  0.0407
18753W        W23153   0.526   5.328  33.046  0.0403 -0.2768 -0.0748
18754W        W23154   6.396   2.689  37.714 -0.1065 -0.0384  0.2353
18755W        W23155  11.297   2.442  24.351  0.0602  0.0120 -0.0251
18756W        W23156   7.134   0.020  19.627 -0.2872  0.2099  0.0998
18757W        W23157  19.464   5.815  22.407 -0.0988  0.0078  0.1836
18758W        W23158  17.643   1.135  37.725 -0.0810 -0.0272 -0.0294
18759W        W23159  13.658   6.332   6.938 -0.3435 -0.3318 -0.1109
18760W        W23160   1.181   2.785   4.480 -0.0338  0.2680 -0.1942
18761W        W23161  19.516   4.239  39.492  0.1069 -0.3206  0.1130
18762W        W23162   7.942   0.464  36.034  0.1424 -0.1577  0.0130
18763W        W23163   7.910   3.712   6.169  0.0502  0.0907 -0.4192
18764W        W23164  14.929   2.049   1.589  0.0847  0.2430 -0.0706
18765W        W23165   7.719   5.030   9.769  0.0556  0.0130  0.3025
18766W        W23166   8.408   2.279   9.232  0.1323  0.1215 -0.2199
18767W        W23167  16.884   1.960  36.990  0.2263 -0.2357 -0.1038
18768W        W23168   2.359   2.976  16.834 -0.0444  0.0439  0.0558
18769W        W23169  15.606   0.507  36.014 -0.1049 -0.2557 -0.2716
18770W        W23170  17.579   5.325   0.798 -0.3213 -0.1622 -0.0622
18771W        W23171  18.287   4.926  23.347  0.4332 -0.0926 -0.0812
18772W        W23172  19.672   4.862   6.247 -0.0712  0.2626  0.1855
18773W        W23173   2.111   0.733  13.900 -0.1729  0.0809  0.1544
18774W        W23174  15.538   6.500  13.621 -0.0431  0.3157  0.2309
18775W        W23175  21.122   4.845  36.809 -0.1388  0.1575  0.1359
18776W        W23176  16.340   2.561  32.297 -0.1310 -0.1549  0.0303
18777W        W23177  20.337   0.982  36.853  0.0746  0.0716  0.0985
18778W        W23178  20.109   1.259  40.833  0.0975 -0.0270 -0.0724
18779W        W23179  17.668   4.169  35.619  0.1903 -0.1103 -0.0724
18780W        W23180  16.540   0.705  13.748 -0.1945  0.0801  0.1553
18781W        W23181   9.837   2.376  13.180  0.2964  0.2398  0.2434
18782W        W23182   3.345   0.045  16.691  0.0112 -0.0498 -0.0666
18783W        W23183  20.035   4.440  36.455  0.1677  0.3381  0.3326
18784W        W23184   1.590   6.243  38.470 -0.0247  0.0848  0.0038
18785W        W23185   6.404   3.524   3.882  0.2873 -0.0173 -0.1643
18786W        W23186  16.923   5.142   9.590  0.2944  0.0234  0.6131
18787W        W23187   9.511   1.466  17.592 -0.1063  0.1932 -0.1881
18788W        W23188  19.741   2.876  31.072  0.0057  0.0691  0.1208
18789W        W23189  11.917   0.524  21.131 -0.1122  0.0443  0.2143
18790W        W23190  11.440   1.399  13.757  0.3081  0.1610  0.0852
18791W        W23191  15.109   5.179  14.256 -0.0329 -0.0320  0.2806
18792W        W23192   8.633   4.348  37.648  0.2108  0.0198  0.0820
18793W        W23193   8.602   4.568  14.842  0.0222 -0.0479  0.1052
18794W        W23194  11.704   3.531   8.916  0.1457  0.3219 -0.1748
18795W        W23195  10.989   5.508  22.047  0.0214 -0.1961  0.3572
18796W        W23196  18.667   5.519  43.349  0.1701  0.0755  0.2209
18797W        W23197   7.650   0.866   6.102  0.1336 -0.0945 -0.1688
18798W        W23198   2.787   3.907  10.010  0.0966  0.0587 -0.1259
18799W        W23199  11.029   0.841   9.029 -0.3479 -0.1166 -0.2906
18800W        W23200   4.665   1.741  16.364 -0.0659 -0.1545 -0.0581
18801W        W23201  12.768   4.591  38.065  0.0030 -0.1735 -0.2153
18802W        W23202   8.015   0.322  43.673  0.1423  0.1738 -0.1896
18803W        W23203   2.596   5.737  17.392  0.2630 -0.2140  0.2291
18804W        W23204  10.635   4.120  18.442  0.1144  0.3475  0.0682
18805W        W23205  13.455   2.834  30.776  0.3159 -0.0110 -0.2299
18806W        W23206  11.426   1.522  30.136  0.0944 -0.0733  0.1463
18807W        W23207   4.911   5.258  13.398  0.1228 -0.3927 -0.0208
18808W        W23208  16.556   0.404   1.426 -0.1894  0.0132  0.1348
18809W        W23209  19.308   5.156  29.516  0.0044  0.1265 -0.0790
18810W        W23210   6.066   4.214  10.340  0.0205 -0.2598 -0.2127
18811W        W23211  13.183   1.223   1.355 -0.4089 -0.2980 -0.4162
18812W        W23212  14.577   5.569  32.818  0.1432 -0.1599 -0.0836
18813W        W23213   2.488   1.223  35.097 -0.1468 -0.1855 -0.3815
18814W        W23214   2.056   6.330   3.350 -0.0624 -0.1873 -0.0406
18815W        W23215   2.426   6.505   2.399  0.1249  0.1400  0.0225
18816W        W23216  15.033   1.596   6.545  0.1198 -0.0334  0.0880
18817W        W23217  13.025   3.825  12.532 -0.1961 -0.2625 -0.3167
18818W        W23218   2.388   5.366  28.686  0.3418 -0.1300 -0.0964
18819W        W23219   9.040   4.293  24.647 -0.2657 -0.0618  0.2411
18820W        W23220   9.125   1.750  34.666  0.1283 -0.0559  0.0916
18821W        W23221  20.731   2.465  43.398 -0.1035 -0.4363 -0.1341
18822W        W23222   9.266   3.622  29.794  0.2901  0.0695 -0.0156
18823W        W23223  10.307   5.084  21.440 -0.2012 -0.1077 -0.0040
18824W        W23224   4.362   4.608  41.501 -0.0045  0.2243 -0.1130
18825W        W23225  12.961   4.712  10.408  0.1117 -0.0266 -0.3770
18826W        W23226   0.285   0.100  12.550  0.2301 -0.3734 -0.0812
18827W        W23227  14.171   3.036  27.564 -0.2470  0.0770 -0.1139
18828W        W23228  13.279   5.702   3.501 -0.1120 -0.1593  0.0075
18829W        W23229  13.283   1.224  36.786 -0.0098  0.1063 -0.1542
18830W        W23230   9.424   2.725  17.810 -0.0716 -0.1436  0.0782
18831W        W23231   1.655   4.969  30.982  0.2020  0.0680 -0.2778
18832W        W23232   4.019   4.670  16.717  0.0284 -0.0997  0.1693
18833W        W23233  15.104   4.907   4.206  0.1560  0.1786 -0.0069
18834W        W23234  19.531   4.324  23.912  0.0233 -0.0847  0.1079
18835W        W23235  20.623   0.653  28.312 -0.0808 -0.0349  0.3665
18836W        W23236  14.094   6.121   0.812  0.0463 -0.3904 -0.2084
18837W        W23237  18.421   0.615  14.437  0.0144  0.2793 -0.0824
18838W        W23238   9.645   3.839  10.360  0.0340  0.3718 -0.1306
18839W        W23239   5.224   1.485   5.411 -0.1196 -0.2062 -0.3231
18840W        W23240  17.611   1.532  29.827  0.2289  0.2924  0.0893
18841W        W23241   3.254   0.299  35.534 -0.3269 -0.1493 -0.0241
18842W        W23242  14.619   2.548  34.462 -0.1646  0.0814  0.3385
18843W        W23243  20.802   3.338  33.156  0.3076 -0.0054  0.2263
18844W        W23244  11.233   0.227  20.757 -0.3224 -0.1119  0.0558
18845W        W23245   0.875   5.776  27.655  0.3859 -0.0186  0.1370
18846W        W23246  20.622   6.381  28.900  0.0335  0.2599 -0.2724
18847W        W23247  20.037   5.601  29.003  0.2642  0.0147 -0.0033
18848W        W23248  12.876   4.893   4.481 -0.1823  0.0601  0.1318
18849W        W23249  16.745   1.273  32.745 -0.1367  0.1167 -0.1058
18850W        W23250  11.498   5.648   8.802 -0.2341 -0.2986  0.0147
18851W        W23251  12.939   5.546  41.362 -0.4243 -0.1258  0.0668
18852W        W23252   5.244   4.254  31.579  0.2647 -0.0375 -0.0084
18853W        W23253  12.713   2.857   8.510 -0.0343 -0.1175  0.0480
18854W        W23254   8.501   4.751  10.576 -0.1441 -0.2494 -0.1775
18855W        W23255  14.048   2.795   2.058  0.0837  0.2115  0.2018
18856W        W23256  15.591   1.283  39.534 -0.0769  0.0105  0.1889
18857W        W23257   3.662   2.443  40.247 -0.4030 -0.0216  0.0627
18858W        W23258  10.632   5.284  44.529 -0.0573 -0.0252 -0.0614
18859W        W23259  13.803   0.964  34.486 -0.0310 -0.0954  0.2935
18860W        W23260  11.472   2.637  10.353  0.1500  0.2417 -0.0901
18861W        W23261   8.758   5.866  13.236 -0.1269 -0.2143  0.0081
18862W        W23262  18.056   3.470  12.403 -0.0922  0.5295 -0.0209
18863W        W23263  11.290   0.263  19.423 -0.2930 -0.3289 -0.0865
18864W        W23264   3.608   3.488  39.172 -0.0838 -0.1452  0.2947
18865W        W23265  17.855   3.398  43.441 -0.1458  0.1405  0.1345
18866W        W23266   8.889   5.205   0.480 -0.0221 -0.0049 -0.0435
18867W        W23267  18.854   6.363  39.985  0.0943 -0.3449  0.1613
18868W        W23268  12.182   3.577  41.598 -0.0907  0.2692 -0.0068
18869W        W23269   2.201   6.552  14.697 -0.4381 -0.0353 -0.0082
18870W        W23270  15.697   0.489  10.319 -0.0043  0.0475 -0.0541
18871W        W23271   4.687   3.292   8.126  0.2990  0.2070  0.2490
18872W        W23272   2.676   5.540   1.049 -0.1949  0.3133  0.0953
18873W        W23273  16.858   2.994   7.905 -0.1981 -0.0597 -0.0798
18874W        W23274  16.703   2.581  10.824 -0.0935  0.3275  0.1096
18875W        W23275  15.082   2.978  25.781 -0.2486 -0.2072  0.1921
18876W        W23276   8.333   1.951   6.860 -0.0172 -0.0920  0.0110
18877W        W23277  17.576   1.711   7.329  0.2838  0.1594 -0.1636
18878W        W23278   6.466   0.177  39.211 -0.1271 -0.4929  0.0800
18879W        W23279  19.458   4.389   6.259  0.0805 -0.4234  0.0076
18880W        W23280  19.851   5.210  14.806  0.0885  0.0394  0.2431
18881W        W23281   2.424   1.304  31.589 -0.1499  0.0745  0.2617
18882W        W23282  14.081   6.356  43.703 -0.2242 -0.1817 -0.1244
18883W        W23283   2.379   1.143  42.197  0.2056 -0.2839 -0.0687
18884W        W23284  20.847   2.425   3.030 -0.0583 -0.4192  0.2733
18885W        W23285  20.030   0.879   5.047 -0.3001  0.0995  0.2833
18886W        W23286  10.668   2.567  20.517 -0.0036  0.1527  0.0664
18887W        W23287   7.806   3.532  22.079  0.3600 -0.2119  0.1658
18888W        W23288   2.762   2.878  35.476 -0.1060  0.1474  0.0057
18889W        W23289  17.059   0.126   3.494 -0.2558 -0.1659 -0.2600
18890W        W23290  16.904   4.725  38.803 -0.1263  0.1118  0.0057
18891W        W23291   5.677   0.901  14.967  0.0701  0.1147 -0.0944
18892W        W23292   4.893   2.548  11.166 -0.1763 -0.0193 -0.3542
18893W        W23293  17.528   0.618  36.676 -0.0670  0.2916 -0.1468
18894W        W23294  10.296   6.463  32.551  0.3386  0.1754  0.0824
18895W        W23295  14.194   3.998  36.299 -0.0285 -0.2309  0.3273
18896W        W23296  10.962   0.532  12.702 -0.2393 -0.0879 -0.3523
18897W        W23297  11.856   5.326   5.298 -0.0445  0.0747 -0.5492
18898W        W23298   0.691   3.221  24.308  0.0622 -0.1174  0.1726
18899W        W23299   7.535   1.300  13.824  0.2025  0.1347  0.1219
18900W        W23300   1.262   2.549  37.255  0.3531  0.0449 -0.0469
18901W        W23301   4.038   3.714  14.474 -0.0336  0.1285  0.0223
18902W        W23302  20.108   0.105  26.555  0.4229 -0.0553  0.1009
18903W        W23303   3.572   5.543  29.799  0.0256  0.3181  0.0425
18904W        W23304  16.955   4.129   6.183 -0.1096 -0.1844 -0.1402
18905W        W23305  17.619   2.968  43.538 -0.1082 -0.4268 -0.0433
18906W        W23306  17.984   5.624  33.694  0.2369 -0.0335  0.0992
18907W        W23307  20.212   0.682  26.707  0.0988 -0.0913 -0.0351
18908W        W23308   3.982   0.768  42.981 -0.0116 -0.0027 -0.0176
18909W        W23309   2.971   5.385   2.880  0.2072  0.1435  0.3462
18910W        W23310   3.130   1.053   2.552  0.0219 -0.0319 -0.0833
18911W        W23311  15.479   6.491  35.992  0.0422  0.0816 -0.3155
18912W        W23312  10.415   1.289   4.959  0.3020  0.0425  0.3973
18913W        W23313  18.432   5.018   9.941  0.2388 -0.2185 -0.2658
18914W        W23314   6.740   4.219  20.166  0.0190  0.0267 -0.2181
18915W        W23315   0.162   1.654   1.399  0.0832  0.3060 -0.0983
18916W        W23316  20.836   0.530  44.010 -0.0907 -0.0978  0.0421
18917W        W23317   1.963   4.285   6.729  0.0233  0.0469 -0.2938
18918W        W23318  11.459   5.245  42.830  0.0646 -0.0364  0.3059
18919W        W23319   4.076   5.820  29.899  0.1237 -0.1815 -0.4406
18920W        W23320  14.079   6.090  35.427 -0.1037  0.0385 -0.2693
18921W        W23321  18.594   1.464  21.878  0.0209 -0.1638  0.1418
18922W        W23322  14.424   6.138  28.167 -0.2614  0.1186  0.0395
18923W        W23323  20.062   4.313   9.500 -0.1670 -0.3110  0.1892
18924W        W23324  17.705   2.538   0.618 -0.1284 -0.2344  0.0646
18925W        W23325  17.863   5.962   7.002 -0.1403 -0.0381  0.2117
18926W        W23326  11.966   4.679  33.777 -0.0407  0.0060 -0.1144
18927W        W23327   3.031   4.815   0.037  0.1101  0.3834 -0.4444
18928W        W23328  13.086   5.788   8.267  0.0713 -0.1982  0.1481
18929W        W23329   5.918   2.235   5.736 -0.2373 -0.1361 -0.0636
18930W        W23330  12.863   6.337  40.914 -0.1220 -0.0615  0.1281
18931W        W23331   2.793   1.320  45.035  0.2654  0.0834  0.5238
18932W        W23332  10.714   1.744   2.197 -0.0245 -0.0730 -0.2682
18933W        W23333   8.868   0.515  37.094  0.1695 -0.1452 -0.1983
18934W        W23334   9.452   1.780  32.756 -0.2685  0.1376 -0.0028
18935W        W23335  18.593   2.198  27.570  0.1283  0.2040 -0.1504
18936W        W23336  14.181   2.230  29.866  0.0545 -0.0050 -0.0430
18937W        W23337  10.880   4.528   8.188  0.2982 -0.1106  0.0461
18938W        W23338   9.215   5.256  24.217 -0.0559  0.0415  0.2343
18939W        W23339  17.999   0.321  30.239  0.0629  0.1531 -0.1589
18940W        W23340  18.227   3.127  43.776  0.4205  0.2801  0.1095
18941W        W23341  16.474   0.382  10.174 -0.2144  0.2105 -0.1500
18942W        W23342  18.194   0.124  43.213 -0.4042 -0.2159 -0.0517
18943W        W23343  11.356   0.287   4.332  0.0241 -0.0116 -0.2043
18944W        W23344   9.559   1.610  19.784  0.1643 -0.1410 -0.3134
18945W        W23345  17.639   1.015  40.392 -0.0417 -0.1182  0.0559
18946W        W23346  12.663   4.953   3.893 -0.2010 -0.0098  0.2035
18947W        W23347  15.104   3.130  30.946 -0.2337 -0.2089  0.0145
18948W        W23348   9.051   2.990  40.731  0.0213  0.2500 -0.2416
18949W        W23349   1.229   6.446  24.235  0.0408 -0.0651  0.0672
18950W        W23350  17.485   1.521  44.985 -0.0323 -0.4917 -0.1343
18951W        W23351   3.882   3.916   8.446 -0.0866  0.4359 -0.0275
18952W        W23352   2.813   1.607  30.072  0.0835  0.1488  0.3164
18953W        W23353   4.439   2.490  44.081  0.2485  0.1323 -0.0066
18954W        W23354  15.888   2.659  26.038 -0.2076  0.3513 -0.1871
18955W        W23355   2.572   5.922  44.061 -0.1026 -0.1448 -0.1635
18956W        W23356   3.799   4.871  32.639 -0.2931 -0.0582  0.1404
18957W        W23357  16.927   1.407  16.597  0.3308  0.2441  0.2331
18958W        W23358   7.906   5.395  43.251  0.1210  0.1352  0.0430
18959W        W23359  20.669   3.865   6.582  0.3838 -0.2842  0.2195
18960W        W23360   6.176   3.566   8.157  0.0494 -0.0782 -0.0491
18961W        W23361  11.199   0.530  11.921  0.1825 -0.0296 -0.1277
18962W        W23362  21.077   1.239   2.462 -0.1301  0.1018 -0.1672
18963W        W23363  12.599   5.713  30.037 -0.3552 -0.1216 -0.2902
18964W        W23364   5.134   6.355   5.726 -0.0806 -0.0955  0.1507
18965W        W23365   5.198   2.341   6.733  0.0279 -0.0300  0.1821
18966W        W23366   5.240   0.281  14.326 -0.0053  0.1109 -0.0373
18967W        W23367   1.047   5.994  25.409 -0.1941  0.1049 -0.2258
18968W        W23368   7.403   0.601   1.094  0.1263  0.0517 -0.0617
18969W        W23369  15.408   1.776  41.057  0.3812  0.4389 -0.1932
18970W        W23370   4.638   2.545  14.710  0.0661 -0.0331 -0.0491
18971W        W23371  12.469   4.505   1.698  0.3507  0.0706 -0.0699
18972W        W23372  13.572   5.119  34.603  0.0719 -0.1802  0.0134
18973W        W23373  12.638   6.261  16.504  0.2929  0.0938 -0.0399
18974W        W23374  12.774   0.220  14.750 -0.2556 -0.1158 -0.0337
18975W        W23375  19.602   4.589   5.778 -0.1393  0.1467  0.1717
18976W        W23376  19.397   0.385  38.447  0.4853  0.3624 -0.2055
18977W        W23377  15.374   4.760   7.770  0.1738  0.0802 -0.1626
18978W        W23378  19.250   5.819  24.136 -0.2027 -0.0781  0.1751
18979W        W23379  17.975   5.367  16.515  0.2852 -0.2174 -0.5142
18980W        W23380   8.244   1.905  37.965 -0.0209 -0.3448 -0.2508
18981W        W23381   2.516   5.401  27.532  0.1540  0.1184 -0.1913
18982W        W23382  20.074   1.498  27.751  0.1949  0.1325  0.0781
18983W        W23383  14.422   5.424   8.443 -0.2241  0.1235 -0.3770
18984W        W23384   7.486   5.949  42.811  0.0275 -0.0599  0.0525
18985W        W23385  19.099   5.601  44.212 -0.0786 -0.2102 -0.1805
18986W        W23386  21.118   6.582  10.460  0.2397  0.2951  0.1563
18987W        W23387  13.658   6.041  16.271 -0.0067 -0.0975  0.2291
18988W        W23388   4.602   5.290  44.988  0.0231  0.1253  0.1519
18989W        W23389   3.352   1.964  33.051  0.3132  0.1145  0.1895
18990W        W23390   8.974   4.645  15.436 -0.1952  0.0410  0.3376
18991W        W23391  10.107   3.580   8.455 -0.1647 -0.0117 -0.0293
18992W        W23392  18.266   0.353  38.066 -0.0168  0.0322 -0.1177
18993W        W23393  13.628   4.265   7.566  0.0986  0.5318 -0.0335
18994W        W23394  19.480   3.724  15.781  0.1602  0.1184 -0.0728
18995W        W23395   0.265   3.154  14.797  0.0631 -0.0055 -0.3239
18996W        W23396   7.864   3.151  23.067  0.1165  0.4397 -0.0699
18997W        W23397  17.201   3.105  39.151  0.2050  0.1145  0.2379
18998W        W23398  14.295   2.823   6.960 -0.0279 -0.0288 -0.2076
18999W        W23399   3.146   3.977   8.201 -0.0360  0.1943  0.1804
19000W        W23400   8.768   0.768  13.179 -0.0746 -0.0421 -0.1071
19001W        W23401  17.429   4.321  11.634 -0.1396  0.5520 -0.0486
19002W        W23402   6.540   0.078  13.003  0.2841  0.1225  0.0193
19003W        W23403   4.672   2.769   7.570  0.3761  0.1686  0.0155
19004W        W23404  13.965   1.945  33.055  0.0303 -0.0064  0.0378
19005W        W23405  17.849   5.033   1.121  0.0796 -0.1078 -0.1250
19006W        W23406  10.130   4.133  10.811  0.2876 -0.3703 -0.1151
19007W        W23407   3.199   5.975  30.447  0.0242  0.0426  0.2416
19008W        W23408   5.243   1.319   4.770  0.1463  0.2281 -0.0412
19009W        W23409   0.096   4.241  31.387  0.0278 -0.1086  0.1916
19010W        W23410   0.450   0.623   5.584 -0.2265 -0.0366 -0.1360
19011W        W23411   0.792   2.532  40.584 -0.1716 -0.0507  0.1242
19012W        W23412   7.488   5.878   0.262  0.2001 -0.0362 -0.1092
19013W        W23413   0.221   4.018  42.541 -0.2273 -0.2168 -0.1498
19014W        W23414   9.775   6.021  20.073  0.0339  0.0364 -0.1166
19015W        W23415   1.718   6.593  34.965 -0.0389  0.1109 -0.0037
19016W        W23416  18.825   1.760  34.523 -0.1296  0.1350 -0.0745
19017W        W23417  14.364   6.244  29.842 -0.0545  0.2242  0.1747
19018W        W23418  21.029   2.702  44.562 -0.2062  0.0030 -0.0487
19019W        W23419  16.361   5.203  40.608 -0.1418 -0.1160  0.1762
19020W        W23420   5.304   1.862   2.958  0.3178 -0.1165  0.1267
19021W        W23421  16.157   1.170   9.379 -0.0600  0.1286 -0.1645
19022W        W23422  10.432   1.176  41.232 -0.1881 -0.0538  0.0924
19023W        W23423  10.431   5.319  17.602 -0.0005 -0.0488 -0.0053
19024W        W23424  11.539   4.674   4.787 -0.3805 -0.0929 -0.0278
19025W        W23425   0.363   5.921  10.738  0.1556 -0.1759  0.0943
19026W        W23426   8.672   3.289  23.082  0.1983  0.1930 -0.0124
19027W        W23427  17.800   2.042  35.297  0.0742  0.0103  0.0196
19028W        W23428  12.519   5.941  34.730  0.1988  0.2920  0.2321
19029W        W23429  17.169   5.840  26.624 -0.0966  0.0319  0.1949
19030W        W23430   5.356   1.939   7.787 -0.1903 -0.1143  0.0836
19031W        W23431  10.736   6.171  11.359  0.1894 -0.1099  0.3458
19032W        W23432  18.861   4.908   9.689  0.2995  0.3649  0.3668
19033W        W23433   1.543   4.342   0.450  0.0192 -0.2199  0.1588
19034W        W23434  16.766   0.200  24.958 -0.1019  0.0912  0.2239
19035W        W23435   5.333   2.858  18.298  0.1960  0.1853 -0.3031
19036W        W23436  17.387   1.592  12.186  0.2882 -0.0944 -0.1895
19037W        W23437   3.026   0.021  43.060  0.1269  0.0957 -0.2204
19038W        W23438  20.063   2.398  27.687  0.0572 -0.1536  0.2120
19039W        W23439  15.826   4.703  32.963  0.0032 -0.3927  0.2999
19040W        W23440  12.687   3.776  30.512  0.4422  0.1632 -0.4488
19041W        W23441  16.020   0.977  38.920 -0.0602  0.1945  0.0732
19042W        W23442   4.086   3.154  13.102 -0.2138  0.1941  0.2655
19043W        W23443   7.408   2.743  18.075 -0.1254 -0.0060 -0.1525
19044W        W23444  14.586   1.755  28.124 -0.1188 -0.1954 -0.0394
19045W        W23445  19.910   0.817  23.638 -0.2309  0.1573  0.1957
19046W        W23446  19.330   3.107   4.176 -0.0299 -0.1877 -0.1742
19047W        W23447  20.075   1.609  42.033 -0.0205 -0.0432 -0.2231
19048W        W23448   7.927   3.375  31.509  0.1078 -0.1026  0.1277
19049W        W23449  21.109   2.220  41.431  0.2193 -0.1923  0.0187
19050W        W23450   3.401   4.268  15.448  0.1429  0.2355 -0.0703
19051W        W23451  20.558   1.329  30.222 -0.0290 -0.2956 -0.0976
19052W        W23452  16.310   3.464   6.737 -0.0308 -0.1142  0.0294
19053W        W23453   8.488   5.436  44.573  0.0466 -0.1979 -0.1145
19054W        W23454  20.522   1.131  15.577  0.1560 -0.3088  0.2537
19055W        W23455   1.743   1.339   2.396  0.1059  0.2344 -0.1036
19056W        W23456   7.428   3.064  30.942  0.1591  0.2124 -0.1035
19057W        W23457   1.236   0.114  10.123 -0.0163 -0.0210  0.1134
19058W        W23458   1.539   1.885  14.609 -0.0109  0.0110  0.1797
19059W        W23459  20.009   0.278  23.713  0.0980 -0.0112 -0.2664
19060W        W23460   1.668   1.731  34.933  0.0145  0.1789  0.0600
19061W        W23461   9.019   6.320  34.955 -0.1147 -0.1335  0.1465
19062W        W23462  12.830   6.308  33.027 -0.0545  0.0629 -0.4460
19063W        W23463   9.978   0.775  13.514 -0.1665 -0.1182  0.0860
19064W        W23464   9.829   3.062  40.608  0.2919  0.0415 -0.3125
19065W        W23465  10.973   2.185  20.248 -0.0614 -0.0670  0.0148
19066W        W23466  20.850   4.803  30.539  0.2379  0.1222 -0.0861
19067W        W23467   7.208   4.088  20.194 -0.0340 -0.1629  0.2977
19068W        W23468  19.159   4.656  27.002  0.1850 -0.5140 -0.0291
19069W        W23469   6.392   0.512  34.097 -0.0398 -0.0057  0.1477
19070W        W23470  11.759   2.270  39.797 -0.2928 -0.0907 -0.0560
19071W        W23471   6.895   0.320  13.387  0.1231 -0.1236 -0.2071
19072W        W23472   9.585   0.673  22.193  0.2853  0.0937  0.1476
19073W        W23473  13.918   5.810  40.610  0.2525 -0.4623 -0.0840
19074W        W23474   6.744   3.195   0.389  0.1483  0.1812  0.1517
19075W        W23475   7.399   4.895  29.893  0.2144  0.1280  0.0494
19076W        W23476  10.460   6.222  22.610  0.0672  0.0183  0.4817
19077W        W23477  12.988   1.148   0.031  0.1265 -0.3848  0.1325
19078W        W23478  17.579   3.572  41.193 -0.1449  0.2039 -0.2682
19079W        W23479  21.005   2.661  28.844 -0.1689 -0.1261 -0.2591
19080W        W23480  11.657   0.652   8.129 -0.1433 -0.1424  0.1469
19081W        W23481   9.322   5.257  29.872 -0.1615  0.2491  0.1473
19082W        W23482   0.398   6.431  36.559 -0.0401 -0.1889 -0.0887
19083W        W23483   8.861   2.550   6.424  0.0168  0.3113 -0.2164
19084W        W23484   6.322   4.353   9.192 -0.3514  0.2266 -0.0813
19085W        W23485  20.655   3.215  23.094  0.1692 -0.2420 -0.2429
19086W        W23486  10.990   0.035  20.285  0.1794  0.1491  0.1123
19087W        W23487   5.319   1.171  30.457  0.0381 -0.0830  0.0864
19088W        W23488   1.450   0.194  25.598 -0.0631 -0.1677  0.1008
19089W        W23489   2.785   3.584  16.361 -0.0197 -0.4861  0.2026
19090W        W23490   9.661   4.679   6.041  0.0988 -0.3783 -0.1725
19091W        W23491  19.263   5.064  21.681 -0.0571 -0.3003 -0.1653
19092W        W23492  13.922   4.606   4.916  0.2636 -0.3691 -0.1167
19093W        W23493  11.470   1.780  11.621  0.0205 -0.0728  0.1136
19094W        W23494   5.406   6.480  44.807  0.1734 -0.1203 -0.1311
19095W        W23495   0.340   6.082  37.594 -0.1420 -0.0672 -0.2167
19096W        W23496  20.132   6.502  27.121 -0.2545  0.0615 -0.0545
19097W        W23497   9.893   0.922   8.324  0.0889  0.2642  0.0670
19098W        W23498   1.398   5.413  41.152  0.3599 -0.2406 -0.2650
19099W        W23499   9.956   3.860   0.596 -0.0300 -0.1332 -0.0537
19100W        W23500  15.340   1.369  12.217 -0.1020  0.1109 -0.0220
19101W        W23501  14.148   2.199  42.484 -0.2088 -0.0256  0.2497
19102W        W23502  13.271   3.257   3.426 -0.2120 -0.1758  0.1280
19103W        W23503  11.635   2.327  30.588 -0.0426  0.0122  0.1041
19104W        W23504  11.625   2.881   4.803 -0.0445  0.1750 -0.2415
19105W        W23505  17.304   3.669  24.585  0.3151 -0.0923 -0.2293
19106W        W23506   6.413   1.171  15.228  0.0921  0.2263 -0.0143
19107W        W23507  11.033   4.790  29.134  0.0006 -0.1105  0.0443
19108W        W23508  11.054   1.465  41.753  0.3902 -0.0801  0.0661
19109W        W23509  20.346   5.320  32.942  0.0827  0.0861  0.1930
19110W        W23510  18.624   0.115  28.989 -0.1361  0.2533 -0.1034
19111W        W23511   1.700   1.009  40.993 -0.1083 -0.1510 -0.1047
19112W        W23512   6.705   6.069  19.190  0.1080  0.0314 -0.2657
19113W        W23513   1.654   3.459  34.595 -0.1278 -0.1543  0.1409
19114W        W23514   6.092   5.507  12.972 -0.1823  0.0546 -0.1775
19115W        W23515   7.681   3.851   7.734  0.1161 -0.1397 -0.1426
19116W        W23516  11.076   3.069   4.011  0.0890  0.0440  0.1241
19117W        W23517   7.374   2.035  43.653 -0.0629  0.0145  0.0597
19118W        W23518   5.627   3.589  12.389 -0.0826 -0.4556 -0.0809
19119W        W23519   6.361   3.341  14.536  0.3033 -0.0586  0.0779
19120W        W23520  17.382   2.705  24.678  0.0578 -0.0296  0.0301
19121W        W23521   8.326   2.348  33.049  0.0738  0.0858  0.0111
19122W        W23522  10.499   3.294  14.549 -0.0334 -0.0186 -0.3272
19123W        W23523  20.732   4.452  34.848 -0.3009 -0.2266  0.2109
19124W        W23524   6.229   1.744  36.582  0.2785  0.1896 -0.1402
19125W        W23525   7.097   2.682   7.758  0.0756  0.0634 -0.0250
19126W        W23526  16.661   1.728  11.164  0.0985 -0.1737 -0.1718
19127W        W23527   3.819   4.178  11.206 -0.2160  0.2608  0.0227
19128W        W23528  10.089   1.337  18.403  0.0475  0.1739  0.0157
19129W        W23529  14.850   3.153  14.626  0.2306 -0.0252  0.0438
19130W        W23530   2.058   6.225  15.394 -0.2109 -0.2366  0.4265
19131W        W23531   4.818   1.201   4.403  0.0654 -0.2448  0.1059
19132W        W23532   5.384   0.736  42.983 -0.0950 -0.0516  0.1322
19133W        W23533   8.846   2.584   1.598 -0.0143 -0.3784  0.0675
19134W        W23534   9.003   3.977  35.119 -0.0323 -0.1547  0.0410
19135W        W23535  20.779   6.221   3.632  0.0081  0.2425  0.1080
19136W        W23536  16.284   3.926  32.820  0.0536  0.1546 -0.0221
19137W        W23537  10.794   4.609  43.868  0.1125  0.3053 -0.3731
19138W        W23538  16.829   1.957  40.140  0.0325 -0.0056  0.1063
19139W        W23539  20.563   6.262  27.103 -0.0095 -0.2727 -0.0484
19140W        W23540   7.883   0.662  33.990 -0.0362 -0.0895  0.0632
19141W        W23541   7.355   1.116  17.157  0.1042  0.1575 -0.0733
19142W        W23542   6.519   3.351  31.767 -0.3124  0.0496 -0.0048
19143W        W23543   7.067   1.923  44.180 -0.1350  0.1017 -0.2396
19144W        W23544   7.901   0.424   0.892 -0.0859  0.1629  0.0112
19145W        W23545  13.679   3.738  42.825 -0.0703  0.2095  0.2601
19146W        W23546  10.691   2.345   3.830 -0.0484  0.0448  0.1585
19147W        W23547   8.033   3.893  18.986 -0.2706 -0.2192 -0.0493
19148W        W23548  12.591   1.759   3.932 -0.0353  0.2117 -0.1541
19149W        W23549  12.885   2.148  39.108  0.3921  0.1108  0.0499
19150W        W23550  19.011   5.957  36.630  0.2038  0.0210  0.3002
19151W        W23551   3.291   3.856  35.249 -0.1114 -0.1535  0.1118
19152W        W23552  12.065   6.407  10.708 -0.0223 -0.0179  0.0659
19153W        W23553  18.324   5.432   5.837  0.1853 -0.0013  0.2910
19154W        W23554  12.067   1.065  37.667 -0.1027  0.1637  0.1698
19155W        W23555  16.082   2.288  31.001 -0.0309  0.0623 -0.0615
19156W        W23556  12.807   4.181  20.203 -0.2596 -0.1673 -0.2753
19157W        W23557   2.454   3.807  31.208 -0.2882 -0.1910  0.2158
19158W        W23558   0.260   2.590  13.099 -0.0122 -0.1253 -0.0874
19159W        W23559  17.563   3.551  13.425 -0.4086 -0.1776  0.0508
19160W        W23560  15.300   3.486  11.513  0.0758  0.0822  0.3271
19161W        W23561   4.824   0.791  42.942 -0.2335 -0.2196  0.0751
19162W        W23562  12.344   4.271  21.312  0.1018  0.0133  0.3327
19163W        W23563  14.884   3.648  41.125  0.0714 -0.3196  0.0647
19164W        W23564  10.900   5.606  43.156  0.2828  0.2725  0.0944
19165W        W23565   1.723   4.782  10.305  0.1920  0.0210 -0.1809
19166W        W23566  20.667   4.596  23.358 -0.0689 -0.2954 -0.0742
19167W        W23567   8.009   3.990  40.909 -0.1472  0.0318 -0.1631
19168W        W23568   4.960   3.392   0.854 -0.2500 -0.1518 -0.1430
19169W        W23569  16.688   2.670  11.726 -0.0269 -0.1338 -0.2182
19170W        W23570  16.560   5.776  36.464 -0.1165 -0.0754  0.1866
19171W        W23571   1.083   3.228  27.765 -0.1472  0.2926  0.0609
19172W        W23572  20.928   1.169  26.346  0.0442  0.1298  0.0561
19173W        W23573   5.314   2.151  17.517  0.4434 -0.3575  0.2540
19174W        W23574   7.183   1.017  33.932 -0.2934 -0.0140 -0.2647
19175W        W23575   0.949   1.769  11.969 -0.0494  0.1338  0.1136
19176W        W23576  20.066   6.105  21.180  0.1660  0.0512  0.3458
19177W        W23577  12.208   4.992   5.977 -0.0437  0.2706  0.3699
19178W        W23578   4.433   4.942  39.007 -0.0548 -0.2654 -0.1217
19179W        W23579  13.608   0.608  40.681  0.0119 -0.1276 -0.0029
19180W        W23580   3.966   0.815   0.604 -0.2096 -0.1914  0.3002
19181W        W23581  15.494   4.313  13.883  0.0524 -0.2845  0.1989
19182W        W23582   8.325   3.203  14.078 -0.3355 -0.0072 -0.0958
19183W        W23583  14.950   3.691  13.190  0.1538  0.1077  0.2033
19184W        W23584   0.121   6.056  29.535 -0.1866 -0.0410 -0.0999
19185W        W23585  10.104   4.523   3.445  0.2205 -0.0122 -0.0078
19186W        W23586   6.620   5.269  40.296  0.1122 -0.1629 -0.2186
19187W        W23587   2.318   0.875  31.322 -0.3021  0.0859 -0.0539
19188W        W23588   8.611   5.140   2.464 -0.0669 -0.0499  0.2141
19189W        W23589   4.063   4.091  16.105  0.2787 -0.3247  0.0066
19190W        W23590   1.058   1.150  41.726  0.1850 -0.2690 -0.0133
19191W        W23591  19.804   5.122  33.743  0.0271  0.0483 -0.1030
19192W        W23592  11.641   3.850  17.953 -0.2996 -0.2705 -0.1969
19193W        W23593  20.437   1.746  31.856  0.0978 -0.1158  0.3214
19194W        W23594   0.900   4.227  12.760 -0.2735 -0.2165  0.3751
19195W        W23595  13.545   5.755   1.348 -0.0583  0.2927 -0.0785
19196W        W23596   5.340   3.967  20.428  0.0168  0.3819  0.0079
19197W        W23597  16.394   0.549  38.821  0.1361 -0.0799  0.3409
19198W        W23598  20.206   3.114  10.279  0.2046 -0.3816  0.2136
19199W        W23599  15.989   2.566   1.044  0.2234  0.2712 -0.0587
19200W        W23600   1.641   5.566  39.765  0.4418 -0.0950 -0.1624
19201W        W23601   9.097   4.194   0.807  0.3808 -0.0377  0.0603
19202W        W23602   1.068   3.369  44.517  0.0950 -0.2488  0.0223
19203W        W23603  11.052   3.743  38.624  0.2591 -0.0241  0.0397
19204W        W23604  13.746   3.704  29.795 -0.1440  0.0909 -0.0572
19205W        W23605  16.660   0.499   9.049  0.0373  0.3113 -0.2470
19206W        W23606   1.867   0.387  36.462  0.1803 -0.1185  0.0137
19207W        W23607   9.642   0.978  11.261  0.0629 -0.0239 -0.0018
19208W        W23608   0.807   0.519  35.358  0.0315  0.0127 -0.0050
19209W        W23609  16.081   1.562  29.806 -0.1499  0.1299 -0.0057
19210W        W23610   1.808   3.985  35.114  0.1348  0.0554  0.2555
19211W        W23611  17.792   6.403   5.190 -0.0095 -0.0418  0.3520
19212W        W23612  12.201   1.748  12.696  0.0324 -0.1753  0.0492
19213W        W23613  16.549   1.709  15.476 -0.2049  0.0799 -0.1491
19214W        W23614  11.268   0.622   3.738 -0.1618  0.2565  0.0103
19215W        W23615   5.200   3.394   8.282 -0.2061 -0.0733 -0.0707
19216W        W23616   5.446   3.707  18.731  0.0692  0.0541  0.1411
19217W        W23617   2.462   2.743  40.031 -0.1266  0.1875  0.1079
19218W        W23618   8.556   2.837  15.412  0.1642 -0.1885  0.1063
19219W        W23619   1.181   3.224  38.285 -0.2553 -0.0780 -0.0478
19220W        W23620  10.547   4.313   5.998 -0.1182  0.4033 -0.3558
19221W        W23621  18.540   3.639   0.445  0.2230  0.2137  0.0646
19222W        W23622  20.199   2.888  42.884  0.2340 -0.3003  0.0496
19223W        W23623   9.678   0.156  10.390  0.0080  0.0174  0.1325
19224W        W23624   9.779   3.246  12.625 -0.3313 -0.0466  0.0453
19225W        W23625   8.868   3.295   6.646  0.1612  0.1285  0.2984
19226W        W23626  16.329   1.369  16.511 -0.0116  0.0809 -0.2654
19227W        W23627   8.215   6.202  13.370 -0.4203  0.1090  0.0997
19228W        W23628   0.299   4.565  10.569 -0.2308  0.0775  0.1176
19229W        W23629  13.665   4.954  29.642 -0.0118  0.2117  0.2842
19230W        W23630   8.219   0.317  33.695 -0.1075  0.0847  0.0632
19231W        W23631  17.716   1.684  33.713  0.1009 -0.0185  0.2260
19232W        W23632   1.648   6.450  10.149  0.1493 -0.0334 -0.0091
19233W        W23633  12.224   4.303   4.329  0.1261 -0.2274  0.0428
19234W        W23634   6.015   1.797  41.875  0.3371  0.3302 -0.0057
19235W        W23635  16.085   0.310  28.402 -0.0258 -0.2560  0.0685
19236W        W23636   5.457   4.565  40.921  0.2867 -0.0012  0.0392
19237W        W23637   5.877   4.138   5.852  0.0478 -0.3153 -0.0978
19238W        W23638   8.595   2.908  10.060 -0.0776 -0.0850 -0.0124
19239W        W23639  12.623   1.246  44.777  0.1604 -0.2646 -0.0402
19240W        W23640   8.270   3.745  21.954 -0.0036 -0.1704 -0.0774
19241W        W23641  19.251   6.259  15.432 -0.1090 -0.0259 -0.0317
19242W        W23642  18.784   0.823   7.429  0.3332  0.0887 -0.1320
19243W        W23643   1.751   2.444  37.385  0.0247 -0.1196  0.1638
19244W        W23644   7.660   1.388  20.389 -0.1449  0.2140 -0.0563
19245W        W23645   9.853   3.384  14.030  0.1877 -0.2426  0.0557
19246W        W23646  18.532   5.779   2.371 -0.0150 -0.1086  0.0478
19247W        W23647  11.125   2.794  39.750  0.2235 -0.1339 -0.0347
19248W        W23648   1.505   0.243   0.715  0.0057  0.0374 -0.2968
19249W        W23649  20.301   0.608  40.375  0.0794 -0.1067 -0.2644
19250W        W23650   1.990   4.229  14.910  0.0987  0.0800 -0.4979
19251W        W23651   5.652   1.716  10.714  0.0329  0.2780 -0.0122
19252W        W23652  18.483   2.841  40.075  0.2961  0.1619  0.0786
19253W        W23653   5.235   6.553   8.470 -0.2448  0.0397  0.0982
19254W        W23654  11.125   6.485  21.905  0.0361 -0.0469  0.1189
19255W        W23655  11.922   4.890   9.773  0.0254  0.3524 -0.2410
19256W        W23656  16.314   5.971  36.040  0.0174 -0.1048 -0.2988
19257W        W23657  10.740   0.734  35.332 -0.1942  0.0574  0.1636
19258W        W23658  14.709   3.030   2.687 -0.1108  0.1406  0.1684
19259W        W23659  18.052   4.131  25.460 -0.2903  0.3135 -0.0957
19260W        W23660   2.478   1.657  40.709 -0.0138  0.2528 -0.1302
19261W        W23661   1.510   3.704   2.378  0.1497 -0.1740  0.4667
19262W        W23662  17.122   0.061  12.529  0.4089 -0.2705  0.1159
19263W        W23663  17.353   3.501  41.718  0.0865 -0.1105  0.4767
19264W        W23664   1.328   3.197   2.473 -0.3072 -0.3813  0.0740
19265W        W23665  18.659   5.148  26.646  0.1827  0.0783 -0.1510
19266W        W23666   2.002   5.362  44.199  0.3777  0.1111 -0.1431
19267W        W23667  12.151   6.148   7.696  0.3582 -0.0331 -0.0814
19268W        W23668   9.780   6.444  16.028  0.2249 -0.1622  0.0155
19269W        W23669   3.333   4.414   3.643  0.0521 -0.1003  0.0798
19270W        W23670   4.748   0.120   0.198  0.0501 -0.0374 -0.1681
19271W        W23671  17.598   2.506  43.837 -0.1961  0.0116 -0.1643
19272W        W23672  14.465   1.762  36.937  0.2303  0.0709 -0.5236
19273W        W23673   2.653   2.797  42.653 -0.1803  0.2441 -0.1627
19274W        W23674  20.982   2.900  27.940 -0.2535 -0.2226 -0.2026
19275W        W23675   6.116   4.705  10.503 -0.1719 -0.1463  0.1465
19276W        W23676  10.682   2.919  20.885 -0.0321  0.2067  0.1454
19277W        W23677   9.733   5.550   1.911 -0.2404  0.4231  0.0007
19278W        W23678  15.821   5.202   0.196 -0.2629 -0.3641 -0.2241
19279W        W23679   9.388   1.015  30.257  0.1126  0.0181 -0.2069
19280W        W23680  11.935   2.461  19.615  0.1479  0.0378  0.2238
19281W        W23681  18.042   4.608  25.739 -0.0729 -0.0770 -0.3719
19282W        W23682  11.002   2.503  38.245 -0.2859  0.0370 -0.1791
19283W        W23683  11.845   1.420  13.127  0.1106  0.1138 -0.0258
19284W        W23684  12.757   0.953  33.543 -0.0985  0.1175  0.3165
19285W        W23685  19.868   1.967   4.381 -0.0516  0.2787  0.0438
19286W        W23686  13.335   1.787  43.737 -0.2309  0.1961  0.1636
19287W        W23687   6.558   1.002  33.301 -0.0192  0.2133  0.1503
19288W        W23688  12.562   3.158  41.720  0.1516 -0.5129 -0.3277
19289W        W23689   8.797   3.060  41.623 -0.0451  0.2182 -0.0910
19290W        W23690   1.100   4.497  14.706 -0.3454 -0.1281  0.0519
19291W        W23691  19.408   0.437  16.010 -0.1946 -0.0737  0.0668
19292W        W23692   2.329   6.374  42.025  0.3044 -0.1145  0.0375
19293W        W23693  16.610   0.097  12.660 -0.2290 -0.1454 -0.1231
19294W        W23694  10.210   1.053  14.449 -0.2463 -0.0046 -0.2130
19295W        W23695   9.178   4.863  20.414 -0.1610 -0.1362 -0.0184
19296W        W23696  10.826   2.899  14.435 -0.1424  0.0642 -0.0987
19297W        W23697  12.991   5.402  44.904  0.1691  0.1465  0.1598
19298W        W23698  19.762   1.113  35.864  0.0421 -0.1259  0.2569
19299W        W23699  13.524   6.414  32.328 -0.1282  0.0537 -0.0681
19300W        W23700  20.386   6.549  26.110  0.3153  0.0439 -0.0281
19301W        W23701  14.327   4.254  32.165 -0.1634  0.1873 -0.1101
19302W        W23702   5.085   3.603  17.375  0.2378  0.0705 -0.2090
19303W        W23703  10.797   0.837  21.913 -0.1445 -0.1140 -0.0164
19304W        W23704  16.607   1.928  27.111  0.2738 -0.0304 -0.2032
19305W        W23705   3.884   4.487  11.974 -0.1590  0.1349 -0.1959
19306W        W23706  14.514   3.682  16.307 -0.0098  0.0396 -0.2385
19307W        W23707   0.572   2.076   0.555 -0.2043 -0.1246  0.2931
19308W        W23708  14.636   3.416  30.189 -0.3615  0.1611 -0.2781
19309W        W23709   1.445   6.354  33.667  0.1955 -0.0640 -0.1263
19310W        W23710   1.505   4.808  16.054  0.2140  0.0942  0.0701
19311W        W23711   5.957   5.609   5.934 -0.0554 -0.2116  0.1051
19312W        W23712  19.949   4.656  12.058  0.1541  0.1263 -0.0378
19313W        W23713  18.002   1.878  39.136  0.0097 -0.1859 -0.0772
19314W        W23714  18.159   0.237  12.182  0.1047 -0.1312 -0.1299
19315W        W23715  12.996   2.877  35.813  0.0197 -0.3009  0.0635
19316W        W23716   0.670   0.335   4.438  0.0622  0.1936 -0.0644
19317W        W23717  12.165   0.799  36.777  0.1945  0.1631  0.0232
19318W        W23718  18.663   1.737  30.127  0.1324 -0.1058  0.3075
19319W        W23719   4.462   4.219  31.090 -0.0417  0.0607  0.0283
19320W        W23720   5.716   5.057   4.702 -0.0870  0.1740  0.0211
19321W        W23721  15.370   2.788  11.844  0.2896 -0.2416  0.3134
19322W        W23722   5.937   1.176  40.074  0.1400 -0.1184 -0.1095
19323W        W23723  19.844   0.381   9.351  0.2330 -0.0385 -0.0885
19324W        W23724   9.672   1.599  12.956  0.1895  0.0082 -0.0774
19325W        W23725   5.991   4.542  18.718  0.2264  0.0441 -0.1168
19326W        W23726  11.908   4.635  13.723 -0.0020  0.1228  0.0695
19327W        W23727  10.364   1.812  41.166 -0.0676  0.0738 -0.0058
19328W        W23728   8.249   0.295   0.183  0.0550  0.1639 -0.0876
19329W        W23729  17.180   6.130   9.621  0.2324 -0.3670 -0.0486
19330W        W23730  19.957   6.459   1.367 -0.0362  0.2168  0.1020
19331W        W23731  10.001   5.051  24.500  0.2428 -0.0737  0.0183
19332W        W23732   8.305   5.580  34.441 -0.1581 -0.0553 -0.2424
19333W        W23733   6.483   1.345   1.954  0.3256 -0.0485  0.2977
19334W        W23734  12.848   2.332  18.567  0.0488  0.2342  0.0373
19335W        W23735   2.576   0.173  42.141  0.0336  0.0545  0.2740
19336W        W23736  15.185   4.569  42.547 -0.1314  0.1481  0.3250
19337W        W23737   9.030   1.125   4.995  0.1692  0.0881 -0.1035
19338W        W23738  13.585   5.100  32.510  0.0027  0.0612 -0.0731
19339W        W23739  16.754   1.651   1.819 -0.1632 -0.0707 -0.0437
19340W        W23740  10.604   1.543  20.224 -0.1919  0.1146  0.2668
19341W        W23741   7.413   3.443  41.513 -0.2466 -0.1597 -0.0988
19342W        W23742   8.446   4.850  41.575  0.0690 -0.1044 -0.1462
19343W        W23743   7.889   6.019   3.833 -0.0424 -0.0611  0.1577
19344W        W23744  19.638   0.170  29.158  0.1533 -0.2986  0.0913
19345W        W23745   7.547   3.855  43.180 -0.0498  0.1255  0.2727
19346W        W23746  17.285   5.086  36.340 -0.1243  0.1936  0.0776
19347W        W23747  13.933   6.096  40.176 -0.3776 -0.0260 -0.0298
19348W        W23748   8.084   3.011  38.305 -0.2253 -0.0893  0.1440
19349W        W23749  13.642   1.685  36.377 -0.0407  0.1202  0.0537
19350W        W23750   9.412   4.073  36.375 -0.0480 -0.1980  0.3336
19351W        W23751   8.270   6.284   7.977 -0.0461 -0.3222 -0.1031
19352W        W23752  19.721   0.004  32.769  0.2928  0.3155  0.2446
19353W        W23753  15.077   6.349   6.649  0.1254  0.0516  0.2121
19354W        W23754   4.319   1.471  14.387 -0.4443 -0.1123 -0.2689
19355W        W23755  11.749   6.369   7.836 -0.0782 -0.0393  0.0240
19356W        W23756  18.672   4.417  15.861  0.2932  0.1370  0.2740
19357W        W23757   0.740   4.957  36.050  0.2035  0.0876  0.0877
19358W        W23758  15.316   1.203  31.289  0.0427 -0.2470 -0.2682
19359W        W23759  13.772   0.548  19.577 -0.1821 -0.1741 -0.4743
19360W        W23760  11.784   3.710  44.556  0.1591 -0.2052  0.0929
19361W        W23761  10.429   1.475  38.115 -0.0809 -0.1984 -0.1538
19362W        W23762  18.423   3.881   5.010  0.0286 -0.1430  0.0930
19363W        W23763   9.385   3.902  14.832 -0.2705 -0.0182  0.4730
19364W        W23764   8.920   4.178  38.941 -0.0362  0.0408 -0.0044
19365W        W23765   9.306   3.157  17.222 -0.0931  0.0433 -0.1855
19366W        W23766   3.246   0.101   6.247  0.1262  0.0494 -0.1432
19367W        W23767   4.918   1.779  31.280 -0.1346  0.2704  0.5195
19368W        W23768  20.623   2.317   3.449  0.2678 -0.0045  0.2496
19369W        W23769   4.763   0.929  15.465  0.0112  0.2141  0.2704
19370W        W23770  18.123   3.440  30.634 -0.0393  0.1134 -0.0094
19371W        W23771  13.468   4.486  44.827  0.1497 -0.0303 -0.1148
19372W        W23772   7.501   0.247  35.861 -0.2136 -0.1464 -0.0189
19373W        W23773   7.442   4.555   3.014  0.0496 -0.2900 -0.3416
19374W        W23774   1.264   4.186  30.405 -0.2396  0.1261  0.0673
19375W        W23775  10.750   4.838  32.481 -0.1600 -0.3941 -0.0328
19376W        W23776   5.358   0.899  28.201 -0.2398 -0.4134 -0.0596
19377W        W23777  15.835   3.632   0.331 -0.0306 -0.0018  0.0030
19378W        W23778  14.521   6.242  11.634  0.0397 -0.1331 -0.0100
19379W        W23779   1.357   2.899  36.404 -0.0091 -0.1503  0.1277
19380W        W23780   1.458   0.698  15.752 -0.0174 -0.0780  0.0611
19381W        W23781  14.941   4.484   7.655 -0.1071 -0.1406  0.1027
19382W        W23782  10.777   1.634   0.525  0.0433  0.1775  0.0185
19383W        W23783  14.246   2.485  18.737  0.0553 -0.0521 -0.1251
19384W        W23784   5.973   6.429   6.394 -0.1312 -0.0276  0.1155
19385W        W23785  11.165   1.459  20.353 -0.3201 -0.0458  0.0325
19386W        W23786  18.870   2.674   3.629  0.1075 -0.0795 -0.4021
19387W        W23787  17.755   4.590  39.390 -0.0950 -0.1574  0.1950
19388W        W23788  14.081   4.925  15.575  0.2064  0.0081 -0.0809
19389W        W23789  11.687   6.420   4.549 -0.1735  0.0682 -0.0616
19390W        W23790  17.087   5.622  33.767  0.0306 -0.3968 -0.0614
19391W        W23791   0.424   0.383  41.641  0.0264 -0.6946  0.0657
19392W        W23792   0.420   0.085   9.513 -0.4618 -0.2213 -0.3576
19393W        W23793   3.702   4.572  13.757 -0.2306 -0.1944 -0.3168
19394W        W23794   3.088   4.597  39.175 -0.0705 -0.0104 -0.3735
19395W        W23795  15.541   1.585  15.277 -0.2273  0.3164 -0.1415
19396W        W23796   0.368   5.090  33.517  0.0709 -0.0602 -0.0404
19397W        W23797  17.420   5.214  10.799  0.3249 -0.2525 -0.0193
19398W        W23798  18.960   3.669  29.226 -0.0457 -0.3390  0.2883
19399W        W23799  12.907   2.993  16.486 -0.1747  0.2129  0.0555
19400W        W23800   9.673   2.878   8.952  0.0819 -0.0125  0.0065
19401W        W23801   4.166   5.148   3.567  0.0655 -0.3428 -0.1577
19402W        W23802  15.007   4.307  11.975  0.4465  0.1354  0.0835
19403W        W23803   7.380   5.842   2.597  0.1874 -0.0547 -0.1314
19404W        W23804  17.582   5.585   1.799 -0.2585 -0.1025  0.2022
19405W        W23805  19.055   4.444   4.091 -0.1569  0.2899  0.1538
19406W        W23806   1.370   6.474   8.687 -0.0181  0.2068  0.0940
19407W        W23807   3.474   5.764  27.251  0.0318  0.1615  0.0544
19408W        W23808  13.531   1.542   3.004 -0.0046 -0.0211  0.1007
19409W        W23809   1.050   3.728   6.714 -0.1321  0.0745  0.1818
19410W        W23810  12.039   2.093  35.705 -0.0912  0.1810 -0.0742
19411W        W23811  11.744   5.951  12.899  0.0656 -0.0451  0.2307
19412W        W23812  16.448   0.163   2.312  0.2593 -0.1655  0.1394
19413W        W23813  16.006   2.498  42.628 -0.3662 -0.0730  0.0331
19414W        W23814   4.460   0.226   5.448  0.0561 -0.0583 -0.0544
19415W        W23815   9.621   1.575   1.980 -0.0900 -0.2035  0.1619
19416W        W23816  10.815   6.406   6.937  0.1465  0.0155  0.1045
19417W        W23817   9.425   2.201  10.453  0.1836 -0.3909  0.2021
19418W        W23818   6.355   3.476  19.032  0.0856 -0.0129 -0.1361
19419W        W23819   3.218   6.257  33.042 -0.2057 -0.0360  0.0844
19420W        W23820   1.143   6.331   3.480  0.1441  0.0631 -0.2085
19421W        W23821  20.861   1.282  25.035 -0.0236  0.5832 -0.0280
19422W        W23822  12.932   4.590  30.991 -0.0706 -0.1587 -0.0755
19423W        W23823  10.419   3.882  36.248  0.0294  0.0647 -0.0671
19424W        W23824   5.962   3.346   7.159 -0.1354 -0.1924  0.1216
19425W        W23825   2.159   5.308  29.704 -0.1214 -0.0056  0.0401
19426W        W23826  21.020   0.747  37.965  0.0220  0.0711 -0.0841
19427W        W23827   1.082   2.201  30.323  0.0552  0.0068 -0.0211
19428W        W23828  10.827   1.104  20.614 -0.4748  0.0982 -0.0266
19429W        W23829  20.933   1.467   3.299 -0.0976  0.1036  0.0589
19430W        W23830   7.560   1.609  42.774 -0.0030  0.0448 -0.1173
19431W        W23831  15.631   4.930   9.536  0.0932 -0.0623 -0.1066
19432W        W23832   7.705   3.088  31.886  0.1513 -0.0023 -0.3198
19433W        W23833   5.080   6.563  36.527 -0.1417 -0.1407  0.1943
19434W        W23834  14.899   5.027  28.572 -0.0961  0.1333 -0.1406
19435W        W23835  19.993   5.239  26.243  0.1935  0.1214 -0.2134
19436W        W23836   9.794   2.524  33.335 -0.1932 -0.2393  0.2669
19437W        W23837  15.436   0.466  27.330 -0.1464  0.1556 -0.4047
19438W        W23838  20.941   3.103  39.154  0.6702 -0.1321 -0.0409
19439W        W23839  13.242   1.655  27.929  0.1157  0.1850 -0.1770
19440W        W23840  11.424   0.685   2.853  0.1763  0.3106 -0.1808
19441W        W23841   0.693   0.102  13.376  0.2232 -0.1661  0.0760
19442W        W23842  16.774   0.038  33.512 -0.0832 -0.1344  0.1028
19443W        W23843  11.978   3.521  36.054 -0.0428 -0.2465  0.2698
19444W        W23844   6.193   0.841  13.966  0.2171  0.1617  0.0262
19445W        W23845  19.321   3.287  11.528  0.0257  0.1811 -0.0449
19446W        W23846  18.316   6.028  23.253  0.0352  0.0425  0.0425
19447W        W23847   0.490   5.661  31.743 -0.1930  0.0219 -0.1419
19448W        W23848   7.930   4.732  29.975  0.1462  0.1512  0.0060
19449W        W23849   4.232   4.543  37.312 -0.1150  0.2784  0.0188
19450W        W23850  20.015   1.842  35.211 -0.2069 -0.1791  0.0564
19451W        W23851  10.364   2.441  14.823  0.0398  0.0123 -0.1076
19452W        W23852  12.267   3.393   2.446 -0.1912  0.2805  0.2517
19453W        W23853  15.399   2.517   2.852 -0.0164 -0.2920 -0.0855
19454W        W23854  17.879   0.387  14.124  0.1311 -0.0310  0.3056
19455W        W23855   3.189   2.739   9.068 -0.0291 -0.0091  0.2317
19456W        W23856  10.034   1.311  20.137 -0.0728 -0.2801 -0.2223
19457W        W23857   5.801   0.023  18.646 -0.4091  0.0425  0.0133
19458W        W23858  19.231   2.631   7.494  0.1168  0.0425 -0.0113
19459W        W23859   4.264   6.063  15.904 -0.0373 -0.1721 -0.0573
19460W        W23860  17.349   1.932  37.633 -0.0353 -0.0779 -0.2324
19461W        W23861  14.508   3.988  31.768  0.1355  0.1782  0.0152
19462W        W23862  10.882   0.855  19.310 -0.1513  0.3142  0.1580
19463W        W23863  18.859   4.076   1.493  0.1852  0.1580 -0.0528
19464W        W23864  20.524   5.378  36.137  0.2107  0.2693 -0.3208
19465W        W23865  18.933   1.631   5.875 -0.0788 -0.4044  0.0426
19466W        W23866   9.729   2.897  44.334 -0.1103 -0.1186  0.1280
19467W        W23867  17.702   3.325  37.813 -0.0202  0.0603  0.4417
19468W        W23868  19.252   5.205  22.454  0.2687 -0.0972  0.2512
19469W        W23869   9.835   3.157  36.931  0.2159 -0.2517  0.1010
19470W        W23870   7.299   2.203  42.346 -0.0684  0.1325  0.1398
19471W        W23871   2.710   5.137  37.450 -0.3780 -0.1009 -0.0386
19472W        W23872   9.799   5.416   9.262 -0.3785 -0.0939  0.0411
19473W        W23873  19.453   3.645  38.182 -0.0396  0.1306  0.0829
19474W        W23874   2.544   0.885   4.025  0.2052 -0.2014 -0.0887
19475W        W23875  19.616   1.691   1.993 -0.0601  0.0580 -0.0937
19476W        W23876  10.196   2.839  20.752 -0.2084 -0.0639 -0.0561
19477W        W23877  19.569   6.215   6.301 -0.1964 -0.2045 -0.0417
19478W        W23878   2.364   2.422   8.404  0.2330 -0.0391  0.2753
19479W        W23879   3.910   0.379   8.900 -0.1421 -0.0179  0.0149
19480W        W23880  13.447   3.850  35.820 -0.0897  0.0187 -0.0694
19481W        W23881   7.578   3.197  18.382 -0.1597 -0.2179  0.1016
19482W        W23882  11.808   1.095   5.600 -0.1271  0.0992 -0.2337
19483W        W23883   8.819   1.032  11.113 -0.0160 -0.0658 -0.4336
19484W        W23884   4.550   2.341  14.239  0.2601 -0.0747 -0.2386
19485W        W23885  12.799   2.512   4.091 -0.2271  0.1112  0.0982
19486W        W23886   0.782   3.684  42.711  0.2450 -0.1253  0.1992
19487W        W23887  17.173   1.112   1.096  0.1302 -0.2983 -0.1843
19488W        W23888   3.526   4.695   0.936  0.2717 -0.0706  0.0130
19489W        W23889  20.547   2.469  23.459 -0.3135 -0.1889 -0.1405
19490W        W23890  17.247   4.799  42.689 -0.0726 -0.0669  0.1260
19491W        W23891  13.596   0.819  11.707  0.0839  0.1827 -0.2004
19492W        W23892  16.030   2.132  38.911  0.3784 -0.2299 -0.1762
19493W        W23893  20.310   5.956  13.798 -0.2477 -0.3184  0.1109
19494W        W23894  19.405   0.982  21.298  0.2118  0.0785  0.4797
19495W        W23895  14.640   1.338  34.183  0.0552 -0.2111 -0.2181
19496W        W23896  14.471   2.591  27.640 -0.4436  0.1656  0.0389
19497W        W23897  18.767   5.634  33.200  0.1375  0.0409 -0.3416
19498W        W23898  16.911   3.180   9.632 -0.0233 -0.1498 -0.1471
19499W        W23899  20.036   1.476   7.871 -0.0446 -0.0473  0.0227
19500W        W23900   0.553   5.963  28.369  0.0137 -0.1701 -0.0402
19501W        W23901   2.524   2.317   3.000 -0.1321 -0.0594 -0.2795
19502W        W23902  20.980   5.593  39.791 -0.0682 -0.2563  0.2412
19503W        W23903   3.268   2.561  38.578  0.1761  0.0020 -0.0173
19504W        W23904   8.180   1.237  44.280  0.0363 -0.1686  0.0305
19505W        W23905  18.940   0.074  31.148 -0.1964  0.0802 -0.1578
19506W        W23906  19.779   4.093   8.048 -0.2552  0.1894 -0.1009
19507W        W23907  13.536   3.507  34.544 -0.0566  0.0273 -0.0217
19508W        W23908  11.513   4.851   8.264 -0.3462 -0.0780  0.3631
19509W        W23909   5.640   5.306  42.660  0.0019  0.1532  0.1956
19510W        W23910   3.974   3.623  34.879  0.0405  0.1502 -0.3355
19511W        W23911   6.822   2.058  31.063  0.1934 -0.2665 -0.0029
19512W        W23912  17.021   0.376  37.366  0.2046  0.0762 -0.1479
19513W        W23913   8.652   3.319   3.902 -0.2051 -0.0981 -0.0702
19514W        W23914  15.675   4.608   9.188 -0.0238  0.1361 -0.0809
19515W        W23915  10.715   5.494  31.376  0.2282  0.0709  0.0423
19516W        W23916   2.049   6.502  10.475 -0.2632 -0.1327  0.0632
19517W        W23917   3.036   5.789  43.019 -0.2804  0.0832  0.1361
19518W        W23918   7.349   5.742  43.264 -0.0334 -0.0091  0.1082
19519W        W23919  12.156   3.316  33.392  0.0090  0.0426  0.2008
19520W        W23920   6.007   1.029  41.408  0.1306 -0.2988  0.1276
19521W        W23921   6.111   1.701  17.415  0.1666  0.0957 -0.2140
19522W        W23922   4.170   1.182  32.944 -0.0922  0.1830  0.1158
19523W        W23923  20.542   1.015   5.228  0.1373 -0.1374 -0.3335
19524W        W23924  15.678   3.384   8.749  0.0349  0.2519  0.2847
19525W        W23925  14.942   4.645  39.639 -0.0323 -0.4691  0.1120
19526W        W23926  20.849   6.335  22.626  0.0231 -0.3242  0.0886
19527W        W23927  14.546   2.957   5.697  0.1014 -0.0948 -0.2361
19528W        W23928  18.974   4.080  14.363  0.3872 -0.0011 -0.0983
19529W        W23929   3.379   3.045  13.636  0.1090 -0.2898 -0.0583
19530W        W23930   7.227   2.841   0.195 -0.0268 -0.2647 -0.1487
19531W        W23931  15.625   1.025  27.327  0.2013  0.3006 -0.4331
19532W        W23932   5.213   1.708   1.315  0.1281 -0.2614  0.0740
19533W        W23933   5.058   3.195  42.838 -0.1413 -0.2021  0.1258
19534W        W23934   8.847   5.355  36.566  0.0661  0.2114 -0.3027
19535W        W23935  17.247   1.678  16.122 -0.0031 -0.2739  0.2803
19536W        W23936   3.084   0.330   5.801 -0.0080 -0.0440 -0.1814
19537W        W23937  15.869   5.044  28.397  0.0964 -0.1407 -0.2323
19538W        W23938  13.135   4.627  12.054 -0.3967  0.0227 -0.1788
19539W        W23939   2.997   0.831  29.477  0.0800 -0.0394 -0.1077
19540W        W23940  14.739   5.401   0.645  0.0519  0.0273  0.0983
19541W        W23941  18.302   1.260  42.636 -0.0608  0.2221 -0.0140
19542W        W23942   8.281   3.561  17.252  0.0757  0.0688  0.2275
19543W        W23943  15.853   5.172  12.451 -0.3089  0.1217  0.0030
19544W        W23944  19.198   1.925  20.019 -0.0640 -0.1699 -0.1643
19545W        W23945  14.890   0.630   0.232  0.1428  0.0679  0.1595
19546W        W23946   6.072   2.538  18.996  0.0892 -0.0112 -0.1966
19547W        W23947   4.957   2.443  11.895 -0.1630 -0.0048 -0.1303
19548W        W23948   2.634   5.587  11.205  0.0499  0.0511 -0.0373
19549W        W23949   5.279   2.656   0.399  0.1554  0.1810  0.3752
19550W        W23950  13.244   1.190   5.075  0.1211  0.1522  0.0274
19551W        W23951  14.131   1.064  14.183 -0.0163  0.1857 -0.1487
19552W        W23952  18.305   4.526  24.750 -0.1510  0.0330  0.1276
19553W        W23953  17.741   5.843  42.015 -0.4012 -0.1105 -0.2345
19554W        W23954   7.274   2.823   8.836 -0.1215 -0.0185 -0.3073
19555W        W23955  14.740   2.013  31.553 -0.2671  0.0595 -0.2312
19556W        W23956  20.211   2.640  29.925  0.2144 -0.5448  0.0777
19557W        W23957  20.566   3.007   4.210  0.0708 -0.0719  0.1964
19558W        W23958   2.031   4.240   0.561 -0.0347 -0.1441  0.3306
19559W        W23959   3.478   2.832   9.491 -0.0836  0.1177  0.1759
19560W        W23960  15.537   3.585   6.153 -0.0149  0.0343  0.1171
19561W        W23961  19.038   5.363  40.819 -0.0748  0.1934  0.0598
19562W        W23962  13.229   4.083  33.659  0.2350  0.2451 -0.3375
19563W        W23963   3.789   0.485  41.186  0.5221  0.2469 -0.0019
19564W        W23964   8.763   1.270   8.851  0.2664 -0.0552 -0.1672
19565W        W23965   5.927   0.646  13.621 -0.1654 -0.0864 -0.0351
19566W        W23966  17.237   2.026  24.227 -0.0324 -0.0394  0.2548
19567W        W23967  11.481   0.560  22.611  0.1326  0.2597 -0.1760
19568W        W23968   1.434   2.027  33.477 -0.1470  0.1194  0.2326
19569W        W23969  19.099   1.504  33.079 -0.1364 -0.0325 -0.2628
19570W        W23970   5.283   0.221  43.959 -0.1113 -0.1660  0.0768
19571W        W23971   1.049   0.194   3.252  0.1129  0.0506  0.3375
19572W        W23972  11.963   0.518  16.932 -0.2962 -0.0785  0.1921
19573W        W23973  18.330   0.958  23.427  0.1491  0.3509  0.1476
19574W        W23974   0.927   5.718  28.571 -0.0486  0.0356  0.2236
19575W        W23975  16.119   0.074  40.340 -0.1551  0.1093  0.2389
19576W        W23976   1.275   2.665   9.180  0.1911 -0.0067 -0.0894
19577W        W23977   9.552   2.620  21.459 -0.1988  0.1079 -0.0223
19578W        W23978   0.864   6.309  10.949 -0.0845  0.0138  0.2241
19579W        W23979   0.614   6.229  14.778 -0.0315 -0.1267 -0.3196
19580W        W23980   2.189   4.448   1.370  0.1767  0.0177 -0.0150
19581W        W23981   1.591   5.080  32.368  0.4814 -0.2062 -0.1150
19582W        W23982  20.362   3.150  32.736 -0.4148  0.1096  0.2042
19583W        W23983   4.452   2.506  11.554  0.1931 -0.2392 -0.2479
19584W        W23984   6.318   1.194  12.566  0.0306  0.0591 -0.0036
19585W        W23985  19.478   3.383  44.947 -0.0717 -0.1148 -0.0364
19586W        W23986   8.701   3.002  11.218 -0.0086 -0.2884  0.1667
19587W        W23987   6.339   3.181  39.868  0.0004 -0.0486  0.0153
19588W        W23988   1.701   6.277  10.812  0.0145 -0.0810 -0.2851
19589W        W23989  17.694   1.417  24.872  0.1207 -0.1012  0.2544
19590W        W23990   6.691   4.353   4.809  0.0688  0.2546  0.1409
19591W        W23991  17.425   0.095  33.014  0.1288 -0.0830 -0.1364
19592W        W23992  18.422   0.219   2.002  0.0198 -0.0012 -0.0449
19593W        W23993  15.165   3.810  11.973  0.0168  0.2001  0.0357
19594W        W23994   8.925   4.676  31.693 -0.0877  0.1773 -0.0162
19595W        W23995   7.537   1.534  40.004 -0.0884 -0.1193  0.0672
19596W        W23996   5.659   5.037  14.943  0.0525  0.0525 -0.0742
19597W        W23997  11.835   3.934  33.186  0.1495 -0.1951  0.1290
19598W        W23998  16.871   1.618  42.271 -0.0477 -0.1421  0.1495
19599W        W23999  20.230   4.893  33.861 -0.1201 -0.0435  0.2623
19600W        W24000   8.999   4.297  36.553 -0.2013  0.1815  0.1784
19601W        W24001  20.699   1.027  14.891  0.0644 -0.0377  0.4438
19602W        W24002   5.330   3.428   3.995 -0.0035 -0.1574 -0.0475
19603W        W24003   9.793   1.392  31.089  0.1059  0.0992  0.2013
19604W        W24004   5.327   1.353  34.295  0.5382 -0.0466  0.1331
19605W        W24005  13.133   1.694  36.374  0.0100 -0.3492  0.1583
19606W        W24006   5.724   2.783  33.143 -0.1163 -0.3302 -0.0421
19607W        W24007   2.330   5.309  16.012 -0.1642 -0.0131 -0.1696
19608W        W24008  10.078   6.418   7.785 -0.2055 -0.4444 -0.2849
19609W        W24009   0.548   1.217   8.486 -0.4938  0.0954 -0.1502
19610W        W24010  19.813   5.162  10.121  0.0807 -0.1839  0.0680
19611W        W24011   1.712   0.655  35.692  0.0018  0.0091  0.1468
19612W        W24012   3.588   0.873  43.615 -0.2088  0.0357 -0.3064
19613W        W24013  16.271   1.483  40.931  0.1193 -0.0603  0.4243
19614W        W24014  11.493   1.727   5.925 -0.0744 -0.0453 -0.3917
19615W        W24015   2.149   6.219  29.292  0.2609  0.2818 -0.2127
19616W        W24016  14.443   6.070   9.916 -0.1521  0.2305 -0.0863
19617W        W24017  16.577   0.261  28.473 -0.0865  0.1810  0.2410
19618W        W24018  10.533   0.021  20.536 -0.3310 -0.3404 -0.0366
19619W        W24019   0.623   1.304  38.024 -0.2547  0.0470  0.2664
19620W        W24020   6.329   4.697   7.024 -0.0064  0.0118  0.0999
19621W        W24021  19.070   3.350  26.512  0.0913 -0.1115  0.0572
19622W        W24022   5.394   3.650  15.668 -0.0842 -0.3011 -0.2820
19623W        W24023   0.529   0.420  12.096 -0.0766  0.0406 -0.1038
19624W        W24024  18.745   0.994  11.170 -0.0807 -0.0282  0.3290
19625W        W24025  15.546   4.220  10.940 -0.3392 -0.1255 -0.0977
19626W        W24026  15.871   1.487   6.464 -0.3346  0.4444  0.0340
19627W        W24027   5.046   5.699  16.406  0.3262 -0.3253  0.1389
19628W        W24028  17.186   5.598   7.879 -0.0748  0.0685  0.2512
19629W        W24029   5.600   4.912  16.455  0.2329  0.1848  0.3208
19630W        W24030   1.096   1.050   3.913 -0.0051 -0.0164  0.1568
19631W        W24031   9.373   6.171  44.850  0.2213 -0.1768  0.0350
19632W        W24032   5.873   3.315  11.311  0.1108 -0.1249 -0.0546
19633W        W24033  20.365   3.138  39.230  0.1884  0.1071 -0.0698
19634W        W24034  11.434   1.513  44.041  0.0525  0.2099 -0.0794
19635W        W24035  13.352   1.081  39.807 -0.0415  0.0582  0.1560
19636W        W24036   9.683   1.723  10.279 -0.3552 -0.3008  0.0744
19637W        W24037   1.499   4.877  14.229  0.4431  0.2276 -0.1490
19638W        W24038   1.101   5.620   1.739 -0.0156 -0.1169  0.0668
19639W        W24039   5.785   0.419  28.361  0.0009 -0.1888  0.1220
19640W        W24040   5.186   4.047   2.930 -0.1942 -0.0160  0.0707
19641W        W24041  12.418   5.095   5.522  0.0406  0.0966  0.1640
19642W        W24042  19.657   0.260  37.624  0.0108 -0.0506  0.0020
19643W        W24043  20.556   6.042  26.049  0.3860 -0.2320 -0.1016
19644W        W24044  16.611   1.601  27.724 -0.2031 -0.1525  0.2817
19645W        W24045   5.353   6.428  35.420 -0.3183 -0.0551  0.0602
19646W        W24046   9.856   5.298  16.080  0.0358 -0.0093 -0.2346
19647W        W24047   5.661   2.541   2.419  0.0390 -0.0847 -0.0299
19648W        W24048  14.504   3.489  29.655 -0.0806 -0.3901  0.0546
19649W        W24049   1.905   2.488   1.236 -0.0846  0.2763 -0.3010
19650W        W24050  19.392   4.090  26.277  0.0598  0.0086  0.3480
19651W        W24051   9.698   6.133  30.001 -0.1651  0.1297 -0.1703
19652W        W24052   4.114   2.519  36.669 -0.1123 -0.0599  0.2711
19653W        W24053  10.066   5.223   2.042  0.0748 -0.1429  0.1651
19654W        W24054   3.011   3.408  11.817 -0.0102 -0.0128  0.0992
19655W        W24055   6.850   3.667  15.265  0.1791  0.1187  0.2049
19656W        W24056  12.541   0.549  41.637 -0.0425 -0.0305 -0.0803
19657W        W24057   0.392   1.226  41.127  0.1585 -0.1066  0.1572
19658W        W24058  12.684   4.172   6.479 -0.0981 -0.3227 -0.2261
19659W        W24059  20.227   0.309  22.458  0.1751 -0.2137  0.2753
19660W        W24060  15.320   6.118  16.919  0.1927 -0.1749  0.0982
19661W        W24061   2.184   6.048  42.832 -0.4301  0.0919 -0.0135
19662W        W24062   4.491   4.080   1.595  0.0784  0.0483 -0.1264
19663W        W24063  16.579   5.046  11.042  0.0181  0.3444 -0.2217
19664W        W24064   7.515   3.279  16.949 -0.0797  0.1311  0.0635
19665W        W24065   6.928   0.323  30.042  0.0382  0.1087  0.1972
19666W        W24066   3.350   1.859   9.294  0.0665 -0.2364  0.0704
19667W        W24067   7.183   6.574  41.180  0.1950 -0.3345  0.0332
19668W        W24068  17.178   5.135  38.726 -0.3511 -0.0310 -0.3298
19669W        W24069   8.500   3.577  12.204 -0.1888 -0.0035 -0.2102
19670W        W24070   3.817   3.360  15.400 -0.0039 -0.0077  0.2123
19671W        W24071  18.280   3.558  26.973  0.2759 -0.1483  0.1265
19672W        W24072  15.454   5.511   0.104  0.0212  0.0053  0.3783
19673W        W24073  20.273   3.337  21.468  0.3933  0.0166  0.0202
19674W        W24074   1.202   4.900   5.696 -0.1269 -0.1252 -0.0624
19675W        W24075  15.829   4.189   7.589  0.1963 -0.0580  0.1945
19676W        W24076  20.420   1.592  35.536  0.0035  0.0986  0.0568
19677W        W24077   1.792   2.758   0.658 -0.4371 -0.0323 -0.3166
19678W        W24078  14.039   3.633  16.259 -0.1920  0.2806 -0.1952
19679W        W24079  12.045   1.093   3.444 -0.1018  0.1074 -0.0797
19680W        W24080  20.704   3.810  10.658 -0.2437 -0.0442  0.1945
19681W        W24081  19.385   6.117  24.931 -0.2080 -0.1904 -0.1750
19682W        W24082   9.768   3.922   3.913 -0.0125  0.1139 -0.0675
19683W        W24083   5.930   2.333  35.763 -0.0274  0.1542 -0.2292
19684W        W24084  10.301   4.118  20.504  0.1577  0.4131  0.3744
19685W        W24085   0.495   5.474  44.556 -0.1431  0.4521  0.0759
19686W        W24086  18.225   3.450   6.414 -0.0880  0.2649  0.1614
19687W        W24087   8.623   1.802   1.602 -0.2947 -0.0845  0.0006
19688W        W24088   5.229   3.874   2.098  0.3207 -0.2012  0.3056
19689W        W24089   5.236   2.540  38.398  0.3058 -0.0164  0.2056
19690W        W24090   7.124   4.532  12.537  0.0180  0.0336  0.2674
19691W        W24091   8.421   2.766  14.614  0.2679 -0.0388  0.1549
19692W        W24092  14.920   5.608   6.184  0.4412 -0.1594  0.4008
19693W        W24093  11.241   2.747   0.944  0.1458  0.1545 -0.1822
19694W        W24094   8.103   0.104   4.639 -0.1699 -0.3024  0.1544
19695W        W24095   9.959   3.941  37.463  0.0585 -0.1788 -0.1327
19696W        W24096   4.412   0.456   6.029  0.0780 -0.0322 -0.0484
19697W        W24097   9.710   2.173   4.660 -0.1465  0.0126  0.0552
19698W        W24098  16.697   1.815  30.222  0.0445  0.0799  0.0646
19699W        W24099   2.202   0.168   7.573  0.1057  0.1891  0.0737
19700W        W24100  17.558   3.455   8.291  0.0215 -0.1945  0.2553
19701W        W24101  15.713   0.475   3.768 -0.0111  0.0982  0.1677
19702W        W24102  11.234   0.855   1.097 -0.0594 -0.0386 -0.1249
19703W        W24103   4.777   4.012  31.487 -0.2886  0.5264 -0.1745
19704W        W24104  14.908   5.544  33.783  0.1835 -0.0467  0.0490
19705W        W24105   4.418   0.797  16.778 -0.2264  0.1158  0.0527
19706W        W24106  16.811   5.480  11.060  0.1231  0.2752  0.0383
19707W        W24107  13.066   1.884  15.810 -0.1817 -0.0177  0.0539
19708W        W24108  12.412   0.008  31.145  0.1414  0.0496 -0.1009
19709W        W24109  17.746   5.499  41.163  0.0423 -0.2834  0.1229
19710W        W24110   4.185   5.237   4.382  0.1760 -0.0892 -0.3873
19711W        W24111   8.945   3.317  19.458 -0.1347  0.0115  0.2210
19712W        W24112  17.775   5.124  37.007  0.1129  0.1246  0.0970
19713W        W24113  14.716   0.940  30.753  0.0971  0.2071  0.2683
19714W        W24114  15.518   4.013   2.819  0.1808 -0.2306  0.1395
19715W        W24115   9.313   2.075  20.578 -0.0838 -0.0506 -0.0172
19716W        W24116  11.066   6.150  43.165 -0.0283  0.0961  0.2356
19717W        W24117   3.331   3.619   8.571 -0.3108  0.1819  0.3001
19718W        W24118  16.393   3.574   4.082  0.1194 -0.0363 -0.0110
19719W        W24119  14.403   3.658  36.803  0.3027 -0.1784 -0.1319
19720W        W24120  13.048   5.551  10.892  0.1654 -0.2088 -0.0764
19721W        W24121  20.576   1.329  11.986 -0.4153 -0.2507  0.1512
19722W        W24122  14.277   1.946  28.499 -0.0932 -0.0956  0.0002
19723W        W24123  11.180   5.073  11.660 -0.0376  0.0068  0.2114
19724W        W24124   6.603   4.861   9.378 -0.2489 -0.3225 -0.0140
19725W        W24125  20.686   5.481  38.463  0.0346  0.0675 -0.3992
19726W        W24126   2.224   2.539  35.497  0.1464  0.1695  0.1408
19727W        W24127  19.873   2.841   6.042  0.0420  0.4256 -0.3741
19728W        W24128   8.607   1.413  36.730  0.1598 -0.0293  0.0688
19729W        W24129   6.501   5.191  15.183 -0.1734  0.2419  0.1015
19730W        W24130  15.798   1.538  41.162 -0.2201 -0.0587 -0.1243
19731W        W24131  17.796   6.323   2.240  0.2443  0.1885  0.1971
19732W        W24132   2.864   3.985  32.785 -0.0929 -0.2465 -0.0490
19733W        W24133   8.095   1.090  41.650 -0.3320 -0.0245  0.2661
19734W        W24134   3.714   5.812  35.729 -0.3140  0.0867  0.0078
19735W        W24135  15.131   0.050   2.441  0.0137 -0.0610 -0.0613
19736W        W24136  14.936   0.160  32.289 -0.0596 -0.2491 -0.0337
19737W        W24137   7.337   6.431  19.210 -0.1069  0.1389 -0.0240
19738W        W24138   0.933   0.540   6.773 -0.0225 -0.1092  0.1044
19739W        W24139   2.001   3.081  35.289 -0.1661 -0.0934 -0.2620
19740W        W24140  17.465   1.233  30.985  0.1189  0.0815  0.0760
19741W        W24141   3.707   0.601   2.099  0.0396  0.0988  0.1112
19742W        W24142  10.484   4.726  16.048  0.2086 -0.0519 -0.2059
19743W        W24143  17.844   2.352   7.862 -0.1227  0.2124  0.0673
19744W        W24144  14.931   2.087   2.804 -0.4521 -0.2778  0.1050
19745W        W24145  11.899   3.952  37.374 -0.0871  0.3072 -0.1752
19746W        W24146  12.570   3.255  17.252 -0.0019 -0.0017 -0.0231
19747W        W24147  19.105   6.378  41.513  0.0097  0.2724  0.2532
19748W        W24148  11.060   1.041  32.304 -0.3048 -0.0252  0.0430
19749W        W24149  15.743   4.627  15.763 -0.2204  0.1920 -0.0852
19750W        W24150  13.794   5.499  36.450  0.1888 -0.1187  0.0643
19751W        W24151   2.351   5.491   9.426 -0.0299  0.1554  0.0861
19752W        W24152   8.156   4.711   9.149  0.1194 -0.2849  0.2747
19753W        W24153   6.971   3.335   0.905  0.0982 -0.3678  0.0310
19754W        W24154   0.358   0.343  43.324  0.1417 -0.2120 -0.0945
19755W        W24155   6.933   3.325  11.468 -0.1930  0.0603  0.1634
19756W        W24156  15.824   4.621  15.104  0.0423  0.1499 -0.3901
19757W        W24157  14.138   1.150  30.206  0.0813  0.1285 -0.3917
19758W        W24158   0.225   4.012   5.258 -0.2369 -0.0483 -0.0869
19759W        W24159   9.424   4.464  44.935  0.3336 -0.1217  0.0620
19760W        W24160  18.300   0.977   0.955 -0.1193 -0.0909  0.0180
19761W        W24161   8.864   3.094  16.829 -0.2189  0.0036 -0.0886
19762W        W24162  20.389   0.916  12.202 -0.0457 -0.1385  0.1215
19763W        W24163  14.046   3.424   7.039 -0.0511 -0.1423  0.0400
19764W        W24164  16.969   5.478   2.715 -0.1139  0.2295  0.0374
19765W        W24165   5.902   0.151   9.162  0.0325 -0.2057  0.1489
19766W        W24166   2.845   6.107  32.619  0.1974 -0.2780 -0.1865
19767W        W24167  13.519   5.735  30.322 -0.0622 -0.1164  0.0929
19768W        W24168   7.843   1.476  43.203 -0.0646 -0.4355  0.0982
19769W        W24169  20.909   4.283  26.027 -0.1141 -0.0434 -0.0271
19770W        W24170   3.978   4.133   8.910  0.0435  0.0144 -0.0369
19771W        W24171   9.646   2.054  33.548  0.0985  0.2297 -0.0563
19772W        W24172  10.650   5.377  45.078  0.4451  0.0624  0.1112
19773W        W24173  17.604   1.360   1.980  0.3399  0.0940 -0.0229
19774W        W24174  15.099   1.518   8.443 -0.2434  0.5109 -0.0094
19775W        W24175  17.075   5.672  36.578 -0.1280 -0.1311  0.3352
19776W        W24176  18.475   3.192  36.528  0.2542  0.3416 -0.1090
19777W        W24177  17.404   3.383   2.058  0.0510  0.2514 -0.0473
19778W        W24178  14.075   3.484   9.648  0.0318  0.2065 -0.1602
19779W        W24179   0.951   0.410  42.471 -0.1504 -0.2063  0.2619
19780W        W24180   9.602   1.720   5.921  0.2956 -0.2957  0.0693
19781W        W24181   6.652   5.799  38.886  0.0271 -0.0857  0.0269
19782W        W24182   3.202   5.980   1.711 -0.2502 -0.0413  0.2586
19783W        W24183  17.336   0.688  44.346 -0.2857 -0.4093  0.1297
19784W        W24184  20.421   5.491  36.622  0.0297  0.2708 -0.0011
19785W        W24185  11.794   2.831  10.825 -0.2837  0.0879 -0.1680
19786W        W24186  19.654   3.395   5.668 -0.1965 -0.0387 -0.0117
19787W        W24187  11.843   0.259  33.040  0.0992  0.0423 -0.0558
19788W        W24188  19.055   3.395   2.469  0.0295 -0.1585  0.0746
19789W        W24189  18.722   4.724  39.180  0.0607  0.0998  0.0302
19790W        W24190  10.133   4.437  43.064  0.2298 -0.2184  0.0199
19791W        W24191  12.666   1.862   6.723 -0.1759  0.0016 -0.0154
19792W        W24192   6.223   0.508   2.618  0.0209  0.2081  0.0426
19793W        W24193  10.511   5.195   5.369  0.0965 -0.0211 -0.0112
19794W        W24194   8.705   6.136  20.915 -0.0117  0.0684  0.2359
19795W        W24195  20.876   1.928   0.683  0.1428  0.3856 -0.3195
19796W        W24196  10.882   5.769  36.219 -0.2102 -0.2205  0.3764
19797W        W24197   6.124   3.473   9.654  0.2530 -0.0239  0.0515
19798W        W24198   8.916   4.125   8.363  0.0426  0.0806 -0.0167
19799W        W24199  15.942   0.580  38.648 -0.2300  0.0613 -0.1154
19800W        W24200  13.940   6.549   7.299  0.1990  0.1305 -0.0600
19801W        W24201   9.899   6.512   9.240  0.0645  0.0233 -0.1674
19802W        W24202   0.449   3.033  13.362  0.0463 -0.0818  0.2334
19803W        W24203   8.021   2.770   7.417  0.0433 -0.1834 -0.1817
19804W        W24204  14.478   0.957  12.062 -0.0539  0.0622 -0.0564
19805W        W24205  10.787   0.556  32.791  0.0514  0.1172  0.0438
19806W        W24206  14.765   2.108  10.648  0.0425  0.2566  0.0424
19807W        W24207   5.796   5.162  37.112  0.1975 -0.1159 -0.0517
19808W        W24208  15.432   3.894  31.375  0.0736  0.1392 -0.1993
19809W        W24209   3.284   3.112  32.994  0.1241  0.1085 -0.1569
19810W        W24210   7.654   3.741   9.919  0.1409 -0.2748 -0.2066
19811W        W24211  17.070   4.834  32.864 -0.2562  0.1252 -0.1168
19812W        W24212  10.643   3.737  29.903  0.1553 -0.1351  0.3045
19813W        W24213  11.114   0.155  21.350  0.0524 -0.0939 -0.0153
19814W        W24214   8.266   0.639   6.068  0.2817  0.0660 -0.2346
19815W        W24215  10.152   5.176  41.332 -0.0047 -0.1585 -0.1725
19816W        W24216  20.307   0.270   5.836  0.0060  0.0522  0.2217
19817W        W24217  19.212   5.473  43.692  0.2755 -0.1663  0.2169
19818W        W24218   6.683   2.390  13.233 -0.1402  0.2274 -0.0436
19819W        W24219  15.505   0.454  17.103 -0.1354 -0.2385  0.2948
19820W        W24220   3.434   5.503  34.145 -0.2049  0.1474  0.1551
19821W        W24221   5.305   3.080  14.279 -0.2052  0.1250 -0.1865
19822W        W24222  18.974   6.433  24.920  0.2211  0.1669 -0.2330
19823W        W24223  11.737   1.940  28.962  0.0403  0.0185 -0.1952
19824W        W24224  16.881   0.861  27.742 -0.2057  0.5019 -0.1469
19825W        W24225  14.496   3.387  44.903  0.0180 -0.0822  0.0623
19826W        W24226  16.522   4.148  10.909  0.1577 -0.0840  0.0985
19827W        W24227   2.897   0.650   1.696 -0.3655 -0.0292  0.0474
19828W        W24228  19.914   1.931  42.779  0.5310  0.0669 -0.0665
19829W        W24229  20.239   1.854  24.020  0.0057  0.3186  0.1010
19830W        W24230   3.653   1.910  29.997  0.2418 -0.0781 -0.0475
19831W        W24231   9.190   3.181  13.739 -0.3603 -0.0038 -0.0631
19832W        W24232   6.501   6.586   3.172  0.1586 -0.0746  0.1076
19833W        W24233  20.174   3.342  32.318 -0.0349 -0.2746 -0.1758
19834W        W24234   0.674   4.396  23.628 -0.0881  0.0696  0.0174
19835W        W24235  11.042   5.493  40.642  0.2726  0.2386 -0.2463
19836W        W24236   1.002   3.678   9.818 -0.0484 -0.5200  0.0709
19837W        W24237  20.496   6.066  42.061  0.2774  0.2286  0.3896
19838W        W24238  16.457   5.035  26.856  0.2975 -0.1740  0.2902
19839W        W24239   9.711   4.463  12.842  0.3268 -0.1262 -0.0067
19840W        W24240  10.956   2.493  42.327  0.1290  0.0694 -0.0615
19841W        W24241   0.687   2.962  12.904 -0.2889 -0.0809 -0.3032
19842W        W24242   7.214   3.304  33.485  0.0642  0.1868 -0.0489
19843W        W24243  12.239   0.452  32.851 -0.1907 -0.0095 -0.1164
19844W        W24244  14.500   2.430  43.915  0.1688 -0.1082  0.1938
19845W        W24245  17.934   3.061  28.514  0.0671 -0.0576 -0.0063
19846W        W24246  13.250   6.372  31.477  0.1693 -0.3728  0.0861
19847W        W24247   7.247   1.879  40.170  0.0043 -0.0536  0.1294
19848W        W24248  11.814   0.364  32.514 -0.2397 -0.0871 -0.1641
19849W        W24249   1.350   5.811   5.566  0.1999  0.0788 -0.2834
19850W        W24250   8.678   3.605  22.209 -0.2011 -0.2221  0.0353
19851W        W24251  19.957   5.009  10.639  0.1736 -0.2765  0.1325
19852W        W24252   3.071   5.314  31.679 -0.0643  0.2515 -0.1529
19853W        W24253  17.040   4.362  44.557 -0.1353  0.0893 -0.0373
19854W        W24254   4.748   4.410  41.247 -0.0413  0.3199  0.1366
19855W        W24255  10.920   1.528   2.673 -0.1379 -0.2580 -0.2561
19856W        W24256   0.365   2.599  13.676 -0.2964 -0.0292  0.4028
19857W        W24257  13.256   0.258  32.286  0.0435  0.2499 -0.1580
19858W        W24258  18.240   4.233  39.483 -0.0391  0.3592 -0.0222
19859W        W24259  19.999   1.625  45.074  0.1184 -0.0528 -0.1100
19860W        W24260   9.166   5.972   6.308  0.1561  0.0940 -0.1655
19861W        W24261  13.487   3.313  10.537  0.1826  0.1285  0.0954
19862W        W24262  10.607   3.072  37.109 -0.0115  0.0416  0.2543
19863W        W24263   6.263   0.173  39.698  0.1389 -0.0484 -0.0127
19864W        W24264   3.627   5.598  14.834 -0.0213 -0.2749 -0.0836
19865W        W24265  14.870   4.228  29.358  0.2089 -0.0156  0.1155
19866W        W24266   4.301   1.230  17.259  0.0570  0.2558 -0.2111
19867W        W24267  16.074   0.267   3.443 -0.1911  0.3030 -0.0310
19868W        W24268   4.457   1.216  10.457  0.0237 -0.0665  0.0152
19869W        W24269  19.788   2.240  25.351  0.1211 -0.3467  0.0179
19870W        W24270  19.003   4.421  23.095 -0.1869 -0.1990 -0.1843
19871W        W24271   0.363   2.391   7.857 -0.0435  0.3113 -0.0295
19872W        W24272  12.354   3.990  38.998 -0.1153  0.0859 -0.2171
19873W        W24273   0.600   5.010  21.559 -0.0769  0.2006 -0.2884
19874W        W24274   2.322   2.760  35.096 -0.0104 -0.1055 -0.0785
19875W        W24275  19.338   1.568  31.995 -0.2247 -0.0939  0.0585
19876W        W24276  16.567   1.283   1.300  0.2410 -0.0622 -0.1393
19877W        W24277   2.370   5.383   8.101  0.2449 -0.2608 -0.1208
19878W        W24278  14.036   5.303   9.507  0.1043 -0.0237 -0.0907
19879W        W24279   3.954   6.158   9.823 -0.2075  0.0907 -0.0093
19880W        W24280  20.741   1.697  20.813  0.1715 -0.2266  0.0623
19881W        W24281   6.203   6.099  29.602 -0.0490  0.1898  0.1163
19882W        W24282  19.344   1.906  38.636 -0.2244  0.0114 -0.1449
19883W        W24283  16.958   6.567   7.754 -0.0871  0.1473  0.0041
19884W        W24284  11.578   6.232  33.127  0.0723  0.1441 -0.3781
19885W        W24285   8.233   6.230  15.798 -0.1389  0.0993 -0.1426
19886W        W24286   6.401   4.472   3.065 -0.0328  0.2154  0.1941
19887W        W24287   3.712   0.462  41.715 -0.0957  0.1299  0.2852
19888W        W24288  14.216   5.378  35.070  0.1002  0.1578 -0.1022
19889W        W24289   2.035   1.632  40.455 -0.0338  0.1670  0.1515
19890W        W24290  17.375   6.126   7.055  0.2853  0.0256 -0.1406
19891W        W24291  10.003   4.549  17.135 -0.0242  0.1709 -0.1320
19892W        W24292   8.188   1.353   0.100 -0.1002 -0.0451  0.1004
19893W        W24293  17.730   5.069  26.962  0.1589  0.0891 -0.1480
19894W        W24294   8.083   4.947  12.379 -0.0334  0.2994 -0.1897
19895W        W24295   7.577   0.648  18.864 -0.0665 -0.1467 -0.2416
19896W        W24296   8.661   1.534   0.157 -0.0607 -0.1959  0.0140
19897W        W24297  15.048   1.126  32.672  0.4396  0.3514  0.1600
19898W        W24298   4.363   0.661  11.322 -0.0629  0.1376 -0.0381
19899W        W24299  14.331   2.778   9.142 -0.0635 -0.0639  0.0133
19900W        W24300  19.990   2.067   0.259  0.3289 -0.1448  0.2076
19901W        W24301   9.741   0.812  36.947 -0.2206  0.0881 -0.1296
19902W        W24302   7.412   0.973   7.221 -0.0052 -0.1027  0.3009
19903W        W24303   4.380   0.309  37.934 -0.1723 -0.0760 -0.4500
19904W        W24304  18.839   6.388  43.601  0.1274  0.0572  0.1875
19905W        W24305   4.234   0.839  11.838 -0.0714 -0.1802 -0.0116
19906W        W24306   1.765   0.665  14.317  0.1148  0.1828  0.0425
19907W        W24307   6.884   2.611  17.450 -0.0963  0.2250 -0.3951
19908W        W24308  11.334   2.895  44.760  0.0446  0.0414  0.2723
19909W        W24309  11.953   5.957   9.109  0.1583  0.1435 -0.0378
19910W        W24310   8.867   1.702   8.480  0.0608  0.0448 -0.0648
19911W        W24311  11.820   3.209   0.860  0.2991 -0.0393 -0.1338
19912W        W24312  15.300   5.711  35.016 -0.0580 -0.3299 -0.0231
19913W        W24313  11.431   0.094  32.707 -0.0217 -0.1326 -0.0672
19914W        W24314  21.059   3.984  44.693  0.0392  0.2687  0.1549
19915W        W24315   7.811   4.631   7.083  0.0094  0.1030 -0.1847
19916W        W24316  15.612   2.897  16.453  0.0819 -0.1565 -0.1685
19917W        W24317  16.100   4.174  37.583 -0.0582 -0.4754  0.1124
19918W        W24318  14.637   4.540  13.962  0.0594 -0.0527  0.3702
19919W        W24319   3.090   1.275  10.767 -0.2666 -0.1136  0.4782
19920W        W24320   8.569   4.705   2.706 -0.2833  0.1296 -0.2304
19921W        W24321   2.621   1.256  16.346 -0.0873 -0.0049 -0.0662
19922W        W24322  10.651   4.358  39.161  0.0696 -0.1061 -0.0480
19923W        W24323   6.077   2.014  43.780 -0.3888 -0.1778  0.0673
19924W        W24324   1.424   4.452  13.437 -0.0780 -0.0366  0.0164
19925W        W24325  10.576   3.626  39.487  0.0744  0.1204 -0.0718
19926W        W24326  10.684   2.015  19.057 -0.1962  0.0540 -0.0568
19927W        W24327  17.083   2.208   5.891  0.2364  0.0122  0.3086
19928W        W24328   0.426   2.722  33.600  0.2141 -0.2151  0.1000
19929W        W24329  14.004   0.533  11.707  0.5129  0.0079 -0.0819
19930W        W24330  11.572   2.526   3.909  0.0705 -0.1896 -0.0299
19931W        W24331  20.421   4.585   3.026 -0.0487 -0.0985 -0.2307
19932W        W24332  17.116   3.389  28.042 -0.0609 -0.1623  0.1062
19933W        W24333  19.344   4.344  34.657 -0.0997  0.3020  0.0408
19934W        W24334  14.953   4.810   0.231  0.1179 -0.0892 -0.4190
19935W        W24335   3.950   1.811  29.192  0.0314 -0.0998 -0.2222
19936W        W24336   8.587   1.106  18.315 -0.3988 -0.3337 -0.0375
19937W        W24337   0.220   3.624   3.754 -0.0004  0.0164 -0.0428
19938W        W24338   6.977   5.015  21.589  0.0893  0.0507 -0.2628
19939W        W24339  11.109   2.726  43.311  0.0238 -0.1758 -0.0780
19940W        W24340   5.711   6.274  42.987  0.1295 -0.3161 -0.1887
19941W        W24341  19.861   2.985   0.590 -0.1710 -0.1705  0.2737
19942W        W24342   1.198   1.325  31.919  0.0320 -0.0818  0.2092
19943W        W24343  15.879   1.720   8.815 -0.2256  0.1374 -0.1552
19944W        W24344   3.586   3.501  33.171 -0.0139 -0.1074  0.0088
19945W        W24345  10.476   1.109  22.150 -0.1941 -0.0117 -0.0185
19946W        W24346   1.009   2.656  25.345  0.0709 -0.0451 -0.0348
19947W        W24347   9.931   6.218   1.493  0.0507 -0.3603  0.2317
19948W        W24348  20.788   3.190  26.932 -0.0033  0.1225 -0.2266
19949W        W24349  19.728   2.358  22.094 -0.0062  0.0787  0.1208
19950W        W24350   0.419   2.775  41.878  0.1098 -0.3217  0.1547
19951W        W24351   5.600   0.367  16.445  0.0675 -0.1359  0.1714
19952W        W24352  13.170   4.871   1.791  0.0489  0.2135  0.0441
19953W        W24353   4.928   1.791  29.899 -0.1425 -0.0510  0.2700
19954W        W24354  18.870   3.630  10.234  0.4418 -0.1521  0.1227
19955W        W24355   6.763   3.573   6.749 -0.0107 -0.2844  0.1538
19956W        W24356   4.559   3.432   6.168  0.0085 -0.1503  0.2411
19957W        W24357   1.379   3.743   5.700 -0.0211  0.2064  0.0875
19958W        W24358   5.844   4.068  13.664 -0.3842  0.1041 -0.1524
19959W        W24359   0.211   0.980  12.749  0.0454 -0.1688 -0.2141
19960W        W24360  19.723   1.470   8.770 -0.1371  0.0027  0.1800
19961W        W24361  10.538   3.907  24.607 -0.0462  0.3825 -0.0175
19962W        W24362   7.218   1.589  14.108  0.0980  0.0982  0.1058
19963W        W24363   0.966   3.008  29.800 -0.2804 -0.1861  0.0834
19964W        W24364   9.765   5.718   1.336 -0.2450 -0.3213  0.4633
19965W        W24365  12.599   2.149   9.201 -0.1359  0.0909 -0.1399
19966W        W24366  17.101   0.613  11.171 -0.1465 -0.0569 -0.3304
19967W        W24367   9.169   6.491   5.058  0.1502  0.1878  0.0773
19968W        W24368   4.064   3.265  39.092 -0.1494  0.1974 -0.1133
19969W        W24369  19.488   0.745   6.192  0.1650 -0.1343 -0.0867
19970W        W24370   5.552   3.961   1.606  0.0219  0.2322 -0.0153
19971W        W24371  16.297   5.449  34.006  0.1552 -0.1676  0.0412
19972W        W24372   3.616   1.190  28.008 -0.1242 -0.0493  0.2173
19973W        W24373  16.614   6.418   3.997 -0.2237 -0.0604 -0.1705
19974W        W24374  19.319   1.733  25.804  0.0894  0.1779 -0.1317
19975W        W24375  11.490   3.569  29.827  0.0147 -0.0131 -0.0457
19976W        W24376   2.950   5.510  27.270  0.0326 -0.0019 -0.2497
19977W        W24377   8.845   2.877  12.520 -0.4807 -0.0029  0.0216
19978W        W24378  18.742   0.491  40.382 -0.2612  0.3363 -0.0335
19979W        W24379   9.418   4.859  23.966  0.1355  0.0461  0.4694
19980W        W24380  13.384   5.723  44.770  0.0330  0.0002  0.0469
19981W        W24381  15.089   3.437  31.853 -0.2973  0.2786 -0.1497
19982W        W24382   9.402   1.541  34.082  0.1525 -0.2321 -0.4131
19983W        W24383   5.458   6.600  13.786 -0.0900  0.1925  0.1378
19984W        W24384  21.057   4.447  41.510 -0.0099  0.0015  0.0290
19985W        W24385   1.448   3.427   4.815 -0.3960 -0.2022 -0.3231
19986W        W24386  16.770   2.981  40.682 -0.1821  0.1198 -0.1167
19987W        W24387  20.681   3.069  42.058 -0.0979 -0.3487 -0.0325
19988W        W24388  16.526   6.085  42.040 -0.0378 -0.2155 -0.1623
19989W        W24389  14.999   5.233  30.519  0.0072 -0.2685  0.2073
19990W        W24390  15.677   0.143  40.629 -0.0178 -0.0380 -0.0300
19991W        W24391  19.530   6.445  33.189  0.1208  0.1626 -0.1172
19992W        W24392  17.985   4.875  38.806 -0.0021 -0.1628 -0.1732
19993W        W24393  19.926   3.069  15.289 -0.0796  0.1671 -0.0072
19994W        W24394   7.442   2.002   7.255 -0.2094  0.1361  0.0819
19995W        W24395  14.939   4.034  38.338 -0.1004  0.1405 -0.0527
19996W        W24396  20.456   6.220  21.599  0.0717 -0.1368 -0.0813
19997W        W24397   3.550   3.527  26.616 -0.0444 -0.1757 -0.2897
19998W        W24398  15.326   6.409  35.430  0.2258 -0.1456  0.0659
19999W        W24399   3.349   3.887  34.748  0.2291 -0.3168 -0.1892
20000W        W24400  10.331   3.963  38.943 -0.2256  0.2843  0.0316
20001W        W24401   0.123   6.250  11.545  0.0204  0.0721  0.2132
20002W        W24402   2.107   1.630  36.180 -0.0234 -0.1079 -0.0207
20003W        W24403   1.107   6.160  23.751  0.1043 -0.1629  0.1106
20004W        W24404   9.751   2.378  41.203  0.0484 -0.0758 -0.0116
20005W        W24405   1.496   6.346  35.749  0.0364 -0.2279 -0.2965
20006W        W24406   1.551   3.925   9.947  0.0974  0.1539 -0.2239
20007W        W24407   1.459   1.344  14.460 -0.0044 -0.1485  0.1461
20008W        W24408   1.192   1.713   0.008  0.0942 -0.2732  0.1002
20009W        W24409   3.653   3.686   4.037  0.1780  0.0381  0.1191
20010W        W24410   9.866   4.273  23.390 -0.0485 -0.4373  0.1264
20011W        W24411   9.733   5.946   5.454  0.0011  0.0573  0.1890
20012W        W24412   7.581   1.848  20.969  0.0788 -0.0833 -0.0582
20013W        W24413  19.208   5.669  25.174  0.1672  0.1726  0.0554
20014W        W24414  11.518   4.055   7.509 -0.0584  0.0728 -0.1514
20015W        W24415   2.734   0.684   2.479  0.0221 -0.0245 -0.1889
20016W        W24416   1.696   5.426  32.007 -0.2418  0.3098  0.0435
20017W        W24417   6.551   5.529  36.921  0.3727 -0.4057  0.0902
20018W        W24418   8.777   3.918  38.134  0.2849  0.1360  0.0977
20019W        W24419   8.169   1.512  43.858 -0.1008 -0.1911  0.3644
20020W        W24420  20.693   1.153  37.933  0.0347 -0.1756 -0.0165
20021W        W24421   6.464   4.039  34.755 -0.2664  0.0708 -0.0639
20022W        W24422   3.806   1.364   0.512 -0.3099 -0.0449 -0.0118
20023W        W24423   4.574   0.491  34.308 -0.1227 -0.0951 -0.0282
20024W        W24424  17.654   5.389  30.472 -0.1446 -0.0477  0.0945
20025W        W24425  20.200   1.989  38.753  0.2760  0.2978 -0.1459
20026W        W24426  19.478   4.802  43.260 -0.2898  0.0530 -0.0948
20027W        W24427   5.971   2.853   4.693  0.2268 -0.2389 -0.2773
20028W        W24428  17.033   2.447   6.627 -0.0597 -0.0241  0.0978
20029W        W24429  11.559   3.999   8.816 -0.2741  0.1303 -0.1912
20030W        W24430   8.137   0.314  20.145  0.1481 -0.0639 -0.1834
20031W        W24431  12.316   1.401  27.778 -0.1167 -0.0714 -0.1030
20032W        W24432   4.376   0.879  38.133 -0.0699 -0.0619  0.2110
20033W        W24433   2.917   1.162   9.786  0.4151  0.1877  0.1840
20034W        W24434  18.737   1.008  28.540 -0.2447  0.1784 -0.0331
20035W        W24435  12.624   4.603   1.203  0.1210 -0.1392 -0.2653
20036W        W24436   5.465   0.861   8.605  0.1807  0.0126 -0.0334
20037W        W24437   6.464   1.005  34.931 -0.3063  0.1758 -0.1369
20038W        W24438  15.953   2.578  12.023  0.0636 -0.0950 -0.2279
20039W        W24439  12.780   5.573  19.381  0.1160  0.0390  0.1163
20040W        W24440  21.012   1.166  27.766 -0.0581  0.3153  0.3226
20041W        W24441   2.715   3.232   9.497  0.0250 -0.0331 -0.1316
20042W        W24442  13.611   1.025  32.707 -0.1467  0.2486 -0.0425
20043W        W24443  16.922   2.587   8.282 -0.0908 -0.0325 -0.3679
20044W        W24444  19.088   2.235  13.546 -0.1510 -0.1592  0.3552
20045W        W24445   0.997   3.247  13.771  0.0189 -0.1490  0.0114
20046W        W24446  13.747   6.407  31.339  0.1163  0.0017  0.2070
20047W        W24447  20.746   3.564  15.179  0.3289 -0.0750 -0.0673
20048W        W24448  12.495   5.095  20.175 -0.1811 -0.1945  0.0601
20049W        W24449  16.102   3.839   7.412  0.2425 -0.2072  0.1808
20050W        W24450  19.248   1.232  22.430  0.1363  0.0522  0.0478
20051W        W24451   9.982   1.347   1.705  0.4999  0.2096  0.0029
20052W        W24452  15.105   1.268  29.457 -0.0091  0.4794 -0.0576
20053W        W24453   0.335   1.720  28.468  0.1685  0.0487  0.1294
20054W        W24454   3.472   2.376   5.026 -0.1713 -0.1583 -0.0809
20055W        W24455   2.366   3.904  14.692 -0.3865  0.1525  0.0532
20056W        W24456   9.758   2.537   0.993  0.0213  0.1096  0.2984
20057W        W24457  18.031   5.027  26.381  0.0832 -0.1547 -0.0810
20058W        W24458   2.842   3.252   6.738 -0.1757 -0.0125  0.2118
20059W        W24459   0.249   5.211  10.340  0.2343  0.1623 -0.1526
20060W        W24460  11.931   6.009   3.597  0.2662  0.3513  0.1137
20061W        W24461   4.033   1.260  39.244  0.1124  0.0313  0.2055
20062W        W24462   0.957   4.561  40.345  0.0323  0.1551 -0.0535
20063W        W24463  19.156   1.237  27.443 -0.1169 -0.1974  0.0339
20064W        W24464   8.500   0.676  24.096  0.0192 -0.1964  0.0605
20065W        W24465  15.955   0.445  34.222 -0.1677  0.0252  0.0473
20066W        W24466  14.087   3.463  15.800  0.0473 -0.1329  0.1451
20067W        W24467   4.864   2.213  39.237  0.2913 -0.1213 -0.1959
20068W        W24468  19.272   5.314  10.056  0.0050 -0.0376  0.1149
20069W        W24469  10.493   0.110  36.086 -0.1406  0.0292  0.0228
20070W        W24470   8.076   1.091  14.823  0.3139  0.2759  0.2510
20071W        W24471  11.758   3.437  33.795 -0.2931  0.0409  0.1060
20072W        W24472  15.917   2.809   8.830 -0.0331  0.0373 -0.0914
20073W        W24473   0.059   0.297  12.094  0.0919  0.1703 -0.2608
20074W        W24474   5.817   3.769  10.975 -0.0309  0.0780 -0.1234
20075W        W24475  20.261   4.159   1.106 -0.3070  0.0982 -0.1035
20076W        W24476   4.051   5.975   5.759 -0.0939  0.0896  0.1428
20077W        W24477   4.393   3.175  27.771 -0.1900 -0.0630  0.1097
20078W        W24478  19.182   2.728  44.716 -0.1487 -0.2869  0.2210
20079W        W24479  19.026   5.588  31.873  0.0632  0.4268 -0.0820
20080W        W24480   2.992   5.944  27.541  0.2166 -0.1104 -0.1211
20081W        W24481  20.292   2.203   2.391 -0.2274  0.2285 -0.1838
20082W        W24482  18.945   4.481   7.241 -0.3906  0.2155  0.1887
20083W        W24483  12.281   4.670  39.720  0.2176 -0.2811  0.0127
20084W        W24484  18.663   0.889  12.511 -0.2856 -0.1758  0.1664
20085W        W24485   9.080   4.382   7.622 -0.1080  0.2447  0.0976
20086W        W24486  11.412   0.272  36.906  0.2378  0.2613  0.0507
20087W        W24487  16.856   0.252  31.158 -0.3593 -0.2456 -0.0085
20088W        W24488  12.085   3.214  37.881  0.1438  0.0981  0.0689
20089W        W24489   8.856   0.163   0.432 -0.0435 -0.1201  0.2133
20090W        W24490  17.884   1.919  42.329  0.0613  0.1546 -0.4171
20091W        W24491  17.889   6.177   3.553 -0.1573 -0.2509 -0.0793
20092W        W24492  18.667   3.952  37.910  0.3904 -0.0162 -0.1652
20093W        W24493  10.151   4.533  18.446 -0.0364 -0.0848 -0.4293
20094W        W24494  11.586   1.763  31.613 -0.1355  0.0247  0.2428
20095W        W24495   7.951   3.440   0.730  0.1720  0.0281  0.1816
20096W        W24496  12.333   1.395  33.141 -0.1135  0.0490  0.0097
20097W        W24497  20.874   0.558  23.431 -0.0904 -0.2956  0.2946
20098W        W24498  15.443   6.259  31.245  0.0152 -0.2772 -0.0693
20099W        W24499  12.950   4.293  16.308  0.3422 -0.0924 -0.0752
20100W        W24500   7.020   3.187  11.956  0.0132  0.1842  0.1394
20101W        W24501   6.702   3.702  15.978  0.5224 -0.0969 -0.0586
20102W        W24502  11.115   6.325  32.392 -0.1235  0.0813 -0.4454
20103W        W24503  13.747   5.968  19.021  0.0789 -0.0516 -0.1076
20104W        W24504   0.367   2.584   2.390 -0.1175  0.1207 -0.3629
20105W        W24505  19.997   4.327  14.986 -0.1442 -0.0271 -0.0641
20106W        W24506   5.549   4.071  36.274 -0.1666  0.2767 -0.1689
20107W        W24507  15.764   1.803  34.119  0.1577 -0.1199 -0.1039
20108W        W24508  17.211   5.976  16.206  0.3861  0.1499 -0.2438
20109W        W24509  14.984   2.972  18.424  0.1686  0.0244 -0.1024
20110W        W24510   5.848   3.131  43.957 -0.1220 -0.0486  0.1034
20111W        W24511   8.127   2.084  29.364  0.1224 -0.1979 -0.0800
20112W        W24512   2.859   6.421  41.932 -0.2442 -0.0887  0.0309
20113W        W24513   3.259   5.140  42.114  0.0384  0.1488  0.0588
20114W        W24514   4.261   5.611  17.008 -0.2659 -0.0197  0.1077
20115W        W24515   9.969   3.895  21.616  0.0014 -0.0763  0.0199
20116W        W24516  13.409   1.299  10.479 -0.0690 -0.1091  0.0678
20117W        W24517  14.014   1.822  44.950  0.1417  0.0145 -0.0109
20118W        W24518   2.530   2.638  31.082  0.0277  0.0367 -0.0836
20119W        W24519  15.413   5.370  39.815 -0.1638 -0.1934  0.0164
20120W        W24520  11.482   5.577   0.084 -0.1693 -0.0156 -0.0944
20121W        W24521  16.902   6.574  26.307 -0.0013 -0.0862 -0.2878
20122W        W24522  15.569   5.468  11.686  0.0978  0.0572  0.0915
20123W        W24523   3.905   0.887  36.959  0.0057  0.0577 -0.0768
20124W        W24524   0.327   0.439   8.001 -0.0274 -0.0137 -0.2968
20125W        W24525  13.611   5.003  40.887 -0.2011 -0.1090 -0.0461
20126W        W24526  11.190   0.097   3.822 -0.0022  0.2979 -0.1304
20127W        W24527  18.785   3.084  11.728  0.2152 -0.4663 -0.2137
20128W        W24528   8.471   4.758   5.812 -0.0459  0.1163  0.0637
20129W        W24529   3.718   1.044  35.133 -0.2909 -0.1584 -0.0622
20130W        W24530   1.624   6.500  32.144 -0.0429  0.2243  0.1953
20131W        W24531  10.443   6.060  34.669  0.1483  0.1015  0.1407
20132W        W24532   8.753   5.896   4.914 -0.0606 -0.1192  0.1167
20133W        W24533  18.159   1.595  38.346  0.1368  0.0557  0.2557
20134W        W24534  20.599   5.517   7.264 -0.0263  0.1355 -0.0017
20135W        W24535   3.570   6.169  26.953 -0.0680  0.1058  0.0883
20136W        W24536   4.688   1.852  42.441  0.0744  0.1053  0.1796
20137W        W24537  20.735   4.742   0.801  0.0611  0.0108 -0.3361
20138W        W24538  12.633   5.158  35.634 -0.0257  0.1510 -0.1031
20139W        W24539  19.663   3.073  44.047 -0.3244  0.1576 -0.0854
20140W        W24540  16.306   3.800  44.627 -0.1778 -0.0652 -0.0294
20141W        W24541  19.027   1.136  10.258 -0.2503  0.0609 -0.4330
20142W        W24542   0.387   3.622  33.347 -0.0825  0.0166 -0.1477
20143W        W24543  10.019   2.962   6.135 -0.1496 -0.0107  0.0825
20144W        W24544   9.522   1.940   0.170  0.0348 -0.3023 -0.0903
20145W        W24545  12.285   6.228  31.890  0.0287 -0.0774 -0.0575
20146W        W24546  10.095   5.205  13.136 -0.0362 -0.1701  0.2891
20147W        W24547  14.443   5.659  31.803  0.2001  0.1088 -0.0675
20148W        W24548  16.493   2.992  30.976 -0.0758 -0.1869  0.2132
20149W        W24549  11.319   3.579  30.417 -0.1098  0.0387  0.0659
20150W        W24550  21.110   0.019  31.087 -0.1125 -0.2041  0.1658
20151W        W24551  13.640   0.704   8.532  0.0747  0.0145  0.0365
20152W        W24552   6.867   3.056   8.029 -0.2708 -0.2559 -0.1179
20153W        W24553  18.038   1.998  37.950  0.0743  0.2535  0.0381
20154W        W24554  18.787   5.257  34.725  0.2353 -0.5240 -0.3465
20155W        W24555   8.241   0.868   7.472  0.1000  0.0666  0.1508
20156W        W24556  11.316   6.175   8.091  0.2350 -0.0246 -0.1249
20157W        W24557   3.044   6.245   2.959 -0.2407  0.0733  0.1368
20158W        W24558  13.635   5.648  15.989 -0.0947 -0.0066  0.3020
20159W        W24559  12.088   2.220  38.142 -0.2745 -0.0774 -0.3364
20160W        W24560   8.574   3.386  38.848  0.0665  0.0353  0.1246
20161W        W24561  20.269   3.355  26.857 -0.1112  0.1041  0.1022
20162W        W24562  18.532   1.348  32.423 -0.2246  0.3071 -0.1383
20163W        W24563   7.774   3.640   1.489  0.1811 -0.2403 -0.1971
20164W        W24564   3.701   3.614   7.621 -0.0337  0.0908 -0.2104
20165W        W24565  17.763   3.302   6.614  0.0657  0.0328 -0.1167
20166W        W24566  12.657   3.494  19.652 -0.0723  0.1197 -0.1066
20167W        W24567  14.894   4.586   5.405 -0.2256 -0.2609  0.0762
20168W        W24568   8.751   1.665  10.584 -0.1308  0.0396  0.0933
20169W        W24569   5.581   6.390   7.220 -0.3425  0.0264 -0.0542
20170W        W24570   4.658   1.810  34.275 -0.1610  0.0778 -0.1802
20171W        W24571   7.155   2.602  22.494  0.1188  0.1152 -0.0587
20172W        W24572  20.918   4.515  37.598 -0.0851  0.1427  0.1694
20173W        W24573  12.835   3.499  28.467 -0.0860  0.0076 -0.2448
20174W        W24574   5.689   1.165   8.274  0.0102  0.2063  0.2520
20175W        W24575   9.549   2.637  41.880 -0.0902  0.0833 -0.1768
20176W        W24576   1.994   2.524   2.338  0.0907 -0.0645 -0.3699
20177W        W24577   9.753   4.624  24.233 -0.3573 -0.0738  0.0150
20178W        W24578  19.746   1.677   4.810 -0.4509 -0.0737  0.3013
20179W        W24579   5.681   4.508  31.368 -0.2651 -0.0552 -0.1823
20180W        W24580  17.802   2.912  24.976 -0.0329  0.2174  0.0591
20181W        W24581  16.098   1.554  11.915  0.3445  0.0951 -0.2782
20182W        W24582   5.808   1.186  15.643 -0.0365 -0.1208 -0.1468
20183W        W24583   6.762   5.974  38.410 -0.0430 -0.0883  0.3022
20184W        W24584  18.712   2.215  31.028 -0.3453 -0.2718  0.0756
20185W        W24585   7.598   2.405  22.666 -0.5131 -0.1178 -0.2711
20186W        W24586   5.896   4.906   0.222  0.1373  0.3171  0.1612
20187W        W24587  15.500   0.406   2.283 -0.1656 -0.0248  0.2764
20188W        W24588   2.505   2.894   6.877 -0.0941 -0.2716  0.2819
20189W        W24589  14.908   4.280  44.266 -0.1778 -0.0017  0.0596
20190W        W24590   3.759   2.166  13.764 -0.2340 -0.1244 -0.3113
20191W        W24591   4.982   2.353  37.967 -0.3625  0.0154 -0.0340
20192W        W24592  21.120   0.062  42.399  0.0559  0.1666 -0.1770
20193W        W24593  19.812   2.027  16.392 -0.1830  0.0282  0.0878
20194W        W24594   8.985   4.375  34.816 -0.0802 -0.0804  0.2004
20195W        W24595  18.697   4.525   4.717 -0.0890  0.1925 -0.0424
20196W        W24596   7.899   1.072  16.539  0.2179 -0.1171 -0.0682
20197W        W24597  12.593   4.259   5.948  0.0139  0.2122  0.0360
20198W        W24598  15.926   6.518  16.042 -0.1902  0.3500 -0.0846
20199W        W24599  18.294   2.937  42.099 -0.1027  0.1936 -0.1745
20200W        W24600   4.869   2.715  41.095  0.0861  0.1284 -0.0440
20201W        W24601  20.731   6.447  38.078  0.1610 -0.0393  0.1007
20202W        W24602   4.429   5.624   3.821  0.0213  0.0421 -0.1442
20203W        W24603  19.525   3.277   6.209 -0.1726  0.1226  0.2016
20204W        W24604  11.601   5.959  35.087  0.0145  0.1235 -0.1904
20205W        W24605   6.229   5.926   0.651  0.0418  0.0735  0.0742
20206W        W24606   0.555   1.664  39.862  0.4587 -0.0396 -0.0442
20207W        W24607   3.999   0.844  17.147  0.2166 -0.0103  0.0967
20208W        W24608  11.913   2.314  17.631  0.2129  0.0194  0.0172
20209W        W24609   2.595   3.577  36.917 -0.1176  0.3676  0.1173
20210W        W24610  12.839   2.526  28.742  0.1219 -0.0948  0.0879
20211W        W24611  18.552   4.116  35.447 -0.1698 -0.0837 -0.2168
20212W        W24612  15.695   2.689   6.869  0.0181 -0.0097  0.0249
20213W        W24613   4.064   0.632  35.810 -0.1255  0.1675 -0.1420
20214W        W24614  15.713   1.694  32.626  0.0958 -0.1438 -0.0916
20215W        W24615  18.039   1.292   7.211 -0.1757 -0.0411  0.0426
20216W        W24616  20.154   4.259  30.383  0.0446 -0.2345 -0.1517
20217W        W24617  14.560   6.072  12.961  0.0496  0.2298 -0.1234
20218W        W24618   0.539   4.432  37.295  0.0474  0.0364 -0.0884
20219W        W24619  15.873   5.362  30.304  0.2330  0.1520 -0.2887
20220W        W24620  13.224   4.054  44.517  0.0400  0.0993 -0.4351
20221W        W24621  10.117   1.266   9.812  0.2975  0.2302 -0.0951
20222W        W24622  10.623   4.796  23.918  0.0597  0.1367  0.0465
20223W        W24623   1.263   6.137  32.400 -0.3263 -0.0489  0.0376
20224W        W24624   2.356   6.503  10.907 -0.1897 -0.0599 -0.0164
20225W        W24625  11.964   5.707  43.556  0.1360  0.1399 -0.1268
20226W        W24626  12.495   3.819  28.185 -0.1189  0.1817 -0.2181
20227W        W24627   1.613   3.412  42.900 -0.0480  0.1686 -0.3068
20228W        W24628   1.542   3.656  32.870  0.0165  0.1974  0.0448
20229W        W24629   1.664   2.945   9.377  0.0711  0.3320 -0.4146
20230W        W24630  11.653   4.814  42.721  0.0068  0.1469  0.0007
20231W        W24631   8.771   5.797   4.423  0.2477  0.2089  0.1915
20232W        W24632  20.827   4.215  11.931 -0.0480 -0.0299  0.2531
20233W        W24633  12.742   2.203   4.588  0.2177  0.2944 -0.1788
20234W        W24634   2.194   2.372  26.778  0.0984 -0.0727 -0.0559
20235W        W24635  14.971   3.776  14.425  0.0783  0.0292  0.1734
20236W        W24636  12.006   3.640   4.317  0.3806  0.0620 -0.0780
20237W        W24637  14.918   3.732  27.586 -0.2168  0.0179 -0.1951
20238W        W24638  11.895   0.577  11.425 -0.0183 -0.1486 -0.3374
20239W        W24639  19.351   1.842  41.462 -0.0498  0.0713 -0.0558
20240W        W24640  18.861   1.970  36.978  0.3556  0.0933  0.1616
20241W        W24641   4.232   1.822  17.835 -0.0476 -0.2397  0.1613
20242W        W24642  14.688   1.948   5.634 -0.2041  0.4148 -0.2178
20243W        W24643  21.036   2.168   6.615  0.0137 -0.0405  0.1294
20244W        W24644   3.064   3.228  34.454  0.0534  0.0650  0.0773
20245W        W24645  14.410   2.915  44.674  0.0856  0.2646  0.0290
20246W        W24646   3.904   6.486  30.424  0.0439 -0.1420 -0.0576
20247W        W24647  13.199   1.245  43.512 -0.0687  0.0392  0.1740
20248W        W24648  19.569   3.831  25.099  0.1338 -0.1874  0.1294
20249W        W24649  18.908   6.012   2.623  0.1593 -0.1697  0.2218
20250W        W24650  13.473   1.208  35.677 -0.2185  0.1256 -0.1764
20251W        W24651   6.284   5.867  36.344  0.1358  0.1297 -0.0262
20252W        W24652   4.223   4.658  36.000 -0.1251 -0.0197  0.2309
20253W        W24653   9.032   3.783  42.304  0.0106 -0.0217 -0.0202
20254W        W24654   6.533   5.779   0.252  0.1276  0.2866  0.1722
20255W        W24655  15.515   6.168  36.484  0.1642 -0.0361  0.2282
20256W        W24656   3.142   3.746  44.117 -0.4954  0.1145 -0.1803
20257W        W24657  19.384   0.416  22.108  0.0374  0.0796 -0.0805
20258W        W24658  15.050   2.521  28.445  0.0522 -0.1448 -0.2245
20259W        W24659  10.478   6.593  10.735  0.1037  0.1040  0.3098
20260W        W24660   5.794   5.632  43.053 -0.0364  0.0839 -0.0887
20261W        W24661  16.808   2.809  29.867  0.0171  0.1744 -0.3372
20262W        W24662  14.245   6.451  42.511  0.1604  0.1245  0.0555
20263W        W24663  16.367   5.657  13.308 -0.0872 -0.2605  0.0496
20264W        W24664   7.835   4.030  13.085  0.0001  0.3037 -0.1493
20265W        W24665  17.115   0.215   2.981 -0.0857 -0.0032 -0.1040
20266W        W24666   6.652   4.798  19.642 -0.2564  0.2907  0.1951
20267W        W24667  19.205   0.450   1.729 -0.2382 -0.0617  0.1513
20268W        W24668  17.225   3.923  23.920  0.1724 -0.1576  0.1398
20269W        W24669   3.441   3.711   1.875 -0.0734 -0.1028  0.0038
20270W        W24670   0.603   5.641  25.159 -0.1839 -0.0854 -0.1179
20271W        W24671   8.943   4.606  19.942  0.3128  0.2602 -0.0481
20272W        W24672   7.209   1.886  17.034 -0.0063  0.0519 -0.3393
20273W        W24673   3.780   2.854   8.064  0.0050 -0.1457  0.0725
20274W        W24674   9.038   0.625  40.332 -0.1943  0.2782 -0.0247
20275W        W24675  14.502   3.195  16.591  0.1869 -0.1130 -0.0289
20276W        W24676   0.890   1.966   2.232 -0.0535 -0.0575 -0.1467
20277W        W24677  11.152   4.660  17.078 -0.1018  0.0204 -0.0332
20278W        W24678   8.424   0.887  11.861 -0.1769  0.1189 -0.2232
20279W        W24679  13.764   1.936  29.912  0.2787 -0.2677  0.1616
20280W        W24680  16.415   5.133  28.123  0.0118 -0.0649  0.1246
20281W        W24681   8.042   1.731   8.549 -0.0705  0.2076 -0.0673
20282W        W24682   4.468   1.029   5.943  0.2180  0.2650  0.4973
20283W        W24683   2.825   2.061   0.702  0.0527  0.1859  0.2673
20284W        W24684  19.630   1.294  10.802  0.1548 -0.3705  0.2204
20285W        W24685  15.417   1.974  16.524 -0.4431  0.3789 -0.3011
20286W        W24686   9.989   3.564  10.638  0.0779 -0.1849 -0.0458
20287W        W24687   2.955   0.587  40.885 -0.1211 -0.3011  0.4847
20288W        W24688   4.276   5.680   9.112  0.1041 -0.1140 -0.3136
20289W        W24689  14.492   6.330  43.448  0.0681 -0.1427 -0.1426
20290W        W24690  15.705   5.336  41.285  0.2179  0.0151  0.0058
20291W        W24691   3.111   0.009  10.344 -0.2648 -0.0119 -0.0791
20292W        W24692   1.863   3.862  11.248  0.1140  0.3467  0.0267
20293W        W24693  18.975   0.734  21.750  0.0751 -0.0906 -0.2694
20294W        W24694  10.610   2.620   0.722 -0.2273  0.2926  0.0885
20295W        W24695   8.421   2.274  20.255 -0.0086  0.2324 -0.1262
20296W        W24696  15.175   5.497  36.930 -0.3245  0.0487  0.0386
20297W        W24697  20.242   6.122  15.293  0.0049  0.1024  0.3964
20298W        W24698   4.807   5.172  17.974  0.1851 -0.0872  0.2968
20299W        W24699   5.658   4.105  28.288 -0.3099 -0.0402 -0.1355
20300W        W24700  19.739   1.804  15.064 -0.1924  0.0783 -0.0500
20301W        W24701   1.346   3.292   6.119  0.1103 -0.2674 -0.1301
20302W        W24702   6.176   3.999  19.248  0.0212 -0.0118 -0.1872
20303W        W24703  17.948   5.551  41.644  0.1931 -0.1646  0.1413
20304W        W24704  15.824   6.313  44.573 -0.0896  0.0858  0.0469
20305W        W24705  18.891   4.661  44.576  0.0330 -0.1829 -0.0700
20306W        W24706  14.708   1.489  36.157  0.1532  0.1556 -0.0489
20307W        W24707  14.650   0.404  35.651  0.1237 -0.0374  0.3183
20308W        W24708   8.977   5.356   1.717 -0.1468 -0.0664 -0.1384
20309W        W24709   9.552   4.067   0.665 -0.2123  0.2128  0.0957
20310W        W24710  15.557   3.117   9.199 -0.3314  0.3528  0.0443
20311W        W24711   8.557   4.851  40.390 -0.1214  0.0079  0.0257
20312W        W24712   2.423   2.509   4.353  0.0876  0.2310 -0.1768
20313W        W24713  14.615   1.748   8.716 -0.1517  0.1321 -0.4135
20314W        W24714  11.715   0.775  17.780 -0.0844  0.2726 -0.0468
20315W        W24715   7.508   5.392  39.635  0.2829  0.0127  0.0822
20316W        W24716   1.346   5.848  34.411  0.0514 -0.3067  0.2332
20317W        W24717   5.218   0.288   6.554 -0.2050 -0.0182 -0.2313
20318W        W24718   0.679   5.611  28.076 -0.0994 -0.2032 -0.0654
20319W        W24719   6.124   0.289  10.030 -0.1129  0.0048  0.0897
20320W        W24720   1.083   2.475   4.822 -0.2019 -0.2088 -0.1718
20321W        W24721  14.810   2.287  13.577  0.1533 -0.1409 -0.0078
20322W        W24722   6.713   4.087  33.748 -0.2036  0.1664 -0.5133
20323W        W24723   2.022   5.101  40.322  0.2214 -0.2802  0.0899
20324W        W24724  18.244   1.627  43.561 -0.0914 -0.2153  0.0918
20325W        W24725  19.810   4.493   7.114 -0.0131 -0.2177  0.1405
20326W        W24726  15.160   1.820  12.319 -0.2481  0.0560 -0.0700
20327W        W24727   6.925   0.331  11.285  0.1653 -0.0510  0.3593
20328W        W24728  17.971   6.101  15.806 -0.1936  0.0010 -0.1395
20329W        W24729  16.697   1.980   1.204  0.2251  0.2037 -0.2198
20330W        W24730   5.691   3.305  16.092  0.0771 -0.0959  0.0576
20331W        W24731  15.992   5.803  10.218  0.0854 -0.1783 -0.0604
20332W        W24732  17.447   5.088   9.767 -0.1856 -0.3196  0.0034
20333W        W24733  11.394   2.915  24.520 -0.0603  0.0548 -0.2141
20334W        W24734   9.507   1.261  35.714  0.2187 -0.1475 -0.3004
20335W        W24735   6.809   0.979   3.342 -0.1792 -0.1105 -0.3710
20336W        W24736  17.534   4.436  39.814  0.2910  0.0289 -0.0500
20337W        W24737   1.800   0.391   8.859  0.0747 -0.0757 -0.0968
20338W        W24738  16.994   2.838  34.651 -0.0363  0.1521  0.4537
20339W        W24739   3.333   5.667  30.852  0.0284 -0.0039 -0.0465
20340W        W24740   1.642   3.610  23.008 -0.2052 -0.2239  0.0963
20341W        W24741   1.566   1.827  29.853 -0.0261  0.0107 -0.0642
20342W        W24742   8.643   4.110   7.460 -0.2648  0.0560 -0.2192
20343W        W24743  19.965   3.602  23.665  0.0164 -0.1104 -0.1671
20344W        W24744  13.105   5.763  29.756 -0.1051 -0.0846 -0.0936
20345W        W24745   6.927   2.589  10.132  0.1279  0.2283  0.2159
20346W        W24746   1.566   6.326  30.919  0.2353  0.1554  0.1256
20347W        W24747   2.365   5.768  11.613 -0.1307 -0.0880 -0.0456
20348W        W24748  14.651   0.045  39.969  0.0034 -0.2155 -0.0389
20349W        W24749  15.016   2.640   4.809 -0.0573  0.2114 -0.1207
20350W        W24750   8.098   4.751  18.229 -0.0256 -0.0277  0.0183
20351W        W24751  17.796   4.854  27.625 -0.2550  0.3303  0.1676
20352W        W24752   1.632   2.322  29.920  0.1315 -0.0211 -0.1331
20353W        W24753  18.435   1.365  39.812 -0.0000  0.1193  0.2962
20354W        W24754   7.220   6.164  32.889  0.0496 -0.0647 -0.2159
20355W        W24755   0.951   1.927  29.245 -0.1751  0.3680  0.1112
20356W        W24756  16.892   5.750  39.886  0.0707 -0.0132 -0.0874
20357W        W24757   0.836   4.151  42.550  0.0979 -0.0218  0.1353
20358W        W24758   8.756   6.039  30.130  0.1391  0.0304  0.0102
20359W        W24759   7.985   2.109   9.690  0.1728 -0.4535 -0.1140
20360W        W24760   6.027   0.842  15.342 -0.0650  0.0608 -0.1228
20361W        W24761  16.195   0.058  12.936  0.1326 -0.0289  0.3196
20362W        W24762  10.921   6.161   5.841  0.1728  0.1525 -0.1409
20363W        W24763   1.411   1.801   2.507 -0.0074 -0.1002 -0.2558
20364W        W24764  13.386   5.839  41.432 -0.0781 -0.1563  0.0624
20365W        W24765   8.305   3.077   2.173 -0.2116  0.1263  0.3256
20366W        W24766   1.225   1.357  35.032  0.1976  0.0679  0.1234
20367W        W24767   5.444   2.395  12.135 -0.0357 -0.0115  0.3478
20368W        W24768   7.126   3.456  30.978  0.1048  0.0606  0.2151
20369W        W24769  18.452   1.852   0.876 -0.4585  0.0480  0.1417
20370W        W24770  13.324   4.159  12.250  0.2457  0.0923  0.0265
20371W        W24771   7.308   2.676  19.942  0.2776  0.0635  0.0908
20372W        W24772   6.495   6.171  40.607 -0.0263  0.1649 -0.2686
20373W        W24773  20.406   2.785  25.578  0.0002  0.1476  0.1373
20374W        W24774  17.346   1.260  36.317 -0.1201  0.1276  0.0125
20375W        W24775   6.013   3.648  13.216  0.0663 -0.0515  0.1645
20376W        W24776   3.323   3.839   3.676  0.3446 -0.3290 -0.1510
20377W        W24777   8.892   6.537  22.048 -0.1278 -0.2192  0.5662
20378W        W24778   2.545   5.640  31.705  0.1012  0.1776  0.3460
20379W        W24779   2.909   0.945  36.847 -0.1608 -0.2608  0.1503
20380W        W24780  14.238   3.782  29.967 -0.2171 -0.2863 -0.0051
20381W        W24781  15.445   0.775  32.633  0.0742  0.0697 -0.3698
20382W        W24782  20.134   3.742  25.858  0.1086  0.1090 -0.2328
20383W        W24783   4.777   0.323  43.632  0.1292  0.1667 -0.0716
20384W        W24784  18.532   2.274  26.172  0.0378 -0.0888  0.2560
20385W        W24785   4.956   3.526  38.351  0.2706 -0.0498  0.0461
20386W        W24786  19.634   5.844   6.957  0.0939  0.2582 -0.1801
20387W        W24787  14.251   1.050  16.586 -0.1444 -0.0152  0.0151
20388W        W24788  17.003   2.561  44.026 -0.1200  0.0725 -0.4192
20389W        W24789   7.853   1.350  44.674  0.0605 -0.2728 -0.2540
20390W        W24790  12.968   1.628  10.297  0.1495  0.0472 -0.0884
20391W        W24791   0.545   4.356  27.402  0.1089 -0.2424 -0.0314
20392W        W24792  12.654   4.408  14.776 -0.1411 -0.1483  0.1548
20393W        W24793  18.595   0.516  24.747  0.1006 -0.1336  0.2908
20394W        W24794  12.519   5.341  14.669  0.1269  0.0417  0.2351
20395W        W24795  14.485   0.938   8.687  0.1675  0.0806 -0.0399
20396W        W24796   3.581   2.997  11.222 -0.0388 -0.1862 -0.1477
20397W        W24797  17.734   3.146  12.300  0.3361  0.0735 -0.3101
20398W        W24798   3.529   3.529  13.727 -0.1840  0.4519  0.0360
20399W        W24799   0.814   3.950  25.607  0.0394  0.2240 -0.0209
20400W        W24800  15.929   3.582  27.806 -0.0317  0.1438  0.1967
20401W        W24801  12.619   0.694  42.400 -0.1382  0.1678 -0.3054
20402W        W24802  18.823   1.350  43.409  0.2179 -0.0979 -0.1765
20403W        W24803  16.936   4.411   3.897 -0.1195  0.0111  0.3140
20404W        W24804  18.457   1.444  27.915 -0.1507  0.4171 -0.1261
20405W        W24805  10.467   2.101  35.557  0.1286  0.3537 -0.2216
20406W        W24806   1.675   4.780  12.163 -0.0792  0.1916  0.2637
20407W        W24807  20.192   3.804  31.289 -0.0380 -0.3767  0.0908
20408W        W24808  20.236   4.605  45.011  0.2499 -0.1080  0.3975
20409W        W24809  13.610   2.790  41.687 -0.0968 -0.1393 -0.0376
20410W        W24810  16.638   3.591  10.833  0.0256  0.1989 -0.1212
20411W        W24811  10.169   1.651  20.490 -0.1167  0.0548 -0.0844
20412W        W24812   2.577   3.906  16.001 -0.0309 -0.0329  0.2493
20413W        W24813   8.399   3.419  22.684  0.3287  0.2757  0.3072
20414W        W24814   0.701   2.067  22.769  0.0596  0.2188 -0.1265
20415W        W24815   8.809   2.387  29.691  0.2601  0.0305 -0.1962
20416W        W24816   0.364   1.120  27.010  0.0911 -0.0898  0.0279
20417W        W24817  11.463   5.811  44.481 -0.0856 -0.1329  0.1285
20418W        W24818   9.100   1.947  19.849  0.0321  0.2942 -0.1378
20419W        W24819   2.214   0.364  16.132  0.0048 -0.0621  0.2725
20420W        W24820  19.750   4.122  28.501  0.0500  0.1425 -0.0159
20421W        W24821  12.459   5.615   5.476 -0.0051  0.0473  0.2169
20422W        W24822  16.591   2.953  24.333  0.3209  0.0531 -0.0597
20423W        W24823  14.449   0.293  33.673 -0.3674 -0.1212 -0.0832
20424W        W24824  13.274   5.804  19.392 -0.0925 -0.2162 -0.0545
20425W        W24825   0.983   4.563   4.856  0.1331  0.0899  0.1637
20426W        W24826  17.905   6.394  28.783 -0.0036 -0.1015  0.1672
20427W        W24827   7.562   0.864  18.257  0.0529 -0.0642 -0.4526
20428W        W24828   1.100   2.067  13.270  0.2450  0.2769 -0.2308
20429W        W24829  20.996   1.582  14.149  0.0032 -0.1689  0.1587
20430W        W24830   8.453   4.089   5.280  0.0975 -0.0351  0.1205
20431W        W24831   7.936   3.744  39.288 -0.1326 -0.1981  0.1298
20432W        W24832   9.001   5.862  34.939 -0.0115  0.2282  0.0962
20433W        W24833  14.715   4.448  16.656 -0.2329  0.3912 -0.1004
20434W        W24834  15.779   0.711   2.723 -0.2703 -0.1364  0.2152
20435W        W24835  13.708   3.759  18.065  0.1093  0.0384  0.2325
20436W        W24836  11.041   0.435  16.328 -0.1972 -0.2600  0.2950
20437W        W24837  17.292   0.214  25.209 -0.0802 -0.1318 -0.0671
20438W        W24838  13.535   2.614  27.403 -0.2254  0.0348  0.0491
20439W        W24839   9.643   5.246  40.773  0.1116  0.2336 -0.2670
20440W        W24840  10.009   2.818  36.586 -0.0357 -0.3890 -0.1305
20441W        W24841   4.081   1.145   7.647  0.1238  0.3038 -0.1638
20442W        W24842  15.096   6.296   6.088  0.1477  0.0331 -0.0767
20443W        W24843  18.535   6.096  12.357  0.2954 -0.1154  0.1270
20444W        W24844   6.783   1.568  15.000  0.1111 -0.1427  0.0292
20445W        W24845  13.429   1.923  16.141 -0.0289 -0.3406  0.2702
20446W        W24846   6.771   5.854  41.596 -0.0071 -0.0151  0.0298
20447W        W24847  15.207   4.721  28.831 -0.0530  0.0889 -0.0497
20448W        W24848   9.591   5.033  15.666 -0.1218  0.1072 -0.0862
20449W        W24849  14.304   0.246  14.517 -0.2982  0.1209 -0.1214
20450W        W24850  18.478   0.539   6.544  0.0357  0.0807  0.0468
20451W        W24851  16.667   5.959  13.630  0.2621  0.1055  0.2152
20452W        W24852   2.384   1.118  13.695 -0.0242 -0.0147 -0.0077
20453W        W24853  20.368   5.414  12.860 -0.1362  0.0670 -0.2961
20454W        W24854   6.669   1.860  18.785 -0.1594  0.0166 -0.2213
20455W        W24855   4.998   6.181  28.259 -0.2205  0.1513 -0.0822
20456W        W24856   8.440   0.217   2.573  0.0790 -0.1924 -0.2548
20457W        W24857  12.632   6.301   0.999 -0.0263 -0.0408 -0.3499
20458W        W24858  15.229   4.895  11.690  0.1572  0.0080 -0.0836
20459W        W24859  13.732   5.915  11.742 -0.1910 -0.0014 -0.3064
20460W        W24860  11.364   6.601  19.946  0.0916  0.0115  0.0729
20461W        W24861  16.375   3.382   3.240  0.0483 -0.0680  0.1620
20462W        W24862  16.743   4.009  13.719  0.2130 -0.2719 -0.0087
20463W        W24863   9.243   4.524   3.452  0.3466 -0.0795 -0.1033
20464W        W24864  13.215   3.456  13.366 -0.4099  0.0635 -0.0669
20465W        W24865  19.941   6.223  41.136  0.2407  0.2221 -0.1583
20466W        W24866  10.470   4.152  41.100  0.0206  0.4191 -0.0751
20467W        W24867   1.844   6.451  25.411 -0.1547 -0.1285  0.0317
20468W        W24868  19.111   1.127   6.014 -0.2061 -0.2283 -0.1642
20469W        W24869   7.185   6.081  17.441 -0.0506  0.0811  0.2537
20470W        W24870   5.928   6.000  13.055 -0.0877  0.3530 -0.0284
20471W        W24871  18.810   3.142  23.431  0.1726  0.1689 -0.1656
20472W        W24872  11.768   3.793  29.365  0.0114 -0.0685  0.1770
20473W        W24873  12.720   0.565   3.930  0.0599  0.0698 -0.1170
20474W        W24874   9.361   1.842  21.078  0.1052 -0.1026 -0.2340
20475W        W24875   9.100   4.312  44.077  0.2396  0.1120 -0.0006
20476W        W24876  12.460   0.720   3.112  0.0665 -0.1772 -0.2801
20477W        W24877   3.372   3.711  32.299 -0.1964  0.1772  0.0812
20478W        W24878  16.163   2.454  44.414  0.0370  0.1610 -0.1541
20479W        W24879  19.312   0.061  34.374 -0.0473 -0.1390  0.1025
20480W        W24880   1.416   3.879   4.334  0.0438 -0.0507 -0.1684
20481W        W24881  14.997   0.724  36.053 -0.0363 -0.0126 -0.0493
20482W        W24882   0.040   1.156  44.929  0.4238 -0.0023 -0.1546
20483W        W24883   0.893   0.455  37.628 -0.1904 -0.2217 -0.1371
20484W        W24884  12.417   2.211  44.829  0.0573  0.0120 -0.1409
20485W        W24885  18.034   3.411  23.423 -0.0726  0.0957  0.2990
20486W        W24886   8.398   5.824   9.771 -0.2343 -0.1828 -0.1133
20487W        W24887   8.860   0.932   9.355  0.1568  0.1192  0.0119
20488W        W24888   8.323   0.687  44.373  0.0656 -0.1371  0.0204
20489W        W24889  17.665   3.095  41.527 -0.1182 -0.1267 -0.0617
20490W        W24890   6.263   2.062  10.238 -0.0750 -0.1502 -0.0031
20491W        W24891  15.571   5.677  32.032 -0.2126 -0.1725 -0.0319
20492W        W24892   4.589   6.014  18.975  0.2049  0.1079  0.3439
20493W        W24893   8.484   6.045  43.959  0.2934 -0.2088  0.0759
20494W        W24894   5.724   4.203   8.501  0.0147  0.0495  0.2492
20495W        W24895  20.014   6.322  31.933  0.2000  0.3756 -0.1648
20496W        W24896   4.530   6.530  44.462  0.1951 -0.3749  0.0425
20497W        W24897  15.193   4.247  14.320 -0.3335  0.0522  0.2329
20498W        W24898   1.377   2.095   4.708  0.2099  0.0259 -0.0465
20499W        W24899  16.251   4.403   0.573 -0.4375 -0.1893 -0.1083
20500W        W24900  14.327   3.607   0.661 -0.2800 -0.1869  0.1321
20501W        W24901  12.827   1.964  39.577  0.0070  0.1325 -0.1171
20502W        W24902   7.600   2.143  33.209  0.3028 -0.0310  0.0292
20503W        W24903  14.253   1.747  42.354 -0.3500  0.2372 -0.0323
20504W        W24904   4.285   2.798  37.068 -0.1201  0.0785  0.2582
20505W        W24905  10.597   3.088  23.119 -0.1510 -0.1754 -0.2071
20506W        W24906  14.813   1.281  31.113 -0.1549 -0.2494 -0.1525
20507W        W24907   6.834   5.815  12.343 -0.2505  0.0139 -0.1114
20508W        W24908   6.681   1.449   9.980 -0.2256 -0.0627 -0.3185
20509W        W24909  18.131   0.456   3.342 -0.2592 -0.0556  0.1202
20510W        W24910  20.818   1.095  39.510  0.0331 -0.0935  0.1707
20511W        W24911  20.604   0.064   7.719 -0.0107  0.2626  0.0764
20512W        W24912  17.514   6.063  30.881  0.0837 -0.1058 -0.1062
20513W        W24913  16.198   3.968   2.269 -0.0582  0.1584  0.1020
20514W        W24914   0.347   2.039  31.277  0.5123 -0.2853 -0.1082
20515W        W24915   0.529   5.921  23.915  0.1006  0.2571 -0.0773
20516W        W24916   7.132   3.273  34.022 -0.0582  0.0726 -0.1824
20517W        W24917  10.391   0.482   1.923 -0.2737  0.1499  0.0335
20518W        W24918   4.735   0.741  11.772  0.1947 -0.1827  0.2348
20519W        W24919   1.458   4.958  33.001  0.1816  0.0455  0.0288
20520W        W24920   9.640   5.629  43.135  0.1442  0.1898  0.0344
20521W        W24921   7.221   3.882   6.547  0.3876  0.0047  0.1636
20522W        W24922   0.786   3.746  29.311 -0.0824 -0.1306 -0.2159
20523W        W24923   5.101   5.237  35.941 -0.0496 -0.2397  0.4216
20524W        W24924   5.263   0.939  44.116  0.2187 -0.0108  0.1378
20525W        W24925  15.254   3.032  39.844 -0.0412  0.0207  0.0201
20526W        W24926   8.238   3.944  42.171 -0.4932 -0.3805  0.2096
20527W        W24927   5.401   4.641   6.350  0.1506  0.2899  0.2054
20528W        W24928   2.376   5.194  44.527  0.3006 -0.0421 -0.0441
20529W        W24929   4.557   5.822  16.232  0.1948  0.1288  0.1692
20530W        W24930  20.377   6.413  22.461  0.3379  0.1761 -0.0294
20531W        W24931   5.232   1.330  42.233  0.1302 -0.0266 -0.0037
20532W        W24932   3.453   3.203   7.831  0.1843  0.1658 -0.1216
20533W        W24933  17.271   0.435  10.721 -0.3049  0.1239  0.0124
20534W        W24934  10.594   4.085  36.776 -0.0788  0.0239  0.1753
20535W        W24935   7.513   3.348  32.399  0.2201  0.2464  0.0028
20536W        W24936   0.570   1.763  33.413 -0.1831 -0.3207 -0.0432
20537W        W24937   5.786   2.307  39.534  0.2382  0.1745  0.1798
20538W        W24938  13.961   5.239  14.023  0.0986 -0.2911 -0.2505
20539W        W24939   2.082   5.245   4.912 -0.0807 -0.1918  0.1040
20540W        W24940   2.091   4.265  25.081 -0.1799  0.0475  0.1166
20541W        W24941  11.241   1.556  12.260 -0.1894  0.1209  0.2768
20542W        W24942  13.064   3.906  38.673  0.1402  0.0141 -0.0874
20543W        W24943  12.842   0.405  40.017  0.0055  0.0968  0.2750
20544W        W24944   2.521   0.531  12.397 -0.2601 -0.1128 -0.4399
20545W        W24945  12.006   1.196   0.970 -0.1255 -0.0216  0.1679
20546W        W24946  15.448   0.594  14.586 -0.4023  0.1353 -0.2184
20547W        W24947  10.016   2.993   7.170  0.2886  0.4422  0.1505
20548W        W24948  10.082   5.388  42.917 -0.2876  0.1854  0.0644
20549W        W24949   8.119   5.573  10.376  0.1737  0.1399 -0.1949
20550W        W24950  19.552   4.757   8.016  0.4629 -0.0860  0.0529
20551W        W24951  19.787   2.068  10.503  0.0973  0.1648 -0.2056
20552W        W24952   7.918   4.915  43.300  0.0798  0.1744  0.0932
20553W        W24953  14.232   3.732  15.105  0.0630 -0.0302  0.1202
20554W        W24954  10.983   3.328  36.885 -0.2353 -0.2359  0.2937
20555W        W24955   4.479   2.241  32.100 -0.4677  0.1112 -0.1657
20556W        W24956  18.464   4.385  34.144  0.0709 -0.0756 -0.0046
20557W        W24957  13.033   2.186  43.636 -0.0637 -0.1512  0.0605
20558W        W24958   9.703   2.399  33.879  0.2090  0.2084 -0.0504
20559W        W24959   7.947   3.545  36.232  0.2688  0.0862 -0.0793
20560W        W24960  18.433   5.880  31.183  0.1359  0.3139  0.0817
20561W        W24961  20.109   0.493  43.648 -0.0842  0.2903  0.0453
20562W        W24962   2.772   3.490  38.377 -0.3655  0.0137  0.1345
20563W        W24963   7.275   2.091  30.093 -0.1378 -0.2941  0.4513
20564W        W24964  19.979   2.130  24.765  0.0897  0.0165  0.2916
20565W        W24965   6.307   3.537  19.513  0.2895 -0.0243  0.1469
20566W        W24966  18.643   6.204  22.783  0.0461 -0.1646  0.1370
20567W        W24967   5.114   5.464  39.333  0.0660 -0.0362 -0.0738
20568W        W24968   9.566   5.444  10.474 -0.2504  0.0412 -0.1312
20569W        W24969  16.063   1.763  10.121  0.1185  0.1203  0.2089
20570W        W24970  13.817   3.041  32.985 -0.2277  0.2750 -0.2829
20571W        W24971  11.000   1.330  39.414 -0.2276 -0.1131 -0.0068
20572W        W24972   2.111   3.965   8.680 -0.0287 -0.0767  0.1824
20573W        W24973   2.667   3.323  30.081 -0.0449 -0.1771  0.2881
20574W        W24974  17.096   5.347  44.470  0.0038  0.3615  0.0194
20575W        W24975  17.174   4.945   1.548 -0.0893  0.0713  0.1977
20576W        W24976  11.589   2.736   2.276  0.1345 -0.0074  0.1565
20577W        W24977   1.886   3.442   5.723 -0.3965  0.0678 -0.0589
20578W        W24978   4.773   4.376  38.401  0.1447 -0.0070 -0.0494
20579W        W24979   2.953   0.413  27.044  0.4277 -0.0860 -0.2047
20580W        W24980  15.900   3.177  36.360  0.3161  0.1555  0.1613
20581W        W24981   8.047   2.457  12.934  0.2411  0.0191  0.0301
20582W        W24982  10.239   5.165   9.198 -0.0750 -0.1531  0.2508
20583W        W24983  10.716   6.064  35.113  0.1171  0.0861 -0.0477
20584W        W24984  16.193   2.269  33.358  0.2432 -0.0858 -0.3181
20585W        W24985   9.588   4.762  37.874 -0.2060  0.0550  0.0398
20586W        W24986  12.531   3.190  42.474 -0.0287  0.0808 -0.3191
20587W        W24987  18.454   1.399  40.537 -0.0126 -0.1025 -0.1891
20588W        W24988  17.901   2.716  28.965 -0.0985  0.2490  0.2541
20589W        W24989   9.503   1.599  41.292  0.1082  0.1446  0.1674
20590W        W24990  10.439   1.353  13.529 -0.0269 -0.1658 -0.0316
20591W        W24991  17.316   6.326  41.292  0.0535  0.0565  0.0717
20592W        W24992  19.262   5.795  23.275 -0.0974  0.1004 -0.1950
20593W        W24993   1.846   4.950  35.116 -0.1362  0.0067 -0.0595
20594W        W24994   8.168   0.434  11.812  0.2757 -0.2648  0.4193
20595W        W24995   5.717   0.020   3.239 -0.0190  0.0037  0.0377
20596W        W24996   4.666   4.859  32.233 -0.1386 -0.1592  0.1879
20597W        W24997  18.142   0.029   7.541 -0.2065 -0.0910  0.0007
20598W        W24998  15.912   6.057  25.865 -0.2498  0.1039  0.1308
20599W        W24999  15.445   6.512   5.107 -0.0355  0.1976 -0.1493
20600W        W25000  11.901   0.160  15.293 -0.0003 -0.0930 -0.1424
20601W        W25001  19.296   0.197   0.878  0.1559  0.2283 -0.2164
20602W        W25002   4.952   4.954  31.190 -0.1914  0.1623 -0.0093
20603W        W25003  11.556   3.873  23.405  0.3534  0.3183  0.0952
20604W        W25004   7.619   0.245  17.651  0.1148 -0.0356  0.1651
20605W        W25005  18.060   4.385   0.399  0.1914  0.1687  0.1565
20606W        W25006  11.898   3.757  20.197 -0.1974  0.0937 -0.1618
20607W        W25007  18.181   4.188  42.828 -0.0223  0.0529 -0.3521
20608W        W25008  19.389   0.103  26.595  0.2292 -0.1350 -0.0262
20609W        W25009  21.008   0.151  26.604  0.0439  0.0679  0.0427
20610W        W25010   8.159   2.090  16.410  0.0172 -0.1373 -0.2757
20611W        W25011  15.362   3.803  13.993 -0.0632  0.2592  0.1065
20612W        W25012   8.266   5.966  18.514 -0.0621  0.1894 -0.0174
20613W        W25013  13.038   2.755  17.313  0.0884 -0.0950 -0.0436
20614W        W25014  13.906   0.378   8.293  0.0981  0.1400 -0.1074
20615W        W25015   8.026   4.500  22.998 -0.2475 -0.0151 -0.0073
20616W        W25016   5.878   0.577   6.608 -0.3172 -0.1395 -0.1093
20617W        W25017   9.536   2.159  18.432 -0.1324 -0.1179 -0.2064
20618W        W25018   4.833   5.037   3.102  0.0160 -0.0677 -0.0501
20619W        W25019  15.514   1.285  34.994 -0.2458  0.1853 -0.0107
20620W        W25020  17.446   6.425   6.671 -0.0613 -0.2008 -0.0445
20621W        W25021   3.352   6.540   0.526 -0.1049 -0.0505  0.1193
20622W        W25022   1.986   1.597  44.831 -0.1316 -0.3303 -0.0287
20623W        W25023   5.494   2.175   3.934 -0.0097 -0.0514 -0.2762
20624W        W25024  14.084   2.745   4.759  0.1169  0.0421 -0.3856
20625W        W25025  16.444   4.282   3.289  0.1749  0.1267 -0.1522
20626W        W25026  15.245   5.175  29.042 -0.1135  0.0119 -0.0721
20627W        W25027   4.031   0.619  13.516 -0.1335  0.0048 -0.0373
20628W        W25028  20.765   1.444   0.564  0.2716  0.1077  0.0104
20629W        W25029  12.526   1.524  40.577 -0.1042  0.0103  0.1205
20630W        W25030  18.365   1.349  27.453  0.0541  0.0833  0.0296
20631W        W25031  10.672   3.541  13.690 -0.2636 -0.2389 -0.0684
20632W        W25032   7.995   1.938  11.648  0.0854  0.0163  0.0701
20633W        W25033   9.224   1.405  29.084 -0.2427  0.0263 -0.0645
20634W        W25034  18.506   3.150  12.614 -0.1068  0.0082 -0.1521
20635W        W25035   1.488   5.772  28.190 -0.1099 -0.1167 -0.1805
20636W        W25036   6.877   5.293   2.031 -0.1959 -0.1938  0.0149
20637W        W25037   1.438   1.382  34.544  0.1692  0.3226  0.3189
20638W        W25038  18.307   3.589  24.655 -0.3493  0.0730 -0.1329
20639W        W25039   2.620   4.090  10.471 -0.2183 -0.1159 -0.2272
20640W        W25040  11.929   5.213   6.731  0.0217 -0.4746  0.0691
20641W        W25041  10.539   3.782  32.546  0.1209  0.1576  0.2803
20642W        W25042  12.608   6.286  12.759 -0.0436 -0.1300  0.0906
20643W        W25043   9.945   0.006  35.318 -0.0685  0.0451  0.1089
20644W        W25044   1.188   6.320  45.075 -0.5716 -0.1828 -0.2888
20645W        W25045  10.717   0.770   2.185  0.0854  0.2277  0.0521
20646W        W25046  17.903   4.613   7.405  0.1766 -0.0969  0.1284
20647W        W25047  10.727   2.669  25.193 -0.2355 -0.0736 -0.2025
20648W        W25048  10.017   4.279   5.960 -0.5286 -0.1097 -0.0732
20649W        W25049   4.641   5.648   6.315 -0.0851 -0.1406  0.0380
20650W        W25050   2.733   4.611   2.106  0.1622  0.0915 -0.1977
20651W        W25051   8.033   4.098  21.158 -0.0984 -0.1809  0.0834
20652W        W25052  21.135   1.787  42.975  0.0425  0.1332  0.1448
20653W        W25053  20.382   2.019  21.436 -0.1477 -0.2192  0.1469
20654W        W25054  11.687   2.748  30.896 -0.2041 -0.1760  0.2630
20655W        W25055   1.891   0.605  11.109  0.0823  0.2621 -0.0339
20656W        W25056  10.636   5.556  23.794  0.1545  0.0717 -0.0791
20657W        W25057   1.091   1.671  14.302  0.0061 -0.3114  0.0522
20658W        W25058   1.455   2.579   2.244 -0.0026  0.0920 -0.0035
20659W        W25059   8.005   0.597   2.575 -0.1987  0.1169 -0.1507
20660W        W25060  20.767   2.193  26.856  0.0505  0.1091 -0.5742
20661W        W25061   8.949   0.552  19.906  0.0284 -0.3121 -0.1561
20662W        W25062  13.489   6.239  14.755 -0.0431 -0.0683  0.0065
20663W        W25063  16.495   4.902  14.771 -0.2840  0.1079 -0.1537
20664W        W25064  12.546   6.482  44.035 -0.5135  0.0670  0.0866
20665W        W25065  20.903   1.253   7.267  0.0981  0.0038  0.0865
20666W        W25066  15.865   3.738  35.603  0.3404 -0.3864  0.0159
20667W        W25067   8.981   5.651  38.931 -0.3176  0.2463  0.4308
20668W        W25068  16.639   3.554   9.647  0.0690 -0.2125  0.0711
20669W        W25069  18.596   0.864  32.221 -0.0635 -0.0857  0.1816
20670W        W25070   8.357   4.522  30.350 -0.0530 -0.0377  0.0116
20671W        W25071  15.969   5.765  11.817  0.0464 -0.2278 -0.2495
20672W        W25072   1.809   5.188   8.805 -0.0398 -0.0548  0.2182
20673W        W25073   0.263   3.111  35.419  0.2606 -0.1382 -0.4836
20674W        W25074  16.703   0.894   6.827  0.0749  0.4233  0.1254
20675W        W25075   2.823   6.447  12.817 -0.2998 -0.0352  0.1008
20676W        W25076  17.820   1.301   3.350  0.1937  0.0420 -0.0915
20677W        W25077  15.186   6.122  43.491  0.0285 -0.1965 -0.1589
20678W        W25078   6.861   0.620   3.763  0.1319 -0.0668  0.1466
20679W        W25079  19.534   0.022  21.783 -0.3117 -0.2303  0.0084
20680W        W25080   7.046   6.333  36.553 -0.2129 -0.0080 -0.1973
20681W        W25081  17.080   2.285  13.139  0.2823 -0.1340  0.0855
20682W        W25082  17.860   2.362  40.628  0.1516 -0.2712  0.0663
20683W        W25083   4.138   1.778  19.737 -0.0924  0.0445  0.0648
20684W        W25084  15.731   5.901   8.470 -0.0892 -0.2411 -0.1255
20685W        W25085   4.418   2.814  29.600  0.0349 -0.0406 -0.0200
20686W        W25086  13.853   4.943   5.973  0.1871 -0.2638  0.2332
20687W        W25087   9.254   4.650   1.047  0.0734 -0.0730  0.0809
20688W        W25088  10.172   6.270   4.158  0.2517 -0.0041 -0.0755
20689W        W25089  18.558   2.897  39.542  0.2571 -0.0662 -0.0273
20690W        W25090  14.482   4.288  29.898 -0.0002 -0.0590  0.1599
20691W        W25091   4.431   5.166  14.245  0.0357 -0.0818 -0.2103
20692W        W25092  16.287   2.127  35.651 -0.0930 -0.1628  0.0579
20693W        W25093  10.568   6.137  13.083 -0.1301  0.1529 -0.0095
20694W        W25094   1.074   6.011   9.491 -0.3828 -0.2555 -0.0283
20695W        W25095   0.327   1.154  43.802 -0.4269  0.3714  0.2413
20696W        W25096  19.099   6.047  34.916  0.2404 -0.1270 -0.0523
20697W        W25097  10.132   3.441  39.236 -0.1909  0.3040 -0.0640
20698W        W25098  15.998   4.424  16.618  0.0050 -0.0540 -0.0835
20699W        W25099  12.408   6.057   1.950 -0.0887 -0.0536 -0.1774
20700W        W25100  15.974   4.444  40.828 -0.0106 -0.0432 -0.0251
20701W        W25101  11.532   0.859   8.635  0.0655  0.4985  0.0593
20702W        W25102   6.293   3.601  11.016 -0.2157  0.4803 -0.2655
20703W        W25103   9.418   5.915  24.189 -0.1156  0.1145  0.1495
20704W        W25104   3.801   0.077  27.106  0.3349  0.3346 -0.0475
20705W        W25105   6.974   4.970  16.666 -0.5113 -0.1667  0.1658
20706W        W25106  13.148   1.215  39.343 -0.0067  0.2408 -0.1006
20707W        W25107   5.210   2.879   9.537  0.2046 -0.1379 -0.0891
20708W        W25108   0.944   6.150   5.148 -0.2627 -0.1233 -0.1691
20709W        W25109  14.110   0.654   8.645 -0.1319 -0.1939  0.0094
20710W        W25110  12.902   4.610  32.748  0.2939 -0.1017  0.0556
20711W        W25111   9.657   0.081  14.661  0.0099  0.1453  0.2919
20712W        W25112   3.258   5.027   4.529 -0.0569 -0.1048  0.1539
20713W        W25113   8.499   5.682  13.594  0.0391  0.1070 -0.0919
20714W        W25114   9.204   1.248  11.340 -0.1093  0.2051 -0.2144
20715W        W25115   8.318   0.517   6.549  0.2696 -0.1539 -0.0181
20716W        W25116  20.299   3.745  22.353  0.0731  0.0136 -0.0273
20717W        W25117   5.649   4.054  18.465  0.1359  0.1844  0.0323
20718W        W25118  13.035   0.458  28.806 -0.0149 -0.1479  0.2739
20719W        W25119   5.360   1.994  37.851  0.1827 -0.1174 -0.5593
20720W        W25120   1.421   1.552  33.517  0.4202 -0.0227  0.3581
20721W        W25121   3.033   2.899   9.924 -0.1861 -0.2108  0.2175
20722W        W25122  17.042   0.972  30.051  0.2814 -0.1484  0.0507
20723W        W25123   7.265   0.507  40.556 -0.1193  0.1201  0.3955
20724W        W25124   5.857   0.245  32.282  0.1405 -0.1199 -0.2269
20725W        W25125   5.723   5.489  32.009  0.0499  0.1600 -0.0040
20726W        W25126  18.893   6.016  30.999  0.0159 -0.0534 -0.1289
20727W        W25127   0.675   6.281   9.281 -0.0534  0.1606 -0.0353
20728W        W25128  17.099   2.436  38.865  0.2147  0.2449 -0.1372
20729W        W25129   6.040   4.348  16.041 -0.0436  0.0934  0.0293
20730W        W25130  17.601   5.887  21.796  0.2962  0.1101  0.2118
20731W        W25131   8.183   5.010  10.297 -0.0097 -0.0549 -0.0268
20732W        W25132   7.803   1.107  31.697 -0.2904  0.1437  0.0895
20733W        W25133   2.035   2.297  42.188 -0.1189  0.1835 -0.2230
20734W        W25134  17.570   1.456  24.007 -0.0229 -0.0014  0.2469
20735W        W25135   1.629   0.436  34.412 -0.0324 -0.2111 -0.2097
20736W        W25136  16.900   1.457   3.783 -0.1011  0.0367 -0.0675
20737W        W25137   5.653   2.180  10.511 -0.0437 -0.2375  0.0607
20738W        W25138  16.927   5.828  44.283  0.1604  0.1344  0.1783
20739W        W25139   8.615   5.221   7.730  0.1786 -0.2706  0.4763
20740W        W25140   4.056   2.335  10.969  0.2608 -0.0974 -0.2088
20741W        W25141  11.483   4.066  29.072 -0.1685  0.1046 -0.1128
20742W        W25142  12.193   2.197  18.484  0.0768  0.2001  0.0241
20743W        W25143  14.121   3.011   9.499  0.0073  0.1025  0.0716
20744W        W25144  15.538   2.307   9.527 -0.2175  0.2406 -0.0385
20745W        W25145  14.994   4.047  31.097 -0.1047  0.2544  0.3142
20746W        W25146  17.352   4.177  16.578  0.2278 -0.1133  0.0872
20747W        W25147  10.281   2.676  40.239 -0.1784  0.0278 -0.1498
20748W        W25148  10.349   2.252  19.908  0.1561  0.3887 -0.3940
20749W        W25149  13.157   3.527  27.491  0.3487  0.1817  0.0624
20750W        W25150   9.017   1.067   6.075 -0.1982 -0.0954  0.0007
20751W        W25151  12.799   2.827   5.816 -0.1202  0.1031  0.2030
20752W        W25152  18.668   3.459  36.097  0.3118  0.4508  0.1150
20753W        W25153   6.633   5.459  21.056  0.0745  0.2906  0.0317
20754W        W25154   5.427   6.344  40.422 -0.1409 -0.0533 -0.0200
20755W        W25155   9.790   4.779  35.404  0.1678  0.4803 -0.2160
20756W        W25156   6.305   1.587   8.985 -0.1143 -0.1541  0.0550
20757W        W25157   0.702   4.534  24.332 -0.2308  0.1492  0.0977
20758W        W25158  18.473   1.442   8.272  0.0536  0.0135  0.1862
20759W        W25159   3.888   2.989  31.641  0.0607 -0.0359 -0.2827
20760W        W25160   4.502   3.975  41.363  0.0425  0.1517  0.0284
20761W        W25161  11.720   6.144  33.598 -0.1672 -0.1700 -0.1306
20762W        W25162   9.455   2.135   5.126 -0.3764  0.2757 -0.1573
20763W        W25163   8.449   0.284  16.234  0.0095 -0.1597 -0.2237
20764W        W25164   8.527   2.545  34.680 -0.0567 -0.1322 -0.0997
20765W        W25165  17.631   2.708   2.149  0.1084  0.0786  0.1661
20766W        W25166  16.232   5.789  27.509  0.0103 -0.0638 -0.2540
20767W        W25167  15.123   0.177  31.737  0.1957  0.0065 -0.0245
20768W        W25168   8.376   4.409   4.775  0.0944  0.1856 -0.0156
20769W        W25169   0.615   3.997  32.068  0.1887 -0.2239 -0.0933
20770W        W25170  19.871   3.216  19.929 -0.1682 -0.0905 -0.1010
20771W        W25171  14.972   0.723  14.658 -0.0216 -0.1226  0.1303
20772W        W25172   2.613   5.413  43.939 -0.0581 -0.0362  0.0579
20773W        W25173   2.114   2.161  42.878 -0.4282  0.0529 -0.1182
20774W        W25174   5.354   6.509  18.826 -0.0429  0.1597  0.1056
20775W        W25175  12.228   2.947  42.869 -0.2069  0.0134  0.1081
20776W        W25176  10.845   3.575  35.987  0.1357  0.0074 -0.1406
20777W        W25177   3.317   4.601   1.970 -0.0428 -0.0513 -0.0166
20778W        W25178  20.220   0.773  39.217  0.1950 -0.0522 -0.1073
20779W        W25179  19.370   4.545  38.468 -0.3096 -0.2972  0.2963
20780W        W25180   3.993   0.452   5.184 -0.0316 -0.1511 -0.1708
20781W        W25181   9.202   4.932  11.689  0.0757  0.1567  0.1609
20782W        W25182   8.244   3.477  41.004  0.0352 -0.0782 -0.2371
20783W        W25183  18.982   5.169  32.652  0.0628 -0.0027 -0.0139
20784W        W25184   7.906   5.573  38.933 -0.0611 -0.1356  0.1446
20785W        W25185   3.219   4.493   8.480  0.0085 -0.3194 -0.1306
20786W        W25186  14.256   3.525  17.509 -0.0187 -0.1124  0.1269
20787W        W25187  12.399   5.048  39.003  0.2947 -0.1901 -0.0802
20788W        W25188  20.004   3.772   9.555  0.0192 -0.0715 -0.3373
20789W        W25189   6.514   6.252  16.756 -0.0052  0.0876  0.0595
20790W        W25190   2.801   6.319  26.042 -0.1727  0.4144  0.0891
20791W        W25191   0.860   1.677   8.193 -0.2527 -0.0506 -0.1508
20792W        W25192  19.751   4.541   3.655  0.1236 -0.0517  0.0130
20793W        W25193  20.648   5.751  42.721  0.0627 -0.2584 -0.1390
20794W        W25194  19.101   1.462  32.556 -0.0321  0.1191  0.2241
20795W        W25195  15.934   4.684  35.978 -0.0206  0.1970 -0.0313
20796W        W25196   8.861   3.738   8.683 -0.2232 -0.1918 -0.2241
20797W        W25197   1.990   1.000  35.212  0.0291  0.2985  0.0120
20798W        W25198  16.645   5.496  12.087 -0.4598  0.0539  0.0326
20799W        W25199   3.852   1.050  38.235 -0.1064 -0.2134  0.0421
20800W        W25200   7.944   4.078  23.221  0.2023  0.0098 -0.1273
20801W        W25201  15.595   2.279   0.285  0.2565  0.0655  0.1425
20802W        W25202  15.755   2.642   3.387 -0.0509  0.3058  0.0041
20803W        W25203  16.159   2.616   4.318  0.1117 -0.0685  0.4638
20804W        W25204  14.655   5.902  27.727 -0.0127 -0.0742 -0.1867
20805W        W25205   3.781   2.043  30.515  0.0352 -0.1027 -0.0135
20806W        W25206  12.471   5.829  14.751 -0.0790  0.2789  0.0362
20807W        W25207   6.623   0.243  32.756 -0.0842  0.0301  0.2825
20808W        W25208   0.328   4.083   9.676 -0.0436  0.0436 -0.3980
20809W        W25209  16.863   1.725  24.327  0.0381  0.2450 -0.0639
20810W        W25210   4.868   2.842  39.586 -0.1288  0.1986  0.3798
20811W        W25211  17.479   1.336   1.473 -0.2080  0.0183 -0.0511
20812W        W25212   8.007   6.196  44.630  0.3092  0.3201  0.1525
20813W        W25213  14.451   4.209  32.829  0.0444  0.1427  0.0287
20814W        W25214   7.606   4.564  18.469  0.0497 -0.0877 -0.0768
20815W        W25215  19.759   2.306  13.026 -0.0216 -0.1967 -0.3540
20816W        W25216  20.969   2.186  20.813  0.2198  0.1141 -0.1057
20817W        W25217   2.574   5.214  25.128 -0.2680 -0.0360  0.2373
20818W        W25218   7.469   1.099   1.716 -0.1165  0.2720  0.1270
20819W        W25219   0.759   1.370   3.297  0.0076 -0.4402  0.1013
20820W        W25220  19.212   2.691  42.516  0.2855 -0.5207 -0.1610
20821W        W25221   2.361   2.531  33.725  0.2658 -0.0711  0.1440
20822W        W25222   1.049   2.122  24.797 -0.3761  0.1024 -0.0564
20823W        W25223   2.591   1.766  41.488  0.0462  0.1488 -0.1071
20824W        W25224   0.320   4.492   3.547  0.0529 -0.3032  0.1656
20825W        W25225  20.616   5.336  29.095 -0.1252  0.0244  0.0529
20826W        W25226   1.228   0.220  30.317  0.0743  0.4534 -0.0743
20827W        W25227  11.439   0.170  22.091 -0.0864 -0.3022 -0.0682
20828W        W25228   6.616   5.878  32.167  0.3167 -0.0863  0.2237
20829W        W25229   2.626   2.356  44.737 -0.0624 -0.1324  0.0598
20830W        W25230  19.424   1.583   7.246 -0.1896  0.1783  0.1407
20831W        W25231   7.691   2.360  23.139  0.0041  0.3565  0.1684
20832W        W25232  14.307   6.246   0.218 -0.2037 -0.0564  0.1221
20833W        W25233   0.968   3.658   4.977  0.2678 -0.1121  0.3122
20834W        W25234   8.963   1.124  19.362 -0.1438  0.0589 -0.2542
20835W        W25235  12.289   3.462  28.531 -0.1135 -0.3452  0.0382
20836W        W25236   4.304   0.753  44.384  0.1917 -0.0155  0.0432
20837W        W25237   4.164   2.656  14.510  0.2150 -0.0434 -0.2806
20838W        W25238   9.091   3.508  33.237  0.2048  0.3611  0.1478
20839W        W25239  18.347   4.047  26.276 -0.4147  0.1546 -0.0555
20840W        W25240  16.969   1.675   6.130  0.1104  0.0430  0.2189
20841W        W25241  19.724   4.991   6.879  0.2017  0.0799 -0.2599
20842W        W25242  20.229   5.104  14.416  0.0140  0.1434 -0.0242
20843W        W25243  15.613   6.064   4.854 -0.1361  0.1549 -0.0076
20844W        W25244   7.807   6.499  19.076  0.0654  0.1219  0.0124
20845W        W25245  17.517   2.875  16.500  0.0899  0.1008 -0.1241
20846W        W25246  17.042   2.915  16.554  0.2216 -0.1544 -0.0601
20847W        W25247  17.128   0.016  13.539  0.1267  0.0451 -0.1476
20848W        W25248  13.701   4.853  14.687 -0.2152 -0.1171  0.4978
20849W        W25249   4.774   3.184  17.926  0.0589 -0.0520  0.2425
20850W        W25250   7.792   6.406  14.236 -0.1244  0.2136  0.1910
20851W        W25251  20.522   3.732  32.342  0.1441  0.2482 -0.0210
20852W        W25252   3.421   2.749   3.669  0.0755 -0.1745  0.1511
20853W        W25253   1.315   0.711  10.526 -0.0870  0.0925 -0.0256
20854W        W25254  10.024   0.845  18.917  0.3037 -0.1842 -0.1368
20855W        W25255   8.595   1.669  15.066  0.3776 -0.0596  0.0390
20856W        W25256   6.311   4.403  40.808  0.3424 -0.2143 -0.1221
20857W        W25257  20.663   5.398  35.594  0.0956 -0.0471 -0.1216
20858W        W25258   2.973   4.572  34.563 -0.2193 -0.2817 -0.1303
20859W        W25259  18.822   2.257  12.671  0.0592  0.0651 -0.1754
20860W        W25260   6.739   2.833  12.152  0.0429  0.0458 -0.1872
20861W        W25261   9.574   2.657   4.188  0.2067 -0.0993  0.0714
20862W        W25262  11.637   0.931  41.413  0.1150  0.0963 -0.1646
20863W        W25263   9.983   3.569   2.395  0.1401 -0.2371 -0.2000
20864W        W25264  19.207   2.931  10.744 -0.2225 -0.0751 -0.0911
20865W        W25265  17.611   1.021  24.583 -0.0746 -0.3123 -0.0175
20866W        W25266   3.341   1.407   8.319  0.1836  0.2120 -0.0507
20867W        W25267  12.805   6.149  21.187 -0.0660 -0.1165 -0.1178
20868W        W25268  10.342   1.782  12.413  0.0602 -0.1986  0.0943
20869W        W25269  19.773   5.059   4.741 -0.1555  0.0309 -0.0630
20870W        W25270  13.038   2.822  43.110 -0.1522 -0.4352  0.2535
20871W        W25271  11.328   5.467  20.043 -0.0669 -0.0233  0.0985
20872W        W25272  17.084   1.818  31.551  0.3326  0.1365 -0.1658
20873W        W25273   7.892   1.864  37.253 -0.1550 -0.2292  0.0639
20874W        W25274  21.020   0.400  14.381 -0.0626 -0.1395  0.1940
20875W        W25275  15.892   0.053  13.298  0.0920  0.2351 -0.1924
20876W        W25276   9.460   2.487  34.321 -0.1909 -0.0796  0.1596
20877W        W25277  20.203   0.302  13.527  0.0178  0.0845 -0.0166
20878W        W25278  12.892   5.220  41.888  0.1636  0.1314  0.0378
20879W        W25279   5.189   0.719  11.582  0.2921  0.2816 -0.0551
20880W        W25280  14.370   1.273  37.142  0.3820  0.1738 -0.1641
20881W        W25281  10.887   1.500   4.999 -0.1086 -0.1129 -0.2482
20882W        W25282   1.242   1.278  43.747  0.0990  0.0118  0.0954
20883W        W25283  10.701   3.560   7.818  0.0571  0.0734  0.0481
20884W        W25284   7.652   4.708  14.796 -0.0565  0.2099  0.0434
20885W        W25285   0.862   6.442  10.254 -0.0184 -0.0111 -0.2481
20886W        W25286   3.862   1.219  15.999 -0.0031  0.0360  0.1010
20887W        W25287   7.921   1.472   7.935 -0.1304 -0.0205  0.1905
20888W        W25288   4.861   0.689  17.052 -0.2469 -0.1068  0.2266
20889W        W25289  19.010   1.197  29.391  0.0609  0.0513 -0.1030
20890W        W25290   1.668   6.301   4.553 -0.0820 -0.2742 -0.2277
20891W        W25291  20.305   3.392  34.016  0.2597 -0.2772 -0.3266
20892W        W25292  18.594   3.219  38.496  0.1312  0.1510  0.5073
20893W        W25293  18.110   0.100  27.126 -0.1963  0.1809  0.1071
20894W        W25294  10.245   0.105  22.598  0.2989 -0.1758  0.2060
20895W        W25295   3.656   1.400  16.508  0.0220  0.2703 -0.3244
20896W        W25296  13.554   4.223   7.033  0.1664 -0.1397 -0.0282
20897W        W25297   5.999   3.634   2.883  0.2925  0.0775 -0.0299
20898W        W25298   1.846   3.556  11.708 -0.0359  0.1355 -0.1160
20899W        W25299   0.626   6.460  14.302  0.0655  0.3613 -0.1056
20900W        W25300   1.224   5.118   6.127  0.0887  0.1702  0.0187
20901W        W25301  15.559   3.543   1.841 -0.0745  0.1215 -0.0005
20902W        W25302  18.242   4.514   5.949 -0.3765  0.0754 -0.1079
20903W        W25303   9.051   2.474  42.234 -0.3369  0.0012  0.0162
20904W        W25304  17.610   0.641   7.821  0.0419  0.5808 -0.1264
20905W        W25305  12.986   1.070   6.171  0.0911  0.0462  0.1690
20906W        W25306  15.344   4.412  42.023  0.1584 -0.0422 -0.0517
20907W        W25307   2.615   4.426  11.883  0.0584 -0.0135 -0.1586
20908W        W25308  11.446   3.000  16.467 -0.0818  0.1628 -0.3318
20909W        W25309  16.303   4.980  42.428 -0.1530  0.1124 -0.0399
20910W        W25310  18.975   1.046  11.648  0.0232 -0.4765  0.1019
20911W        W25311  19.346   4.223  27.165  0.0184 -0.1087 -0.0104
20912W        W25312   2.609   5.326  16.415  0.2251 -0.3045  0.2010
20913W        W25313  17.357   2.495  27.526 -0.0594 -0.0523  0.0833
20914W        W25314  12.116   1.454  21.925 -0.0653 -0.0578 -0.0256
20915W        W25315  20.696   0.383  31.770  0.2476  0.2396  0.2605
20916W        W25316  13.322   6.249   7.343 -0.2221  0.0467  0.2373
20917W        W25317   0.556   4.937   0.847 -0.1269  0.0499 -0.1200
20918W        W25318  12.256   3.611  20.512 -0.2820  0.1666 -0.0355
20919W        W25319   3.283   4.734  11.888 -0.0374  0.0048 -0.0087
20920W        W25320   6.320   2.917   3.185  0.1486 -0.2073  0.3969
20921W        W25321  15.894   3.473   3.543  0.0143 -0.0774 -0.0418
20922W        W25322  19.586   2.432  10.033  0.2319  0.1038 -0.0414
20923W        W25323  19.244   1.007  41.313  0.1710 -0.1216 -0.2096
20924W        W25324   0.676   5.858  37.208  0.0616  0.0484 -0.2473
20925W        W25325  19.030   1.429  34.226 -0.2405 -0.1134  0.1345
20926W        W25326  13.158   5.770  39.786 -0.0246 -0.1198  0.1044
20927W        W25327   0.267   6.478  25.943  0.0074  0.1644  0.2600
20928W        W25328   3.604   4.506  31.593  0.1846  0.2849  0.1555
20929W        W25329  12.300   0.430  11.629  0.0496 -0.2288 -0.3015
20930W        W25330  13.493   1.732  10.230 -0.0579  0.3390  0.0060
20931W        W25331   1.719   0.270  42.691 -0.3428 -0.3066  0.1898
20932W        W25332  13.192   2.766   1.952  0.1481  0.0299 -0.0929
20933W        W25333   5.636   5.043  35.101  0.2120 -0.0997  0.1157
20934W        W25334   7.951   2.715  17.874  0.1330  0.2962  0.0746
20935W        W25335  15.705   1.967   3.778 -0.2228 -0.4070  0.0683
20936W        W25336   9.551   0.935   8.737 -0.1375  0.1401 -0.1047
20937W        W25337  20.701   4.745  43.836  0.4351  0.0484 -0.3452
20938W        W25338   0.399   4.350  42.207  0.1756 -0.0694  0.2974
20939W        W25339  20.359   5.575  43.451 -0.1340 -0.0852 -0.0806
20940W        W25340   6.198   5.879  43.594  0.0254 -0.1730  0.2719
20941W        W25341   3.671   1.612  10.077  0.1867  0.3322 -0.2531
20942W        W25342   8.560   6.321  43.330  0.1050  0.0455  0.0482
20943W        W25343  12.343   3.387  38.588 -0.0143 -0.2080  0.1285
20944W        W25344   3.086   5.021   2.217 -0.2411  0.1076 -0.1292
20945W        W25345  14.353   1.432  11.804  0.2509  0.0420 -0.1677
20946W        W25346   2.711   0.752  30.264 -0.0961  0.3698 -0.1310
20947W        W25347   1.064   3.603  10.628  0.0810  0.1813  0.2314
20948W        W25348  12.028   3.440  42.393 -0.0336  0.1518  0.0226
20949W        W25349  20.529   4.828   1.343  0.4731  0.1806 -0.2160
20950W        W25350   9.480   2.995  14.828  0.0773 -0.0401 -0.0691
20951W        W25351   6.012   0.150  13.438  0.0549 -0.0422 -0.2272
20952W        W25352   1.244   3.366   4.319 -0.5029 -0.2712 -0.2223
20953W        W25353   1.965   2.303  25.462 -0.0426  0.0369  0.1259
20954W        W25354  18.781   5.538  37.298 -0.2008  0.1110  0.0559
20955W        W25355  19.662   5.931  14.694  0.1567 -0.0304  0.0365
20956W        W25356  14.954   6.180   9.760 -0.1232  0.1683  0.0660
20957W        W25357  12.951   1.819  42.933  0.2328  0.1459  0.0638
20958W        W25358   4.333   3.839  33.187 -0.2936  0.2183 -0.2993
20959W        W25359  14.209   6.293  29.155  0.2177 -0.2187  0.0198
20960W        W25360   9.236   0.099  20.553  0.2344 -0.0854 -0.2353
20961W        W25361  16.026   4.169  10.913 -0.1016  0.2009  0.2934
20962W        W25362   9.525   0.904  36.074  0.2058 -0.0875 -0.2865
20963W        W25363   7.169   4.178  33.407 -0.0372  0.1834  0.1432
20964W        W25364   9.016   2.604  31.725  0.2237  0.0038  0.1207
20965W        W25365  15.966   4.112  33.935  0.0062  0.2419 -0.0118
20966W        W25366   5.379   1.217  17.841 -0.2983 -0.1129  0.1315
20967W        W25367  10.214   0.485   2.393  0.2178 -0.2606  0.3969
20968W        W25368  14.275   5.899   8.546 -0.0012 -0.0146 -0.4460
20969W        W25369  19.976   0.992  24.559  0.2305  0.0954 -0.4072
20970W        W25370   6.554   2.354  38.853 -0.2362  0.0875 -0.1257
20971W        W25371   6.655   1.353  10.822  0.3495  0.1202 -0.1874
20972W        W25372   4.410   3.123   9.764 -0.1305 -0.1003 -0.0626
20973W        W25373  11.433   6.368  19.492 -0.1626  0.0380  0.0222
20974W        W25374   5.829   5.190  35.541  0.3529 -0.0685 -0.4440
20975W        W25375   5.864   2.627  37.163 -0.0511  0.2623  0.1116
20976W        W25376  11.704   1.914   2.832  0.0698 -0.0655  0.0762
20977W        W25377   0.066   3.278  41.426 -0.1376  0.2097  0.0194
20978W        W25378  15.571   3.829   4.123 -0.1178 -0.0321  0.2199
20979W        W25379   2.624   1.962  24.339 -0.2211 -0.0165 -0.1778
20980W        W25380  19.186   5.369  12.812  0.0437 -0.1640  0.1319
20981W        W25381   4.681   1.866  43.674  0.1258  0.2805 -0.2481
20982W        W25382   3.454   5.983  38.614 -0.0047  0.4300 -0.0013
20983W        W25383  20.200   0.833  41.921  0.1823 -0.0207 -0.2496
20984W        W25384   4.363   2.755  13.394 -0.0512  0.0666 -0.0432
20985W        W25385  10.191   6.204  24.510 -0.0149 -0.0492  0.1002
20986W        W25386   8.164   4.978  20.586  0.0850 -0.0912 -0.0552
20987W        W25387   2.401   4.462   3.803  0.0440  0.1849  0.2500
20988W        W25388  13.330   3.564  44.209 -0.1742  0.1962  0.0932
20989W        W25389   7.398   2.345  31.980 -0.0149  0.0565 -0.0169
20990W        W25390   1.654   2.769   8.864 -0.2380 -0.2681 -0.2516
20991W        W25391  16.776   5.241  44.127 -0.1983  0.0095 -0.1527
20992W        W25392   8.334   4.708  36.911 -0.3099  0.3640  0.3001
20993W        W25393  15.584   5.474  17.827 -0.0691  0.1629  0.1184
20994W        W25394  15.267   1.774  34.280 -0.0844  0.0945  0.0418
20995W        W25395  17.240   3.677  33.391 -0.0480  0.0350 -0.1120
20996W        W25396   6.990   4.410  17.239  0.1320 -0.0623  0.0752
20997W        W25397   3.172   5.671  13.449  0.2019  0.0498  0.1408
20998W        W25398  20.416   4.551  37.517  0.1906  0.1915 -0.0880
20999W        W25399   0.509   1.498  42.669 -0.0153  0.0490 -0.1030
21000W        W25400  10.563   6.151  43.356  0.1158 -0.0757 -0.0036
21001W        W25401  14.378   0.777  37.662 -0.2317 -0.0272 -0.5546
21002W        W25402  15.392   5.098   7.299  0.0254  0.0279 -0.1787
21003W        W25403  19.605   6.444  24.545  0.0121  0.2075  0.0043
21004W        W25404  19.986   1.245  18.873 -0.1723 -0.0358  0.1350
21005W        W25405  15.092   0.637  30.059 -0.0828  0.0855 -0.2702
21006W        W25406  12.574   2.700  31.448  0.0204 -0.1258 -0.4077
21007W        W25407  13.421   0.848  34.808 -0.2019  0.0575 -0.0344
21008W        W25408   9.810   4.309  37.766 -0.2210 -0.0142  0.2096
21009W        W25409  14.026   1.214  12.696 -0.1516 -0.0930  0.0615
21010W        W25410  15.498   5.862  34.535  0.1520  0.0663  0.2451
21011W        W25411   1.490   0.379  43.833 -0.0981 -0.0981  0.0371
21012W        W25412  10.291   1.481  36.195 -0.0525  0.0726 -0.3151
21013W        W25413  19.960   0.083  33.426 -0.0632 -0.1776 -0.4435
21014W        W25414   5.937   4.459  39.380 -0.0347 -0.1351 -0.1411
21015W        W25415  11.678   2.854  20.991  0.0469  0.2732  0.0466
21016W        W25416  16.854   5.984   7.969 -0.1568 -0.0089 -0.3132
21017W        W25417   0.389   1.262  13.176  0.0077  0.0518  0.1008
21018W        W25418   8.704   4.585  43.892 -0.1101 -0.0605 -0.0340
21019W        W25419  11.988   0.617  35.933  0.0289 -0.2519  0.1911
21020W        W25420   9.282   4.620   2.284  0.0441 -0.0701 -0.2669
21021W        W25421  15.198   5.061  39.123 -0.0436  0.0393 -0.1149
21022W        W25422   1.063   5.397   5.609 -0.1033  0.2030  0.1768
21023W        W25423  17.063   0.161  16.451  0.0767 -0.1647 -0.1334
21024W        W25424   8.526   2.275  11.824  0.0297  0.1157  0.3686
21025W        W25425   7.852   1.749  34.217  0.0016 -0.2765 -0.3574
21026W        W25426   3.003   5.776  34.112  0.2337  0.1645 -0.1900
21027W        W25427   7.590   3.274  13.018  0.0508 -0.3610  0.1477
21028W        W25428  18.139   0.599   1.830  0.0948 -0.2043  0.0440
21029W        W25429  20.331   5.493  20.370 -0.2723  0.1995 -0.0233
21030W        W25430  11.401   2.396  31.394  0.1087 -0.0989 -0.4046
21031W        W25431  19.447   0.059   9.372 -0.0445  0.0098 -0.0686
21032W        W25432   8.054   2.833  15.083 -0.0070  0.0997 -0.0850
21033W        W25433  12.422   5.601  36.396 -0.1881 -0.0039  0.0789
21034W        W25434  17.966   1.331  24.259 -0.1739 -0.2991  0.1913
21035W        W25435   5.314   1.371  14.820 -0.1149 -0.2948 -0.1014
21036W        W25436   3.534   1.819  26.896 -0.4854  0.0634 -0.1013
21037W        W25437  19.233   4.104   6.607 -0.1064  0.0460  0.0209
21038W        W25438   9.021   5.754  17.553  0.0987 -0.2447 -0.1541
21039W        W25439   4.023   2.283  39.310  0.2872  0.3310 -0.0955
21040W        W25440  15.318   1.180  17.740  0.1725 -0.0036 -0.2100
21041W        W25441   7.885   2.247   4.813  0.1528 -0.2194 -0.0481
21042W        W25442  13.696   2.911  14.592 -0.1745 -0.3333  0.0035
21043W        W25443  14.555   6.032  44.255  0.0730 -0.0894 -0.1613
21044W        W25444  17.581   3.721  29.308  0.0270 -0.1088  0.1998
21045W        W25445  13.412   2.503   8.751  0.0352  0.1601  0.1614
21046W        W25446   9.579   3.358  33.368 -0.0815  0.2993  0.0358
21047W        W25447  19.030   3.642  34.064 -0.2458  0.2690 -0.2284
21048W        W25448  20.475   6.256  14.373 -0.0072  0.1623  0.0435
21049W        W25449   0.199   0.011  37.454 -0.2386  0.2249  0.1676
21050W        W25450   9.220   3.392   6.065  0.1332  0.1972  0.1929
21051W        W25451  18.414   4.521  14.238 -0.0308  0.0559 -0.4904
21052W        W25452   9.924   1.358  13.339  0.1900 -0.2318 -0.0361
21053W        W25453  18.130   4.608  33.726  0.1918  0.2839  0.0721
21054W        W25454   7.613   5.560  11.150  0.0135 -0.0401  0.1370
21055W        W25455   6.246   6.292  41.297  0.0653 -0.1459 -0.1356
21056W        W25456   4.109   3.723  12.511 -0.0507 -0.2382 -0.1656
21057W        W25457  17.153   6.036   7.577 -0.3483  0.2481  0.1598
21058W        W25458  10.013   5.783  29.891  0.0313 -0.3624 -0.1235
21059W        W25459  20.118   4.009  25.447  0.1742 -0.1127  0.0347
21060W        W25460  13.785   0.294  39.657  0.0565  0.2144 -0.1162
21061W        W25461   7.362   1.288   2.710  0.0148  0.1309  0.2031
21062W        W25462   1.834   1.058  12.458  0.0232 -0.1741 -0.2494
21063W        W25463  12.528   5.273  18.171 -0.0880 -0.1087  0.0263
21064W        W25464   4.834   3.356  37.620 -0.0076  0.1483 -0.0923
21065W        W25465   3.450   3.607   0.426  0.1016  0.1955 -0.2717
21066W        W25466  21.047   3.399   1.304  0.0023 -0.0806 -0.5519
21067W        W25467   4.937   6.564  14.605 -0.0317 -0.0194  0.4109
21068W        W25468   0.188   4.328  10.127 -0.2104 -0.0432 -0.2463
21069W        W25469   2.542   5.286  13.419  0.0854 -0.1151 -0.0981
21070W        W25470  10.577   6.254  15.626  0.0459 -0.1632 -0.0081
21071W        W25471   9.202   6.279  42.950 -0.2088 -0.1674  0.2002
21072W        W25472  17.730   4.896  42.412  0.1953  0.0274  0.2006
21073W        W25473  11.513   6.027  42.651 -0.1953 -0.0208 -0.0985
21074W        W25474   5.399   0.244  10.644 -0.1290  0.2062  0.2205
21075W        W25475  10.185   0.611  22.620 -0.2995  0.1038  0.1252
21076W        W25476  14.006   4.097  43.835  0.2405  0.0159  0.2524
21077W        W25477  15.041   1.051   2.327 -0.2699 -0.3396 -0.2003
21078W        W25478   8.573   5.019  14.611  0.2571  0.0705 -0.0958
21079W        W25479   3.196   0.014  40.478 -0.0128  0.2893 -0.3375
21080W        W25480  13.349   3.516   9.413 -0.1272  0.1132 -0.0964
21081W        W25481  12.353   3.719  17.020  0.0743  0.0492  0.0055
21082W        W25482   3.001   1.922  16.916 -0.0982  0.0079  0.0681
21083W        W25483  15.243   5.664  17.257 -0.0170  0.0160  0.0170
21084W        W25484   6.867   2.885  39.874 -0.2166  0.0014  0.0067
21085W        W25485  20.615   0.900  29.644 -0.1075  0.1838 -0.2901
21086W        W25486   6.179   2.401  10.562  0.2433  0.1841  0.0359
21087W        W25487  14.890   0.044  32.817  0.2380  0.0440  0.1057
21088W        W25488  11.680   5.412  40.046 -0.2877 -0.0638  0.0940
21089W        W25489  19.579   3.968  24.219  0.0672 -0.1346  0.1102
21090W        W25490   2.138   0.702  44.050  0.0458 -0.2248  0.1231
21091W        W25491  14.138   5.792  36.270  0.3501  0.1665  0.0260
21092W        W25492   0.566   3.352  41.899 -0.0106 -0.1094 -0.1869
21093W        W25493   2.183   5.108  39.144 -0.0721 -0.1157 -0.0849
21094W        W25494  10.796   2.343   2.307  0.2974  0.1432 -0.0219
21095W        W25495   2.932   6.401  42.473  0.0855  0.0820  0.0079
21096W        W25496  17.834   3.843   5.223  0.0481 -0.0005 -0.0291
21097W        W25497  19.644   0.207  12.527 -0.0827  0.2489  0.0942
21098W        W25498  20.007   1.330  33.027  0.0237 -0.0740 -0.0351
21099W        W25499  19.728   1.764  10.915  0.0386 -0.0914  0.1177
21100W        W25500  12.741   1.178  11.110 -0.1496  0.0736  0.1233
21101W        W25501  14.526   0.813  10.600 -0.1151  0.1330 -0.1846
21102W        W25502  12.083   5.235  19.121 -0.1023 -0.0663 -0.1086
21103W        W25503   1.172   3.867  22.821 -0.0682  0.0812  0.5391
21104W        W25504  19.471   0.199  27.671 -0.2886 -0.2819 -0.0755
21105W        W25505  11.155   3.404  18.343 -0.3047 -0.2178 -0.2166
21106W        W25506   2.026   4.182  33.090 -0.1630  0.0455 -0.1106
21107W        W25507   4.918   1.976  37.300  0.1018 -0.4403  0.0668
21108W        W25508  20.451   1.272  26.126  0.0260  0.3094  0.1583
21109W        W25509  13.215   0.526  32.714 -0.0093  0.0026 -0.0137
21110W        W25510   3.238   6.318  29.533 -0.2037  0.2201  0.3110
21111W        W25511  11.058   6.311  13.150  0.1187 -0.0479 -0.1685
21112W        W25512  11.190   6.034   3.253  0.2281  0.1736  0.1970
21113W        W25513   6.439   0.238  41.240  0.0453  0.0758 -0.0922
21114W        W25514  11.859   0.219  39.993 -0.0373  0.1633  0.2198
21115W        W25515   3.217   4.236   3.113  0.2319  0.1089  0.1543
21116W        W25516   5.909   1.805  18.261 -0.0058  0.0190 -0.0203
21117W        W25517  16.555   4.626  32.826 -0.1900 -0.1985  0.0856
21118W        W25518   9.738   2.490  20.574 -0.4029  0.1052  0.0187
21119W        W25519   4.373   3.289   1.411  0.2754  0.1196 -0.0692
21120W        W25520   3.665   2.170   6.927  0.2118 -0.3182  0.0245
21121W        W25521  17.476   2.571  13.491  0.2890 -0.1572  0.0180
21122W        W25522  13.494   5.937  11.263 -0.0781 -0.1695 -0.2411
21123W        W25523  15.844   3.377  44.871 -0.1145 -0.0349  0.0151
21124W        W25524  21.037   4.288  10.574  0.0588 -0.1028  0.2489
21125W        W25525   4.459   2.880  12.859 -0.0469  0.0382 -0.0567
21126W        W25526   6.746   3.245  13.488  0.4309 -0.0516 -0.0084
21127W        W25527  20.573   2.594  33.587  0.1014  0.0203 -0.0819
21128W        W25528   5.368   4.881   5.511  0.2341  0.1593 -0.0501
21129W        W25529  16.400   5.344  13.765  0.0998  0.2525 -0.1587
21130W        W25530  16.406   5.621  42.259 -0.1704  0.1164 -0.2933
21131W        W25531   8.319   6.164  40.675  0.0860 -0.0137 -0.2604
21132W        W25532  11.392   0.259  10.273 -0.0275 -0.0750  0.1273
21133W        W25533   5.621   5.567  36.882  0.3663  0.1014 -0.0262
21134W        W25534   2.455   5.281  13.896  0.2656 -0.1116  0.1814
21135W        W25535   7.187   3.886  32.010  0.4978 -0.1451 -0.0821
21136W        W25536   3.245   4.580  25.422 -0.1778 -0.0950 -0.2055
21137W        W25537  18.585   1.742  43.918 -0.1538 -0.0693  0.3076
21138W        W25538  14.143   6.304  32.360  0.3642 -0.1564  0.4151
21139W        W25539   4.298   4.685  14.635 -0.1415  0.0919 -0.1260
21140W        W25540   9.649   4.303  19.815 -0.1065  0.0587 -0.0860
21141W        W25541  20.620   4.805  24.673 -0.0784 -0.0049 -0.0917
21142W        W25542   3.125   4.945  10.440 -0.0012 -0.1127 -0.0427
21143W        W25543   9.108   5.686  15.526 -0.1661  0.2675  0.1751
21144W        W25544  10.445   0.478  13.227 -0.3500  0.0953  0.0182
21145W        W25545   9.835   2.801   0.585  0.0893  0.2053  0.1741
21146W        W25546   9.182   2.292  12.679  0.2416 -0.1779 -0.2631
21147W        W25547  11.001   5.956   3.900  0.2492  0.0768 -0.1758
21148W        W25548  17.764   0.463  39.095  0.0564 -0.0802 -0.2478
21149W        W25549  10.543   5.212  33.879 -0.2054  0.1376 -0.0294
21150W        W25550   8.330   5.001  21.909  0.1954  0.1594 -0.1383
21151W        W25551  18.497   3.667  36.624 -0.0335 -0.2050  0.2563
21152W        W25552   6.524   2.662   4.215  0.0584  0.0017 -0.0331
21153W        W25553  18.575   0.049  33.334  0.1461 -0.0692  0.0080
21154W        W25554   8.462   0.315  35.126  0.1654  0.1018 -0.1854
21155W        W25555  18.660   4.132  29.660 -0.0787 -0.1381  0.0332
21156W        W25556  15.704   1.479   3.966 -0.0737 -0.0687 -0.1091
21157W        W25557  19.323   5.478   3.290  0.2105 -0.0238  0.0360
21158W        W25558  19.693   1.748  40.372 -0.0054  0.1120 -0.0916
21159W        W25559   2.276   3.484  29.712  0.1408 -0.0172  0.0634
21160W        W25560  12.419   4.821  30.250  0.0785  0.0875 -0.0327
21161W        W25561  15.133   0.469  43.538 -0.1530  0.0612  0.0441
21162W        W25562   6.776   4.453   3.690  0.2537  0.1219 -0.1114
21163W        W25563   5.177   2.174   9.189  0.1708  0.0487  0.1757
21164W        W25564  15.931   0.626  14.441  0.1329 -0.2969  0.1918
21165W        W25565  16.909   2.201   0.216  0.0797  0.0315 -0.0031
21166W        W25566  13.118   4.226  33.220  0.1576  0.0694 -0.0564
21167W        W25567   1.002   4.904  15.700 -0.0375  0.3003  0.1653
21168W        W25568   0.519   4.973  10.743 -0.0227  0.3118  0.1547
21169W        W25569   1.583   1.306  33.909  0.1278  0.0885  0.3517
21170W        W25570  11.174   6.200  29.278  0.0124  0.1227  0.1241
21171W        W25571  12.190   2.268  28.117 -0.5385  0.2905 -0.0369
21172W        W25572   3.036   4.969  15.056  0.1861 -0.3716  0.0695
21173W        W25573  15.540   1.293   5.562 -0.1303 -0.0732  0.0873
21174W        W25574  20.031   1.684  39.250 -0.2992  0.0703 -0.1703
21175W        W25575  18.192   3.379   3.698 -0.2222 -0.1218 -0.0830
21176W        W25576  12.259   5.380   5.050 -0.0990  0.1953 -0.1557
21177W        W25577  12.423   1.960  20.576  0.0246 -0.0528 -0.1370
21178W        W25578  16.444   6.507   7.253  0.0607  0.0677  0.1093
21179W        W25579   4.927   1.322  15.155 -0.2806  0.0578 -0.2618
21180W        W25580  14.937   3.237  36.249  0.0358  0.0748  0.0809
21181W        W25581  19.416   0.558   6.668  0.3394 -0.2086 -0.2869
21182W        W25582   8.846   0.518   1.292 -0.0803 -0.1776 -0.1464
21183W        W25583   1.915   5.709   8.941  0.0687  0.1244  0.0493
21184W        W25584   3.279   2.528   6.434 -0.0568  0.0483 -0.2061
21185W        W25585   8.423   4.468   0.016 -0.0869  0.0950  0.0325
21186W        W25586   4.295   5.712  17.517  0.1217 -0.0964  0.0892
21187W        W25587  19.751   0.406  31.913  0.2762  0.0575  0.2132
21188W        W25588  14.026   2.232  37.234 -0.2620  0.2060 -0.1009
21189W        W25589  11.248   0.467  14.138 -0.2474  0.0621 -0.1357
21190W        W25590   9.489   5.278   3.530 -0.1530  0.3174  0.0042
21191W        W25591  16.547   1.799   6.978 -0.1328 -0.0584 -0.0734
21192W        W25592  14.184   1.830  38.526  0.0337  0.1879  0.1172
21193W        W25593  19.116   2.200  42.346  0.0084 -0.2092 -0.3477
21194W        W25594  17.515   1.784  42.683  0.1879 -0.0065  0.1459
21195W        W25595  10.939   4.101  19.436 -0.0824 -0.0825  0.0449
21196W        W25596  11.913   3.748   2.672 -0.1695  0.0270 -0.0599
21197W        W25597  20.561   4.102  38.468 -0.3021  0.0823  0.0839
21198W        W25598   5.391   6.344  33.288  0.2522  0.2521  0.1736
21199W        W25599   6.153   5.437  42.044  0.0712 -0.0880  0.0645
21200W        W25600  14.781   1.748  29.480 -0.1195  0.0850 -0.2426
21201W        W25601  17.831   2.434  24.901 -0.3139 -0.0506 -0.1728
21202W        W25602   5.486   5.918  32.218 -0.0472 -0.1389 -0.0930
21203W        W25603   4.559   5.602  28.524 -0.2397 -0.0972  0.1256
21204W        W25604   4.591   3.615   9.914  0.0659  0.0368  0.0602
21205W        W25605   7.870   0.829  23.554 -0.2464 -0.0841 -0.3197
21206W        W25606   0.374   6.345  36.117 -0.1883  0.1221  0.0572
21207W        W25607   6.562   3.582  16.455  0.1282  0.0040  0.2345
21208W        W25608   5.682   1.331  33.321 -0.0622  0.0738  0.2116
21209W        W25609  19.715   2.225  44.199 -0.2034 -0.0471  0.2157
21210W        W25610  18.621   1.542  36.747  0.0430  0.0562  0.1399
21211W        W25611   0.965   1.435  42.823 -0.0377 -0.1356 -0.0414
21212W        W25612   9.842   1.699  23.283 -0.0227 -0.0562  0.3507
21213W        W25613   5.098   0.523  32.313 -0.0870  0.3806  0.1089
21214W        W25614   8.166   2.574   8.333 -0.0299  0.0260  0.2312
21215W        W25615   8.373   1.381  13.821  0.0612 -0.1288  0.0013
21216W        W25616  13.412   0.879  12.216  0.0461 -0.0542  0.0585
21217W        W25617  17.129   3.844  16.806 -0.2449  0.2525 -0.1475
21218W        W25618  10.972   5.501   5.986  0.1535 -0.1208  0.1076
21219W        W25619  20.498   3.109   5.143  0.2403 -0.0412  0.0599
21220W        W25620  20.732   4.322  39.830  0.2237 -0.0124 -0.1119
21221W        W25621   6.794   3.703  20.101  0.0421  0.0753  0.1797
21222W        W25622  19.023   1.659  11.717  0.2146 -0.0228  0.0136
21223W        W25623   4.155   3.214   6.318 -0.0009 -0.3157  0.3577
21224W        W25624  12.579   0.424  13.189 -0.0000  0.1675 -0.2785
21225W        W25625  13.798   3.002  36.438  0.3305 -0.0908 -0.2130
21226W        W25626   2.626   0.873   9.325  0.1333 -0.2186  0.2881
21227W        W25627  10.326   6.402   7.302  0.0042  0.2334 -0.0318
21228W        W25628  19.724   1.264  44.210  0.2042  0.1043  0.2285
21229W        W25629   5.239   1.431  30.041 -0.2753 -0.1099  0.1343
21230W        W25630   0.426   6.168  30.122  0.2007  0.1851  0.0906
21231W        W25631   7.198   2.234  18.714  0.1395 -0.0109 -0.0115
21232W        W25632   6.612   4.331  43.739  0.4424  0.0386 -0.3116
21233W        W25633  19.245   2.219  39.929 -0.2290  0.0196  0.3880
21234W        W25634  19.358   5.935  43.980  0.0202  0.2442  0.2508
21235W        W25635  20.750   4.114  44.285  0.3160 -0.0713  0.1228
21236W        W25636  19.222   4.669  43.653 -0.2139 -0.2569 -0.0729
21237W        W25637  11.060   4.420  31.651  0.3178 -0.5195 -0.0027
21238W        W25638  17.616   5.987  38.625 -0.6150 -0.0445  0.2448
21239W        W25639   4.217   4.173  16.603 -0.0877 -0.1151 -0.1653
21240W        W25640  12.791   0.263  43.793 -0.0247 -0.1009 -0.0190
21241W        W25641   9.369   5.780  19.294 -0.2574  0.2798  0.0445
21242W        W25642   4.099   6.023  37.202  0.2716  0.0975  0.1379
21243W        W25643   8.384   3.124   0.602 -0.0665 -0.1047 -0.0488
21244W        W25644   6.996   5.133  41.542 -0.0069  0.0813  0.0372
21245W        W25645   1.301   5.170  37.577  0.1005  0.1826 -0.0459
21246W        W25646  20.343   3.645  38.439 -0.1383 -0.4134 -0.0547
21247W        W25647  12.843   5.035  27.756 -0.0334  0.3113  0.2228
21248W        W25648   8.888   3.999  29.702  0.0237  0.4412 -0.0682
21249W        W25649   1.639   2.714  24.684  0.0324 -0.2409 -0.1954
21250W        W25650   5.766   3.261  30.092 -0.0184  0.1651  0.0572
21251W        W25651   6.319   6.200  22.695 -0.2565  0.1902  0.0587
21252W        W25652   6.934   2.952  13.847  0.2290  0.0630  0.1079
21253W        W25653   5.728   0.711  11.734 -0.3089 -0.0105 -0.1466
21254W        W25654   7.162   1.522  33.861 -0.0667 -0.1266  0.1581
21255W        W25655  21.097   4.366  12.867  0.3074  0.0665 -0.1974
21256W        W25656   5.735   1.889   5.299 -0.2532  0.1513 -0.0095
21257W        W25657  12.464   4.411  31.157  0.2372 -0.3837 -0.0132
21258W        W25658  12.371   3.768  19.960 -0.1574 -0.1617 -0.4252
21259W        W25659  11.269   1.356  21.173  0.1443 -0.1806  0.2648
21260W        W25660  15.488   1.244  32.809 -0.0263  0.1154  0.0069
21261W        W25661   7.314   5.931   3.515  0.2006 -0.0541  0.2774
21262W        W25662  18.788   4.070   3.289  0.0769  0.1458 -0.0112
21263W        W25663   7.062   2.613  13.538  0.2262  0.2473  0.0255
21264W        W25664   9.527   0.154  44.840 -0.1815 -0.1743 -0.1563
21265W        W25665  18.043   5.545  39.320 -0.0733  0.1644 -0.2118
21266W        W25666  16.716   1.452  40.615 -0.1596  0.1803 -0.0234
21267W        W25667   4.556   2.075  28.482  0.0519 -0.0072 -0.0959
21268W        W25668  18.445   1.047  33.938 -0.1224 -0.1304 -0.0392
21269W        W25669  13.894   1.985  40.705  0.1291  0.1113 -0.0786
21270W        W25670   5.398   1.128   2.449 -0.1943  0.0018  0.1071
21271W        W25671  10.735   0.165  44.065  0.1833 -0.1262  0.2374
21272W        W25672  16.581   1.431  12.743  0.2229  0.2488  0.2343
21273W        W25673   7.522   4.854   6.195 -0.2142  0.1261  0.1077
21274W        W25674  10.029   5.556  33.884  0.0810 -0.0614 -0.0365
21275W        W25675   6.466   3.882  20.368 -0.0775 -0.0598 -0.2071
21276W        W25676   0.076   1.213  37.828  0.2279  0.0369  0.0685
21277W        W25677  13.324   3.285  34.105 -0.1110 -0.1826 -0.1680
21278W        W25678   8.427   1.259  30.780  0.3158  0.1191  0.0510
21279W        W25679  18.126   2.473  38.234 -0.1536 -0.0472 -0.0001
21280W        W25680  11.304   3.284  41.462  0.3286 -0.1219  0.0665
21281W        W25681  12.270   4.790  21.495  0.1507  0.1855 -0.2845
21282W        W25682  10.825   4.078  17.247 -0.1405  0.1620  0.2039
21283W        W25683   9.789   4.353   4.670  0.1251  0.4546  0.1135
21284W        W25684   0.956   2.768  11.162 -0.0265  0.2526 -0.3290
21285W        W25685  11.639   2.996  33.389 -0.0370  0.0147 -0.1560
21286W        W25686   4.246   0.560  44.814 -0.0023 -0.0525  0.1010
21287W        W25687  20.484   4.827  42.859 -0.0337 -0.0896 -0.5032
21288W        W25688   3.508   1.837   2.006  0.1610  0.0270 -0.0832
21289W        W25689   9.815   0.207  15.155 -0.1129  0.1122  0.0531
21290W        W25690   5.737   5.460  44.126 -0.0383 -0.1365  0.2072
21291W        W25691  18.157   3.016   5.442  0.0439  0.0659 -0.0397
21292W        W25692   2.949   3.582  31.506 -0.1347 -0.1157  0.0410
21293W        W25693   9.242   1.385  36.195  0.1641  0.0420 -0.0280
21294W        W25694   4.168   1.599   2.279  0.0262 -0.1061  0.0625
21295W        W25695   8.396   4.979  36.017 -0.0219  0.1875 -0.0599
21296W        W25696   9.499   1.775  22.235  0.1562  0.0899 -0.0417
21297W        W25697   8.594   5.216  29.089  0.0536  0.2939  0.1623
21298W        W25698   9.936   0.544  25.376  0.0093 -0.1020 -0.0089
21299W        W25699   3.748   4.821  27.004  0.3779 -0.1600  0.0825
21300W        W25700   5.602   6.377   9.919 -0.1077  0.0452 -0.0545
21301W        W25701  20.665   0.278  30.824  0.2287  0.2881  0.3640
21302W        W25702   5.113   3.694   9.735  0.2686  0.0258  0.1961
21303W        W25703   8.160   5.980  14.392  0.0133 -0.0524  0.2189
21304W        W25704  13.279   3.356  40.699 -0.1301  0.0373 -0.0546
21305W        W25705  18.958   1.359  44.823 -0.3408 -0.3065  0.0042
21306W        W25706  11.026   1.889  34.007 -0.3620  0.0828  0.2512
21307W        W25707   4.294   3.368  44.500 -0.0217  0.0491  0.2174
21308W        W25708  20.820   4.013  12.501 -0.1472 -0.0390  0.4351
21309W        W25709   5.389   1.397  31.824  0.1698  0.0419 -0.0795
21310W        W25710  11.563   5.014  41.748 -0.0071 -0.0824 -0.0192
21311W        W25711  12.161   1.201  11.356 -0.0618 -0.1197 -0.1633
21312W        W25712   6.718   1.862   8.102  0.3215 -0.0830 -0.1313
21313W        W25713  20.589   1.051  25.468  0.1807 -0.1803  0.2652
21314W        W25714   9.874   0.296  22.897 -0.0369 -0.1882  0.1226
21315W        W25715   0.159   1.113  35.842  0.0181  0.0699 -0.2585
21316W        W25716  16.831   6.404  30.702  0.0521  0.0183 -0.1376
21317W        W25717  17.820   6.520  10.186  0.2765 -0.2629  0.0737
21318W        W25718   5.439   0.484  27.688 -0.1455 -0.1735  0.0095
21319W        W25719  10.682   5.328  36.146  0.1721  0.0501  0.2858
21320W        W25720   4.100   0.279  36.137 -0.0110  0.2943  0.0382
21321W        W25721  12.057   2.577  43.315  0.0284  0.0264 -0.0221
21322W        W25722   2.290   0.401   2.293  0.0661 -0.0447  0.0863
21323W        W25723  14.344   3.690  41.052 -0.2548 -0.0926  0.2085
21324W        W25724  18.382   1.821   7.505 -0.0149  0.0311  0.0145
21325W        W25725  14.934   2.360   6.154 -0.2075 -0.0205  0.5441
21326W        W25726   9.666   6.601  19.602  0.1302  0.2920  0.2726
21327W        W25727  18.329   5.824  28.089  0.3152  0.1693  0.1223
21328W        W25728   7.405   5.079  38.000  0.1696  0.0170  0.0769
21329W        W25729  20.703   5.270  10.916 -0.1599 -0.2558 -0.1099
21330W        W25730  10.402   3.729  17.328  0.1600  0.1877 -0.1832
21331W        W25731   8.991   6.104  24.115 -0.0080 -0.1801 -0.1168
21332W        W25732  12.557   5.801   9.998 -0.0717  0.1236  0.0173
21333W        W25733  20.030   2.462  25.755 -0.0407  0.5375 -0.2347
21334W        W25734   1.921   1.053  30.159 -0.2133 -0.0062  0.1054
21335W        W25735   0.337   4.923   5.050 -0.0650  0.5818  0.1230
21336W        W25736  11.500   3.838   5.791 -0.0948 -0.1689 -0.2715
21337W        W25737  14.568   6.108  13.630  0.2784 -0.1723 -0.1658
21338W        W25738  10.870   1.836   7.538 -0.1883 -0.0207  0.2451
21339W        W25739   9.993   0.536  14.421 -0.1858  0.0738 -0.0199
21340W        W25740  20.907   5.963   8.763  0.0467 -0.1214 -0.0978
21341W        W25741  14.647   5.691  10.704 -0.1586  0.3469 -0.0249
21342W        W25742  11.985   5.426   5.774 -0.2826 -0.1729  0.0814
21343W        W25743  20.884   4.303   0.598  0.0255  0.1079  0.3682
21344W        W25744   7.585   6.487   9.527  0.0832  0.2271 -0.2999
21345W        W25745  13.184   6.197  40.501 -0.1567  0.1634  0.2901
21346W        W25746  19.206   2.796   2.128  0.3888 -0.0365  0.2803
21347W        W25747   9.974   0.672   5.925  0.2309 -0.2070 -0.0708
21348W        W25748  19.510   5.889   0.295 -0.0268 -0.2168  0.0113
21349W        W25749  10.394   5.571  33.022 -0.4280  0.1517  0.1123
21350W        W25750   7.601   2.424   8.270 -0.1275 -0.0273  0.0413
21351W        W25751  15.862   1.785  25.838 -0.0707 -0.1891 -0.0056
21352W        W25752   8.782   4.121   6.513  0.1067  0.0263 -0.2534
21353W        W25753  19.361   0.016  38.037  0.0384  0.4383 -0.0946
21354W        W25754  17.492   2.583  15.797  0.2028  0.2361  0.2645
21355W        W25755   6.402   2.001  14.786  0.0130  0.3379  0.1108
21356W        W25756  21.119   3.442  30.020 -0.1186  0.1822  0.1193
21357W        W25757   3.083   1.219  36.471  0.3494 -0.1320  0.2782
21358W        W25758  19.191   3.634   6.419 -0.1380  0.2298  0.0158
21359W        W25759   1.007   3.118   0.168  0.0973  0.0342  0.1440
21360W        W25760   7.879   4.829  37.711  0.0019  0.1582  0.1473
21361W        W25761  13.157   4.768  33.406 -0.0357 -0.0719 -0.1944
21362W        W25762   7.731   1.683  38.284  0.0313 -0.1141  0.2211
21363W        W25763   6.142   4.968  11.384 -0.2310 -0.1947  0.3941
21364W        W25764  18.281   5.546  40.049  0.1644 -0.2001 -0.1074
21365W        W25765   3.186   2.951  40.923 -0.0763 -0.1020  0.1314
21366W        W25766   6.684   0.234  38.780  0.0162  0.0751  0.1857
21367W        W25767   0.268   1.064  22.862 -0.0974  0.4433 -0.0987
21368W        W25768   2.914   0.969  38.564 -0.0495  0.3646  0.1500
21369W        W25769   9.908   2.941  34.046  0.0981 -0.2738  0.0513
21370W        W25770  19.373   5.956  31.205  0.2077 -0.3304  0.0589
21371W        W25771  20.858   6.575  39.582 -0.1419  0.1498  0.0055
21372W        W25772  18.323   2.282   7.682  0.2749 -0.0806 -0.3009
21373W        W25773   7.552   3.325  16.329 -0.1370  0.1292 -0.1726
21374W        W25774  16.821   5.947   9.345 -0.2131  0.0708 -0.1065
21375W        W25775  17.657   3.235  36.176  0.2199 -0.1231 -0.1610
21376W        W25776   1.854   4.769  39.951 -0.1336  0.3270 -0.1362
21377W        W25777   0.561   2.801  14.567 -0.0059  0.4486  0.0165
21378W        W25778  14.191   4.959   8.687  0.0053 -0.1235 -0.1405
21379W        W25779  20.695   5.972  29.834  0.1250  0.0176 -0.0242
21380W        W25780  12.063   2.032   4.566  0.1169 -0.0930  0.0872
21381W        W25781  10.588   1.462  14.549 -0.0531 -0.1542 -0.0527
21382W        W25782   7.443   5.772  39.927 -0.0683  0.0263  0.0268
21383W        W25783  19.834   4.076  23.585  0.4398 -0.0455 -0.0352
21384W        W25784   7.962   3.064  40.949 -0.2229  0.0533  0.0398
21385W        W25785  12.498   1.613  17.327  0.0188  0.3072 -0.0659
21386W        W25786  18.486   3.897  40.472 -0.0774 -0.0633 -0.2038
21387W        W25787   4.109   3.051  28.192  0.0598  0.0740  0.0625
21388W        W25788  20.906   1.450  15.718 -0.1199 -0.0935  0.0865
21389W        W25789   9.538   1.135  29.406 -0.0880  0.0068  0.1200
21390W        W25790  19.716   4.628  23.503  0.1715  0.0584 -0.1944
21391W        W25791   0.747   4.998  40.587  0.0536 -0.0190  0.3349
21392W        W25792  20.532   5.011   5.860 -0.1076  0.3782  0.1272
21393W        W25793   7.751   1.434  21.893 -0.1108  0.0336  0.2862
21394W        W25794  14.158   0.036  15.846 -0.0396  0.0358  0.0055
21395W        W25795   4.827   6.305  40.822  0.1479 -0.1489 -0.1553
21396W        W25796  20.045   5.044  22.696  0.0302  0.0324  0.4190
21397W        W25797   6.108   1.629   7.423 -0.0760  0.0825  0.3237
21398W        W25798  19.764   4.142  33.959  0.1562 -0.0068 -0.0783
21399W        W25799  17.732   1.448  25.879  0.0827 -0.2625 -0.2138
21400W        W25800  20.306   3.333   6.900 -0.0878 -0.1360  0.0324
21401W        W25801  17.675   5.296  36.554  0.0247 -0.0180 -0.1851
21402W        W25802   0.563   5.796  41.216 -0.2026 -0.0887 -0.1251
21403W        W25803  18.520   1.706  38.036  0.1077  0.1396  0.3074
21404W        W25804   0.177   0.770  12.260 -0.2616  0.0026 -0.0758
21405W        W25805   0.063   1.739  37.134  0.0687 -0.1258  0.2322
21406W        W25806   8.279   4.787   2.192 -0.5133 -0.1480  0.0568
21407W        W25807   5.570   5.234   1.914  0.0128 -0.1925  0.0450
21408W        W25808  17.611   2.982  44.491 -0.1811 -0.0393  0.2500
21409W        W25809  11.275   5.483  17.410 -0.3686  0.0474  0.0326
21410W        W25810   6.683   3.532  36.598 -0.2748  0.3654 -0.2906
21411W        W25811   5.837   2.614  42.084  0.1266  0.1178 -0.0108
21412W        W25812  12.411   1.055  10.306  0.1096 -0.2400 -0.0386
21413W        W25813   9.641   2.193   3.935  0.2800  0.0208 -0.0895
21414W        W25814   9.040   0.738  22.029  0.1179 -0.1007 -0.0223
21415W        W25815  13.312   3.109  19.853 -0.0269  0.0623  0.0141
21416W        W25816  17.017   3.944  33.975  0.1580 -0.2519 -0.0465
21417W        W25817   3.152   2.006  39.216  0.0308  0.0287  0.2381
21418W        W25818   6.379   6.307  14.030 -0.1825 -0.1039 -0.2387
21419W        W25819  12.361   4.151   9.422  0.0460 -0.1220  0.1616
21420W        W25820   9.196   6.121   4.590 -0.0509 -0.1182  0.1191
21421W        W25821  16.836   4.334  31.444  0.0725  0.1897 -0.1578
21422W        W25822  15.395   3.927   0.562 -0.1985  0.0113  0.0606
21423W        W25823   1.128   0.988  12.923  0.0446  0.1387  0.1394
21424W        W25824  17.915   2.882  27.695 -0.4946  0.0233 -0.3434
21425W        W25825   9.304   4.187  15.441 -0.1436  0.3256  0.2276
21426W        W25826   7.252   2.969   4.733 -0.2050  0.4094  0.0766
21427W        W25827   2.070   3.131   3.882  0.3553  0.0379 -0.0720
21428W        W25828  18.906   0.175  37.753  0.2766 -0.2587 -0.0595
21429W        W25829  19.248   5.014  10.515 -0.1298 -0.0165  0.2750
21430W        W25830  10.287   3.823  33.715  0.2387  0.0894 -0.2882
21431W        W25831  11.033   1.040  34.293 -0.2223  0.3401  0.0255
21432W        W25832  10.954   4.101   6.880  0.0535  0.0167  0.0674
21433W        W25833   3.549   4.585  44.331 -0.1447  0.1391  0.3099
21434W        W25834   1.926   0.414  43.161  0.1879  0.1310  0.1425
21435W        W25835  13.751   6.407  30.353 -0.0672 -0.0714  0.1704
21436W        W25836  15.034   0.089  27.276 -0.4042  0.2249 -0.0979
21437W        W25837  20.506   1.738  29.583  0.1088  0.0067 -0.0764
21438W        W25838  19.825   0.682  41.604  0.0954 -0.2582  0.1828
21439W        W25839   2.567   5.118  35.647 -0.0268 -0.0749  0.0476
21440W        W25840   6.416   4.379  41.320  0.1030 -0.0822 -0.0285
21441W        W25841  12.086   3.569  17.756 -0.0847 -0.1112 -0.3099
21442W        W25842   0.901   4.214  30.795 -0.0651  0.2283 -0.0147
21443W        W25843  15.949   6.279  33.696  0.2076 -0.1759 -0.2123
21444W        W25844   0.223   0.076  39.790  0.0456 -0.2417 -0.0748
21445W        W25845   1.591   4.736   8.404 -0.0730 -0.0739  0.0449
21446W        W25846  15.079   4.830   1.356 -0.1645  0.2305  0.0341
21447W        W25847   6.205   1.253   7.110 -0.3237 -0.2248  0.0378
21448W        W25848   0.478   4.698  34.469 -0.1400  0.2252 -0.2685
21449W        W25849  10.411   0.073   9.289 -0.2729  0.1783  0.4754
21450W        W25850  10.629   4.382   9.363  0.1737  0.0134 -0.0676
21451W        W25851  14.577   4.158  35.038 -0.1304 -0.1316  0.3561
21452W        W25852   4.164   2.294  36.206 -0.0592  0.1878  0.1797
21453W        W25853   5.322   0.841  35.617 -0.1472 -0.2595  0.1845
21454W        W25854  12.313   1.799  32.904 -0.0128 -0.0308 -0.0084
21455W        W25855  12.888   3.158  44.896  0.0282  0.2023  0.3588
21456W        W25856  12.721   3.020   4.179  0.0111 -0.2285  0.1390
21457W        W25857   9.274   6.090   9.867 -0.1682 -0.1862 -0.0224
21458W        W25858  18.883   6.247  44.911  0.1542 -0.1656 -0.2506
21459W        W25859  14.971   5.161   7.555  0.0172  0.0096  0.1786
21460W        W25860   2.040   3.220  31.663 -0.1503  0.2698  0.0687
21461W        W25861  10.787   3.912   1.428  0.0209  0.0124  0.0396
21462W        W25862   2.016   5.031   1.342 -0.1408 -0.1963 -0.0941
21463W        W25863  20.277   1.244  20.475  0.1171 -0.0226 -0.2975
21464W        W25864  13.351   3.562  42.460 -0.1411 -0.0134  0.1557
21465W        W25865  15.019   1.590   0.055  0.0145  0.1461  0.0449
21466W        W25866  20.290   2.487   9.748 -0.0669 -0.1006  0.1750
21467W        W25867   4.712   6.447  16.729  0.0548 -0.1371 -0.1239
21468W        W25868   2.929   2.434  14.349 -0.0879  0.2267 -0.2649
21469W        W25869  14.397   6.466  32.832  0.1949  0.0033 -0.1064
21470W        W25870  12.270   6.311  30.707 -0.1698 -0.0834  0.1316
21471W        W25871  12.736   1.757  38.606  0.0727  0.0888 -0.0122
21472W        W25872  20.538   1.733  37.328  0.1205  0.0296 -0.2790
21473W        W25873  12.572   6.121  12.283 -0.0746  0.0810 -0.0541
21474W        W25874   9.120   2.265  43.238  0.0155  0.2040  0.1803
21475W        W25875  16.128   6.276   6.238  0.2606  0.0855 -0.1433
21476W        W25876  15.276   5.732  34.113  0.1786 -0.0299 -0.2636
21477W        W25877  13.154   0.573   7.148  0.2407 -0.1077  0.0397
21478W        W25878  15.559   0.053  10.546  0.3333  0.0118  0.2893
21479W        W25879   9.046   4.390   4.546  0.0415  0.0727  0.1032
21480W        W25880  17.890   5.095   7.747 -0.0551  0.0863  0.2672
21481W        W25881  11.199   0.989  38.178 -0.1471 -0.0415 -0.0582
21482W        W25882   5.236   6.248   2.819 -0.2540  0.2107  0.2837
21483W        W25883  19.936   5.987  20.366  0.1335  0.1032  0.2420
21484W        W25884   7.085   0.209  20.691 -0.0632 -0.0337  0.1860
21485W        W25885  19.146   4.244  12.397 -0.1776 -0.0420  0.0980
21486W        W25886   8.475   3.173  30.761 -0.0607  0.1979  0.0570
21487W        W25887  17.483   1.670   4.478 -0.3293 -0.3085  0.0273
21488W        W25888   6.994   4.506  13.020 -0.1099 -0.2009  0.0624
21489W        W25889   2.780   2.520   8.171 -0.1955 -0.4096  0.2815
21490W        W25890  10.003   4.889  35.876  0.1787  0.0349 -0.0176
21491W        W25891  18.715   1.943   1.292 -0.1609  0.2261  0.0998
21492W        W25892  13.325   3.555   4.954  0.1503 -0.1334  0.2324
21493W        W25893   7.418   1.431  28.909 -0.3288  0.0961  0.0062
21494W        W25894   1.842   3.445   9.867 -0.6852  0.1383  0.3238
21495W        W25895   9.590   6.263  20.485  0.1317  0.1496  0.2808
21496W        W25896  19.379   1.384  31.039 -0.3102  0.0464  0.3708
21497W        W25897   7.404   5.098  17.928  0.1661 -0.1122 -0.1414
21498W        W25898  20.267   2.668  32.704  0.2863  0.0410  0.0393
21499W        W25899   6.494   3.608  18.481 -0.0316 -0.0524  0.0469
21500W        W25900  16.284   3.082  15.536  0.0418 -0.1155 -0.0142
21501W        W25901  13.908   2.597  30.640  0.0588  0.1476 -0.1921
21502W        W25902  11.719   1.184   8.058 -0.1725  0.1919  0.0040
21503W        W25903  11.316   2.182  43.391 -0.1564  0.6304  0.0937
21504W        W25904   0.757   5.724   4.233 -0.0806 -0.2632  0.2265
21505W        W25905   4.118   0.323  39.295 -0.0928  0.1606  0.2047
21506W        W25906  13.552   0.395  34.678  0.0246  0.1961 -0.1884
21507W        W25907  19.206   0.424   4.672  0.1290  0.1630  0.0991
21508W        W25908   1.520   6.313  11.475  0.0688  0.2151  0.1265
21509W        W25909  17.711   5.409   4.137  0.0629 -0.0016 -0.2031
21510W        W25910  15.970   0.001  27.046  0.0269 -0.0365  0.0994
21511W        W25911  20.185   1.121  14.583  0.1788 -0.2088  0.1253
21512W        W25912  12.290   3.088   8.142  0.1382 -0.0646  0.4331
21513W        W25913  20.299   0.527  30.472  0.1020  0.1097  0.2932
21514W        W25914   8.899   5.177   2.879 -0.2787 -0.3426  0.0153
21515W        W25915   6.837   1.937  17.884 -0.0683 -0.0475 -0.0888
21516W        W25916   3.191   1.991   9.768 -0.0744 -0.0276 -0.0731
21517W        W25917  20.584   4.040  14.251  0.2738  0.0487  0.2334
21518W        W25918  11.241   2.434  41.211  0.0568 -0.1004  0.0886
21519W        W25919   5.744   4.365  37.469 -0.0579  0.2932 -0.0416
21520W        W25920  16.727   4.331   5.125 -0.0079  0.1361  0.1760
21521W        W25921  12.334   0.323   3.426 -0.1999 -0.1263  0.1532
21522W        W25922   0.908   3.379   2.724  0.1005 -0.0004 -0.2045
21523W        W25923  20.500   1.682  30.583 -0.0731  0.5901  0.3007
21524W        W25924  17.207   5.578   9.806 -0.0879  0.0429  0.0074
21525W        W25925   8.898   4.069   5.043  0.2375 -0.1069  0.2444
21526W        W25926   8.174   2.744  30.790  0.4252  0.0860  0.3090
21527W        W25927   3.603   5.183  29.235  0.1175 -0.0006 -0.0270
21528W        W25928   6.170   3.346  34.652 -0.1815  0.0837 -0.1284
21529W        W25929  10.458   6.091   0.991 -0.1222 -0.0126 -0.1000
21530W        W25930   5.163   4.431  30.152  0.1928  0.3400 -0.3723
21531W        W25931   7.963   6.255   1.804 -0.0873 -0.0926 -0.1278
21532W        W25932  20.038   0.780   1.588  0.1087 -0.1243  0.2786
21533W        W25933   6.616   5.970   9.207 -0.2030 -0.2947  0.0886
21534W        W25934  13.337   3.045  44.562 -0.1044 -0.1079 -0.0604
21535W        W25935   3.219   1.544  27.929  0.1186 -0.2477  0.0955
21536W        W25936  15.208   5.535  39.112 -0.0231  0.0748 -0.0897
21537W        W25937   5.706   1.188  36.937 -0.3941  0.2009 -0.0145
21538W        W25938   2.897   6.533  34.763  0.1299  0.1151  0.1733
21539W        W25939   6.152   3.190  37.783 -0.0556  0.0115 -0.1764
21540W        W25940  14.740   3.494  40.717  0.1341  0.3063 -0.1110
21541W        W25941   0.175   2.723  23.273  0.1273 -0.1497 -0.0065
21542W        W25942  18.216   1.147  28.883  0.0633 -0.0315 -0.0337
21543W        W25943   5.270   1.996  12.002  0.0696  0.2989  0.0573
21544W        W25944  17.678   1.531  34.819 -0.0664 -0.0114 -0.1398
21545W        W25945   3.035   6.161   4.476 -0.0620 -0.0355 -0.0504
21546W        W25946   4.358   5.615  39.616  0.2489 -0.1769  0.0649
21547W        W25947  17.007   1.861  10.027 -0.3505  0.0830 -0.2275
21548W        W25948  16.967   0.142  10.347 -0.0408 -0.2175  0.1768
21549W        W25949   2.971   1.493  36.884  0.0942  0.1170 -0.1485
21550W        W25950  16.356   2.874  39.179  0.0884 -0.1889  0.3420
21551W        W25951  14.710   3.630  17.818  0.2031 -0.2029 -0.2525
21552W        W25952   4.255   6.495   5.988  0.0121 -0.1696 -0.0692
21553W        W25953   4.623   3.020  32.380  0.0081  0.2140 -0.0428
21554W        W25954  11.451   4.885  30.977 -0.0514  0.0500 -0.4183
21555W        W25955  18.985   6.538   0.623  0.2339 -0.3314  0.0388
21556W        W25956  10.937   3.610  31.358  0.3044 -0.1728 -0.0614
21557W        W25957   4.746   0.931  44.713 -0.1866 -0.1726  0.1472
21558W        W25958  18.544   5.359   6.311  0.1894 -0.0631 -0.0840
21559W        W25959   4.539   4.608  34.563 -0.1557 -0.0264 -0.3181
21560W        W25960   6.212   1.157  14.329  0.0585  0.0286 -0.0279
21561W        W25961  19.845   3.165  43.068 -0.1113  0.0164  0.1121
21562W        W25962   2.478   4.888  40.576 -0.0849  0.2919 -0.2113
21563W        W25963  16.098   1.183   4.344  0.0936  0.1445 -0.2179
21564W        W25964  10.212   1.322  21.124 -0.0079 -0.0992  0.1764
21565W        W25965  19.268   2.485   2.601  0.0218  0.1238 -0.1953
21566W        W25966   9.151   5.528   5.102  0.0922  0.3168  0.4413
21567W        W25967  19.968   1.757  29.697  0.1916 -0.0310 -0.1909
21568W        W25968   8.815   0.248  40.717 -0.2663  0.1080  0.0412
21569W        W25969  15.635   2.017  40.628 -0.0386  0.0055  0.0993
21570W        W25970   4.674   0.336  28.884  0.0143 -0.0894  0.2773
21571W        W25971   8.852   2.822  29.419 -0.0217  0.1089  0.1678
21572W        W25972  13.991   4.083  29.102 -0.3001 -0.0137 -0.0430
21573W        W25973  14.279   4.667   6.119  0.0486  0.0696 -0.3257
21574W        W25974   1.603   1.220   1.698 -0.1702  0.0328 -0.1781
21575W        W25975  17.327   3.809  31.338  0.2496 -0.0541 -0.1079
21576W        W25976   5.556   5.494  16.359  0.0509 -0.0232  0.0729
21577W        W25977   9.851   2.304   7.898  0.3545 -0.3099  0.0074
21578W        W25978   9.075   1.176  40.625 -0.1419 -0.0106 -0.0807
21579W        W25979   6.204   4.201  43.436  0.2027  0.0266 -0.1103
21580W        W25980  12.480   3.002  33.163  0.0418  0.0917 -0.1206
21581W        W25981  20.123   0.913  19.759 -0.0224  0.2537  0.3557
21582W        W25982   1.146   4.281  44.923  0.1466  0.1290 -0.0466
21583W        W25983  10.898   4.449  10.955 -0.2196 -0.2333 -0.1267
21584W        W25984  15.354   0.446  42.048 -0.1296 -0.0327  0.0746
21585W        W25985   9.435   5.289  11.982 -0.3789 -0.0048 -0.2388
21586W        W25986   1.747   4.456  28.497 -0.0107 -0.1240  0.1157
21587W        W25987  13.461   4.683   5.760 -0.0997 -0.2004  0.1964
21588W        W25988   6.025   5.502  31.597 -0.0960  0.1800  0.0555
21589W        W25989  16.278   2.106  15.587 -0.0759 -0.1503 -0.0774
21590W        W25990   0.543   4.525   9.396 -0.1492 -0.0797  0.0637
21591W        W25991   9.245   0.967   7.778  0.3270 -0.2314 -0.2544
21592W        W25992  20.335   4.556  11.322 -0.0914  0.1902  0.0822
21593W        W25993   4.545   3.751  39.678  0.0988  0.2811  0.1300
21594W        W25994  12.940   3.296   5.583  0.0400 -0.0338 -0.0565
21595W        W25995   2.953   0.747  44.765 -0.0455  0.3098 -0.3342
21596W        W25996   5.663   2.218  19.232 -0.1726  0.2090 -0.1208
21597W        W25997   3.963   1.459  32.568 -0.2435  0.0487  0.3238
21598W        W25998  13.299   3.576  29.587  0.2489 -0.2043 -0.2633
21599W        W25999  17.502   0.643  44.833 -0.0652  0.1168  0.4879
21600W        W26000   7.543   1.451  10.038 -0.0916  0.1203  0.0630
21601W        W26001   0.216   4.332   4.143  0.2815 -0.1264  0.0710
21602W        W26002  10.241   1.288  37.177  0.1191 -0.0828  0.1537
21603W        W26003   9.372   3.604  18.141 -0.2831 -0.1500  0.1717
21604W        W26004  19.095   0.292  27.991 -0.1396  0.1073 -0.4036
21605W        W26005   8.441   6.170  12.938 -0.3274 -0.2082 -0.0718
21606W        W26006  16.784   3.484  31.296  0.2651  0.1059 -0.2555
21607W        W26007  18.969   1.615  26.184  0.1257 -0.2866 -0.1232
21608W        W26008   7.591   5.203  32.172 -0.3197 -0.2241 -0.1551
21609W        W26009  13.184   4.362  43.485  0.0121 -0.1875  0.0164
21610W        W26010  17.996   2.899   0.770  0.0790 -0.2504  0.2358
21611W        W26011   2.758   1.755  38.416  0.3931 -0.1151  0.1608
21612W        W26012   0.140   1.970  15.751 -0.2920  0.2494  0.2659
21613W        W26013  10.151   2.652   1.539 -0.1039 -0.2820 -0.0621
21614W        W26014   4.684   6.307  36.595  0.0187  0.0918 -0.0054
21615W        W26015   9.587   4.651  29.213  0.0592  0.1408 -0.1355
21616W        W26016  19.394   3.438  20.073 -0.0081 -0.1821 -0.0648
21617W        W26017   2.805   3.577   5.426 -0.0433  0.1036  0.0679
21618W        W26018  11.672   4.701  35.491 -0.0688  0.1804  0.1352
21619W        W26019   7.139   6.501  11.499 -0.0007  0.1481 -0.2571
21620W        W26020  11.242   4.387  16.521  0.2641  0.2416 -0.0291
21621W        W26021   3.699   3.999  40.960 -0.1949  0.1591 -0.3051
21622W        W26022  20.968   2.268  41.975 -0.2523  0.0146  0.0617
21623W        W26023   6.554   1.850  41.831  0.0274  0.0411  0.0508
21624W        W26024  10.959   6.414   6.421  0.1023  0.0409 -0.2984
21625W        W26025  15.667   6.114  16.079 -0.2362  0.0886 -0.0083
21626W        W26026   4.114   5.359  37.808  0.1209 -0.1900 -0.0239
21627W        W26027  14.381   2.304  16.868  0.0559 -0.0043  0.0827
21628W        W26028  14.422   0.465  12.122 -0.0329 -0.1404 -0.3030
21629W        W26029   6.667   1.089   3.840 -0.2386 -0.2057  0.3948
21630W        W26030   9.524   5.569   0.932 -0.1353 -0.2265  0.3089
21631W        W26031  13.214   4.804  34.356  0.0379 -0.0409 -0.0101
21632W        W26032  15.301   3.938  12.962 -0.1832 -0.3369 -0.2567
21633W        W26033   3.341   1.046  34.140  0.0902 -0.0758 -0.1357
21634W        W26034  14.989   4.454   2.651  0.1157  0.0414  0.0842
21635W        W26035   2.103   2.847   8.613  0.0144  0.2278  0.0266
21636W        W26036  17.232   5.462  37.781 -0.0791 -0.0165  0.1172
21637W        W26037   0.676   6.384   0.479 -0.1227 -0.1860  0.0884
21638W        W26038   9.186   1.525  15.709 -0.1082  0.1099  0.0474
21639W        W26039  14.151   1.024   9.457  0.0288  0.0059 -0.0689
21640W        W26040   0.605   3.809  39.140  0.1348  0.1561 -0.1527
21641W        W26041  18.494   1.051  29.321 -0.1920  0.0714  0.0584
21642W        W26042  13.811   0.797  35.535 -0.0301 -0.1508 -0.1477
21643W        W26043   7.499   5.234  34.152 -0.2362 -0.0910 -0.1462
21644W        W26044  15.097   0.733   4.961 -0.2329  0.0536  0.0760
21645W        W26045   9.855   2.761  13.834 -0.0305  0.0570 -0.0230
21646W        W26046  17.492   5.295  28.077 -0.0809 -0.3784 -0.1538
21647W        W26047   2.634   5.120   1.979 -0.3202 -0.0495  0.1198
21648W        W26048   4.549   5.280  35.992  0.1367 -0.3670 -0.0790
21649W        W26049   4.213   6.042  28.374  0.0911  0.0916  0.0680
21650W        W26050  12.918   0.112   3.667 -0.0174  0.0219 -0.0089
21651W        W26051  12.684   1.242  17.837 -0.1550  0.2821  0.1098
21652W        W26052  17.681   5.938   9.875  0.2525  0.0277  0.0158
21653W        W26053  15.018   1.394  13.042 -0.1729 -0.0636  0.0416
21654W        W26054  12.078   2.617  38.919 -0.2058  0.2069  0.0759
21655W        W26055   1.012   6.493   5.658 -0.1341 -0.0137 -0.3354
21656W        W26056   8.647   1.607  34.733 -0.1178  0.2322 -0.1240
21657W        W26057  19.671   2.365  29.037  0.1681  0.3646  0.2111
21658W        W26058  18.291   4.107  44.023 -0.0878 -0.1068  0.1869
21659W        W26059   7.923   2.219  41.119  0.2131  0.0933 -0.1109
21660W        W26060  17.173   3.391   2.509  0.2142  0.2490 -0.0636
21661W        W26061   9.606   4.203  16.297 -0.2203 -0.1885  0.1356
21662W        W26062  15.110   2.077  42.964  0.0463 -0.0301  0.0885
21663W        W26063  16.121   6.222  38.621  0.0760 -0.0980  0.1936
21664W        W26064  16.992   4.899   3.791  0.1196  0.1238  0.0953
21665W        W26065  10.139   2.248  16.965 -0.0046  0.2436 -0.2399
21666W        W26066   3.871   4.302  39.561 -0.3338  0.0474 -0.1440
21667W        W26067   6.465   4.829  13.689  0.0468 -0.0728 -0.1764
21668W        W26068  20.027   0.706   4.499 -0.1552  0.1304 -0.3718
21669W        W26069  13.058   0.423  16.931  0.0010 -0.2225  0.2249
21670W        W26070  20.120   6.093  27.943  0.0405  0.2069  0.2100
21671W        W26071   8.863   4.961  15.070  0.0291 -0.1213  0.1271
21672W        W26072  21.000   4.880   3.209 -0.1996  0.4054  0.0067
21673W        W26073  12.960   0.316   5.628 -0.2293  0.2259 -0.0407
21674W        W26074  14.575   0.498  14.910 -0.2378  0.1170  0.2136
21675W        W26075   2.093   0.099  30.221 -0.0090  0.0834 -0.0324
21676W        W26076   2.666   2.068  33.026 -0.0832  0.2082 -0.1228
21677W        W26077   0.276   0.792   2.330  0.2541 -0.0656  0.0858
21678W        W26078  12.651   5.433  16.032 -0.0053 -0.0619  0.0315
21679W        W26079   9.929   6.122  43.630  0.2122 -0.2250 -0.1773
21680W        W26080   3.777   5.688  16.775  0.0957  0.0374 -0.0407
21681W        W26081  13.466   6.038  16.885 -0.0973  0.1379  0.2133
21682W        W26082   3.680   2.669   6.048  0.1300 -0.3214 -0.1517
21683W        W26083   1.035   2.265   9.331 -0.0747 -0.0177  0.1019
21684W        W26084  11.239   1.089   4.763 -0.2128  0.1991 -0.1771
21685W        W26085   1.819   6.042  10.389  0.3217  0.0225 -0.2837
21686W        W26086   2.480   3.343  14.323 -0.2155  0.0715  0.3146
21687W        W26087  15.796   1.877   4.380  0.2505 -0.1405 -0.1032
21688W        W26088   1.106   1.254  44.254 -0.2203 -0.2616  0.0667
21689W        W26089  14.662   1.450  13.606 -0.3486 -0.2290 -0.2332
21690W        W26090  18.843   0.454  15.719 -0.1804  0.0266  0.1069
21691W        W26091  20.609   0.837  35.683  0.1188 -0.0113  0.0184
21692W        W26092   1.849   4.762  33.765 -0.0728 -0.3063  0.0921
21693W        W26093  19.748   5.499  23.179  0.2573 -0.1988 -0.1430
21694W        W26094  13.479   5.979  31.271 -0.1396  0.0925  0.0576
21695W        W26095  12.002   4.761  31.688 -0.2527 -0.0333  0.0259
21696W        W26096   9.097   3.476  36.796 -0.0513 -0.0376  0.2397
21697W        W26097   4.219   6.420  39.022 -0.1520  0.2007  0.2188
21698W        W26098   2.464   5.590  41.108 -0.1351  0.1336 -0.2344
21699W        W26099  17.042   3.457  42.177 -0.1671 -0.0949  0.0414
21700W        W26100  19.684   4.336  30.301 -0.2070 -0.0568 -0.0368
21701W        W26101   6.663   0.440  35.115 -0.1637 -0.1864  0.3046
21702W        W26102  12.745   0.856  42.859  0.3149  0.0345  0.0120
21703W        W26103   4.744   3.327   8.963  0.1837 -0.1323 -0.2063
21704W        W26104  14.516   2.775  13.270 -0.0335 -0.1955 -0.0650
21705W        W26105   0.487   1.829   4.863  0.0028 -0.1549 -0.0068
21706W        W26106  18.227   0.585  10.800 -0.2775  0.0546 -0.1881
21707W        W26107   9.855   3.044  24.398 -0.1872  0.1327  0.1258
21708W        W26108   8.541   5.210  22.738 -0.1285  0.4419 -0.1110
21709W        W26109  11.768   3.335  28.484  0.3499 -0.0571 -0.2330
21710W        W26110  15.070   6.191  17.375  0.0174  0.0494 -0.1111
21711W        W26111  15.288   4.906   9.188  0.3132 -0.0337 -0.0120
21712W        W26112   7.553   2.017  41.526  0.2805 -0.0046  0.0489
21713W        W26113   6.845   0.647  33.919 -0.1299 -0.1286 -0.1188
21714W        W26114   3.331   5.318   3.473  0.0739 -0.0263  0.0293
21715W        W26115  21.117   0.293  31.493  0.3529  0.3731  0.2663
21716W        W26116   3.756   2.992  42.023  0.2338  0.0002  0.0744
21717W        W26117   0.584   4.501   4.473  0.0115  0.1169 -0.2071
21718W        W26118  12.128   0.535  13.327 -0.1124  0.0095  0.0332
21719W        W26119   6.627   5.041  20.094 -0.1544  0.2065 -0.1705
21720W        W26120   1.781   5.136  30.513  0.0522 -0.0192  0.2711
21721W        W26121  20.674   4.252  30.606 -0.2362 -0.3960 -0.0601
21722W        W26122  13.181   3.006  30.308 -0.0720 -0.2477  0.1397
21723W        W26123  17.879   2.667  42.882 -0.0080  0.0268 -0.2182
21724W        W26124   3.251   5.533  42.656  0.1209 -0.2233  0.1791
21725W        W26125  13.851   6.296  37.340  0.1013 -0.3526  0.1355
21726W        W26126  15.120   3.298   9.527 -0.0997 -0.3088 -0.3464
21727W        W26127   8.805   3.852  34.611 -0.3195 -0.5333  0.1402
21728W        W26128  15.780   4.458   0.070  0.0761  0.0665 -0.1209
21729W        W26129  15.399   2.615   2.293 -0.5321 -0.1492  0.1136
21730W        W26130  20.902   3.829  29.510  0.1377  0.0337  0.1473
21731W        W26131   0.600   2.500  28.632 -0.0488  0.0171 -0.1557
21732W        W26132  15.262   2.615   0.459 -0.0236 -0.1387  0.0623
21733W        W26133   7.132   2.764   5.990 -0.2644  0.0813 -0.0029
21734W        W26134  21.098   2.223  21.664 -0.3979 -0.0584  0.2153
21735W        W26135   4.312   2.923  38.772 -0.0925 -0.0203  0.1257
21736W        W26136  19.486   2.662  39.117  0.1031  0.0045  0.0432
21737W        W26137   6.425   5.036  42.179 -0.0656  0.1374  0.0012
21738W        W26138   8.086   2.658  32.572 -0.2070 -0.4028  0.0252
21739W        W26139   7.221   2.333  17.253  0.2189 -0.1478  0.3481
21740W        W26140  11.228   1.072  14.078  0.3887  0.1151  0.2374
21741W        W26141  19.766   3.561  36.136  0.0409  0.0057  0.0879
21742W        W26142  17.195   3.707   1.730 -0.1227  0.1525  0.1523
21743W        W26143  14.696   1.984  45.002  0.3470 -0.1190  0.0549
21744W        W26144   2.783   3.359  10.000 -0.0216 -0.0610 -0.1853
21745W        W26145  19.544   6.363  36.249 -0.1761 -0.0537  0.3195
21746W        W26146  14.440   0.325  43.955  0.0863  0.1391 -0.0404
21747W        W26147   5.098   2.461   5.803  0.0818  0.3555 -0.1799
21748W        W26148  10.531   3.528  34.030  0.4203  0.1092  0.0334
21749W        W26149   0.423   3.190  24.815  0.0427  0.0565 -0.4171
21750W        W26150   9.159   5.388  29.426 -0.1810  0.0682  0.0751
21751W        W26151   6.407   0.520  13.360  0.1553 -0.0025 -0.1157
21752W        W26152  17.989   6.366  31.912  0.1633  0.2097  0.2818
21753W        W26153  17.794   0.267  17.051 -0.0984 -0.0416 -0.1165
21754W        W26154  17.420   0.739  11.546 -0.0419  0.0857 -0.2074
21755W        W26155  12.710   6.428  36.680 -0.1934  0.1456  0.1702
21756W        W26156  18.930   4.757  32.901 -0.0648  0.1211  0.0283
21757W        W26157   5.391   0.072  31.100  0.2643 -0.0040  0.0917
21758W        W26158  18.428   5.615  26.685  0.0773 -0.0484 -0.0900
21759W        W26159   1.243   4.417  35.578  0.0094 -0.2548  0.2507
21760W        W26160  11.858   4.009  32.430 -0.0806  0.2235 -0.0035
21761W        W26161  15.415   5.229   3.959  0.0178 -0.0213 -0.0106
21762W        W26162  15.469   0.925  28.698  0.3185  0.0389  0.2859
21763W        W26163   7.375   2.243  31.033 -0.0998 -0.2536 -0.2159
21764W        W26164  10.047   1.454  24.946  0.0265  0.2128 -0.0550
21765W        W26165  20.392   4.749   6.313 -0.0286  0.1198 -0.0475
21766W        W26166   3.799   0.975  15.140  0.0790  0.1369 -0.4999
21767W        W26167  11.540   0.104  14.363  0.0961  0.1438 -0.0111
21768W        W26168   0.629   1.911  27.419  0.0714  0.2303  0.0375
21769W        W26169  20.828   3.978  42.429 -0.0610  0.0729 -0.0431
21770W        W26170   8.517   0.967  44.038  0.1381 -0.3042  0.3121
21771W        W26171  16.376   1.847   9.757  0.1376 -0.0266 -0.1139
21772W        W26172  11.743   3.102  10.051  0.1246  0.0257 -0.1011
21773W        W26173   9.390   6.544  10.045 -0.4448  0.2840 -0.0838
21774W        W26174  13.131   5.514  15.972 -0.2075  0.0436 -0.0914
21775W        W26175  18.775   0.024  34.739  0.1327 -0.2319  0.0851
21776W        W26176   1.487   3.161  25.603  0.0349  0.1002 -0.2474
21777W        W26177  10.953   3.238  38.649 -0.0208 -0.2748  0.1628
21778W        W26178  17.196   6.601  30.058  0.4293 -0.1410  0.2529
21779W        W26179   3.315   2.612  33.850 -0.3816 -0.1312 -0.0169
21780W        W26180  19.055   5.928  21.870 -0.3091  0.0471  0.3004
21781W        W26181  20.517   3.024  12.218  0.2849 -0.2182  0.0682
21782W        W26182  20.070   5.463   4.926 -0.2250 -0.2196 -0.0180
21783W        W26183   0.976   4.258   1.131 -0.1138 -0.2117  0.1766
21784W        W26184   1.603   3.536  23.503 -0.1087  0.1416 -0.0793
21785W        W26185   5.163   0.891  42.550  0.0220  0.0701  0.2575
21786W        W26186  14.264   4.627  43.531 -0.1988  0.1779  0.0491
21787W        W26187   9.515   1.870  31.224 -0.0548  0.0893 -0.2969
21788W        W26188   2.524   6.282   5.911  0.1377  0.0525 -0.0003
21789W        W26189   4.845   0.954  10.265 -0.0259  0.1022 -0.0473
21790W        W26190   8.879   1.908  11.717  0.2173  0.1690 -0.2268
21791W        W26191   1.623   4.036   7.573 -0.4003  0.1098  0.0819
21792W        W26192   3.548   2.039  43.933 -0.0539  0.1005  0.2135
21793W        W26193   3.287   4.060   6.411  0.1620 -0.1532 -0.2065
21794W        W26194  14.095   4.422  10.898 -0.0475 -0.0692 -0.0537
21795W        W26195   0.666   1.003  37.628 -0.1006  0.1710  0.1388
21796W        W26196  15.046   3.014  30.092 -0.3579  0.1506  0.0751
21797W        W26197   1.075   2.867  14.675  0.0747 -0.2945  0.1116
21798W        W26198  11.920   2.023   3.428  0.0575 -0.3406  0.0350
21799W        W26199   1.300   4.426  33.636 -0.1357  0.1559  0.0791
21800W        W26200   8.456   0.050  19.126 -0.1137 -0.0118  0.1909
21801W        W26201  19.936   0.177  36.392 -0.1879 -0.1157 -0.0963
21802W        W26202  14.470   4.905  12.189  0.1199  0.1029 -0.0396
21803W        W26203  15.547   6.523   5.989  0.1132 -0.4509 -0.3241
21804W        W26204   2.035   1.626  29.339 -0.1535  0.0127 -0.0915
21805W        W26205   2.511   2.192   3.502 -0.2007 -0.1217  0.0607
21806W        W26206  11.493   5.311  22.914  0.1844  0.1288 -0.0353
21807W        W26207   8.063   2.869  19.344  0.0089  0.2246 -0.0439
21808W        W26208   9.514   1.441   0.544 -0.3274 -0.0404  0.0921
21809W        W26209  18.140   0.654  32.392 -0.0493 -0.2915  0.0164
21810W        W26210  11.775   3.850  13.704 -0.0962 -0.0800 -0.2664
21811W        W26211   2.760   5.426  31.213  0.1859  0.0395 -0.0728
21812W        W26212   8.965   0.936  18.085 -0.3279  0.0035 -0.0678
21813W        W26213  20.794   0.590  33.396  0.1789 -0.3594 -0.0945
21814W        W26214   2.475   4.985  15.091  0.0128 -0.2343 -0.0273
21815W        W26215   0.897   6.125   0.914  0.0710 -0.2240 -0.1253
21816W        W26216  19.974   2.229  31.247  0.0929 -0.5883 -0.1308
21817W        W26217  13.473   4.280  18.407 -0.3148  0.0408  0.1684
21818W        W26218  18.676   0.968  27.358  0.0309  0.0545  0.0513
21819W        W26219   6.397   0.077   2.389  0.1130 -0.0870 -0.1521
21820W        W26220   5.965   5.619  44.555 -0.1428 -0.1971  0.1859
21821W        W26221  16.164   0.274  31.619  0.0425  0.1938 -0.2815
21822W        W26222   3.758   2.225  35.830 -0.1586  0.1130 -0.0500
21823W        W26223   8.278   1.811  36.472 -0.2549  0.0593 -0.1208
21824W        W26224   9.820   3.839  19.643  0.0067  0.2219 -0.3469
21825W        W26225   0.546   0.826   1.927  0.0853 -0.0658  0.0513
21826W        W26226  11.631   2.997  12.928  0.0706 -0.0221  0.0154
21827W        W26227   7.236   6.412  31.110  0.3061  0.1561 -0.1444
21828W        W26228   2.286   1.895   3.171 -0.1935  0.1570  0.2409
21829W        W26229   1.587   5.005  42.047  0.0188 -0.2382 -0.0500
21830W        W26230  10.102   1.103  38.559 -0.1084  0.1479  0.0514
21831W        W26231  14.242   2.851  36.302  0.1161 -0.1232  0.3322
21832W        W26232   0.420   5.941   3.517 -0.1017 -0.0451  0.1341
21833W        W26233  14.655   2.177  15.902  0.0583 -0.0860  0.0980
21834W        W26234   3.385   3.915  17.824 -0.1424  0.2657  0.0009
21835W        W26235   2.110   4.316   7.736  0.1741 -0.0132  0.1583
21836W        W26236   7.986   4.583  18.938 -0.0141  0.1422 -0.0829
21837W        W26237   0.794   1.573   2.523  0.0887  0.2120 -0.2608
21838W        W26238  10.209   2.465  15.718  0.0304 -0.0885 -0.1430
21839W        W26239   0.299   2.675   9.936 -0.2416  0.2757  0.0662
21840W        W26240  12.598   3.901  18.026  0.1259 -0.1616  0.1223
21841W        W26241   0.099   1.193  22.341 -0.1096  0.1356 -0.2124
21842W        W26242  16.498   1.925  33.071  0.0784  0.1526  0.1731
21843W        W26243  15.851   6.244  34.588  0.0048  0.0040  0.0298
21844W        W26244   4.387   5.391  40.551 -0.5389  0.0375  0.3267
21845W        W26245  12.157   4.804  11.661  0.0316  0.2547 -0.2055
21846W        W26246  17.264   0.467  42.240 -0.1071 -0.1119  0.2136
21847W        W26247   8.516   6.235  17.263  0.0039  0.3310 -0.2393
21848W        W26248  19.450   4.224  35.687 -0.1901 -0.0015 -0.0113
21849W        W26249   7.300   3.996  39.154 -0.0169  0.1227 -0.1502
21850W        W26250   3.890   5.246  12.283 -0.1482  0.1393 -0.0804
21851W        W26251  19.910   4.452  32.813  0.2775  0.2402 -0.1211
21852W        W26252   6.817   5.556  44.978 -0.0143  0.1336 -0.0428
21853W        W26253  19.952   6.496   9.283  0.0971 -0.2224  0.1612
21854W        W26254  17.620   2.410  39.694 -0.1886  0.0081 -0.1206
21855W        W26255   7.949   2.547  12.474  0.4997 -0.4921  0.1419
21856W        W26256  16.270   3.647  13.013 -0.0008 -0.1091 -0.3664
21857W        W26257   1.764   3.120  23.762 -0.3050 -0.0291 -0.1526
21858W        W26258  18.957   2.813  26.930 -0.3384 -0.1839  0.0607
21859W        W26259  13.284   5.392   7.470  0.0513 -0.1188  0.1064
21860W        W26260  13.753   4.984   8.060  0.0369  0.1935  0.0308
21861W        W26261  16.297   4.113  40.002 -0.2686 -0.2073  0.0028
21862W        W26262   1.386   5.208  41.624 -0.0678 -0.0526  0.0904
21863W        W26263  15.621   4.993   0.747 -0.0119  0.0164  0.2873
21864W        W26264  13.625   4.826  12.242 -0.0612 -0.0408  0.3188
21865W        W26265  19.986   1.340  30.223 -0.0028 -0.0010  0.3083
21866W        W26266   5.001   3.932   0.860  0.1222  0.0454 -0.2596
21867W        W26267  15.469   3.971  31.882 -0.1170 -0.3086 -0.2655
21868W        W26268   3.932   3.789  13.956  0.0962  0.0378 -0.0410
21869W        W26269   0.828   1.903  40.697  0.0668 -0.0814 -0.3067
21870W        W26270  19.516   5.815  15.301  0.0397  0.2550  0.2674
21871W        W26271  20.958   4.144   8.974 -0.0878  0.1970 -0.0495
21872W        W26272   5.039   4.629  16.498 -0.2368 -0.0578  0.0366
21873W        W26273  20.133   3.728  25.049 -0.0950 -0.2629  0.1821
21874W        W26274  11.117   0.947  19.744  0.1772  0.2153 -0.0569
21875W        W26275  20.989   6.594  40.599  0.0982 -0.1497 -0.0316
21876W        W26276  11.123   1.689  15.341  0.2490 -0.1485 -0.2502
21877W        W26277   4.561   3.517  29.067 -0.2972 -0.1433  0.0567
21878W        W26278   7.198   4.527  21.708  0.1443  0.0605  0.0853
21879W        W26279  16.919   3.535   1.374  0.2778  0.0524  0.1665
21880W        W26280   2.125   0.061   2.718 -0.1910  0.1261 -0.1476
21881W        W26281  12.015   1.470   1.995 -0.0403  0.0641 -0.0111
21882W        W26282   7.909   2.430  14.846 -0.1128 -0.1118  0.1931
21883W        W26283   9.018   4.169  31.840 -0.2681  0.0985 -0.0096
21884W        W26284  20.962   0.208   5.128 -0.1206 -0.0900 -0.0318
21885W        W26285  14.199   0.978  35.322 -0.3144 -0.4619  0.0790
21886W        W26286   2.744   1.959  26.265 -0.0904 -0.2878  0.3235
21887W        W26287   8.538   1.157   0.444  0.4902  0.3127  0.0993
21888W        W26288   5.001   3.340  39.718 -0.0498  0.1228  0.2948
21889W        W26289   2.616   0.608  34.573 -0.0700  0.2245 -0.2991
21890W        W26290  19.817   4.064  42.804 -0.1527  0.1453 -0.0653
21891W        W26291   0.368   1.822  39.001 -0.2690  0.1489  0.1108
21892W        W26292  16.564   5.862  15.044 -0.2834 -0.0006  0.0648
21893W        W26293  18.571   4.377  43.260  0.1246 -0.2487  0.0419
21894W        W26294   9.340   0.596  35.177 -0.0846  0.2353  0.0573
21895W        W26295  11.619   3.942   4.990 -0.0010  0.0222 -0.0619
21896W        W26296   0.028   2.710  14.857  0.2186  0.0661  0.1858
21897W        W26297  15.821   4.188  25.008  0.1251  0.0775 -0.0490
21898W        W26298  20.758   2.519  30.909 -0.2324 -0.0013  0.0146
21899W        W26299   1.586   3.361  44.127  0.1041 -0.0775 -0.0847
21900W        W26300  13.928   2.608  27.718 -0.3610 -0.1215 -0.0463
21901W        W26301  20.942   1.208  15.293  0.0662  0.2129  0.1441
21902W        W26302  13.052   3.774  33.101  0.1820  0.0484  0.1376
21903W        W26303  19.261   3.460  23.399 -0.2784  0.0632 -0.0185
21904W        W26304  10.851   5.156   4.414 -0.0598  0.1975 -0.1160
21905W        W26305  15.960   2.556  16.337  0.0449  0.4609 -0.0196
21906W        W26306   9.832   2.559  36.150 -0.0239  0.2553  0.1099
21907W        W26307   5.369   0.238  29.776 -0.1742 -0.2096 -0.1577
21908W        W26308   0.566   2.768   1.920 -0.2355  0.2168 -0.0646
21909W        W26309   7.781   3.427  38.297  0.1964  0.2757  0.1330
21910W        W26310   2.428   6.511  42.547 -0.2199 -0.0992 -0.4993
21911W        W26311  15.614   5.894  44.821 -0.1134  0.0448  0.0747
21912W        W26312  13.827   1.413  33.107 -0.1008  0.0837  0.0147
21913W        W26313  19.305   0.258   2.762  0.2275  0.0934 -0.3333
21914W        W26314  14.510   0.055   7.567  0.2121  0.0772  0.1117
21915W        W26315  15.381   4.160   7.369  0.1762 -0.0196  0.1362
21916W        W26316   1.919   4.160   3.102 -0.1267 -0.0587 -0.0743
21917W        W26317   3.914   0.362  26.657 -0.1183  0.1629 -0.1734
21918W        W26318  18.937   2.266  10.674 -0.0776  0.1641 -0.1141
21919W        W26319   0.247   6.354  21.630  0.1038 -0.1292 -0.2261
21920W        W26320  20.915   4.383  24.497  0.2245 -0.1775 -0.1988
21921W        W26321   2.928   5.131   1.201 -0.1340  0.3520 -0.0320
21922W        W26322  10.375   4.399  18.882 -0.4158 -0.1910 -0.1716
21923W        W26323   5.416   3.393   4.956  0.0669 -0.1175 -0.0561
21924W        W26324   8.124   4.106   0.178  0.0637 -0.1326 -0.1875
21925W        W26325  19.341   4.161   0.451 -0.1791 -0.0768  0.2632
21926W        W26326   5.777   4.704  15.825  0.1269 -0.1014 -0.0663
21927W        W26327  19.799   3.658  32.429  0.0808  0.0726  0.0496
21928W        W26328   0.467   5.134  41.540  0.0077 -0.0024 -0.1944
21929W        W26329   5.469   5.991  11.139  0.1533  0.1689 -0.0100
21930W        W26330   5.540   3.502  33.306  0.0805  0.1408  0.1851
21931W        W26331   4.251   1.455  29.376 -0.1244  0.0716 -0.1081
21932W        W26332  18.816   3.102  10.249  0.2453  0.3616 -0.0744
21933W        W26333   4.768   5.065   1.401  0.0874  0.0310  0.1683
21934W        W26334  12.031   0.294  41.727  0.0032 -0.0187 -0.2107
21935W        W26335  17.092   6.056  43.856  0.0821  0.1547 -0.1223
21936W        W26336   4.257   3.668  36.419  0.2278  0.1418 -0.0233
21937W        W26337  10.640   0.240   6.022 -0.3502  0.1832  0.1109
21938W        W26338  20.252   3.050  10.770  0.0609  0.0971  0.0551
21939W        W26339   8.383   5.456  43.185 -0.0655 -0.2890 -0.0579
21940W        W26340   7.231   1.338  45.005 -0.2775 -0.2290  0.1454
21941W        W26341   8.098   0.759  14.458 -0.0177 -0.1262  0.0484
21942W        W26342  12.903   0.759   9.396 -0.1216  0.0869 -0.2714
21943W        W26343   2.870   2.798   9.462  0.0206 -0.1291  0.1637
21944W        W26344  21.040   6.248  42.938  0.1940  0.3013  0.0233
21945W        W26345   0.737   2.354  44.515  0.1426 -0.1823  0.1191
21946W        W26346   1.458   4.873  14.737 -0.2438  0.1051  0.0844
21947W        W26347   6.682   3.252   5.209  0.1584  0.0366 -0.0586
21948W        W26348   5.767   5.800   7.072  0.1090 -0.0274  0.0959
21949W        W26349  16.664   2.173   9.264  0.1483  0.2407  0.1218
21950W        W26350  19.108   1.353  22.940 -0.0193 -0.0341 -0.2194
21951W        W26351  12.178   4.829  35.429  0.3803 -0.1845 -0.0101
21952W        W26352   1.243   5.985  41.213 -0.0653 -0.2266  0.0457
21953W        W26353   7.804   3.236  39.101  0.1701 -0.0826  0.0241
21954W        W26354   6.273   6.355   5.340 -0.2458  0.1634  0.4372
21955W        W26355  13.875   5.784  39.370 -0.1815  0.0033 -0.1038
21956W        W26356  11.212   4.864  19.273  0.0147 -0.1092 -0.0677
21957W        W26357  11.428   4.525  13.401 -0.2279 -0.0310 -0.1807
21958W        W26358  19.191   5.744  24.641  0.0918 -0.1220  0.0623
21959W        W26359  13.013   4.138  35.636 -0.2297  0.2657  0.1438
21960W        W26360  13.372   3.703  30.206 -0.0778 -0.1266 -0.1359
21961W        W26361   4.147   0.005  13.561 -0.1425 -0.1028  0.1966
21962W        W26362   6.926   4.816  36.261  0.3431  0.0150  0.1387
21963W        W26363  12.696   2.859  12.903 -0.0527  0.3063  0.0134
21964W        W26364  10.362   4.614   7.099  0.1549  0.1111 -0.0323
21965W        W26365  16.492   6.085  16.676  0.1431 -0.0899  0.0254
21966W        W26366  17.908   1.695  10.133 -0.0805  0.2514  0.0537
21967W        W26367  10.305   0.214  29.271 -0.0583 -0.3117  0.0361
21968W        W26368  19.658   6.386  35.679 -0.1305 -0.0568 -0.0253
21969W        W26369  19.142   0.460  35.232 -0.0407 -0.1312  0.2499
21970W        W26370   0.402   0.583  42.445 -0.1634 -0.1487  0.1703
21971W        W26371  18.455   3.060  29.747 -0.0203 -0.3123  0.2390
21972W        W26372  11.744   1.806  29.499  0.1749  0.1105 -0.2189
21973W        W26373  16.228   1.897  36.078 -0.0253  0.1690  0.2347
21974W        W26374  12.944   5.233  34.297 -0.0633  0.1056  0.2385
21975W        W26375   0.512   1.884  40.282  0.1565  0.0322 -0.2855
21976W        W26376   1.129   2.108   1.448  0.1666 -0.2312 -0.3473
21977W        W26377  19.598   1.305  15.728 -0.1470 -0.0096 -0.1363
21978W        W26378   3.051   3.397   1.478  0.0862 -0.0761 -0.5323
21979W        W26379  19.750   5.157   3.138 -0.2638 -0.1704  0.3218
21980W        W26380  18.278   1.465  16.126  0.2636 -0.1926  0.1786
21981W        W26381   8.973   4.013   9.182  0.1073  0.1228 -0.5322
21982W        W26382  15.848   6.373  14.881 -0.3198 -0.1142 -0.0414
21983W        W26383  17.128   0.470   8.615  0.3545  0.0257 -0.0191
21984W        W26384   7.793   2.648   3.717 -0.0172 -0.1019 -0.0057
21985W        W26385   9.201   0.582   0.987  0.0559 -0.1750  0.2730
21986W        W26386  16.175   5.630   9.750  0.2548  0.0144  0.2822
21987W        W26387  15.773   1.690  33.447 -0.1369  0.1872 -0.0313
21988W        W26388  13.619   6.538  13.668  0.3529  0.1987  0.1351
21989W        W26389   4.821   6.085  13.764  0.3242  0.2418 -0.1673
21990W        W26390  20.249   2.450  25.059  0.0467 -0.3964 -0.2594
21991W        W26391   9.635   2.744  37.870 -0.1065  0.1197  0.1033
21992W        W26392   0.759   5.700  11.017  0.1168  0.0239 -0.0752
21993W        W26393  20.676   0.282  37.235  0.2678 -0.1899 -0.1305
21994W        W26394   6.025   5.128  10.943  0.1850 -0.3322 -0.0931
21995W        W26395   7.972   6.162  42.649  0.3733 -0.0586  0.0991
21996W        W26396   4.244   1.973   5.709  0.1683  0.3830  0.1307
21997W        W26397  12.485   0.519  43.094 -0.0250 -0.2451 -0.3467
21998W        W26398  12.598   2.323  30.544 -0.2649 -0.3466  0.1362
21999W        W26399  13.214   4.961   7.076 -0.0281  0.0191  0.1572
22000W        W26400  21.001   1.918  36.130 -0.2644 -0.0694 -0.1710
22001W        W26401  16.667   4.947  45.052 -0.2182  0.2024  0.4322
22002W        W26402  15.318   3.070   0.280  0.0886 -0.2682 -0.0483
22003W        W26403   1.970   1.650  30.332  0.0493  0.1265 -0.2119
22004W        W26404   4.470   4.676  15.160  0.2293 -0.0364  0.2187
22005W        W26405   9.997   3.922  17.741  0.1890  0.0591  0.0715
22006W        W26406   6.044   0.843  37.606 -0.0667 -0.2366 -0.2101
22007W        W26407   8.342   5.266  36.388 -0.0144  0.2883 -0.2816
22008W        W26408  10.496   5.870  41.583  0.3394 -0.1411  0.0922
22009W        W26409  19.789   1.625   0.458 -0.1969  0.1460  0.2028
22010W        W26410  16.391   3.699   4.809 -0.1649  0.0610  0.0157
22011W        W26411  10.497   0.983   4.130  0.0865  0.0636  0.0707
22012W        W26412  18.671   4.982  40.712  0.1420 -0.2004 -0.1162
22013W        W26413   2.167   3.968  40.138 -0.0456 -0.3295 -0.0381
22014W        W26414   3.559   1.820   5.210  0.2297  0.0165  0.1414
22015W        W26415  19.249   0.725  20.896  0.0686  0.1470  0.1047
22016W        W26416  16.012   0.904  43.344 -0.3855  0.0488  0.1285
22017W        W26417  16.364   0.262  29.494 -0.2653  0.1208  0.1661
22018W        W26418  20.240   3.079   0.289 -0.3533  0.0950 -0.3518
22019W        W26419  18.109   0.521  36.528 -0.2432 -0.1378  0.0848
22020W        W26420   9.715   6.312  14.956 -0.0138  0.1492 -0.1585
22021W        W26421   5.437   4.174   6.585 -0.1985  0.1467 -0.0121
22022W        W26422  13.671   0.016  10.879  0.2316 -0.0302 -0.2186
22023W        W26423   8.190   0.570  13.572  0.0195  0.4274 -0.2482
22024W        W26424  19.397   3.752  40.629  0.1180  0.2297 -0.1192
22025W        W26425   4.303   2.939  43.097 -0.0629 -0.0510  0.0136
22026W        W26426  11.195   4.634  35.677 -0.1080  0.1303  0.1452
22027W        W26427   6.378   1.520   4.027 -0.1701  0.0138  0.0946
22028W        W26428  20.364   4.562  31.723 -0.0189 -0.0931 -0.3306
22029W        W26429  19.496   5.441  28.002 -0.2143 -0.1002  0.0504
22030W        W26430   9.261   6.118  33.797 -0.0477  0.2481 -0.3509
22031W        W26431  18.749   5.497   8.499  0.2380 -0.1741 -0.0966
22032W        W26432  10.117   0.957  17.983 -0.2637  0.0170 -0.2194
22033W        W26433   1.012   3.726  36.798 -0.3847  0.2341  0.0404
22034W        W26434   6.955   1.848  39.771 -0.0446 -0.2209 -0.1133
22035W        W26435   9.965   0.312   7.978  0.2359  0.0845 -0.0002
22036W        W26436   0.183   2.237  14.064 -0.2482 -0.0175  0.4015
22037W        W26437  16.638   6.076   0.766 -0.2144  0.0577 -0.0083
22038W        W26438  20.877   4.661   2.239 -0.1734  0.2571 -0.0786
22039W        W26439   0.641   1.020  24.147 -0.0067 -0.1697 -0.1626
22040W        W26440  12.665   6.205  31.530 -0.0237  0.0367  0.0331
22041W        W26441   4.229   5.303   5.314 -0.0176 -0.0500 -0.1626
22042W        W26442   0.704   6.139  22.800 -0.3241  0.2326  0.0956
22043W        W26443   4.983   5.564   4.169 -0.0483 -0.3030  0.0572
22044W        W26444   0.716   6.309  35.019 -0.0329  0.1267  0.0832
22045W        W26445   4.941   0.956   1.894 -0.0090  0.1263 -0.1859
22046W        W26446   8.292   4.040  34.488 -0.2737  0.1337  0.2014
22047W        W26447   4.924   3.774  10.990 -0.2260  0.0751  0.0198
22048W        W26448   2.521   5.427  32.474 -0.1129  0.3586  0.0968
22049W        W26449   4.531   1.138  11.263  0.0791  0.2933 -0.4545
22050W        W26450  20.931   1.113  16.094 -0.0653  0.0329 -0.0779
22051W        W26451   3.717   4.535  43.867 -0.0877 -0.1512  0.1794
22052W        W26452   1.044   2.557  41.017 -0.2764  0.1074  0.1255
22053W        W26453  19.544   1.870  28.507 -0.0831  0.0113  0.1817
22054W        W26454   1.241   5.231  43.381 -0.0318 -0.2436  0.1437
22055W        W26455  15.816   1.030  14.769  0.2392 -0.0485 -0.0208
22056W        W26456   4.841   0.174   3.631  0.0448 -0.2240 -0.0549
22057W        W26457  18.221   1.050   6.178  0.2398  0.0836  0.0140
22058W        W26458  12.347   2.429  19.853  0.0834  0.0806 -0.1454
22059W        W26459  16.498   0.799   8.322  0.2248  0.1003 -0.2207
22060W        W26460   5.766   1.649  13.496 -0.0749  0.0578  0.1834
22061W        W26461   8.600   1.905  41.214  0.0898 -0.2603  0.2684
22062W        W26462   5.855   1.592  29.979  0.1941  0.1023  0.1498
22063W        W26463   6.777   5.287  40.851  0.1591 -0.0542 -0.0266
22064W        W26464  19.962   5.254   6.262 -0.0768 -0.0528  0.0428
22065W        W26465   2.128   5.634  33.824  0.0519  0.0177 -0.1280
22066W        W26466   8.483   5.966  10.856 -0.0635  0.0127  0.0441
22067W        W26467  10.714   2.638  33.662 -0.1059 -0.1409  0.1756
22068W        W26468   2.477   5.755   1.674  0.1600  0.0875 -0.1845
22069W        W26469  19.080   6.135  37.894  0.3104 -0.1375  0.0752
22070W        W26470   3.991   3.144  30.368  0.0361 -0.1488  0.0980
22071W        W26471   6.781   2.832  17.925  0.0885  0.1444  0.1042
22072W        W26472   7.269   2.923  17.620 -0.0343  0.1716  0.0057
22073W        W26473  17.223   1.533  25.447 -0.0824  0.1312 -0.0478
22074W        W26474   5.327   1.425  37.054 -0.1826  0.3951 -0.1757
22075W        W26475   2.820   6.213   2.507  0.4716  0.1977  0.0425
22076W        W26476   1.403   1.409  13.941 -0.1243  0.1601  0.0800
22077W        W26477   9.275   1.418   4.156 -0.0177  0.0476  0.1812
22078W        W26478   5.783   0.987  44.277 -0.0234 -0.2699  0.0650
22079W        W26479   3.383   1.980   3.073  0.0270 -0.1155 -0.0485
22080W        W26480  20.315   3.760  41.677 -0.4588 -0.2652 -0.1683
22081W        W26481   5.913   4.208  16.933 -0.2888  0.0847  0.0759
22082W        W26482   0.306   0.609   3.120 -0.0878 -0.2797  0.0952
22083W        W26483   7.068   0.760  17.415  0.1549  0.1763  0.1030
22084W        W26484  12.935   0.492  29.777 -0.2289  0.1696  0.0611
22085W        W26485   6.687   4.147  20.743 -0.1716 -0.1856  0.3379
22086W        W26486   9.938   1.424  39.813  0.0752  0.2526 -0.1584
22087W        W26487  11.163   3.839   7.831 -0.5846  0.0778  0.2832
22088W        W26488  15.252   5.050  41.750  0.2377 -0.0179 -0.0534
22089W        W26489  13.927   3.866   0.812 -0.1591 -0.2401 -0.1430
22090W        W26490   2.056   4.534  11.837  0.0940  0.1015 -0.0541
22091W        W26491   8.266   1.046  38.221 -0.0459  0.0100  0.1752
22092W        W26492   6.654   1.768   9.613  0.1006  0.4323 -0.1695
22093W        W26493  16.083   5.494  26.072 -0.0985 -0.4012 -0.2317
22094W        W26494  10.418   0.795  37.357  0.1701 -0.0770  0.1715
22095W        W26495  16.933   4.474   9.670  0.0519  0.2673 -0.3320
22096W        W26496  19.010   5.751  33.677 -0.2568 -0.2096 -0.5234
22097W        W26497   3.612   0.446   9.288  0.3837  0.0018  0.0596
22098W        W26498   0.582   3.697   9.478 -0.0387 -0.0461 -0.1122
22099W        W26499  17.734   6.253   6.229 -0.1828  0.2566  0.1780
22100W        W26500  15.944   4.862  31.473  0.1129  0.1657 -0.1258
22101W        W26501  16.022   6.412   8.179  0.1386  0.0765 -0.4080
22102W        W26502   7.030   4.890  35.653  0.0656  0.0715 -0.1786
22103W        W26503  13.829   1.559  15.881  0.0789  0.0793 -0.3274
22104W        W26504  21.004   3.041  14.430  0.0589 -0.0383  0.2136
22105W        W26505   0.575   2.099   2.617  0.3113  0.2034 -0.0870
22106W        W26506  18.394   3.897   1.334 -0.0841  0.1398 -0.0640
22107W        W26507   6.662   6.370  20.210  0.0339  0.0676  0.0716
22108W        W26508  10.984   4.848   5.293  0.0894  0.0699  0.1051
22109W        W26509  12.632   2.143  11.711 -0.0889 -0.0368 -0.1368
22110W        W26510   1.762   5.293   0.713 -0.1248  0.3066  0.0719
22111W        W26511  10.478   6.300  23.508  0.2249 -0.0446  0.0281
22112W        W26512   5.387   1.543  31.348 -0.1825  0.0161 -0.0397
22113W        W26513  20.043   3.837  44.751  0.1122 -0.0902 -0.1104
22114W        W26514   4.225   4.961  33.202  0.0513 -0.2299 -0.0667
22115W        W26515   5.031   2.018  14.130 -0.0571  0.1030  0.3436
22116W        W26516  13.394   5.591  30.866  0.3008 -0.1700  0.0228
22117W        W26517  20.458   1.031   9.929 -0.1212 -0.1410  0.0402
22118W        W26518  11.529   4.660  39.071 -0.0449 -0.0560  0.2726
22119W        W26519   4.260   6.256   1.759  0.4902 -0.0459  0.3101
22120W        W26520  10.027   4.994  16.920 -0.0387  0.2518 -0.2177
22121W        W26521  13.627   0.075  40.178 -0.1183  0.0775  0.0193
22122W        W26522   2.284   6.428  24.252  0.0485 -0.1096 -0.2390
22123W        W26523   6.172   4.916  36.271 -0.4906  0.1465  0.1348
22124W        W26524  18.078   4.453  23.179 -0.0881  0.0523  0.0648
22125W        W26525  17.636   0.478  42.837  0.0057  0.0917  0.1610
22126W        W26526  14.553   4.613  33.400  0.0348  0.3500  0.0870
22127W        W26527   6.299   4.145  41.983  0.1595  0.2125  0.1861
22128W        W26528  17.369   4.411  16.150  0.1612 -0.0658  0.1946
22129W        W26529   0.954   4.687   6.611 -0.0474  0.1714  0.1828
22130W        W26530  19.709   0.925   8.622  0.1835  0.0535 -0.4552
22131W        W26531   8.809   0.427  41.196  0.1068  0.0004 -0.1335
22132W        W26532  19.085   2.780  34.246 -0.0252 -0.1250  0.0328
22133W        W26533   3.361   0.950  34.618 -0.1769  0.0845  0.0996
22134W        W26534   9.704   1.390  21.962 -0.0897  0.2784  0.0730
22135W        W26535  20.424   3.455   6.367 -0.1088  0.1721  0.0783
22136W        W26536   2.583   6.489  24.774  0.1155  0.0005 -0.2340
22137W        W26537   3.395   1.060   6.661 -0.1456  0.0998 -0.3307
22138W        W26538  18.813   4.960  15.519 -0.3090  0.3699  0.0022
22139W        W26539   4.317   3.633  32.005 -0.0266  0.2414 -0.0060
22140W        W26540   3.051   3.548  34.910  0.0329 -0.2650 -0.3329
22141W        W26541  15.139   0.850   6.614  0.2377  0.1131 -0.0133
22142W        W26542   6.996   1.664  34.403 -0.0037  0.1048 -0.0521
22143W        W26543   7.977   6.086  10.455 -0.1016  0.0163 -0.0316
22144W        W26544   9.256   5.735  39.912  0.1343 -0.2389 -0.0229
22145W        W26545   7.293   3.789  32.599  0.0161 -0.0245  0.0351
22146W        W26546   5.579   2.706  19.039 -0.0765  0.3282 -0.2547
22147W        W26547   4.357   5.077  19.529  0.1243  0.3177  0.2393
22148W        W26548   3.078   3.302   0.702  0.1283  0.0985 -0.1869
22149W        W26549  19.722   0.784  31.600  0.0606 -0.3252 -0.1782
22150W        W26550  18.932   0.136  37.231  0.0965  0.0569 -0.0245
22151W        W26551   8.259   4.193  21.632 -0.0601 -0.2203 -0.0422
22152W        W26552  10.060   1.795  33.643 -0.0027 -0.3093 -0.1680
22153W        W26553   3.865   0.152  15.312 -0.0303  0.0197 -0.0643
22154W        W26554  14.116   1.028  10.851 -0.3001 -0.0685  0.1177
22155W        W26555   6.348   4.993  30.506  0.1494 -0.4476 -0.0944
22156W        W26556  12.283   4.262  44.275  0.0269 -0.2332  0.0066
22157W        W26557   7.568   6.146  42.310  0.0620 -0.0856  0.0532
22158W        W26558  17.645   1.251  38.244 -0.5635 -0.1623  0.0639
22159W        W26559   1.659   4.879   2.848 -0.2282 -0.2575  0.1516
22160W        W26560   0.499   5.410  23.823  0.0351 -0.2456 -0.1101
22161W        W26561   3.212   3.706   7.674  0.1251 -0.4049 -0.0971
22162W        W26562  10.597   0.435  42.989  0.1146 -0.3620  0.3277
22163W        W26563  12.686   4.796  15.288 -0.0267  0.0608  0.0878
22164W        W26564  12.724   0.434  18.998  0.0508  0.0857  0.0381
22165W        W26565  20.891   1.429  23.029 -0.1688  0.4166 -0.0014
22166W        W26566  14.217   6.232  30.544  0.0315  0.0734  0.1464
22167W        W26567   9.990   3.603  38.767  0.0751  0.0066 -0.1483
22168W        W26568   7.116   5.313   4.789 -0.1549 -0.1534  0.1692
22169W        W26569   1.853   3.890   6.031 -0.0625  0.2048  0.1782
22170W        W26570  17.220   5.970   6.552  0.0855  0.3257  0.0834
22171W        W26571   1.278   2.273  10.405  0.2403  0.1836  0.2339
22172W        W26572   9.685   3.447  34.238  0.3631  0.0178 -0.1280
22173W        W26573  16.992   2.107  26.817 -0.2311 -0.3285  0.3727
22174W        W26574  17.134   3.349  10.037 -0.0083  0.1066 -0.0139
22175W        W26575   6.248   5.736  39.966 -0.2039 -0.0519  0.0246
22176W        W26576   7.670   2.254  34.891  0.0279  0.0487  0.0758
22177W        W26577  11.694   2.676   0.801 -0.1256  0.1036  0.1008
22178W        W26578  18.984   4.013   0.062  0.2609 -0.2335 -0.2530
22179W        W26579  11.476   1.943  15.097  0.0170  0.2713 -0.1943
22180W        W26580  13.654   0.289  19.208  0.2928  0.4471 -0.1133
22181W        W26581  15.728   0.545  12.227 -0.2016  0.0060  0.0198
22182W        W26582   8.040   5.049  34.051  0.0722 -0.0810 -0.1249
22183W        W26583  19.084   3.879  29.760  0.2273  0.0421  0.1424
22184W        W26584   5.532   4.907  35.810 -0.2279  0.2872 -0.1177
22185W        W26585  10.786   1.879  31.844 -0.2003 -0.1166 -0.2232
22186W        W26586   2.182   1.498   8.071  0.1970  0.1284 -0.1085
22187W        W26587  19.376   1.654  23.219  0.2448 -0.0761 -0.1841
22188W        W26588   9.615   3.952  30.074  0.0065 -0.0491 -0.0684
22189W        W26589  20.955   2.297  32.268  0.1908  0.0460  0.0541
22190W        W26590   2.709   1.774   0.190  0.0699  0.0286 -0.1763
22191W        W26591   8.065   6.171  42.128  0.1875  0.0007  0.0936
22192W        W26592  15.682   1.660  34.686 -0.2687  0.2087 -0.1474
22193W        W26593  12.794   6.395  35.813  0.1572  0.2915  0.2830
22194W        W26594   4.645   0.490  42.004  0.0399  0.1727 -0.2088
22195W        W26595  14.687   6.316  32.473 -0.0840  0.1885 -0.1153
22196W        W26596  18.244   4.537  43.711 -0.1326 -0.0391  0.0584
22197W        W26597  14.124   1.477  18.194 -0.2056  0.0161  0.0574
22198W        W26598  15.823   6.198  27.389 -0.1618 -0.1279  0.0061
22199W        W26599   1.390   6.084  14.071 -0.0285 -0.3460 -0.1266
22200W        W26600  11.734   2.833  42.853 -0.2783 -0.2847 -0.2401
22201W        W26601   5.579   4.781  44.801 -0.0631 -0.2052 -0.0287
22202W        W26602   8.995   5.880   0.829 -0.1878 -0.4009 -0.0671
22203W        W26603   7.379   2.544   7.377  0.0025  0.2088  0.0450
22204W        W26604  12.600   4.548  13.813 -0.0235 -0.2942  0.1817
22205W        W26605   1.726   4.245  12.350 -0.2284 -0.2237 -0.0869
22206W        W26606  13.581   5.539  19.786 -0.2140 -0.0383 -0.0030
22207W        W26607   0.133   3.742  37.829  0.1574  0.0367  0.0282
22208W        W26608  13.255   4.471  38.795  0.1466 -0.1714 -0.0287
22209W        W26609   4.953   2.386  34.634 -0.0547  0.0677  0.1038
22210W        W26610  11.894   5.503  35.044  0.1258 -0.1396 -0.1105
22211W        W26611  17.224   4.299  12.933 -0.6124 -0.0904  0.0412
22212W        W26612  17.438   5.149  24.476  0.0274 -0.0922  0.1223
22213W        W26613  20.185   3.158  34.874  0.1923  0.0464 -0.0983
22214W        W26614  18.525   1.949  38.974 -0.1557  0.0124  0.2895
22215W        W26615  13.026   4.735   6.465  0.3573 -0.1595  0.3476
22216W        W26616  16.416   5.743  24.133  0.1050  0.0794 -0.0992
22217W        W26617  15.608   0.140   4.665 -0.1509  0.1051  0.0693
22218W        W26618  12.210   6.271   6.600 -0.1385  0.3750 -0.3529
22219W        W26619  15.969   3.076   4.509  0.0172 -0.3670 -0.0624
22220W        W26620  17.981   4.795  24.033 -0.0883 -0.1181 -0.5615
22221W        W26621  15.018   4.758  35.128  0.1288 -0.1397  0.0363
22222W        W26622   4.827   2.618  15.166  0.0443  0.0771 -0.0401
22223W        W26623   4.406   5.161   1.759  0.0723 -0.0660 -0.1479
22224W        W26624   9.172   0.569  13.678 -0.3944  0.1532 -0.0319
22225W        W26625  18.905   1.897  28.697  0.1588  0.2671 -0.0551
22226W        W26626  10.573   5.325  13.394 -0.2778 -0.2567  0.1529
22227W        W26627   9.230   3.769  14.280  0.6748  0.0775 -0.1712
22228W        W26628  18.155   0.025  22.513 -0.2748  0.0292 -0.0275
22229W        W26629  13.708   5.555   9.123 -0.2240  0.0450  0.0226
22230W        W26630  11.973   4.154   0.004  0.1509 -0.2278 -0.3143
22231W        W26631  13.990   4.955   2.739  0.1289 -0.0685 -0.0988
22232W        W26632   7.027   4.301  37.661 -0.0827  0.0548  0.3689
22233W        W26633   1.941   5.695   6.083  0.0690  0.0048  0.0022
22234W        W26634  10.049   6.400  30.294  0.0424 -0.1657 -0.1431
22235W        W26635  13.219   3.070  27.361  0.2674 -0.0595 -0.1535
22236W        W26636  18.720   4.117   5.290 -0.0667 -0.0984 -0.0168
22237W        W26637  10.727   1.354  44.880 -0.1782  0.0862 -0.0024
22238W        W26638  16.329   1.393   3.151 -0.2761 -0.1581  0.1991
22239W        W26639   9.327   1.571   5.058  0.1425  0.1646 -0.0792
22240W        W26640   1.797   4.817  11.322  0.2698 -0.2986 -0.2569
22241W        W26641  17.443   1.764   7.870 -0.0993 -0.1534 -0.1771
22242W        W26642  13.354   2.820  32.974  0.0951 -0.2143  0.1617
22243W        W26643  17.406   2.840  35.969  0.2986 -0.2202 -0.0536
22244W        W26644   9.241   2.653  32.184 -0.1496 -0.1272  0.0736
22245W        W26645  12.870   4.892  38.544 -0.0736  0.0952  0.2112
22246W        W26646  20.109   2.277   7.861  0.0889  0.0485  0.3807
22247W        W26647   0.245   3.015   2.182  0.1357 -0.1155 -0.0610
22248W        W26648  17.608   6.522  28.381  0.3127 -0.3585 -0.3136
22249W        W26649  19.660   2.180  32.695 -0.1350 -0.1233  0.4023
22250W        W26650   4.180   4.202  26.474  0.0023 -0.1436 -0.1427
22251W        W26651  19.381   0.908  10.045  0.1666  0.0991  0.1554
22252W        W26652   6.916   2.419   1.376 -0.0118  0.0199 -0.0159
22253W        W26653   3.066   6.424  26.652 -0.1137  0.0054  0.0814
22254W        W26654  19.476   1.829  35.125 -0.1774 -0.1841  0.1185
22255W        W26655   0.053   3.769   0.483 -0.0886 -0.1947  0.1077
22256W        W26656  18.377   4.664  32.805 -0.0099  0.0059 -0.2247
22257W        W26657   8.219   5.786   1.937  0.0918 -0.2502  0.0451
22258W        W26658   3.426   2.387  42.429  0.0825 -0.2017  0.2376
22259W        W26659  14.103   1.222  34.059 -0.4834  0.1109  0.0972
22260W        W26660  20.204   4.845  44.586  0.0534 -0.1437 -0.0846
22261W        W26661  16.450   4.904  13.428  0.0093 -0.1407 -0.0345
22262W        W26662   7.428   4.391  38.861  0.0211  0.0997  0.1916
22263W        W26663  14.873   1.137   6.267  0.4023 -0.1970 -0.1410
22264W        W26664  18.628   3.340  39.277  0.0411  0.2536 -0.1931
22265W        W26665   7.478   6.307  30.712  0.1982 -0.1458  0.1010
22266W        W26666  17.706   4.764  22.506  0.4888  0.1225 -0.1461
22267W        W26667  16.980   4.450  16.478 -0.1513  0.0346 -0.1295
22268W        W26668   8.955   2.275  35.788 -0.1827  0.1563 -0.0217
22269W        W26669   6.848   5.274  15.530  0.0186 -0.2803 -0.3028
22270W        W26670   1.776   3.992  39.235 -0.1543  0.0605 -0.0550
22271W        W26671  12.738   3.421  13.688 -0.0067 -0.0870  0.1463
22272W        W26672  10.051   5.688  14.526 -0.0269 -0.0614  0.1066
22273W        W26673   0.468   1.214  29.960 -0.3037  0.0290 -0.1102
22274W        W26674   9.435   6.366   9.419 -0.0381  0.0849 -0.1083
22275W        W26675  12.608   5.117   9.670  0.0093 -0.0858 -0.1716
22276W        W26676  16.329   0.636   4.445 -0.0078  0.1587 -0.2194
22277W        W26677  13.542   5.793   7.396 -0.0636  0.2210 -0.0844
22278W        W26678  17.941   4.655  26.737  0.3792  0.1589 -0.0246
22279W        W26679  18.625   5.996   3.909 -0.1613 -0.0628  0.0183
22280W        W26680  17.636   3.614  14.663  0.0244 -0.0762  0.0151
22281W        W26681   8.872   5.904  43.010 -0.0934  0.0352 -0.2500
22282W        W26682  19.802   2.808  26.063  0.2943  0.2410  0.1336
22283W        W26683   9.447   6.341  12.183  0.0356  0.0469  0.3061
22284W        W26684  17.800   0.710  34.085 -0.1726  0.0322 -0.0712
22285W        W26685  19.114   5.412  36.509 -0.0620 -0.0487 -0.1149
22286W        W26686  14.884   3.763  34.862 -0.2252  0.3064 -0.0505
22287W        W26687  12.499   4.331  40.959  0.3899  0.0656 -0.0770
22288W        W26688  17.082   1.256  40.947 -0.1940  0.2421 -0.0266
22289W        W26689  17.966   6.584  12.921 -0.2870  0.2057 -0.2916
22290W        W26690   2.532   5.547  28.097  0.0911 -0.3339  0.1602
22291W        W26691   9.272   0.863  42.354 -0.2638 -0.0082  0.0854
22292W        W26692  10.186   0.035  23.826  0.3298 -0.3502 -0.0699
22293W        W26693   8.400   0.307  30.149 -0.3620  0.0012 -0.0101
22294W        W26694  20.959   2.025  25.237 -0.1350 -0.1264  0.3124
22295W        W26695   4.834   3.764  37.929  0.0159  0.1106  0.1219
22296W        W26696  11.597   1.887  15.635 -0.0107  0.0210  0.2867
22297W        W26697  16.733   5.164  33.155 -0.0138  0.2786  0.2091
22298W        W26698  19.533   5.523  27.007  0.2055  0.0663  0.0295
22299W        W26699   6.179   5.449   2.616 -0.1079  0.0693  0.3472
22300W        W26700  19.373   5.790   6.494 -0.1103 -0.1870 -0.0094
22301W        W26701  20.342   3.924  28.727 -0.1242  0.1848  0.0990
22302W        W26702  15.718   4.871  35.544  0.0430 -0.2373 -0.0258
22303W        W26703   0.541   0.097  15.147  0.2427  0.3612  0.0515
22304W        W26704  12.229   1.813   0.044 -0.1673 -0.2624  0.0900
22305W        W26705  16.264   3.889   6.929  0.2157 -0.1330  0.1519
22306W        W26706  15.404   5.813  43.210 -0.0818 -0.0612 -0.1291
22307W        W26707  10.285   0.646  32.733 -0.0090  0.0270 -0.3010
22308W        W26708   5.843   5.617  41.651  0.1180 -0.2800 -0.0885
22309W        W26709   1.883   4.442  42.740  0.3107 -0.2193  0.2166
22310W        W26710   1.120   3.410  43.610  0.2013  0.0054 -0.1671
22311W        W26711   3.336   4.834  37.634 -0.3736 -0.1481  0.1799
22312W        W26712   7.728   4.557  14.351  0.2017  0.2341  0.1236
22313W        W26713  19.259   0.107  34.932 -0.0728  0.1214  0.0175
22314W        W26714  14.116   3.233  31.268  0.0453  0.2597  0.1677
22315W        W26715  20.837   1.926   3.159 -0.1285  0.0486 -0.1118
22316W        W26716  17.169   1.083   6.908  0.1964  0.3175  0.3446
22317W        W26717   7.972   5.854   0.434  0.0020 -0.1308 -0.2118
22318W        W26718   0.188   2.748  41.373 -0.0456 -0.2971 -0.1995
22319W        W26719  18.065   0.559  43.754 -0.1139 -0.0985 -0.0839
22320W        W26720  18.334   0.602  34.130 -0.1272 -0.1854 -0.3510
22321W        W26721  14.408   5.571   1.011 -0.0726  0.0012  0.0925
22322W        W26722   2.386   1.668  14.578  0.0771 -0.1626 -0.2704
22323W        W26723  14.106   1.298  36.210 -0.0495  0.0206  0.0649
22324W        W26724   5.017   6.161  34.584  0.0720 -0.0374  0.0294
22325W        W26725  16.286   4.739  15.679  0.1908 -0.3272 -0.1190
22326W        W26726  17.164   6.096  35.358 -0.0757  0.0622  0.2019
22327W        W26727  13.029   2.524   6.277  0.0127  0.2428  0.1046
22328W        W26728   0.033   5.432  33.689  0.2547  0.0914  0.0955
22329W        W26729   5.965   6.429  13.801 -0.0477  0.0496 -0.1305
22330W        W26730   3.635   0.315  34.382  0.1595  0.0006  0.1267
22331W        W26731  12.500   3.062  44.251  0.0648  0.1044 -0.2033
22332W        W26732  13.171   6.276   9.311 -0.1148  0.1396 -0.2468
22333W        W26733  12.568   2.246  43.889 -0.0807  0.2548 -0.0483
22334W        W26734  14.089   2.253  28.058  0.2245  0.0648  0.0099
22335W        W26735   9.354   1.224   4.602 -0.1299 -0.2283 -0.1139
22336W        W26736  19.580   0.837  11.378 -0.0212  0.2784 -0.1456
22337W        W26737   7.501   0.769   2.529  0.0037  0.4128  0.2817
22338W        W26738   2.851   1.914  28.584 -0.2411 -0.0124  0.1669
22339W        W26739   5.215   1.067  16.333  0.1816 -0.0760  0.0723
22340W        W26740   9.687   0.891  29.854 -0.1615  0.1644 -0.4527
22341W        W26741  11.297   4.312  17.956 -0.1095 -0.0678  0.1695
22342W        W26742   5.063   3.411   2.430  0.0323 -0.0001 -0.0815
22343W        W26743  18.499   2.056  24.837 -0.0171  0.2750 -0.2175
22344W        W26744   1.516   3.190  36.036  0.1163 -0.1352 -0.1864
22345W        W26745   9.957   4.423   8.756  0.0751  0.0560 -0.1210
22346W        W26746  21.097   3.734  31.470 -0.0204  0.1089 -0.1741
22347W        W26747  14.289   0.936   5.801 -0.1171  0.0490  0.1259
22348W        W26748  10.208   5.175  10.067  0.0498 -0.2366  0.1498
22349W        W26749  16.898   5.502  14.510 -0.0122 -0.4440 -0.0539
22350W        W26750   7.730   6.142   5.048  0.0003  0.5183  0.0567
22351W        W26751   8.827   1.526  35.193 -0.1334 -0.0312  0.2975
22352W        W26752   9.502   4.679  40.713 -0.1986 -0.0505  0.0517
22353W        W26753  10.838   1.064   1.681 -0.1734  0.0382  0.0257
22354W        W26754   5.080   3.340  18.274  0.1846 -0.0066  0.1074
22355W        W26755  19.890   5.915  12.308 -0.1529 -0.2669 -0.1998
22356W        W26756  10.179   0.917  36.701 -0.2210  0.1714 -0.1819
22357W        W26757  11.999   2.808  10.369 -0.1823  0.0236 -0.1832
22358W        W26758  12.830   0.692   5.964 -0.1220 -0.2217 -0.0470
22359W        W26759   2.614   0.279   5.405 -0.0006  0.0460 -0.0293
22360W        W26760  14.357   6.192  37.127  0.0950 -0.0850 -0.3518
22361W        W26761  13.959   0.492  29.564 -0.0121 -0.2622  0.2825
22362W        W26762   5.571   0.519  31.127 -0.1957  0.2040  0.1766
22363W        W26763   7.584   2.505  36.467  0.1107  0.4717 -0.0730
22364W        W26764  12.908   3.611  27.944 -0.1619  0.0136 -0.0392
22365W        W26765  15.159   4.152  35.061 -0.0658  0.0668 -0.0486
22366W        W26766   1.080   5.587  10.662 -0.0691 -0.0897 -0.1894
22367W        W26767  20.202   1.145  35.589 -0.1286  0.3912  0.0668
22368W        W26768   8.536   1.194  15.380  0.0454  0.2625 -0.2713
22369W        W26769  19.302   4.870  36.678 -0.0748 -0.2520  0.1818
22370W        W26770   4.187   0.210  14.932  0.1101 -0.1725  0.0426
22371W        W26771   9.398   1.078  17.305 -0.0004 -0.1138  0.2479
22372W        W26772  17.424   1.725  36.274 -0.3571 -0.1505 -0.0433
22373W        W26773   0.228   0.764   0.039 -0.1830 -0.1311 -0.0055
22374W        W26774   2.705   1.965  15.174 -0.1826 -0.0371  0.3576
22375W        W26775   6.066   6.172  39.708 -0.1732  0.1120  0.1627
22376W        W26776   0.373   0.037  11.052 -0.0794  0.1820  0.0239
22377W        W26777   0.837   0.558  24.507 -0.0337  0.1764  0.2119
22378W        W26778   6.016   5.288  36.591  0.0207 -0.0218  0.0224
22379W        W26779   7.598   1.865   2.640 -0.0635 -0.0919  0.3385
22380W        W26780  20.592   4.198  11.463 -0.1698  0.4765  0.0564
22381W        W26781   7.283   0.154  37.328  0.1551 -0.0843 -0.0855
22382W        W26782  16.490   3.317   1.531  0.0416  0.1346 -0.1620
22383W        W26783  16.976   4.775  43.540  0.1274  0.1461 -0.1289
22384W        W26784  13.876   0.163  10.453 -0.0265 -0.1501  0.0185
22385W        W26785   0.710   6.032   0.026 -0.2289 -0.1117 -0.2829
22386W        W26786   6.504   3.830  44.829 -0.0794  0.1958 -0.0020
22387W        W26787   6.564   3.601   0.692 -0.2015  0.1293  0.0608
22388W        W26788  21.034   4.820  33.644 -0.3792 -0.2762  0.2531
22389W        W26789  13.923   3.354  10.788 -0.0540 -0.2363 -0.0862
22390W        W26790   0.828   4.475   6.053 -0.0283 -0.1664  0.1369
22391W        W26791   7.017   5.684  10.867  0.1303  0.1591 -0.0797
22392W        W26792   5.393   0.158  41.787 -0.3210 -0.2294  0.0497
22393W        W26793  13.563   0.558   1.473  0.0270  0.1660  0.0467
22394W        W26794  18.171   0.182  24.712  0.1218 -0.0923 -0.0906
22395W        W26795  16.594   6.479   4.810 -0.0605 -0.0235  0.5119
22396W        W26796   5.681   5.987  44.795  0.2766  0.1694  0.0400
22397W        W26797   3.780   5.981  42.064  0.0844 -0.0258 -0.0069
22398W        W26798   4.857   3.065  33.144  0.2300  0.0029  0.0284
22399W        W26799   4.023   1.270  42.987  0.2612  0.0207 -0.0581
22400W        W26800   4.497   0.541  31.983  0.0100 -0.3316 -0.4418
22401W        W26801  13.269   1.448  31.776 -0.3512 -0.0089  0.0342
22402W        W26802  13.656   0.494  44.640 -0.1651 -0.0483 -0.0237
22403W        W26803  15.482   0.284   0.209 -0.2427 -0.0061  0.2215
22404W        W26804   8.592   0.857  34.116 -0.1780 -0.0640 -0.2443
22405W        W26805  16.735   4.402   8.497  0.1899 -0.1630 -0.0365
22406W        W26806  20.415   3.932  42.951 -0.2040  0.0569 -0.0875
22407W        W26807  10.565   5.002  16.868 -0.0917  0.0577  0.1968
22408W        W26808   3.679   4.472   8.745 -0.4041 -0.1226  0.2713
22409W        W26809  18.641   5.304  23.522  0.3399 -0.0301  0.2512
22410W        W26810  10.925   6.466   4.632 -0.1013 -0.0350 -0.0360
22411W        W26811   2.455   3.340  12.591  0.0523 -0.1117  0.0731
22412W        W26812  20.563   4.935  31.339  0.0974  0.1812  0.1184
22413W        W26813   7.769   1.601  44.180 -0.1991 -0.0473  0.0194
22414W        W26814   2.383   2.965  31.980 -0.1736  0.0117 -0.0581
22415W        W26815  10.527   0.600  18.078 -0.1933  0.0827  0.4909
22416W        W26816  17.722   3.003  22.920 -0.0914  0.4074  0.0009
22417W        W26817   3.524   5.456   1.530 -0.2208 -0.0961 -0.1338
22418W        W26818  16.025   0.821  13.494 -0.1654 -0.1266  0.1964
22419W        W26819  14.745   1.318  44.773 -0.0450 -0.0283  0.2220
22420W        W26820  10.376   3.601  35.607  0.3056  0.0856 -0.1552
22421W        W26821  10.362   1.588  42.567 -0.0660 -0.0026 -0.0900
22422W        W26822   7.215   1.176  16.334 -0.0170 -0.1374  0.0678
22423W        W26823   9.758   1.866   2.383  0.1164  0.0301  0.1283
22424W        W26824  11.810   2.168  16.775  0.0619  0.2534 -0.1372
22425W        W26825   1.716   3.927  42.711 -0.3901 -0.3484  0.0657
22426W        W26826  14.944   0.132  38.428  0.1975 -0.2272 -0.0104
22427W        W26827   8.149   5.407  15.285  0.2193 -0.1083  0.0686
22428W        W26828   4.976   4.315   6.313  0.1153  0.0871 -0.0708
22429W        W26829   8.312   3.402  32.025 -0.2645 -0.1350  0.0534
22430W        W26830  18.397   3.173   4.164  0.1718 -0.0343 -0.0993
22431W        W26831   2.895   3.053  11.491  0.1409  0.1196  0.0817
22432W        W26832  19.481   3.093  34.337  0.3435 -0.1609  0.1227
22433W        W26833  14.000   4.343  39.778 -0.1639 -0.3027  0.3284
22434W        W26834   6.322   6.318   0.293  0.0688 -0.1519  0.0606
22435W        W26835  14.174   0.060   0.674  0.1810  0.2233 -0.1097
22436W        W26836  13.092   3.644  39.959 -0.3114 -0.0819 -0.1749
22437W        W26837   5.931   5.969   5.146  0.4151 -0.1124 -0.2661
22438W        W26838  11.781   0.065   0.060 -0.3837  0.1199  0.0578
22439W        W26839  19.777   5.182  26.765 -0.4689 -0.0967  0.1717
22440W        W26840   9.386   4.911  15.101 -0.2579  0.1449  0.0108
22441W        W26841   1.519   1.729  31.890  0.1449 -0.0953  0.2187
22442W        W26842   8.296   6.483  35.916  0.0341 -0.1790 -0.0006
22443W        W26843   7.615   1.476  37.079 -0.0128  0.1471  0.1937
22444W        W26844   4.632   4.001  45.042  0.1399  0.4241 -0.0475
22445W        W26845   0.810   4.127   9.333 -0.0562 -0.2232 -0.0099
22446W        W26846  18.891   1.647  23.583 -0.0279 -0.1190  0.2518
22447W        W26847   1.235   1.291   2.477 -0.0253  0.1306  0.3039
22448W        W26848   8.099   2.130  19.064  0.1213  0.1246 -0.0389
22449W        W26849   1.357   2.550  30.513 -0.1757  0.0048  0.2400
22450W        W26850  20.669   1.916  40.542  0.0903 -0.2466 -0.3953
22451W        W26851  19.684   1.364  22.080 -0.0689  0.0124 -0.2518
22452W        W26852  18.685   2.666  44.636  0.0399  0.0508  0.0414
22453W        W26853   3.808   3.498   1.350 -0.2024  0.0339  0.0032
22454W        W26854   9.481   0.316  14.269  0.1456 -0.3188 -0.2430
22455W        W26855   3.635   4.474  39.943 -0.1139  0.2202 -0.0649
22456W        W26856  11.819   1.123  15.250  0.1673 -0.0480  0.0238
22457W        W26857  17.901   4.758   9.824 -0.1231 -0.1373  0.1307
22458W        W26858   7.020   4.903   3.535 -0.0412 -0.1182 -0.2172
22459W        W26859   3.357   5.680  34.661  0.2248  0.0086  0.2158
22460W        W26860   2.699   0.443  29.327 -0.1785 -0.1244  0.2421
22461W        W26861   4.682   6.226   4.970 -0.1120 -0.0499 -0.2548
22462W        W26862   1.991   3.213   0.380  0.0847  0.3512 -0.0870
22463W        W26863   4.866   5.586   8.138 -0.2123 -0.2938 -0.1393
22464W        W26864   4.047   1.647  40.104  0.2445 -0.0230 -0.2352
22465W        W26865   3.113   3.277  32.041 -0.1252 -0.3747  0.0861
22466W        W26866   1.435   5.225   7.233 -0.0073  0.1670 -0.1416
22467W        W26867   6.184   2.680  30.333 -0.1799  0.0576  0.3393
22468W        W26868   0.407   1.670  42.214 -0.1452  0.0974 -0.0369
22469W        W26869   2.975   2.060  13.156  0.1745  0.4756 -0.0034
22470W        W26870   6.647   0.661  16.021  0.0488 -0.0140  0.2078
22471W        W26871  19.255   1.547  27.013 -0.3764  0.1932  0.1207
22472W        W26872   9.407   6.387  38.570 -0.0420  0.0046 -0.0107
22473W        W26873  12.195   2.958  30.073 -0.1101 -0.0702 -0.1287
22474W        W26874  12.449   3.698  15.726  0.1010 -0.3196  0.1237
22475W        W26875  10.146   5.945  18.809 -0.0518 -0.0848  0.0761
22476W        W26876  20.057   1.625  36.555 -0.1377  0.0527  0.0777
22477W        W26877   9.360   4.921  19.934  0.0615  0.0650  0.1084
22478W        W26878   7.780   5.345  33.714  0.0225 -0.1737 -0.0918
22479W        W26879   2.620   4.112   8.472 -0.2757 -0.1696 -0.2723
22480W        W26880  15.358   4.784   8.237 -0.1654 -0.1810  0.1150
22481W        W26881  14.965   1.294  12.584 -0.1244  0.0534 -0.2692
22482W        W26882   0.327   3.381  39.421 -0.2108  0.1847  0.0002
22483W        W26883  16.392   5.959  12.124  0.4285  0.1015  0.2022
22484W        W26884  17.816   6.475  14.384  0.0497 -0.2136 -0.2313
22485W        W26885  19.145   5.574   2.777 -0.0078 -0.2548 -0.1349
22486W        W26886  16.258   0.402  27.069  0.1291 -0.0296 -0.0365
22487W        W26887  12.789   1.719   4.433  0.1047 -0.1334 -0.0917
22488W        W26888  14.009   5.983  15.859  0.0449  0.0496 -0.0521
22489W        W26889   7.387   6.532  17.996 -0.0849  0.0367 -0.0148
22490W        W26890   7.801   1.244  12.436 -0.0967 -0.5886 -0.0088
22491W        W26891  16.834   1.409  10.091  0.0655  0.1248  0.1278
22492W        W26892  18.452   3.316  39.779  0.1622 -0.1488 -0.2946
22493W        W26893   8.679   3.506  39.670 -0.0503  0.2772 -0.0207
22494W        W26894  13.986   4.165  15.050 -0.1271 -0.1421 -0.0875
22495W        W26895   0.541   3.377   3.101 -0.1157  0.0256  0.2077
22496W        W26896  11.229   5.911  13.588 -0.0468  0.0047  0.1144
22497W        W26897  12.297   4.110   5.513 -0.0402  0.0389 -0.2831
22498W        W26898  18.625   3.381  22.961 -0.0012  0.0598  0.0568
22499W        W26899  16.412   2.685   0.307 -0.1273 -0.0931 -0.0024
22500W        W26900  16.855   5.438   5.335 -0.0540  0.1012 -0.1268
22501W        W26901   0.920   0.889  42.217  0.4332 -0.3159 -0.0903
22502W        W26902  14.800   3.846  35.367 -0.0004 -0.1233  0.0158
22503W        W26903   7.381   4.304  10.864  0.1221 -0.0882 -0.3125
22504W        W26904   1.208   4.737  41.774  0.0921 -0.0790  0.0683
22505W        W26905   8.054   4.159  18.005 -0.2182 -0.1286 -0.1226
22506W        W26906   7.773   1.050  22.403  0.2222  0.1477  0.1801
22507W        W26907  16.766   4.586  30.405  0.2154  0.1480  0.1776
22508W        W26908  17.658   1.617  14.662 -0.0003 -0.1920  0.2613
22509W        W26909  12.910   4.026  28.340 -0.1266 -0.0127 -0.0131
22510W        W26910  17.447   5.741  35.048 -0.1673  0.2122  0.0902
22511W        W26911   7.145   6.322  38.527 -0.1215 -0.2358  0.0817
22512W        W26912   9.834   1.582  34.372  0.2396 -0.2039 -0.0323
22513W        W26913  11.947   6.338  35.372  0.2536 -0.1168  0.0788
22514W        W26914   7.794   6.513  36.133 -0.1399 -0.1309 -0.0542
22515W        W26915   1.292   3.694  11.801 -0.0748 -0.0058  0.3075
22516W        W26916  13.674   3.060  40.383 -0.3609 -0.4236  0.1310
22517W        W26917   9.760   5.657  35.159  0.0003 -0.1952  0.0655
22518W        W26918  19.377   5.670  35.003 -0.0023 -0.1112 -0.4249
22519W        W26919  12.637   0.044   5.238  0.1834  0.2347  0.2142
22520W        W26920   7.753   0.840  13.837 -0.0539 -0.0437  0.0902
22521W        W26921  16.007   0.091  44.330 -0.0825 -0.0513  0.2309
22522W        W26922   8.210   5.684   1.447 -0.0807 -0.2121  0.1644
22523W        W26923  15.875   4.353  13.099 -0.0272 -0.0329  0.0451
22524W        W26924   0.156   1.514  24.175 -0.1456  0.0134 -0.0095
22525W        W26925  14.751   2.493  37.011  0.1083 -0.0948 -0.1929
22526W        W26926   3.921   3.975  34.518 -0.0892  0.2088 -0.1500
22527W        W26927  16.805   0.647   4.245 -0.0025 -0.5109 -0.0916
22528W        W26928  15.195   6.481  14.249  0.1933 -0.1717 -0.0681
22529W        W26929   2.655   0.277  33.538 -0.3306  0.1496  0.0476
22530W        W26930  18.409   5.293  40.458  0.0049  0.0632 -0.0784
22531W        W26931   7.593   1.610  36.520  0.0177 -0.0059 -0.0713
22532W        W26932  13.619   6.113   9.341 -0.1636  0.0237  0.1546
22533W        W26933   7.122   2.413   3.133 -0.3621  0.0469  0.1763
22534W        W26934  15.699   0.837  44.111  0.0570 -0.2333  0.3078
22535W        W26935  11.091   6.287  39.573 -0.0462 -0.3138  0.0196
22536W        W26936   6.579   2.317   2.470  0.1093 -0.1407 -0.4202
22537W        W26937  13.959   3.009  10.445  0.3233  0.2610 -0.2445
22538W        W26938  11.187   1.425   6.185  0.0516  0.1202  0.1767
22539W        W26939  18.007   5.656  38.726 -0.2668  0.1119  0.1186
22540W        W26940  12.920   3.047  32.860  0.0600 -0.0524  0.1508
22541W        W26941  15.486   2.177  39.601  0.0548  0.1330  0.0940
22542W        W26942  20.458   2.413  11.684 -0.1368  0.2145  0.1678
22543W        W26943  21.028   4.777   1.299  0.0012 -0.0528  0.0733
22544W        W26944   3.594   0.220  39.583 -0.2108  0.1686  0.3344
22545W        W26945  17.071   1.174  33.578  0.0904  0.1483  0.1036
22546W        W26946  12.019   0.896  32.564  0.1215 -0.1004  0.0642
22547W        W26947   2.701   6.143  16.135 -0.2727 -0.0945  0.1457
22548W        W26948  19.309   4.090  31.572  0.1139 -0.1715 -0.0360
22549W        W26949  11.921   3.653  38.922  0.0553 -0.1129 -0.2029
22550W        W26950  15.261   6.594   5.591 -0.0082 -0.3227 -0.1180
22551W        W26951   9.205   2.971  22.355 -0.3325  0.2220  0.0476
22552W        W26952  10.517   5.445  38.564 -0.0069  0.0478  0.1045
22553W        W26953  10.351   5.952  43.763 -0.0990 -0.0923  0.1897
22554W        W26954  15.882   3.220  43.448 -0.5068 -0.0417 -0.5723
22555W        W26955  15.257   4.156  36.350  0.0397 -0.0731 -0.0964
22556W        W26956   1.627   3.599   8.460  0.2003  0.2936 -0.0391
22557W        W26957   4.297   6.220  10.582 -0.0045  0.0015 -0.0159
22558W        W26958  20.525   0.778  14.377 -0.0905 -0.0271 -0.1620
22559W        W26959  10.151   5.458   9.622  0.0781 -0.0843  0.0448
22560W        W26960   9.127   5.499   3.811 -0.0406  0.1526  0.3715
22561W        W26961   2.813   2.074  11.405 -0.0302 -0.0940  0.1019
22562W        W26962  12.096   0.051  43.984 -0.2185  0.4641  0.0491
22563W        W26963  13.845   5.584   5.389  0.1591 -0.0985 -0.1483
22564W        W26964  17.650   4.223  23.465 -0.2508  0.0794  0.2033
22565W        W26965  14.894   1.555  27.040  0.2422 -0.2878 -0.1390
22566W        W26966  11.627   5.297  15.469  0.0695  0.1731 -0.1197
22567W        W26967  12.565   1.056  35.412 -0.1387 -0.0792  0.0942
22568W        W26968   8.359   1.831   4.183  0.0207 -0.1619 -0.0560
22569W        W26969  18.543   5.004  29.388 -0.0162  0.2903 -0.4461
22570W        W26970   9.506   0.804   6.879  0.2278 -0.1227  0.2324
22571W        W26971  19.057   3.746  26.196 -0.1241 -0.1785 -0.1941
22572W        W26972  13.807   0.873   5.551 -0.0604 -0.0431  0.3173
22573W        W26973  19.776   5.957  30.279  0.0235 -0.1476  0.0196
22574W        W26974   8.071   4.436   2.473  0.0901  0.1078  0.0790
22575W        W26975   3.838   0.657  11.596 -0.0618 -0.1406 -0.0690
22576W        W26976   7.852   0.276  30.458  0.0828  0.1413  0.1617
22577W        W26977  20.556   6.024   4.094 -0.1639 -0.1500  0.0411
22578W        W26978   7.567   3.051   0.648  0.2296  0.1885 -0.0093
22579W        W26979   5.876   2.522  16.357 -0.0541  0.1108 -0.3000
22580W        W26980   5.212   5.941  40.664  0.0696 -0.2004 -0.2890
22581W        W26981   9.363   6.431  19.111 -0.0265  0.1329  0.1461
22582W        W26982   4.333   4.462  11.151  0.0810 -0.2630  0.1951
22583W        W26983  11.746   6.250   0.787  0.2796 -0.3323 -0.0021
22584W        W26984   6.382   4.912  10.017 -0.0242  0.3050 -0.0889
22585W        W26985   6.901   0.830  13.418 -0.0397  0.1509 -0.2121
22586W        W26986  15.084   4.945  40.427 -0.2937 -0.0167  0.2420
22587W        W26987  18.039   2.519  11.335  0.0604 -0.0470 -0.1992
22588W        W26988  18.137   0.056  30.659  0.2321 -0.1828 -0.0360
22589W        W26989  18.130   3.708  27.447  0.1613  0.0911  0.0695
22590W        W26990  10.544   0.902  25.489 -0.0790 -0.0975 -0.1403
22591W        W26991   4.820   4.746   9.201 -0.0970  0.0444  0.1445
22592W        W26992   2.062   4.002  28.443  0.1149 -0.0473  0.3080
22593W        W26993  14.888   4.787  15.629  0.0760 -0.0743 -0.1360
22594W        W26994   0.069   6.328  34.189 -0.0840 -0.2310  0.1965
22595W        W26995  18.135   4.012   7.282 -0.0028 -0.0050  0.4714
22596W        W26996   1.782   0.829  29.729 -0.0124  0.0113 -0.1138
22597W        W26997   6.097   3.430  17.888 -0.2563 -0.0351  0.0230
22598W        W26998   6.402   6.251  38.064  0.1163  0.0621  0.1342
22599W        W26999  15.906   3.998   5.407 -0.0177  0.0114 -0.0562
22600W        W27000   9.345   2.619   1.465  0.0588 -0.0077 -0.2013
22601W        W27001  13.019   5.243  37.533 -0.0637 -0.0825 -0.2257
22602W        W27002   6.171   1.303  33.497 -0.0851 -0.1690 -0.0034
22603W        W27003  11.029   4.387  12.236  0.0081 -0.0995  0.1244
22604W        W27004   5.242   2.023  36.428  0.1326 -0.1386  0.1307
22605W        W27005   5.740   2.649  10.669 -0.0107  0.3645 -0.1045
22606W        W27006  18.006   0.478   2.769 -0.1579  0.1352  0.3406
22607W        W27007  11.795   0.118   9.836 -0.0664 -0.2086 -0.0101
22608W        W27008  15.337   2.179   4.647 -0.2851  0.0646  0.0584
22609W        W27009  12.538   0.886  13.331  0.2139  0.1150  0.0023
22610W        W27010   8.147   1.404  32.408  0.1410  0.1456 -0.1930
22611W        W27011  17.327   5.653  23.856  0.1210 -0.1197  0.0494
22612W        W27012  17.912   2.597   5.264 -0.1254  0.1405 -0.4464
22613W        W27013  10.723   5.088  19.416 -0.2042  0.0059  0.0635
22614W        W27014   8.468   0.195  10.332 -0.1662  0.1039 -0.0482
22615W        W27015  15.941   5.278  40.828  0.0920 -0.0450 -0.2867
22616W        W27016  15.619   0.333  44.160 -0.0154 -0.0139 -0.0292
22617W        W27017  14.471   5.420   5.849 -0.1129  0.1155 -0.0089
22618W        W27018  19.056   4.369   3.577  0.1484  0.2315  0.1500
22619W        W27019  18.332   0.477  13.198  0.0506 -0.1475  0.2559
22620W        W27020  12.633   5.506  31.252  0.2682 -0.1280  0.0985
22621W        W27021  17.681   4.652  43.864 -0.2124 -0.0530  0.3038
22622W        W27022  12.273   1.399  21.462  0.0383  0.0545 -0.0335
22623W        W27023   5.395   2.500   0.886  0.4141  0.0768  0.1637
22624W        W27024   4.445   4.566  42.223  0.1457  0.0130  0.0439
22625W        W27025  15.363   1.267  29.997  0.0982  0.1155 -0.4009
22626W        W27026  15.016   1.303  39.388  0.0648  0.0107 -0.1156
22627W        W27027   1.329   4.290  38.992  0.1716 -0.1733 -0.0650
22628W        W27028  18.232   2.249  36.358 -0.3151  0.0118  0.5793
22629W        W27029   4.475   6.572   6.424  0.0181  0.0037  0.0552
22630W        W27030  16.641   1.540  40.055  0.2483  0.1770  0.1748
22631W        W27031   9.246   5.053  29.081 -0.2530  0.1190  0.2473
22632W        W27032   2.650   4.566   3.389  0.0436  0.4516 -0.0133
22633W        W27033  18.069   4.493  26.294 -0.0778  0.1942 -0.0587
22634W        W27034   9.663   2.731  22.505 -0.0668  0.3299 -0.2694
22635W        W27035   0.609   2.090  35.489  0.1425 -0.1687 -0.0876
22636W        W27036  19.773   2.398   2.611  0.0985 -0.0736  0.2426
22637W        W27037  14.926   4.876  29.362 -0.2865  0.0761  0.4555
22638W        W27038  10.179   6.446  33.977 -0.0851  0.0302  0.0713
22639W        W27039  11.501   1.937  12.549  0.1572  0.0310 -0.1084
22640W        W27040   5.664   4.064  14.632 -0.3649  0.2963  0.1352
22641W        W27041  12.023   1.802  21.501  0.0311 -0.2076  0.1545
22642W        W27042  16.877   2.476  24.488 -0.0551  0.0401  0.2126
22643W        W27043   4.155   5.693   2.484 -0.2442 -0.0878 -0.2162
22644W        W27044  17.013   1.286   9.267  0.2986 -0.1376  0.1238
22645W        W27045  11.888   2.202   0.024  0.2262  0.1049  0.2119
22646W        W27046  15.941   3.828  35.086 -0.3124  0.0228  0.0623
22647W        W27047  10.749   5.888  40.891 -0.0277  0.0409 -0.1027
22648W        W27048  10.331   3.185   8.723 -0.0988 -0.1387 -0.2052
22649W        W27049  14.931   0.449  39.652  0.2371  0.1524 -0.0844
22650W        W27050   5.759   3.544  40.572  0.1749 -0.2096  0.1019
22651W        W27051  20.855   0.964  36.208 -0.1064  0.0544  0.0651
22652W        W27052   6.771   5.623  12.929  0.1177  0.0134  0.0542
22653W        W27053   4.421   5.283  17.690  0.0482 -0.0728  0.1275
22654W        W27054   1.149   4.769  37.962  0.2238 -0.2844  0.0420
22655W        W27055   1.666   3.735  25.830  0.3778 -0.1338 -0.0306
22656W        W27056  16.325   6.074   1.562 -0.1474 -0.0925 -0.0380
22657W        W27057   7.189   4.195  30.393  0.0555 -0.3079  0.1412
22658W        W27058  18.725   4.758  32.013 -0.0999 -0.4050 -0.0224
22659W        W27059   1.806   3.685  13.668 -0.2234  0.1528 -0.1328
22660W        W27060   5.952   2.093  32.810  0.0168 -0.1165 -0.1207
22661W        W27061  16.268   2.323   1.396  0.3604  0.2111 -0.0499
22662W        W27062  11.727   5.035  18.479 -0.0887 -0.1794  0.0571
22663W        W27063   9.506   6.252  25.006  0.0613 -0.1134  0.0182
22664W        W27064   7.152   3.955  19.301 -0.0033  0.0253 -0.1558
22665W        W27065   9.941   2.255  41.794  0.2044 -0.0190 -0.2270
22666W        W27066   4.988   5.342  40.743 -0.0440  0.0125 -0.1973
22667W        W27067   2.445   1.314  38.594 -0.0750 -0.0561  0.1999
22668W        W27068   1.109   0.587  34.383 -0.2692  0.0919  0.1079
22669W        W27069  13.791   3.413   0.585 -0.1633  0.0677  0.2933
22670W        W27070  19.066   3.893  43.411  0.0502 -0.1518 -0.1767
22671W        W27071  15.775   0.498  36.710  0.0380  0.3969 -0.0524
22672W        W27072  16.189   1.238  30.934  0.0209  0.0150 -0.0115
22673W        W27073  18.423   2.804  41.328 -0.2828  0.0124  0.0116
22674W        W27074   6.376   2.401   1.272  0.1011 -0.0198  0.4370
22675W        W27075  10.665   4.667  18.509 -0.0337  0.0770 -0.2210
22676W        W27076   2.359   2.113  32.448  0.2380 -0.2257 -0.0498
22677W        W27077  17.333   3.704  14.299  0.0793  0.0914  0.1717
22678W        W27078  11.685   5.419  21.930 -0.0665  0.2053  0.0222
22679W        W27079  12.602   1.253  35.939  0.2392  0.1838  0.1225
22680W        W27080  21.013   3.012   5.172  0.0028 -0.0628 -0.2029
22681W        W27081   1.797   4.376   9.871  0.0296 -0.0461 -0.0488
22682W        W27082  14.454   6.193  17.210 -0.1349  0.1152  0.0239
22683W        W27083   8.558   4.511  21.892  0.2442 -0.0323 -0.1384
22684W        W27084  13.668   6.529  34.649 -0.0104  0.0720  0.0638
22685W        W27085  15.351   6.418   7.318  0.1450 -0.1260  0.1291
22686W        W27086   6.536   2.642  11.269 -0.1799  0.1598 -0.2482
22687W        W27087   5.070   6.521  12.863 -0.0542  0.0225 -0.3611
22688W        W27088  10.217   0.626  42.769  0.0095  0.1824  0.1994
22689W        W27089   8.925   5.137  20.827 -0.1927  0.2619  0.0384
22690W        W27090  19.190   0.688   5.685 -0.1936 -0.3196 -0.0405
22691W        W27091   0.642   5.961  42.927 -0.0177 -0.3137  0.0380
22692W        W27092  12.866   5.228   8.245  0.1106  0.3047 -0.1003
22693W        W27093   1.559   6.465  37.143 -0.0311 -0.1947  0.1219
22694W        W27094  16.997   0.754   9.387  0.2221 -0.1621  0.1226
22695W        W27095   7.538   4.808  22.440 -0.1602  0.4656  0.2050
22696W        W27096  15.949   0.112  35.969 -0.1022  0.2542  0.0813
22697W        W27097  15.357   4.011  29.250  0.0409 -0.2627  0.1229
22698W        W27098   2.128   0.078  15.702  0.0893  0.1004 -0.0444
22699W        W27099  17.184   0.710  39.731 -0.1116 -0.0683 -0.1694
22700W        W27100  17.839   3.256  28.986  0.1599  0.0808 -0.0897
22701W        W27101  15.898   3.201  14.229 -0.0933  0.0569  0.2792
22702W        W27102  20.753   2.915  39.561  0.0250 -0.1821  0.3391
22703W        W27103   6.649   0.770  29.920  0.2283 -0.1516 -0.1666
22704W        W27104   9.932   5.554  19.269  0.0352  0.0791  0.0145
22705W        W27105   2.586   4.938  31.023  0.0424 -0.2104  0.0835
22706W        W27106  18.128   2.782  29.978 -0.0092 -0.3356  0.1072
22707W        W27107   0.607   0.364  15.975 -0.2032 -0.1424 -0.0520
22708W        W27108   6.597   2.205   4.448  0.3522 -0.0806  0.2860
22709W        W27109  11.700   6.162   6.400  0.2677  0.1091 -0.4791
22710W        W27110   6.412   0.790   0.376 -0.0626  0.1098  0.1380
22711W        W27111   2.050   3.812  44.254  0.2113 -0.0414  0.1370
22712W        W27112  20.702   5.805  31.116  0.1502  0.0934 -0.1137
22713W        W27113  17.590   4.233  31.334 -0.0546 -0.3079 -0.2781
22714W        W27114   2.335   2.490  43.930  0.1455  0.1347  0.1387
22715W        W27115  13.351   4.951  31.614  0.0877 -0.2987  0.0929
22716W        W27116  20.234   6.089  41.587  0.0568 -0.0585  0.2303
22717W        W27117  19.777   2.378  22.645  0.3590 -0.0265  0.0723
22718W        W27118   2.302   4.930   7.039 -0.0133 -0.0200 -0.1897
22719W        W27119   3.569   3.057  29.463  0.3094 -0.0047 -0.0558
22720W        W27120  15.570   2.404  36.394  0.1095  0.2045  0.5232
22721W        W27121   5.541   3.412  33.855 -0.0726  0.0841  0.0674
22722W        W27122  20.752   2.772   9.602 -0.2338  0.0154 -0.0035
22723W        W27123   4.467   6.441  31.112 -0.0268 -0.1386 -0.0853
22724W        W27124   0.834   4.739   1.491  0.3078 -0.0288  0.0495
22725W        W27125  19.506   3.834  44.787  0.0449 -0.1635  0.0175
22726W        W27126   5.939   6.348  42.512  0.0625  0.1152 -0.0110
22727W        W27127  13.975   2.666  44.809  0.1820 -0.1190  0.0540
22728W        W27128   2.025   2.627  39.305  0.3759  0.1497  0.0325
22729W        W27129  10.705   1.898  19.892  0.1873  0.0066 -0.1889
22730W        W27130   1.308   6.165   2.787 -0.0886 -0.0808 -0.0309
22731W        W27131  17.640   1.129   2.821 -0.0278  0.0379 -0.1529
22732W        W27132   8.286   1.708   7.512 -0.2342  0.2484  0.0379
22733W        W27133  11.310   3.409   8.032  0.0274  0.2553  0.0588
22734W        W27134  14.379   4.954   9.159 -0.0385  0.0927  0.2811
22735W        W27135  15.458   1.671  16.117 -0.0556 -0.1650  0.0356
22736W        W27136   9.414   1.645  32.183  0.0040  0.0415  0.0816
22737W        W27137  20.058   2.279  23.117  0.2809 -0.0523 -0.3183
22738W        W27138  12.513   2.044  38.279  0.2647  0.3099 -0.0138
22739W        W27139   3.881   5.848  15.694 -0.1449  0.0210 -0.0181
22740W        W27140  13.180   3.442  43.669  0.1193 -0.0097  0.0073
22741W        W27141  10.794   6.142  21.390  0.0220  0.2783  0.1629
22742W        W27142  10.577   3.615  36.900  0.0737  0.0825 -0.2946
22743W        W27143  17.096   2.485  28.514  0.1922 -0.1277  0.0098
22744W        W27144  20.996   0.710  27.961 -0.0485 -0.0802  0.3562
22745W        W27145  16.481   4.891   2.217  0.1013 -0.2283 -0.0360
22746W        W27146   7.389   6.228  37.383 -0.0800 -0.1042  0.0987
22747W        W27147  15.048   2.410  36.194 -0.1344 -0.1874 -0.0865
22748W        W27148  20.047   3.922  39.633 -0.0036 -0.1660  0.0177
22749W        W27149   8.987   0.998  43.130 -0.2769 -0.0442  0.0694
22750W        W27150  15.674   5.210  15.995  0.2120  0.1862  0.0627
22751W        W27151   8.553   0.597   3.881  0.1030  0.1138  0.0562
22752W        W27152  14.735   0.303   2.500  0.3405 -0.5068  0.3709
22753W        W27153   3.663   3.093  41.108 -0.4686  0.3640  0.1418
22754W        W27154  10.091   2.790   8.690  0.0302  0.1112  0.1196
22755W        W27155  20.130   6.467  19.730 -0.2659  0.0881  0.1579
22756W        W27156  18.274   5.603   4.495  0.2152 -0.0968 -0.1205
22757W        W27157  16.198   4.873  29.354  0.1726 -0.0249  0.2683
22758W        W27158  14.186   3.498  42.554 -0.0060  0.1521 -0.2734
22759W        W27159   7.993   4.915  11.326  0.0482  0.3640  0.2771
22760W        W27160  20.053   0.339   7.758 -0.1915  0.0951 -0.0023
22761W        W27161  16.393   4.283   9.398 -0.1867  0.3279 -0.2948
22762W        W27162  11.024   1.809  12.993  0.0694 -0.0007  0.2840
22763W        W27163   0.332   3.821  30.057  0.0558  0.1003 -0.2200
22764W        W27164  14.942   6.123  28.203 -0.0678  0.3198 -0.0804
22765W        W27165   3.243   4.711  30.347  0.1773 -0.3271 -0.0531
22766W        W27166  14.099   0.924  29.746 -0.4294 -0.1732 -0.1822
22767W        W27167   4.714   6.521  18.016  0.1510 -0.0050  0.3530
22768W        W27168  15.513   2.551   3.812 -0.0653 -0.1475  0.0282
22769W        W27169  12.173   5.604  28.627 -0.0134 -0.2961 -0.0839
22770W        W27170   3.663   3.370   9.328 -0.0448  0.2050 -0.4054
22771W        W27171  11.049   2.831  19.714 -0.3317  0.0154 -0.1619
22772W        W27172  17.886   2.103  32.584  0.1035  0.0633 -0.1093
22773W        W27173   3.000   3.830  38.758 -0.1031  0.0744  0.1700
22774W        W27174   2.491   3.173  43.896 -0.3199  0.0207  0.0773
22775W        W27175   6.862   5.946  31.106 -0.0039 -0.1078 -0.2914
22776W        W27176   4.767   5.934   7.438 -0.2165 -0.1001  0.1678
22777W        W27177  12.055   0.875  42.477  0.0513  0.1233  0.1179
22778W        W27178   6.759   5.608   3.117  0.0020 -0.1988 -0.2496
22779W        W27179  19.629   5.179  12.815  0.0684  0.2931  0.4468
22780W        W27180   4.130   3.661  28.656 -0.1488  0.1353 -0.3353
22781W        W27181  11.677   5.954  37.885 -0.0347  0.2629  0.1281
22782W        W27182   4.048   3.993  42.158  0.3003 -0.1381  0.1440
22783W        W27183   8.581   6.139  39.494  0.0880 -0.2200 -0.0654
22784W        W27184  20.539   4.263   3.458 -0.0507  0.0096  0.0339
22785W        W27185  20.341   4.803  13.404  0.0844 -0.0711  0.1474
22786W        W27186  18.511   4.765  22.019  0.2710  0.0245 -0.2101
22787W        W27187   8.194   0.857  33.264  0.0733 -0.1004  0.0380
22788W        W27188  10.672   0.258  31.402  0.1140  0.0111 -0.1856
22789W        W27189   0.786   4.081  44.112  0.0210 -0.0716  0.0821
22790W        W27190   5.030   5.967  14.257 -0.2368  0.3523  0.1075
22791W        W27191  20.628   0.862  42.170 -0.1546 -0.1922 -0.1238
22792W        W27192  17.822   1.592  44.429 -0.2492 -0.0612  0.1409
22793W        W27193   5.531   6.542  36.747 -0.0697 -0.0228  0.1997
22794W        W27194   6.647   4.651   0.932 -0.1609 -0.2685  0.3401
22795W        W27195  20.271   3.706  13.065 -0.3902  0.1547  0.0100
22796W        W27196  20.146   0.050  28.801 -0.1033  0.0570  0.2518
22797W        W27197  18.481   3.699  44.998 -0.0757  0.1293 -0.0861
22798W        W27198   8.359   3.333  12.644  0.0189  0.2761 -0.0374
22799W        W27199   9.037   4.891  36.610  0.0337  0.1426  0.0593
22800W        W27200  20.450   5.206  26.030  0.0526  0.1349 -0.0540
22801W        W27201   2.032   1.703  12.913 -0.1848  0.0234 -0.0926
22802W        W27202   5.229   2.240  33.608  0.0010 -0.2729 -0.1584
22803W        W27203   3.347   1.691  37.174  0.1248  0.0411 -0.2209
22804W        W27204   9.845   4.069  38.850 -0.1851 -0.0429 -0.1622
22805W        W27205  18.386   0.999   4.082  0.1221  0.1196 -0.1140
22806W        W27206  21.017   0.669  22.402 -0.1521 -0.0502 -0.0112
22807W        W27207   7.421   2.967   9.401 -0.1889  0.0869 -0.1995
22808W        W27208  19.618   0.985  34.171  0.1746 -0.3618  0.1360
22809W        W27209  16.350   4.647   5.429  0.2754 -0.5118  0.0067
22810W        W27210   1.255   4.097  15.007  0.1553  0.2816 -0.0231
22811W        W27211  11.583   6.448   1.852  0.1060  0.0482  0.0419
22812W        W27212   7.916   5.042   6.552 -0.3024 -0.0559 -0.5077
22813W        W27213   0.704   1.389  40.216 -0.2905 -0.0177  0.2516
22814W        W27214  18.017   1.360  23.731 -0.0240 -0.0856 -0.0885
22815W        W27215  16.656   5.194  14.240 -0.1402  0.4020  0.0638
22816W        W27216  20.185   6.594   0.460  0.0905  0.0500 -0.2018
22817W        W27217  12.019   1.217  36.563 -0.1322 -0.0121  0.3200
22818W        W27218  12.979   0.692  15.394 -0.0368 -0.0367  0.0239
22819W        W27219   1.786   5.451  31.024  0.1124 -0.4181 -0.3348
22820W        W27220   2.021   4.880  41.796  0.2425  0.0282 -0.1481
22821W        W27221  14.875   3.101   5.088 -0.0648 -0.3790 -0.1254
22822W        W27222   3.680   5.034  10.279  0.0790  0.1781  0.1997
22823W        W27223   7.492   1.660  44.655  0.2424  0.1728  0.0306
22824W        W27224  14.714   2.808  41.906  0.0522 -0.1188 -0.0393
22825W        W27225  17.690   5.969  16.220 -0.0675 -0.0288  0.1272
22826W        W27226   2.992   2.399   3.421 -0.1728 -0.2711  0.0202
22827W        W27227  13.887   3.740  39.034 -0.0330 -0.2077  0.4127
22828W        W27228  20.688   5.784  35.901 -0.4889  0.0235  0.0668
22829W        W27229   4.332   1.589  28.892 -0.0631 -0.2595  0.3124
22830W        W27230   1.822   1.073  24.340  0.0805 -0.0210  0.2126
22831W        W27231   2.996   6.590  32.694 -0.1923 -0.0886 -0.0743
22832W        W27232  20.962   0.507   2.984 -0.2839  0.2620  0.0364
22833W        W27233  17.670   0.189  32.591 -0.0397  0.1432 -0.1076
22834W        W27234  14.192   5.144  30.550 -0.0735 -0.1579  0.1262
22835W        W27235   0.499   0.516   9.268 -0.0550 -0.2142  0.2642
22836W        W27236  12.317   0.795   5.633 -0.2835  0.1043 -0.1746
22837W        W27237   5.560   3.734   3.183  0.0420 -0.1392  0.1188
22838W        W27238  13.757   4.827  11.043 -0.2951  0.2329 -0.1385
22839W        W27239  16.100   3.070  16.425 -0.3999 -0.0121 -0.1511
22840W        W27240  10.524   0.202   4.686  0.1990  0.1237 -0.0516
22841W        W27241   7.988   5.934   9.984  0.1855 -0.2450 -0.0638
22842W        W27242   4.708   0.406   8.913  0.0095  0.0229  0.0821
22843W        W27243  16.575   5.004   9.041 -0.0798 -0.0587 -0.3871
22844W        W27244  11.659   0.315  21.533  0.1637  0.3423 -0.1703
22845W        W27245  12.519   4.413  42.735  0.0330  0.0140 -0.1870
22846W        W27246   6.662   0.151  19.896 -0.0698 -0.0344  0.2629
22847W        W27247  19.440   3.851  28.972  0.1553 -0.2225  0.1309
22848W        W27248  15.959   0.719   7.154  0.0881 -0.0950 -0.3467
22849W        W27249  16.345   0.471  32.495  0.0452 -0.0425 -0.2006
22850W        W27250  18.675   0.681  28.969  0.0347  0.2359 -0.0936
22851W        W27251   1.080   1.449  36.806  0.2621 -0.1366  0.1751
22852W        W27252   6.283   1.293   7.758  0.1690  0.0630  0.0346
22853W        W27253   4.272   2.957   7.267 -0.1105 -0.3602 -0.0336
22854W        W27254   0.896   1.979  12.783  0.1794 -0.0959  0.1776
22855W        W27255   2.845   2.891  40.578  0.1956  0.1374 -0.0942
22856W        W27256   7.129   1.190  20.744 -0.3343 -0.0286 -0.1461
22857W        W27257   1.663   1.917   2.898  0.0495 -0.1378 -0.2485
22858W        W27258  18.988   5.658  25.908 -0.3786 -0.2941 -0.1283
22859W        W27259  11.464   1.357  15.628  0.2113 -0.3576 -0.2848
22860W        W27260   7.807   3.898  38.034 -0.3570 -0.1222 -0.2320
22861W        W27261  19.975   4.560  25.461 -0.1988 -0.3126 -0.0904
22862W        W27262   2.970   6.140  13.791  0.1592  0.0878 -0.0555
22863W        W27263  18.313   0.378  22.857 -0.0365  0.2300 -0.0708
22864W        W27264   4.978   6.502  18.421 -0.0926  0.2838 -0.1880
22865W        W27265   1.567   4.069  33.360  0.0992 -0.0535 -0.3545
22866W        W27266  17.618   2.359  14.522  0.2827 -0.1229 -0.0188
22867W        W27267   0.723   2.465  13.304 -0.3426 -0.1538  0.0812
22868W        W27268   5.828   5.837   2.533 -0.1107  0.4067 -0.1155
22869W        W27269   5.062   4.342  33.718 -0.0901  0.1424 -0.0034
22870W        W27270  16.134   4.481   4.195  0.3376 -0.2075  0.0000
22871W        W27271   7.355   5.332  13.911  0.2529  0.0647  0.0377
22872W        W27272   0.536   6.596  11.535  0.1847  0.0004  0.1846
22873W        W27273   4.157   4.526   6.327 -0.3393 -0.0530  0.1700
22874W        W27274  16.450   3.751  35.720  0.1004  0.0231 -0.0073
22875W        W27275   3.290   3.195  16.812 -0.0199  0.0241 -0.1374
22876W        W27276  13.106   0.968   3.910  0.1215  0.1692  0.0334
22877W        W27277  12.112   5.397  12.520 -0.1382 -0.1036  0.1754
22878W        W27278   5.904   1.333  28.771  0.0234 -0.0717 -0.1761
22879W        W27279   5.056   4.060  41.441  0.2567  0.1215 -0.2625
22880W        W27280   4.036   6.050  16.987 -0.2466 -0.0377  0.0303
22881W        W27281   0.454   0.694  39.615  0.4211 -0.0689 -0.0610
22882W        W27282   6.768   6.057  13.766  0.0202  0.0132  0.0260
22883W        W27283   4.010   0.261   6.287  0.0244 -0.2060 -0.0316
22884W        W27284   7.688   1.232  17.969  0.0724 -0.4440  0.1376
22885W        W27285  13.283   4.335  19.406  0.2759  0.2109  0.0880
22886W        W27286  12.703   4.759  34.382 -0.1019 -0.0300  0.1380
22887W        W27287  11.288   1.925  30.725  0.0794  0.0596 -0.0087
22888W        W27288  12.029   6.128  32.811  0.1452  0.1736 -0.2284
22889W        W27289  16.315   2.912   2.921 -0.1329 -0.2157  0.3143
22890W        W27290  10.390   5.906   6.065  0.0749  0.1163 -0.0118
22891W        W27291  18.999   2.494  34.717 -0.1687  0.1114  0.0437
22892W        W27292   8.814   5.634  22.592 -0.0728 -0.0103  0.1043
22893W        W27293  11.367   2.614  17.609 -0.3625  0.1430  0.1838
22894W        W27294  14.810   4.256   8.123  0.1477  0.2101  0.0473
22895W        W27295   4.185   4.513  13.586  0.1445  0.0087 -0.2979
22896W        W27296   8.958   6.217  29.079  0.0615 -0.2280  0.1172
22897W        W27297  17.392   3.311  27.186  0.0508 -0.0562 -0.2247
22898W        W27298  14.951   5.627   7.350 -0.0859  0.1727 -0.2980
22899W        W27299   6.757   1.203  32.288 -0.1381 -0.1405 -0.1923
22900W        W27300  10.378   3.425  30.940  0.0249  0.3452 -0.1309
22901W        W27301   6.021   0.879  35.129  0.0281 -0.0952  0.2352
22902W        W27302   1.516   5.834   4.635 -0.1748 -0.0814  0.0329
22903W        W27303  14.603   2.798  39.463  0.2515  0.0116  0.0295
22904W        W27304  12.515   4.539   5.193 -0.0138  0.3061 -0.0972
22905W        W27305   8.873   1.519  38.102 -0.0896 -0.2607 -0.1094
22906W        W27306   6.434   2.366  12.314  0.0018  0.4050 -0.0995
22907W        W27307  21.087   0.770   7.860 -0.1412 -0.3237  0.0603
22908W        W27308   2.332   0.411   6.616  0.1192  0.1609 -0.1862
22909W        W27309  13.188   3.809  42.889  0.0975 -0.2588 -0.1127
22910W        W27310  15.056   0.271  14.637 -0.2159  0.1847 -0.0117
22911W        W27311   1.229   4.013  12.251 -0.2362 -0.0124  0.0830
22912W        W27312  15.915   5.185  34.280  0.1541  0.3636 -0.0978
22913W        W27313   7.257   2.099   2.142 -0.1292  0.3010 -0.2218
22914W        W27314  11.679   0.094   5.684  0.1574  0.0146  0.0060
22915W        W27315   0.267   1.687  35.380 -0.2246  0.2789  0.0960
22916W        W27316  13.847   4.184  28.586 -0.0883  0.0038 -0.0833
22917W        W27317   7.247   3.786   3.237 -0.0185  0.0303  0.1410
22918W        W27318   1.869   5.970   1.082 -0.0451 -0.2699  0.0389
22919W        W27319  13.684   1.393  43.785 -0.0601  0.0597 -0.0074
22920W        W27320   8.258   5.487  33.939 -0.0481 -0.2910  0.0433
22921W        W27321   1.256   4.970  12.420 -0.2642 -0.0908  0.1230
22922W        W27322   5.591   3.686  35.859 -0.0754  0.1574  0.2673
22923W        W27323  11.098   3.926  12.268 -0.2805  0.3010 -0.3179
22924W        W27324   7.378   0.905  16.708 -0.0786  0.2339 -0.2966
22925W        W27325   0.662   5.940  12.975 -0.0485  0.1096  0.0942
22926W        W27326  16.117   0.816  27.270  0.0221 -0.2388 -0.1177
22927W        W27327  15.955   3.467  43.015  0.0107  0.1269 -0.2230
22928W        W27328   4.473   3.040  14.785  0.1317  0.2689  0.1283
22929W        W27329   5.905   1.374  15.185 -0.3782  0.1180 -0.1366
22930W        W27330  15.501   5.566  12.203 -0.4806  0.1794 -0.1772
22931W        W27331  19.021   2.846  41.444 -0.1398 -0.2226  0.1378
22932W        W27332   5.078   3.803  14.188 -0.1059 -0.0238 -0.0020
22933W        W27333  10.079   2.645  40.659 -0.0437 -0.1606  0.0353
22934W        W27334   7.329   3.735   1.761 -0.2088 -0.0940 -0.1661
22935W        W27335   4.419   1.515  35.646 -0.0015 -0.0119 -0.3669
22936W        W27336  10.290   3.191  10.354 -0.0299 -0.0947 -0.0649
22937W        W27337  16.941   5.593  44.892 -0.0826 -0.1143 -0.0638
22938W        W27338  18.877   0.477  27.588  0.0746  0.1496  0.1267
22939W        W27339   2.718   0.621  24.287 -0.1828  0.2476 -0.1029
22940W        W27340   3.842   5.603  39.817  0.0925 -0.0283 -0.0907
22941W        W27341   8.625   0.661   0.281  0.2491  0.0678  0.1610
22942W        W27342  12.896   3.305  36.224  0.0763 -0.0392  0.2858
22943W        W27343   2.563   1.966   6.493 -0.2149  0.0131  0.1167
22944W        W27344   9.152   1.633  43.907 -0.2169 -0.0842 -0.0114
22945W        W27345  12.125   2.352  20.322 -0.1459 -0.1567  0.1417
22946W        W27346   8.695   0.393  13.616  0.0889 -0.0201 -0.0184
22947W        W27347  13.503   1.344   6.736 -0.0626 -0.0602  0.1044
22948W        W27348  14.573   0.092  15.504 -0.2511  0.0588 -0.0985
22949W        W27349  15.491   5.984  32.779 -0.0004 -0.2102 -0.1427
22950W        W27350   8.076   1.314   5.539  0.0882  0.1197  0.1360
22951W        W27351  10.930   2.362  33.249 -0.1103 -0.0738  0.1729
22952W        W27352   7.718   4.502  44.367 -0.2028 -0.0085  0.3390
22953W        W27353   3.293   3.112   6.306 -0.0719 -0.0820 -0.1002
22954W        W27354   6.284   4.259  10.799 -0.1443  0.1206 -0.1885
22955W        W27355  11.400   5.926   2.045 -0.2782 -0.1080 -0.3736
22956W        W27356   4.971   4.669   5.270  0.1504 -0.1350  0.5334
22957W        W27357   9.706   1.219  17.997  0.3494  0.0541 -0.3573
22958W        W27358  15.601   5.360  17.007  0.0951 -0.2243  0.3512
22959W        W27359  10.418   6.376  17.987  0.0951  0.1294 -0.1382
22960W        W27360   9.932   2.313  24.567 -0.1231  0.0089 -0.3261
22961W        W27361  20.707   4.381  44.754  0.2648  0.2020  0.1544
22962W        W27362   2.612   2.309  37.613 -0.1622 -0.1423  0.1471
22963W        W27363  10.098   1.801  43.393  0.1636 -0.2231 -0.1685
22964W        W27364   8.735   0.156  35.890  0.1183  0.2220  0.0147
22965W        W27365  13.986   0.197   8.788  0.0193  0.2142  0.1722
22966W        W27366  13.730   3.912  16.551 -0.1119  0.1228 -0.3373
22967W        W27367  20.291   3.156  27.302 -0.1583 -0.0450  0.2250
22968W        W27368  11.110   5.203  18.251  0.0016  0.2377  0.0673
22969W        W27369  12.178   1.766   7.057  0.0100  0.1076 -0.0108
22970W        W27370   6.206   6.420  33.612 -0.3361  0.0849 -0.0356
22971W        W27371  20.318   2.256   0.630  0.1051  0.2297  0.3558
22972W        W27372   1.491   2.042  43.882 -0.1109  0.2238  0.0637
22973W        W27373   7.632   4.039   5.731  0.0317 -0.2620 -0.2430
22974W        W27374  16.384   6.017  31.423 -0.0186  0.3455 -0.1472
22975W        W27375  15.739   2.198  10.043 -0.2842 -0.1030  0.2057
22976W        W27376  10.559   3.271  30.101 -0.1512  0.1395 -0.1214
22977W        W27377   1.369   3.081  33.569 -0.3020 -0.3693 -0.1566
22978W        W27378  15.123   2.550  30.418  0.0865 -0.0880 -0.0347
22979W        W27379   8.709   2.596  37.607  0.3003 -0.1240  0.2672
22980W        W27380   0.300   4.284  37.736 -0.0012  0.0605  0.0833
22981W        W27381  21.022   4.729  22.347  0.1738  0.1393 -0.0036
22982W        W27382  18.794   1.691  32.225 -0.0022 -0.0710 -0.0125
22983W        W27383  15.900   2.596  30.080  0.2013  0.0494  0.1617
22984W        W27384  17.636   0.409  28.392 -0.1571 -0.0171  0.4161
22985W        W27385   4.213   3.237  15.818  0.2014  0.0465 -0.0625
22986W        W27386   3.032   4.922  43.414  0.3385 -0.1451  0.1639
22987W        W27387   7.909   0.528  11.375 -0.0874  0.1746  0.1725
22988W        W27388  14.323   4.350   8.142 -0.1262  0.0149  0.0805
22989W        W27389   5.738   4.915   9.190 -0.1670 -0.1464  0.1621
22990W        W27390  20.128   6.324  42.460  0.3770  0.0836  0.0517
22991W        W27391   1.444   3.556  33.362 -0.0411 -0.3183  0.2519
22992W        W27392  20.574   6.372  39.219 -0.1682 -0.1105 -0.0532
22993W        W27393   3.278   5.886  11.987 -0.1352 -0.0725 -0.3041
22994W        W27394   8.662   5.260  34.658 -0.0867 -0.0470  0.1417
22995W        W27395   3.798   1.696   2.712 -0.0030 -0.0831  0.0256
22996W        W27396   0.053   1.473  10.924  0.1790 -0.3333 -0.0973
22997W        W27397  17.231   4.124   4.330 -0.1179  0.2394 -0.1003
22998W        W27398  16.031   2.683   3.839 -0.0356 -0.0834  0.0413
22999W        W27399   3.035   5.726  38.599  0.3340 -0.1626  0.1086
23000W        W27400   2.386   2.152   6.941  0.0699 -0.1515 -0.0341
23001W        W27401   8.290   1.867  17.736 -0.0868  0.0981  0.0303
23002W        W27402  18.626   1.359  10.125  0.3475 -0.0246  0.0682
23003W        W27403  14.107   3.216  43.874  0.0625  0.0746 -0.1057
23004W        W27404   1.547   4.627  40.398 -0.3723  0.0309 -0.1660
23005W        W27405   0.700   4.765  15.252 -0.0781 -0.2522 -0.0192
23006W        W27406  17.876   2.833   6.925  0.1569 -0.0946 -0.1866
23007W        W27407  15.083   2.107   0.208  0.0833  0.2031 -0.0158
23008W        W27408  14.809   2.507   1.263 -0.3819  0.0236  0.1629
23009W        W27409  20.340   1.302  31.571 -0.0565 -0.2061  0.0517
23010W        W27410   4.403   3.268  34.819 -0.2198  0.1349  0.2550
23011W        W27411   2.591   5.518  35.375 -0.0363 -0.1906  0.2936
23012W        W27412   2.831   4.294  37.275 -0.1654  0.1132 -0.1636
23013W        W27413  14.521   4.223  42.102 -0.0379  0.1957  0.2578
23014W        W27414  19.847   1.990  44.711  0.1581 -0.4294 -0.0539
23015W        W27415   9.953   2.328  34.644  0.1783 -0.0705 -0.0049
23016W        W27416  14.910   1.313  32.185 -0.1558  0.0388  0.2125
23017W        W27417   2.779   2.415   9.964 -0.2380  0.2505  0.0872
23018W        W27418  18.294   5.498  40.951 -0.2610 -0.1392  0.2000
23019W        W27419  13.913   1.011  14.592  0.1614 -0.1892 -0.2561
23020W        W27420   6.658   1.123  14.675 -0.1868 -0.3681 -0.0759
23021W        W27421  10.648   5.231  34.389 -0.1984  0.1457  0.3352
23022W        W27422   1.595   1.995  28.584 -0.0839 -0.1014  0.0232
23023W        W27423  12.406   4.329  29.467 -0.0847  0.0780  0.1758
23024W        W27424   1.144   6.396   9.161  0.3632  0.1799 -0.0768
23025W        W27425   8.709   6.340   5.182  0.2977  0.1298  0.2355
23026W        W27426   7.913   4.163  20.676 -0.0290  0.2240 -0.1026
23027W        W27427   0.852   4.870  43.215 -0.1105  0.3723 -0.0833
23028W        W27428  11.680   3.719  30.778 -0.4342 -0.1573 -0.1174
23029W        W27429  15.238   0.916  42.827 -0.3729 -0.3313 -0.1932
23030W        W27430  12.468   5.960  32.956 -0.0767  0.1940  0.1413
23031W        W27431   3.491   1.543  42.667  0.1775 -0.1759  0.0419
23032W        W27432  16.566   0.642  43.612 -0.0688  0.2678 -0.1032
23033W        W27433   3.536   3.470  10.696  0.0570  0.2693 -0.0362
23034W        W27434  21.113   0.119  13.277  0.1644  0.1726 -0.2595
23035W        W27435  20.258   5.203   7.001  0.1729  0.1018 -0.0722
23036W        W27436  15.056   2.347  29.930  0.0357 -0.0792  0.3305
23037W        W27437  11.974   5.652  36.721 -0.0546 -0.0995  0.2483
23038W        W27438   8.184   1.514  33.888  0.3802 -0.0658  0.1028
23039W        W27439  10.750   1.218  33.058 -0.2742  0.1241  0.3118
23040W        W27440  16.333   6.403  31.020 -0.3558  0.1595  0.2722
23041W        W27441   0.791   4.923  29.148  0.1826  0.1917  0.0234
23042W        W27442  15.882   6.575   2.045  0.1332 -0.0467  0.0760
23043W        W27443  19.651   2.203   3.480  0.3950  0.2687 -0.0709
23044W        W27444   3.940   0.180  45.057  0.0923  0.0195  0.0424
23045W        W27445   4.169   4.384  35.239  0.2518  0.2861 -0.0312
23046W        W27446  11.313   0.520  43.344 -0.1135 -0.1318  0.2803
23047W        W27447  18.620   2.796  30.574 -0.1218 -0.1256  0.2807
23048W        W27448   4.627   5.137  28.381 -0.0126  0.0529  0.0833
23049W        W27449  17.209   3.088  39.682  0.0746 -0.1983 -0.1667
23050W        W27450  15.532   0.384  11.136  0.0723  0.0834  0.5343
23051W        W27451   9.568   0.669   7.455  0.1567 -0.0113  0.3995
23052W        W27452  19.119   1.270  40.874 -0.4009 -0.0152  0.1201
23053W        W27453  20.929   1.131  21.556 -0.0727  0.2329  0.0010
23054W        W27454   6.229   3.696  36.751 -0.1937  0.1969 -0.1524
23055W        W27455  14.845   1.687   7.449  0.0646  0.0713  0.0486
23056W        W27456  16.097   3.001  39.584  0.0787 -0.4553  0.2619
23057W        W27457  17.928   4.667   6.851  0.0368  0.0809  0.0760
23058W        W27458  14.493   5.562  35.483 -0.0165  0.0639  0.0212
23059W        W27459  20.459   1.470  33.690 -0.1726 -0.1039 -0.3639
23060W        W27460  13.209   3.750  30.703 -0.1575 -0.1094 -0.2386
23061W        W27461   0.139   2.156  35.290 -0.1611 -0.0327  0.2108
23062W        W27462  19.934   6.285  44.881  0.3467 -0.1438 -0.4512
23063W        W27463  13.982   3.358   1.854 -0.2303 -0.4290 -0.0197
23064W        W27464  12.066   4.177  17.879  0.1698 -0.1511  0.0381
23065W        W27465  14.982   4.453  30.695 -0.1003  0.1422  0.0978
23066W        W27466  21.006   4.984  37.291 -0.2706 -0.0249  0.2034
23067W        W27467  20.258   0.906  30.014  0.0742  0.1429 -0.1763
23068W        W27468   9.203   5.954   4.030  0.0535 -0.3551  0.3623
23069W        W27469   0.098   1.367   2.918 -0.0355  0.2289 -0.0398
23070W        W27470   5.811   1.391  36.464 -0.3199  0.1925  0.1498
23071W        W27471   9.921   5.291   6.621  0.2090 -0.1992  0.1108
23072W        W27472   0.044   0.559  32.937  0.0418 -0.3602 -0.0733
23073W        W27473   7.370   5.232  21.600  0.0741  0.1315 -0.1426
23074W        W27474  11.296   2.151  30.237 -0.0610 -0.0317  0.1325
23075W        W27475   4.244   1.513  13.586 -0.1200 -0.0315  0.0422
23076W        W27476  18.777   5.199   2.197  0.2002 -0.0343  0.0392
23077W        W27477   8.917   3.758  12.331  0.0930  0.1765 -0.2106
23078W        W27478   4.927   5.334  11.605 -0.1821 -0.4056  0.0251
23079W        W27479   6.818   2.486  37.805 -0.0924  0.0890 -0.0515
23080W        W27480  13.664   3.844  31.109 -0.0793 -0.1204 -0.3292
23081W        W27481  16.659   0.133   5.725  0.0581 -0.0896 -0.4099
23082W        W27482   7.759   6.181  16.107 -0.0609  0.1154 -0.0604
23083W        W27483   7.938   4.197  41.846 -0.0049  0.0719 -0.1258
23084W        W27484   8.671   0.607   2.908  0.2864 -0.3501  0.0679
23085W        W27485   1.884   1.191  43.783  0.0819 -0.0409  0.2732
23086W        W27486  12.787   0.507   2.715 -0.2608  0.0346  0.3839
23087W        W27487   1.604   4.702   2.244  0.1464 -0.2114  0.0983
23088W        W27488   4.524   1.142  18.260  0.0294  0.0742 -0.2297
23089W        W27489  18.493   0.041   9.546 -0.1114  0.3540 -0.1121
23090W        W27490  17.166   2.785  40.363  0.1477  0.1125  0.1905
23091W        W27491  13.037   2.317  35.007  0.3747 -0.1725  0.4283
23092W        W27492  13.294   5.188  36.102  0.2567 -0.0240 -0.2205
23093W        W27493  19.493   4.142  44.354 -0.1145 -0.1577 -0.1431
23094W        W27494  20.229   0.213  34.284  0.0008 -0.2610  0.0938
23095W        W27495  12.399   0.081  19.098  0.0089  0.1782  0.0861
23096W        W27496   8.115   2.037  30.260  0.5307 -0.1510  0.1119
23097W        W27497   1.059   1.769  33.222  0.1710 -0.2238 -0.3583
23098W        W27498   9.556   3.110  35.187 -0.2638  0.1441 -0.1230
23099W        W27499  19.962   4.163  28.989  0.2915  0.3324 -0.1207
23100W        W27500  12.648   0.803  30.047 -0.0865 -0.0590 -0.1010
23101W        W27501  15.612   0.376   5.899  0.3290 -0.2985  0.0925
23102W        W27502  21.137   6.430   4.091  0.0724 -0.1691  0.1990
23103W        W27503  17.878   6.434  25.765  0.2537 -0.1273  0.1848
23104W        W27504  17.064   2.426  25.533  0.1427 -0.1653  0.0463
23105W        W27505  17.953   6.149  44.071  0.0112  0.2400 -0.3075
23106W        W27506  16.282   5.273   1.316  0.0725 -0.0771 -0.0526
23107W        W27507  13.381   5.349  40.576  0.2047 -0.2209  0.0381
23108W        W27508  17.668   1.122  41.911  0.1824 -0.2051  0.0115
23109W        W27509   6.056   1.974  10.760  0.0022  0.1463 -0.2099
23110W        W27510  19.962   3.196   8.720 -0.0105 -0.1143  0.0979
23111W        W27511  17.641   6.517   5.747 -0.2249  0.2097 -0.1501
23112W        W27512  19.710   1.836   6.471 -0.1391 -0.0189 -0.0967
23113W        W27513  20.078   4.174  22.067 -0.0497  0.0617  0.0557
23114W        W27514  20.890   0.386  32.584  0.0666  0.0622  0.0350
23115W        W27515   2.209   5.334  36.739 -0.1011 -0.0311  0.2526
23116W        W27516  20.271   1.358  35.113 -0.0575 -0.1265 -0.0951
23117W        W27517  11.372   2.264  18.497  0.0734  0.2090 -0.1837
23118W        W27518  17.952   4.092  21.778 -0.0594 -0.2085 -0.0920
23119W        W27519   7.259   6.075  35.230 -0.0740  0.0908  0.0528
23120W        W27520  13.719   1.104  35.153 -0.0122 -0.0261  0.0702
23121W        W27521  16.631   1.095  15.040 -0.0010  0.3624  0.0797
23122W        W27522   2.428   3.640  44.512 -0.3185 -0.0373 -0.1935
23123W        W27523   4.258   4.052   5.810 -0.0671 -0.1634 -0.0948
23124W        W27524  19.609   2.884  11.709  0.1423 -0.1012 -0.1234
23125W        W27525  17.645   1.880  12.466  0.0858  0.2161  0.0355
23126W        W27526   3.979   3.583  40.909  0.0154 -0.1673  0.0954
23127W        W27527   4.272   5.313  40.008 -0.2998 -0.1106  0.1553
23128W        W27528   8.301   0.121  17.256  0.1022 -0.0646 -0.0981
23129W        W27529  15.824   2.738  36.641 -0.4584 -0.2700  0.3539
23130W        W27530   1.733   1.984  10.500 -0.2243 -0.2561 -0.0430
23131W        W27531   6.010   3.729   3.432 -0.0393 -0.1893 -0.1066
23132W        W27532   4.071   5.355  41.544  0.2130 -0.1734 -0.0524
23133W        W27533   8.971   5.296   9.947  0.2359  0.0194 -0.1045
23134W        W27534   6.760   0.911  19.748 -0.0403  0.2126  0.1617
23135W        W27535  19.525   6.302  22.568  0.0024 -0.0753 -0.0676
23136W        W27536   4.471   6.220  32.305 -0.1570  0.0877 -0.0499
23137W        W27537   2.161   3.317   2.113 -0.0867 -0.0211  0.3281
23138W        W27538   1.290   0.089  34.418 -0.1026  0.3181 -0.1045
23139W        W27539  19.821   2.382   8.341  0.2688  0.0725  0.0109
23140W        W27540  10.710   6.237  44.840  0.0734  0.1849  0.1815
23141W        W27541  17.546   4.469  33.998 -0.0991  0.0432 -0.1498
23142W        W27542   6.143   6.009   9.376 -0.0727 -0.1633  0.1793
23143W        W27543   4.039   5.568  42.633  0.1078 -0.0681  0.1044
23144W        W27544  20.885   4.534   1.708  0.3479 -0.2314 -0.0699
23145W        W27545  20.144   4.566  23.341  0.2356 -0.2149  0.2436
23146W        W27546  18.696   4.913  34.358 -0.0628  0.0225 -0.1206
23147W        W27547  21.008   2.305  10.432  0.1262 -0.0043  0.0202
23148W        W27548  13.728   6.041  30.818 -0.0804 -0.1790  0.0316
23149W        W27549  15.929   0.650  30.208 -0.0178 -0.0159  0.1700
23150W        W27550   8.338   5.828  37.349 -0.1131 -0.0419 -0.1828
23151W        W27551  18.811   0.032  42.130  0.3385  0.0045  0.0251
23152W        W27552  15.978   1.450  41.611  0.1197 -0.0783 -0.1797
23153W        W27553  15.753   4.909  44.889 -0.0061 -0.0332 -0.0144
23154W        W27554   2.988   2.437  17.335 -0.0833  0.1311 -0.3476
23155W        W27555  13.840   4.599   3.117 -0.2543  0.2928  0.2064
23156W        W27556  13.438   3.480   2.547  0.0271 -0.0016  0.0290
23157W        W27557  19.022   3.072  37.730  0.0262 -0.0335 -0.0928
23158W        W27558   6.905   0.375  41.415 -0.2305 -0.0250 -0.0333
23159W        W27559   3.745   4.211  43.451  0.0404 -0.2556 -0.1399
23160W        W27560   6.349   3.716   7.073 -0.0691 -0.1662 -0.0639
23161W        W27561  18.283   5.504   7.618  0.0331  0.3058  0.0978
23162W        W27562  19.157   1.476  10.748  0.0544 -0.0325 -0.0593
23163W        W27563  13.990   3.831  19.707 -0.0510 -0.2841  0.1876
23164W        W27564   3.814   6.289   7.007 -0.0498 -0.1134  0.0374
23165W        W27565   8.907   1.289  33.859  0.0958  0.0649 -0.2097
23166W        W27566  12.600   4.383   3.920 -0.0370  0.1107  0.0045
23167W        W27567  16.631   4.036  37.519 -0.0885  0.3051  0.4080
23168W        W27568   1.607   4.623  39.442  0.1225 -0.1861 -0.2071
23169W        W27569   4.029   5.958   1.119  0.1395  0.1552  0.2271
23170W        W27570   5.950   2.648   5.474 -0.0687 -0.0913 -0.4729
23171W        W27571  18.487   5.235  27.984 -0.0404 -0.1128  0.0086
23172W        W27572   1.952   3.361   4.854  0.0077  0.0452 -0.2062
23173W        W27573  16.962   3.606   8.275  0.0679 -0.0971 -0.3113
23174W        W27574  10.885   5.698  13.954 -0.0912  0.1152  0.3768
23175W        W27575  14.921   0.751  29.586 -0.0089 -0.0326  0.0494
23176W        W27576  17.164   3.641  32.068 -0.0417  0.0449 -0.2142
23177W        W27577   6.802   0.472  17.697  0.2307  0.0305  0.0297
23178W        W27578  20.440   4.489  41.064  0.1041  0.1678 -0.0883
23179W        W27579  16.317   4.578  26.693  0.1244  0.1167 -0.1126
23180W        W27580   9.872   4.441  44.691 -0.0900  0.1955  0.0481
23181W        W27581   0.554   1.599   0.852  0.1991  0.1392  0.0061
23182W        W27582   3.584   6.137  31.657  0.1976  0.2024  0.0704
23183W        W27583  17.469   4.018   9.534  0.2612 -0.0105 -0.1435
23184W        W27584  16.270   4.831  38.310 -0.1824 -0.1737  0.4538
23185W        W27585   0.748   3.603  34.093  0.1075 -0.2087  0.0651
23186W        W27586  17.633   6.052   7.478  0.2387 -0.1813  0.2487
23187W        W27587  13.185   5.505  43.917 -0.0989 -0.0351 -0.1705
23188W        W27588   7.730   0.119   3.293 -0.0386  0.1234 -0.1780
23189W        W27589   4.853   4.484  42.452  0.3251 -0.1443 -0.2875
23190W        W27590   3.398   0.067   8.218 -0.0329 -0.2935  0.0257
23191W        W27591   8.857   1.567  11.271  0.2295  0.2435 -0.0142
23192W        W27592   4.208   2.641   1.153  0.1483  0.3053 -0.3226
23193W        W27593  10.405   0.282   7.777 -0.0479 -0.4076 -0.2607
23194W        W27594   2.836   4.900  36.163 -0.1441  0.0265  0.1283
23195W        W27595   4.053   0.064  40.203 -0.1227 -0.1835 -0.0908
23196W        W27596   8.980   5.404  32.952  0.1044 -0.1087 -0.0541
23197W        W27597   7.596   4.561  41.870  0.0005 -0.1082  0.1576
23198W        W27598   4.615   0.056  19.621 -0.0398 -0.2553  0.2608
23199W        W27599  10.104   0.418  16.867 -0.0852 -0.1638  0.3343
23200W        W27600   9.320   0.722  34.684 -0.0633 -0.1428 -0.1600
23201W        W27601  14.238   3.829  40.023  0.1282 -0.1003  0.2621
23202W        W27602  18.027   2.411  13.547  0.1897  0.0319  0.0633
23203W        W27603  10.044   2.409   6.440  0.1754 -0.0840 -0.2541
23204W        W27604  11.044   4.053   9.557  0.2316  0.0402  0.1385
23205W        W27605   8.406   3.676  15.432 -0.2461 -0.1313 -0.1657
23206W        W27606   5.975   3.788  12.701  0.0366  0.2489  0.0319
23207W        W27607   0.118   1.105  41.782 -0.1731 -0.0224  0.1408
23208W        W27608  15.154   2.667  29.015  0.0184 -0.0616 -0.2985
23209W        W27609  10.896   4.324   5.236 -0.1213 -0.1504 -0.1078
23210W        W27610  16.720   4.423   0.256 -0.0797 -0.0963  0.0573
23211W        W27611   1.029   1.361   7.098 -0.0867 -0.4677  0.0204
23212W        W27612  11.418   0.370   0.216  0.0485 -0.1324  0.1802
23213W        W27613  14.293   0.281   9.964  0.0871 -0.0084  0.1967
23214W        W27614   5.282   6.317  29.977  0.5392  0.1255  0.2174
23215W        W27615   9.601   5.511   5.694 -0.0350 -0.1414  0.2551
23216W        W27616  15.977   4.762  11.683 -0.0854  0.0205  0.2065
23217W        W27617   9.562   3.359  35.666  0.1938 -0.1667  0.0048
23218W        W27618  15.521   0.115  28.927 -0.0627  0.0097 -0.0501
23219W        W27619   2.084   5.498  32.592  0.0765  0.0838  0.0505
23220W        W27620   4.322   4.977  44.402 -0.1250 -0.1617  0.1488
23221W        W27621   2.272   1.007   8.343 -0.1332  0.1137 -0.1504
23222W        W27622  19.374   5.223   5.122  0.0501 -0.4062 -0.0619
23223W        W27623   6.901   1.990  20.456  0.2058 -0.1181  0.0169
23224W        W27624   0.071   1.770  23.750  0.1625 -0.0630  0.0210
23225W        W27625  14.449   4.559  41.224 -0.1481  0.0536  0.3981
23226W        W27626  11.093   5.476   6.482 -0.2490 -0.1717 -0.0522
23227W        W27627  16.829   6.477  36.874  0.2602  0.0529 -0.0225
23228W        W27628  20.272   6.563   8.082 -0.2051 -0.1264 -0.0951
23229W        W27629   4.002   2.325  17.731  0.2280  0.3959 -0.1490
23230W        W27630   7.259   5.457  43.694 -0.0080  0.0675  0.1318
23231W        W27631   2.194   6.138  34.149  0.0850  0.0573 -0.0596
23232W        W27632   6.861   3.628  41.369 -0.2252  0.1462 -0.2886
23233W        W27633  11.182   2.274  35.971 -0.1578 -0.2364 -0.1745
23234W        W27634  18.948   0.588  31.323 -0.0296  0.1972 -0.3820
23235W        W27635   8.616   5.731  17.282  0.1723  0.0476 -0.2443
23236W        W27636  14.186   3.597  38.579  0.2568 -0.0273 -0.4055
23237W        W27637  18.400   1.981  42.270  0.0233  0.0345  0.1336
23238W        W27638   3.853   2.069   2.378  0.1119 -0.2866 -0.1113
23239W        W27639   4.557   4.811   3.554 -0.0332  0.0998  0.1224
23240W        W27640   5.568   3.971  19.294  0.4367 -0.0663  0.3188
23241W        W27641   3.309   0.520  11.881  0.1265  0.0236  0.1628
23242W        W27642  19.903   2.973   3.264 -0.0766  0.0754  0.3481
23243W        W27643  10.827   3.208   5.371  0.4446 -0.1727  0.1506
23244W        W27644   8.910   0.546  21.045 -0.0732  0.2355  0.1857
23245W        W27645   8.791   5.913  18.700  0.1316  0.1770  0.0369
23246W        W27646   1.724   6.160  34.025 -0.0606  0.0548 -0.0442
23247W        W27647   2.952   1.004  13.544 -0.0048  0.2258  0.2882
23248W        W27648  19.638   6.073  40.251  0.1583 -0.1178 -0.2071
23249W        W27649   9.644   4.022  35.934  0.1344 -0.0640  0.0060
23250W        W27650  10.012   1.022  35.906  0.1014  0.0815 -0.0273
23251W        W27651  20.104   1.160  13.795 -0.1902  0.1584 -0.2682
23252W        W27652  13.246   2.561  18.315 -0.0499 -0.1090  0.0834
23253W        W27653  14.403   2.286  29.423  0.2248  0.0473  0.0591
23254W        W27654  20.636   3.792  43.763  0.0400  0.0283 -0.2255
23255W        W27655   0.967   2.926  37.412  0.4049  0.0344 -0.2570
23256W        W27656   2.805   1.638  14.391 -0.1689  0.1893  0.2128
23257W        W27657   9.394   3.353  40.784  0.1372  0.2227  0.0712
23258W        W27658  10.940   1.862   6.014  0.0315 -0.0632 -0.2929
23259W        W27659  16.290   1.496   2.207  0.0363 -0.0269 -0.1152
23260W        W27660  21.082   2.029   2.233  0.1914  0.1214 -0.4320
23261W        W27661  18.948   5.078   5.489  0.1158  0.2559 -0.0816
23262W        W27662   7.398   2.700  22.034 -0.0272  0.0582 -0.0324
23263W        W27663  10.016   0.128  39.823 -0.2485  0.0680  0.1603
23264W        W27664  17.700   4.049  42.947 -0.3252  0.1226 -0.1243
23265W        W27665   3.054   4.810  11.040 -0.2821 -0.4096  0.0465
23266W        W27666   6.015   2.953  14.467  0.2957 -0.3018  0.1682
23267W        W27667  16.000   2.266  44.989 -0.1474 -0.1325 -0.1254
23268W        W27668   9.443   3.800  42.574 -0.3418 -0.2175  0.0444
23269W        W27669   5.349   3.711   7.209 -0.0796 -0.1011  0.0116
23270W        W27670  15.519   5.259   6.641  0.2972 -0.0819 -0.1896
23271W        W27671  15.360   5.129  26.593  0.2016 -0.1636  0.2645
23272W        W27672  16.254   0.369  42.341 -0.1104 -0.1590  0.1518
23273W        W27673   1.913   6.583  41.855  0.3023  0.0029  0.1144
23274W        W27674  13.670   5.905  33.066  0.0255 -0.1872 -0.2160
23275W        W27675  18.088   5.707  36.506 -0.1081 -0.0742  0.1361
23276W        W27676   2.516   6.001  40.821 -0.0272 -0.0980 -0.2222
23277W        W27677   2.230   1.324  28.973  0.2831 -0.0751  0.0055
23278W        W27678   1.569   6.241  44.234 -0.0560  0.1600  0.3338
23279W        W27679   0.637   1.648  30.322  0.1129  0.1436 -0.3309
23280W        W27680   6.290   1.361   3.530 -0.0306 -0.0323 -0.2198
23281W        W27681  19.432   1.441  38.275  0.0135 -0.3318 -0.1151
23282W        W27682   0.853   3.066  43.185 -0.0141  0.3839  0.1951
23283W        W27683  16.480   1.273  26.550 -0.1191 -0.1718  0.0066
23284W        W27684  11.861   3.427  11.002 -0.0464  0.2154  0.2621
23285W        W27685  17.991   5.688   3.302 -0.0835 -0.0295  0.1394
23286W        W27686  13.783   0.957  15.752 -0.3207  0.3958  0.0772
23287W        W27687   6.070   4.896  17.871 -0.1592 -0.3816  0.1210
23288W        W27688   5.378   3.174  44.720 -0.2197  0.0485  0.0328
23289W        W27689  14.387   1.315   6.258 -0.0287  0.2332 -0.0083
23290W        W27690   6.876   2.529  45.031  0.0045  0.1866 -0.0549
23291W        W27691  14.895   6.599   7.152  0.1786 -0.1099  0.0800
23292W        W27692  14.510   4.886  13.552  0.1722  0.1311  0.0520
23293W        W27693  20.316   0.006  30.593 -0.1960 -0.2964 -0.0242
23294W        W27694   5.628   3.070  19.490 -0.2725  0.0473  0.3202
23295W        W27695   5.022   0.830  10.721  0.3544 -0.0991 -0.1991
23296W        W27696   1.795   4.372  35.410 -0.0268 -0.1262  0.1349
23297W        W27697  19.390   5.183  14.978  0.0237  0.2275  0.1775
23298W        W27698   1.293   1.238  10.294  0.4462 -0.2402  0.0768
23299W        W27699  10.180   4.906  20.263 -0.3771  0.2495 -0.0100
23300W        W27700   3.581   6.564   9.466  0.0845 -0.0745 -0.0413
23301W        W27701  16.577   4.945   8.401 -0.1039  0.0774  0.0080
23302W        W27702   3.306   4.080  14.208  0.1830  0.2350  0.0287
23303W        W27703  19.552   1.856  24.961  0.2447 -0.0606 -0.0065
23304W        W27704  16.395   6.243  40.109 -0.0894 -0.0294 -0.0979
23305W        W27705   5.512   4.421  33.439  0.2041  0.1773 -0.0262
23306W        W27706   1.273   5.469   3.523 -0.1611  0.2233  0.1211
23307W        W27707  10.287   6.345   3.187  0.0247 -0.4421  0.0923
23308W        W27708   4.255   3.087   3.610  0.0387 -0.0246  0.1052
23309W        W27709  16.054   6.445  34.177 -0.2203 -0.0337  0.1267
23310W        W27710  15.617   1.804  26.278 -0.0010  0.2986  0.1236
23311W        W27711   7.243   1.595  10.838 -0.0309  0.1018  0.1078
23312W        W27712   9.485   0.675  37.446 -0.1081 -0.1753  0.1405
23313W        W27713   8.355   3.458  18.647 -0.3954  0.2490 -0.0572
23314W        W27714   1.433   4.344  10.513  0.2740 -0.1261 -0.0937
23315W        W27715  16.622   0.128  38.951 -0.1968  0.1014 -0.1607
23316W        W27716  18.384   4.880  30.333 -0.1524 -0.1416 -0.2351
23317W        W27717   7.085   4.839  41.104 -0.2206  0.1957  0.2080
23318W        W27718   5.572   5.424  35.873  0.1297  0.0639  0.0555
23319W        W27719  14.424   3.777  39.037 -0.1273 -0.1597 -0.1027
23320W        W27720  10.035   2.195  18.042  0.0943  0.0143 -0.1394
23321W        W27721  11.297   0.762  17.441  0.1397  0.0043 -0.2574
23322W        W27722  14.874   2.154  11.172 -0.1807  0.1455 -0.1133
23323W        W27723  17.636   2.293  38.177 -0.2294  0.3889  0.1500
23324W        W27724  17.329   6.370  26.629 -0.2955  0.0389  0.0697
23325W        W27725  15.397   5.427  32.679 -0.0755 -0.0440  0.0207
23326W        W27726   6.850   2.605  35.900  0.0718  0.1787  0.0814
23327W        W27727  18.454   4.696  36.639 -0.2470 -0.2058  0.0509
23328W        W27728   0.782   6.140  12.233 -0.0883  0.1236 -0.0376
23329W        W27729   8.167   3.672  33.047 -0.4575  0.1522 -0.1278
23330W        W27730   2.137   2.183  11.808  0.2177 -0.0962  0.2788
23331W        W27731  12.056   4.773  10.703  0.0342 -0.1865 -0.0782
23332W        W27732  15.528   5.768  13.021  0.1469  0.0016 -0.0351
23333W        W27733   2.469   0.740  26.295  0.2029  0.0507  0.1878
23334W        W27734   1.144   0.826  23.913  0.0749  0.1892 -0.4384
23335W        W27735   2.694   3.180  24.214  0.2816 -0.0232  0.1421
23336W        W27736  10.186   3.997  19.980  0.2498  0.0166  0.0276
23337W        W27737  20.195   1.300  30.865  0.0928  0.0367  0.0264
23338W        W27738   3.526   2.724  33.256  0.1523  0.1156 -0.1404
23339W        W27739   7.679   1.533   0.128 -0.1053  0.0473  0.1751
23340W        W27740  20.583   0.221  21.098  0.1932  0.2807  0.2012
23341W        W27741   4.459   0.281   2.448  0.0851  0.0033  0.2987
23342W        W27742  20.799   5.989   4.957 -0.2647 -0.2184  0.0896
23343W        W27743   5.694   0.867  27.828  0.2756 -0.1959 -0.1706
23344W        W27744   4.333   0.605   1.413  0.2120 -0.2050 -0.0290
23345W        W27745  18.262   4.596   1.202  0.0820  0.2096 -0.1741
23346W        W27746   6.192   5.876   9.834  0.2158  0.0321  0.0604
23347W        W27747  15.718   0.123  31.308 -0.5769  0.0001 -0.1422
23348W        W27748  20.945   5.372   7.707  0.1653  0.2593 -0.0473
23349W        W27749  13.060   5.844  34.981  0.0355  0.1415  0.1543
23350W        W27750  14.355   2.409  17.335  0.2424 -0.1543  0.0681
23351W        W27751   1.018   2.155  36.242 -0.0871 -0.0380 -0.1127
23352W        W27752  18.051   1.420   0.803  0.0093 -0.1459 -0.1895
23353W        W27753  12.429   5.306  13.384 -0.0725 -0.0751  0.0471
23354W        W27754   8.399   4.452  11.089  0.0563 -0.0001  0.1586
23355W        W27755  10.122   5.101   7.145  0.0376  0.0928  0.1966
23356W        W27756  19.003   5.417  29.978 -0.0477  0.5344 -0.1899
23357W        W27757   7.465   2.891  44.844 -0.1911 -0.2198 -0.0421
23358W        W27758  11.925   1.700  36.520 -0.0751 -0.2515  0.0708
23359W        W27759   7.508   2.359  21.207  0.0680  0.0787 -0.2247
23360W        W27760  12.822   4.488  28.536 -0.1391  0.1278 -0.2156
23361W        W27761  17.136   0.014  35.989 -0.0043 -0.3065  0.0713
23362W        W27762   6.190   4.529   7.591  0.0326 -0.1475 -0.1715
23363W        W27763  11.539   5.176  44.524  0.0540  0.1261 -0.4235
23364W        W27764   0.215   5.783  11.161 -0.0166  0.1796  0.0247
23365W        W27765   6.731   6.335   0.755 -0.1393  0.3686 -0.0044
23366W        W27766   0.364   3.070  32.464 -0.0159  0.1906 -0.0396
23367W        W27767  17.731   0.116  35.269  0.0386 -0.1749 -0.0733
23368W        W27768  12.808   4.098  29.735 -0.1438  0.3592 -0.0956
23369W        W27769   1.576   0.258  36.839  0.1508  0.2126 -0.1277
23370W        W27770   9.704   5.440  33.461 -0.1655 -0.0090 -0.0967
23371W        W27771   3.329   2.219  27.129  0.0259 -0.3467  0.1334
23372W        W27772  13.291   0.135   3.306 -0.0615  0.2231  0.1812
23373W        W27773  10.698   0.084  11.315 -0.1579  0.3340 -0.1992
23374W        W27774   3.061   3.430  37.073 -0.0091  0.0118  0.1445
23375W        W27775   8.395   1.308   4.854 -0.2984  0.0312 -0.1884
23376W        W27776   1.382   3.460  36.460  0.0399 -0.0128 -0.3616
23377W        W27777  14.353   4.796  28.480 -0.3602 -0.0600 -0.0822
23378W        W27778   9.702   2.045   7.441  0.2851 -0.1267  0.1742
23379W        W27779   3.858   4.018  43.008 -0.1026  0.1122 -0.0871
23380W        W27780  12.573   1.745   5.258 -0.1800  0.2307 -0.2474
23381W        W27781   3.986   6.335  32.518  0.1082 -0.1593 -0.0782
23382W        W27782  15.984   0.782  31.759  0.3454 -0.1753 -0.0517
23383W        W27783   3.860   1.116  29.516 -0.0118 -0.1039 -0.0304
23384W        W27784  16.510   5.558  25.835  0.2558 -0.3111  0.0005
23385W        W27785   3.861   1.846  16.005 -0.0804 -0.1664  0.0001
23386W        W27786   0.641   1.508  44.425  0.1996  0.1365 -0.3368
23387W        W27787  11.200   4.420  39.421 -0.4031 -0.2300 -0.2365
23388W        W27788   2.934   6.559  16.357  0.2913 -0.1961  0.0319
23389W        W27789  13.535   5.079  36.564  0.0861  0.0250  0.0941
23390W        W27790  13.682   5.081   4.980  0.0104  0.0264  0.1176
23391W        W27791   6.072   6.119   2.918 -0.0885  0.2334  0.1621
23392W        W27792  18.824   3.226  13.404  0.0118 -0.2110  0.2514
23393W        W27793   0.349   5.428   6.133  0.2817  0.2511  0.0674
23394W        W27794  17.565   2.064  10.298  0.0078  0.2776 -0.0890
23395W        W27795  19.480   4.084  30.687  0.2337  0.0417  0.2560
23396W        W27796  19.294   0.713   8.124  0.1836 -0.0790 -0.0101
23397W        W27797  11.051   4.441  20.057  0.4869  0.0873 -0.1060
23398W        W27798  12.638   4.280  30.610 -0.0440 -0.2611  0.1064
23399W        W27799  20.229   2.453  28.320  0.1152  0.1937  0.0346
23400W        W27800  13.610   4.872  12.756 -0.0226  0.2655  0.0213
23401W        W27801   9.731   4.908   3.716 -0.2912  0.1803 -0.2012
23402W        W27802  19.752   6.037  35.040 -0.2059  0.0398 -0.0728
23403W        W27803   1.608   3.023   4.548 -0.1893 -0.2377  0.2176
23404W        W27804  16.882   1.025  25.387 -0.0227  0.0253 -0.1271
23405W        W27805   6.938   1.564  41.611  0.1167  0.0889 -0.3433
23406W        W27806   7.899   3.282   2.450 -0.1962 -0.1355  0.1272
23407W        W27807   3.527   3.930  34.225  0.0169  0.1687  0.0607
23408W        W27808   2.865   2.782  37.614  0.3822  0.1825 -0.1654
23409W        W27809  19.472   4.647   1.684 -0.2737 -0.1115  0.0320
23410W        W27810  17.256   4.894  12.907  0.1584 -0.4423  0.1614
23411W        W27811   1.412   1.007   7.356  0.2831  0.2551 -0.1879
23412W        W27812   9.936   3.446  19.305 -0.0342 -0.0188  0.0097
23413W        W27813  18.827   0.301   8.710  0.0144 -0.1961  0.0674
23414W        W27814   9.616   3.925  18.729 -0.1611  0.2932 -0.3761
23415W        W27815  19.375   5.958  30.665 -0.4733  0.0814 -0.1113
23416W        W27816  14.232   3.134  29.395 -0.1630 -0.0153  0.3210
23417W        W27817  18.271   1.643  29.001 -0.1306  0.2215 -0.1902
23418W        W27818   2.593   2.713  44.352 -0.1782 -0.1891  0.3459
23419W        W27819   8.655   3.143   7.580 -0.0863 -0.2388 -0.0118
23420W        W27820   4.773   5.312  15.075 -0.1542  0.0145 -0.2667
23421W        W27821   0.817   0.281  11.111  0.2256  0.1414  0.0013
23422W        W27822   3.557   4.985  13.393  0.1680 -0.1797  0.1873
23423W        W27823   2.874   5.095  32.654  0.0346  0.2187  0.1802
23424W        W27824   7.298   3.606  21.559 -0.1245  0.3115 -0.2029
23425W        W27825  15.111   4.208  16.290 -0.2073 -0.0942 -0.0695
23426W        W27826   9.956   2.327  23.518 -0.1686 -0.1794 -0.1625
23427W        W27827   1.583   1.401   2.901 -0.1998 -0.1970 -0.2979
23428W        W27828  12.797   5.956   9.604 -0.1379  0.4719 -0.2581
23429W        W27829  18.574   4.261  36.854  0.0224  0.0099  0.1074
23430W        W27830  12.626   2.719   0.499  0.0967  0.0209 -0.1499
23431W        W27831   2.294   2.191   0.966  0.1294  0.1694 -0.1731
23432W        W27832   0.081   2.791   0.765  0.3571 -0.1288  0.2804
23433W        W27833   5.459   5.630   7.770 -0.1011  0.1218 -0.4155
23434W        W27834  17.149   6.551  24.658  0.0914  0.0456  0.2031
23435W        W27835  18.852   5.160   8.176  0.0172  0.0860  0.0824
23436W        W27836   5.771   1.445  44.491 -0.2163  0.0026 -0.0539
23437W        W27837  21.002   1.127   5.381  0.2584 -0.0395 -0.0664
23438W        W27838   6.006   5.484  32.480  0.1292 -0.1437  0.0938
23439W        W27839   8.507   5.502   8.771 -0.0533  0.0200 -0.0233
23440W        W27840  13.288   5.545   0.185  0.0317 -0.1824  0.0532
23441W        W27841   3.748   1.595  33.055 -0.0399 -0.1306  0.0398
23442W        W27842  13.072   5.342  33.080  0.2631  0.2186 -0.0952
23443W        W27843  18.609   4.294   3.778 -0.0152 -0.1419 -0.1954
23444W        W27844   8.559   0.482   5.712  0.1860  0.2134  0.1470
23445W        W27845  12.543   0.657  39.447  0.1393 -0.1816 -0.1085
23446W        W27846  17.681   3.729  34.694  0.3430 -0.1033 -0.1511
23447W        W27847  15.277   3.852   1.488 -0.0098 -0.0708  0.1218
23448W        W27848   1.567   1.725  31.245 -0.1098  0.1535 -0.2652
23449W        W27849  10.655   3.329   0.356 -0.0533 -0.0404 -0.1781
23450W        W27850   5.756   5.130  41.556 -0.1435  0.0829  0.1190
23451W        W27851  20.212   2.679  26.952  0.0111 -0.1687  0.0643
23452W        W27852   4.444   6.483  30.587 -0.3257 -0.1094  0.1653
23453W        W27853  12.170   5.013  12.876 -0.1692 -0.4197 -0.1793
23454W        W27854   6.162   0.524  12.930 -0.3570  0.0007 -0.2795
23455W        W27855  13.669   2.623  15.631 -0.1083  0.1119 -0.0502
23456W        W27856   8.806   4.256  16.723  0.0776 -0.2390  0.4342
23457W        W27857  19.661   1.663   3.415 -0.1525 -0.0886 -0.0207
23458W        W27858  12.588   0.787  10.704 -0.2515  0.1334  0.3975
23459W        W27859  19.540   1.589  22.737  0.2230  0.1428 -0.2258
23460W        W27860  18.650   0.059   7.832 -0.0691  0.1025 -0.0830
23461W        W27861  18.779   1.728   9.229  0.0335 -0.0905 -0.2540
23462W        W27862   1.558   5.223  42.480 -0.0816 -0.0982  0.2564
23463W        W27863  17.659   1.752  13.520  0.4518 -0.0540  0.0533
23464W        W27864  10.841   1.221  28.136  0.1777 -0.3581 -0.2124
23465W        W27865  17.968   1.072   7.968 -0.3331  0.0053  0.1268
23466W        W27866   4.021   2.349  41.477  0.1873  0.1191 -0.2674
23467W        W27867   8.629   6.347  37.676  0.0604  0.0894  0.0225
23468W        W27868   8.000   2.367  39.557  0.1835 -0.0574 -0.1553
23469W        W27869  13.248   2.247   1.303  0.0422 -0.2901 -0.1679
23470W        W27870   9.842   0.179  33.465  0.3475 -0.0987  0.1241
23471W        W27871  19.905   2.468   3.086  0.1078  0.0688  0.2926
23472W        W27872   4.673   3.579   9.375 -0.1798 -0.1406  0.1437
23473W        W27873   5.850   2.193  16.735  0.2141 -0.1794 -0.1303
23474W        W27874   9.744   4.268  42.292 -0.0258 -0.5182  0.0448
23475W        W27875   0.998   4.733  31.770  0.1041 -0.1186  0.1643
23476W        W27876  12.546   0.665  15.072 -0.1137  0.6403  0.1254
23477W        W27877  10.102   5.164  14.477  0.2990  0.0063  0.3528
23478W        W27878   7.232   5.447  32.848  0.0467 -0.0316  0.0871
23479W        W27879   4.342   1.980  33.456  0.1815 -0.1089 -0.0793
23480W        W27880  20.676   6.166  29.357  0.3873 -0.0414 -0.1425
23481W        W27881  12.197   4.683   3.820 -0.1442 -0.2597  0.1634
23482W        W27882   8.576   4.920  15.647  0.1374  0.2182  0.0490
23483W        W27883  19.772   2.255  28.162 -0.0375  0.1358 -0.0946
23484W        W27884   9.569   4.384   2.743  0.1406  0.0239  0.0265
23485W        W27885  18.610   1.140  41.995  0.1823  0.0666  0.2056
23486W        W27886   7.454   0.261   9.790 -0.2172 -0.0281 -0.0492
23487W        W27887   0.934   2.298   5.597  0.0149 -0.0724  0.0148
23488W        W27888   6.988   3.299   1.410  0.0164  0.1419 -0.0425
23489W        W27889   5.067   0.726  31.007  0.0467 -0.2050  0.0647
23490W        W27890   2.614   4.673   5.639  0.3163  0.1035 -0.2403
23491W        W27891   5.208   2.396  44.359  0.0156  0.0469  0.0862
23492W        W27892   6.943   3.935  22.244 -0.0024  0.0772 -0.0484
23493W        W27893  10.939   1.364  44.426 -0.0507 -0.2332 -0.0235
23494W        W27894  13.827   5.225   3.760  0.0506  0.2474 -0.1816
23495W        W27895  12.678   3.987  16.748 -0.0990 -0.1340  0.2561
23496W        W27896   8.223   3.361   7.820  0.3128  0.1922 -0.2037
23497W        W27897   4.983   5.369  31.531 -0.0309 -0.1370  0.3376
23498W        W27898  14.594   3.185   6.175  0.0044  0.0819 -0.2997
23499W        W27899  16.700   3.677  11.342  0.2086 -0.0544  0.0651
23500W        W27900  16.688   3.528  34.094 -0.2014  0.1018  0.0609
23501W        W27901   3.714   0.188  12.770  0.3658 -0.3711 -0.1780
23502W        W27902   3.977   0.065  34.906  0.0990  0.0101  0.0760
23503W        W27903  17.953   1.748  23.084 -0.0612  0.4124  0.1140
23504W        W27904   4.994   0.197   5.502  0.0776  0.0217 -0.1971
23505W        W27905  19.550   3.657   9.671  0.1661 -0.3606 -0.0937
23506W        W27906  18.807   3.699   5.687  0.1738 -0.0922 -0.0179
23507W        W27907  17.026   0.301  14.627  0.1464  0.2216  0.2412
23508W        W27908   2.933   5.303  17.367  0.2066  0.0738  0.1618
23509W        W27909   8.579   0.936   1.322 -0.1314 -0.1263  0.0929
23510W        W27910  20.336   4.441  28.044  0.1012 -0.0656 -0.3053
23511W        W27911   1.411   3.237   5.426 -0.0410  0.2648 -0.0172
23512W        W27912   7.734   5.416   9.290 -0.1805 -0.0941 -0.1106
23513W        W27913   2.549   2.912  26.185 -0.1784 -0.2020 -0.1168
23514W        W27914  16.839   3.117  28.537 -0.0314  0.0112  0.0753
23515W        W27915  20.433   3.885  26.297  0.0393 -0.2827  0.2647
23516W        W27916  17.722   5.446  25.353  0.3065 -0.2747 -0.2652
23517W        W27917   8.153   5.162  35.577  0.0012 -0.0416  0.2288
23518W        W27918   3.360   2.767  37.673  0.0864  0.2201 -0.0049
23519W        W27919  16.353   1.325   3.714  0.1585 -0.3049  0.0099
23520W        W27920   2.934   3.489  43.751  0.1047 -0.0480  0.1035
23521W        W27921   6.964   5.615  17.404  0.0777  0.1851 -0.2976
23522W        W27922  13.786   6.036  44.574 -0.1211  0.0265 -0.1422
23523W        W27923   5.602   4.074  42.373  0.1704  0.1214 -0.1450
23524W        W27924  11.610   5.801   5.627  0.1662  0.1808  0.0215
23525W        W27925  19.636   2.010   6.972 -0.0683 -0.2022  0.2892
23526W        W27926   0.462   5.402  12.018  0.2702 -0.0393  0.1243
23527W        W27927  12.892   0.055  34.298 -0.0773  0.1665  0.6340
23528W        W27928   9.565   6.186   2.702 -0.0971  0.1508 -0.0960
23529W        W27929  21.005   2.209  43.771 -0.1928  0.2456 -0.0090
23530W        W27930  17.966   3.685   6.080  0.0179 -0.0919  0.2764
23531W        W27931  13.605   0.739  29.336 -0.0915  0.2619  0.0582
23532W        W27932   8.207   2.696  16.592  0.0315 -0.2171 -0.0039
23533W        W27933   1.017   2.190  38.103  0.0874  0.0157  0.2214
23534W        W27934   3.243   6.474   1.744 -0.0706 -0.3109 -0.0450
23535W        W27935   8.491   2.175  10.517  0.2096  0.2488  0.0978
23536W        W27936  12.435   3.495  34.436  0.0333  0.1745  0.1225
23537W        W27937   3.418   1.839  37.696 -0.1780 -0.1497  0.1024
23538W        W27938   6.819   6.364  13.377 -0.0337 -0.0677  0.0045
23539W        W27939  14.730   1.534  42.154  0.0969  0.0333 -0.1826
23540W        W27940  14.981   3.698  44.292  0.0957  0.0727 -0.0485
23541W        W27941   6.242   5.265  33.485 -0.0579  0.1698  0.0044
23542W        W27942  12.669   5.793  29.574 -0.0007 -0.3175  0.0892
23543W        W27943   9.353   0.299   9.704  0.2376 -0.0898  0.1813
23544W        W27944  14.890   3.387   2.287  0.0493  0.1445  0.1479
23545W        W27945   0.264   3.080  23.653  0.3564  0.1359 -0.0007
23546W        W27946  19.324   6.365  44.537  0.0472 -0.2451 -0.1207
23547W        W27947  12.947   1.435   6.534  0.0731  0.0581  0.0253
23548W        W27948  18.250   4.456  29.472  0.1992 -0.3069 -0.0025
23549W        W27949  19.754   4.196   6.659 -0.4552  0.2486  0.0753
23550W        W27950   5.344   6.107  13.091 -0.1268  0.0503 -0.2222
23551W        W27951  16.139   4.522   1.422 -0.1039  0.2964  0.1879
23552W        W27952  17.565   5.320  15.375 -0.0867  0.1202 -0.3097
23553W        W27953  19.802   1.886   9.123 -0.2449 -0.0960 -0.1611
23554W        W27954  13.207   0.796  44.780  0.1734 -0.2709  0.0024
23555W        W27955   7.972   2.276  37.580  0.1780 -0.4036 -0.3013
23556W        W27956   2.568   3.176  16.042 -0.2149  0.2373  0.1057
23557W        W27957  19.104   6.533  36.683  0.1474  0.1940  0.0230
23558W        W27958  11.323   2.817  31.264  0.0683  0.1075  0.3573
23559W        W27959  16.604   3.487  32.649  0.0114  0.0894 -0.1725
23560W        W27960   2.735   1.638  25.677 -0.0947 -0.0792  0.0210
23561W        W27961   2.059   4.751  16.225 -0.1605 -0.1931  0.1731
23562W        W27962   0.261   5.644  34.447 -0.0236 -0.2061 -0.3553
23563W        W27963  13.450   3.187  17.579 -0.3065  0.0620  0.1630
23564W        W27964  15.100   5.280   1.661  0.3860  0.0466  0.0843
23565W        W27965  10.881   3.159  43.126 -0.1618 -0.4294  0.2142
23566W        W27966   4.694   1.780  32.125  0.0301 -0.2208  0.0874
23567W        W27967  14.886   3.751  31.505  0.0538 -0.0343 -0.1321
23568W        W27968  16.967   0.509  36.663  0.2818 -0.3119 -0.3328
23569W        W27969  18.133   2.330  39.422  0.0534 -0.0972 -0.0988
23570W        W27970  14.982   5.558   4.161  0.1539  0.0355  0.1136
23571W        W27971   7.673   3.854  17.154 -0.0639  0.0792  0.0740
23572W        W27972   2.548   5.647  42.740 -0.0668  0.0275  0.0733
23573W        W27973  12.379   3.834  16.294  0.1839 -0.1422 -0.3179
23574W        W27974  20.897   1.168  36.635 -0.0928  0.1044 -0.1356
23575W        W27975  16.548   0.198  34.752  0.0021  0.1285 -0.1296
23576W        W27976  12.726   5.756   1.035  0.2117 -0.0355  0.4183
23577W        W27977  14.004   0.886  41.101  0.2536 -0.0497 -0.0947
23578W        W27978  20.215   4.986   8.435 -0.3211 -0.1040 -0.0442
23579W        W27979  18.671   6.130   1.345 -0.0102  0.1950 -0.0068
23580W        W27980   8.514   5.298   6.805  0.1743 -0.0175  0.0564
23581W        W27981   6.781   0.818  40.964 -0.0729  0.1279 -0.1845
23582W        W27982   2.462   3.226   5.701 -0.2713  0.1113  0.0325
23583W        W27983   8.302   3.037   3.197 -0.1655 -0.4392  0.0863
23584W        W27984   7.040   6.481  44.911  0.0091 -0.2616 -0.0333
23585W        W27985   7.113   1.666   9.851 -0.2282 -0.0560 -0.0129
23586W        W27986  10.479   1.994  22.453  0.1697  0.0589 -0.0408
23587W        W27987   5.711   5.958  17.322 -0.3258 -0.3673  0.1257
23588W        W27988  12.838   1.107  28.288 -0.0994 -0.1063 -0.2627
23589W        W27989  20.739   1.947  23.782 -0.2329  0.0716  0.2576
23590W        W27990  17.158   1.435  38.364 -0.4210  0.0081 -0.1859
23591W        W27991  11.121   0.409  18.943  0.2989  0.2053 -0.1976
23592W        W27992  11.985   1.076  16.802 -0.4482 -0.0756  0.0388
23593W        W27993  13.365   0.543  17.302 -0.0207 -0.0349 -0.1946
23594W        W27994   0.909   6.410  27.089 -0.0134 -0.1125  0.5790
23595W        W27995  18.579   3.495  37.529 -0.2941 -0.0976  0.1076
23596W        W27996   0.742   4.004  12.132  0.1155 -0.0420 -0.1723
23597W        W27997   8.881   1.536  38.871 -0.0197 -0.3181  0.0672
23598W        W27998   9.841   0.134   9.788 -0.1089  0.1741 -0.0259
23599W        W27999  13.054   0.774   1.095  0.1399  0.1284  0.1664
23600W        W28000   1.841   5.294  25.847 -0.2640  0.3310 -0.0747
23601W        W28001  19.230   1.623  22.197  0.1702  0.6070  0.0660
23602W        W28002   6.187   2.583   8.861 -0.4760 -0.1049 -0.1264
23603W        W28003   5.966   5.460  10.543  0.1133  0.0464 -0.0992
23604W        W28004  11.065   5.725  35.310 -0.0984  0.0269  0.0405
23605W        W28005   9.006   2.741  17.186 -0.2029  0.1021 -0.1800
23606W        W28006  19.155   2.969  25.641 -0.0757 -0.0539 -0.0263
23607W        W28007   9.730   4.501  21.984  0.2064 -0.1501  0.0639
23608W        W28008  16.871   3.239   8.793  0.1511 -0.0907 -0.3503
23609W        W28009  19.614   1.996  24.445  0.0106 -0.0450 -0.1151
23610W        W28010  13.559   5.506  17.873  0.0984  0.0964 -0.1000
23611W        W28011  17.721   0.234   6.776  0.1134 -0.0366 -0.2866
23612W        W28012  16.331   5.405  17.328 -0.1458 -0.0840 -0.1071
23613W        W28013  14.159   0.822  45.057  0.0697 -0.0819  0.2952
23614W        W28014   9.283   2.988  12.745  0.0303 -0.1286  0.2502
23615W        W28015   1.395   1.172  28.232  0.0298 -0.1770 -0.0882
23616W        W28016  11.636   2.354  42.258  0.3270  0.1124 -0.0981
23617W        W28017  11.311   1.150  17.782 -0.0114 -0.1078  0.0034
23618W        W28018  18.306   0.090  42.242 -0.3166  0.1107 -0.3299
23619W        W28019   4.586   1.007  30.580 -0.1010  0.0428 -0.3440
23620W        W28020   3.157   4.648  28.098 -0.1054  0.0253 -0.2282
23621W        W28021  10.660   6.323  41.083 -0.0623 -0.1340 -0.1243
23622W        W28022   4.635   0.357  37.470  0.0571 -0.2068 -0.0205
23623W        W28023  12.545   4.374  40.485 -0.3269 -0.0896  0.3083
23624W        W28024  19.949   0.832  21.544 -0.0398  0.0969 -0.2370
23625W        W28025   4.636   5.962  16.742  0.2475 -0.0071 -0.0297
23626W        W28026   4.468   5.990   7.919  0.1079 -0.0625 -0.1221
23627W        W28027  19.350   2.335  28.584  0.3044 -0.2991 -0.0613
23628W        W28028  11.081   4.977  11.116 -0.0390  0.3456 -0.1371
23629W        W28029   0.933   0.472  43.202  0.0140 -0.0228 -0.0205
23630W        W28030  12.904   1.635  10.941  0.0687 -0.1861  0.0909
23631W        W28031  19.218   2.700  31.674  0.2698 -0.0150  0.0146
23632W        W28032  16.600   2.947   6.953  0.1067 -0.1055  0.0820
23633W        W28033  13.829   0.850  33.169 -0.1837 -0.2625  0.0162
23634W        W28034  13.907   2.088   6.406  0.1111 -0.0425  0.2146
23635W        W28035  12.017   3.365   9.766 -0.1575 -0.6385 -0.1221
23636W        W28036   0.548   4.837   6.908  0.1296  0.1584  0.0079
23637W        W28037  20.048   0.974  26.208 -0.1345 -0.1756  0.0272
23638W        W28038  10.417   3.782  11.857 -0.2504 -0.2461 -0.0048
23639W        W28039  19.040   5.905  40.208 -0.1063 -0.0590  0.1366
23640W        W28040  11.681   3.422  22.932 -0.2110 -0.2498  0.1241
23641W        W28041   8.306   5.689  40.930 -0.2269 -0.2437 -0.1805
23642W        W28042  17.832   4.811  30.873 -0.0402  0.2011  0.0430
23643W        W28043   1.646   0.421  28.836  0.0490 -0.0789  0.2220
23644W        W28044   2.731   4.807  29.428 -0.0823 -0.1552 -0.0549
23645W        W28045  18.483   5.560  13.902 -0.0720 -0.1351 -0.0049
23646W        W28046   7.241   0.881  15.368  0.1081  0.2267 -0.3106
23647W        W28047  13.918   1.479  27.021  0.2176  0.2455  0.3709
23648W        W28048  20.221   5.365  34.462  0.0366 -0.1236 -0.2800
23649W        W28049   8.063   5.003   4.058 -0.0328 -0.1558 -0.3166
23650W        W28050  18.046   2.715  40.217  0.1713  0.0795 -0.1622
23651W        W28051   8.836   5.851  32.681  0.2559  0.0725  0.0384
23652W        W28052   5.171   2.318   3.324  0.0236  0.0563 -0.2373
23653W        W28053   0.800   3.754   1.850  0.0742  0.0577 -0.0292
23654W        W28054   0.300   4.828  43.152 -0.0731  0.2909  0.2655
23655W        W28055  18.492   0.295  41.386 -0.2566  0.0593 -0.0035
23656W        W28056  14.299   5.316  15.242 -0.0236 -0.1009  0.5216
23657W        W28057  12.774   1.417  28.704 -0.1508 -0.0808 -0.1014
23658W        W28058   0.656   5.472  14.251  0.2514 -0.3097 -0.0763
23659ION     NA28059  20.830   6.437   4.822  0.2767 -0.0732 -0.1071
23660ION     NA28060  16.753   0.472  23.796  0.3091 -0.0788  0.1294
23661ION     NA28061  20.441   4.945   6.709  0.1240  0.2795 -0.1903
23662ION     NA28062   3.075   0.464  25.142  0.1607 -0.0011  0.5141
23663ION     NA28063  14.998   4.393  42.899 -0.1160  0.3753  0.2489
23664ION     NA28064  18.803   4.624  36.313  0.0360  0.1682 -0.4962
23665ION     NA28065   8.597   0.887   8.176  0.1717 -0.1136 -0.1310
23666ION     NA28066   5.699   2.524  28.678  0.3844  0.5246  0.1587
23667ION     NA28067  12.431   0.712   1.426  0.2163 -0.0012  0.0437
23668ION     NA28068  15.009   5.657   2.731  0.3239  0.1574 -0.1336
23669ION     NA28069   5.234   3.083  41.709 -0.5594 -0.0185  0.1387
23670ION     NA28070   0.546   0.044  42.000 -0.2234  0.2677 -0.4261
23671ION     NA28071   3.631   1.195  39.413  0.1495  0.1531  0.1068
23672ION     NA28072   1.819   2.289  23.545 -0.2356  0.1878 -0.1154
23673ION     NA28073   9.267   3.543   6.477  0.1017 -0.1187  0.3946
23674ION     NA28074  17.540   1.658  32.332  0.1742 -0.3030 -0.0688
23675ION     NA28075   6.938   5.039  15.192  0.0081 -0.3538  0.3993
23676ION     NA28076   1.661   4.899   9.293  0.2598  0.0712 -0.3167
23677ION     NA28077   5.003   5.843   1.675 -0.1294  0.4524  0.1643
23678ION     NA28078   2.989   6.550  39.115  0.2256 -0.0674 -0.6803
23679ION     NA28079   2.123   4.145  13.983 -0.1766  0.2773  0.1205
23680ION     NA28080   6.094   5.607  34.765  0.3353 -0.6113  0.0824
23681ION     NA28081   9.339   2.739   9.196  0.0480 -0.3037 -0.6764
23682ION     NA28082   3.937   1.484  18.753 -0.0992  0.2766 -0.1151
23683ION     NA28083  12.617   2.721  13.282 -0.2095  0.0955  0.0284
23684ION     NA28084   3.038   4.834   8.749 -0.1205 -0.1252  0.2851
23685ION     NA28085  14.440   5.778  37.830 -0.1321 -0.1051  0.0546
23686ION     NA28086  10.234   3.366  41.980  0.3469 -0.3983 -0.1269
23687ION     NA28087   2.601   4.326  34.885 -0.2249  0.0640 -0.0608
23688ION     NA28088  14.635   2.734   6.207 -0.3218 -0.0341 -0.0714
23689ION     NA28089  19.197   4.972  29.890  0.2124  0.0932  0.1856
23690ION     NA28090  15.023   0.956   7.162 -0.0531  0.0516  0.0234
23691ION     NA28091   6.191   0.708  38.422 -0.1687  0.0753  0.0183
23692ION     NA28092   5.887   0.580  16.185  0.1354 -0.5869  0.1723
23693ION     NA28093   5.781   5.880   8.618  0.0386  0.5088 -0.3975
23694ION     NA28094   3.242   5.355  32.933 -0.0542 -0.4472  0.0343
23695ION     NA28095   1.274   0.099  31.897  0.4852 -0.4978 -0.3955
23696ION     NA28096  19.305   4.930  32.752 -0.2584 -0.4649  0.4193
23697ION     NA28097   3.265   6.284  32.576 -0.0511 -0.2663 -0.1042
23698ION     NA28098   1.492   6.355  16.143  0.0196 -0.1233 -0.0642
23699ION     NA28099  15.189   1.541   6.166  0.3566  0.0195  0.0089
23700ION     NA28100   7.680   1.384   0.796 -0.3496  0.2710  0.1081
23701ION     NA28101   4.373   3.881  28.932 -0.3659 -0.3696 -0.2847
23702ION     NA28102   0.063   2.822  36.285 -0.0241  0.0763 -0.2458
23703ION     NA28103  20.914   1.476  44.748  0.1193 -0.1599  0.0618
23704ION     NA28104   4.389   3.278   9.200 -0.1895  0.0760 -0.3071
23705ION     NA28105   3.010   2.590  27.677 -0.3144  0.4693  0.4259
23706ION     NA28106  12.375   3.003  38.827 -0.0158 -0.0393  0.5535
23707ION     NA28107   5.381   1.598  44.607 -0.3547  0.1956  0.0622
23708ION     NA28108  12.725   5.692  31.609 -0.0585 -0.6452 -0.0929
23709ION     NA28109  17.865   3.715  37.677  0.0697 -0.2402 -0.1904
23710ION     NA28110   2.020   5.654  25.582  0.2677 -0.3487 -0.3040
23711ION     NA28111  20.142   6.320  30.922  0.0782  0.0546  0.0317
23712ION     NA28112  10.480   1.949  40.788  0.0282  0.2983 -0.1268
23713ION     NA28113  15.020   6.410  36.087  0.1867  0.1540 -0.1023
23714ION     NA28114   6.848   2.396  11.556 -0.4138 -0.0844 -0.1559
23715ION     NA28115  10.469   4.621  31.069 -0.3187 -0.0545 -0.3521
23716ION     NA28116  14.712   1.927  15.157  0.1661 -0.2604 -0.4082
23717ION     NA28117   6.673   5.712  29.198  0.0803  0.2338 -0.0837
23718ION     NA28118   8.285   1.477   1.830 -0.3166  0.0416 -0.2410
23719ION     NA28119  11.371   3.684  23.056  0.1139 -0.4219 -0.2173
23720ION     NA28120  20.378   3.541  10.863  0.0743  0.0171 -0.8429
23721ION     NA28121  13.575   3.757  27.600 -0.0293 -0.0965  0.1291
23722ION     NA28122  15.518   5.897  27.305 -0.1397  0.0903  0.3937
23723ION     NA28123  15.301   3.517  30.892  0.2505  0.0402 -0.2381
23724ION     NA28124   8.761   4.571  36.792 -0.1859  0.1952  0.2674
23725ION     NA28125  11.566   6.487   6.016 -0.2011 -0.0651 -0.3441
23726ION     NA28126   5.701   5.989  11.955  0.0437 -0.2789  0.0101
23727ION     NA28127   4.988   2.760  38.142  0.2308  0.1533 -0.0683
23728ION     NA28128   3.564   3.086  28.529 -0.3231 -0.0459 -0.1042
23729ION     NA28129   2.549   1.749  12.229 -0.3269 -0.3880  0.1109
23730ION     NA28130   2.427   3.149  34.300 -0.0641 -0.1698  0.3011
23731ION     NA28131  11.955   1.805  15.026  0.0705  0.2579 -0.2529
23732ION     NA28132  10.828   1.825  30.858  0.2676  0.2402 -0.1621
23733ION     NA28133   5.723   3.725  32.329 -0.1552  0.0063 -0.1385
23734ION     NA28134  19.769   5.751   7.354  0.0116  0.4199 -0.3686
23735ION     NA28135   4.927   0.357  10.116 -0.1676 -0.0108 -0.4130
23736ION     NA28136  12.401   1.790  10.249 -0.1719 -0.1823  0.0022
23737ION     NA28137  14.288   0.432  29.334 -0.0496  0.0079  0.2176
23738ION     NA28138   7.856   2.039  23.367 -0.0956  0.0838 -0.2835
23739ION     NA28139  17.093   3.549  42.990  0.2469 -0.2593  0.2071
23740ION     NA28140   9.330   4.470  36.422 -0.0283  0.1587 -0.0246
23741ION     NA28141  17.766   2.290  28.935 -0.3487 -0.2782 -0.3002
23742ION     NA28142  15.790   5.809  26.220  0.0831  0.2089 -0.0659
23743ION     NA28143  17.344   4.818  35.921 -0.3675 -0.0518  0.1328
23744ION     NA28144  10.392   6.344  41.796 -0.2664  0.2810 -0.4029
23745ION     NA28145   6.752   0.571  19.985  0.0462  0.4155 -0.0785
23746ION     NA28146   5.739   5.232  39.337 -0.3996  0.4211  0.5940
23747ION     NA28147   9.136   5.731   4.745  0.1328 -0.1719  0.1413
23748ION     NA28148  11.234   0.138  12.139  0.0008  0.0158  0.1047
23749ION     NA28149  18.830   2.213  39.174 -0.0806 -0.5521 -0.0523
23750ION     NA28150   1.641   6.497   6.897 -0.0888 -0.4013 -0.7194
23751ION     NA28151   6.735   5.854  42.765 -0.3243 -0.2423  0.0886
23752ION     NA28152  13.616   0.450  14.607 -0.1459  0.1540 -0.1049
23753ION     NA28153   2.395   5.052  29.420 -0.2264 -0.1341 -0.0141
23754ION     NA28154   2.446   5.193   3.416  0.3323  0.5654 -0.1858
23755ION     NA28155   8.134   1.622  44.463  0.2207 -0.2526  0.0252
23756ION     NA28156   9.266   5.114  10.644 -0.4251  0.2411 -0.2949
23757ION     NA28157  11.398   2.254  31.784  0.2799 -0.0071 -0.2598
23758ION     NA28158   4.763   0.111  32.787  0.2181  0.1642 -0.1608
23759ION     NA28159   9.035   1.578  39.846  0.2494  0.1373 -0.1173
23760ION     NA28160  13.888   5.259  32.813 -0.0970  0.3907  0.0203
23761ION     NA28161  18.428   3.301  23.341  0.1304 -0.0937  0.3099
23762ION     NA28162  19.157   0.602   2.546 -0.2847 -0.4262  0.0368
23763ION     NA28163  18.832   2.379  44.281 -0.0505 -0.0043 -0.0451
23764ION     NA28164   5.036   5.906  39.181  0.4828  0.0217  0.3614
23765ION     NA28165   7.389   5.516  20.241 -0.1384  0.2813 -0.0776
23766ION     NA28166  19.092   0.844  27.288  0.1107 -0.0545 -0.2755
23767ION     NA28167  12.931   3.766  13.480  0.1092  0.2752  0.1220
23768ION     NA28168   3.818   1.691  37.680 -0.1604 -0.0348 -0.1403
23769ION     NA28169   4.907   0.691  30.067  0.1065  0.2372 -0.3067
23770ION     NA28170   7.871   6.459   9.206 -0.5843  0.1200 -0.0401
23771ION     NA28171  20.629   1.100  32.811  0.2469  0.0168 -0.0591
23772ION     NA28172  19.879   6.307  20.032  0.0501 -0.1349 -0.6819
23773ION     NA28173  19.980   6.526  10.453  0.2154 -0.6027  0.3149
23774ION     NA28174  19.763   1.688  11.572 -0.0421 -0.2450  0.2745
23775ION     NA28175  12.827   4.722   9.808  0.2043 -0.3601 -0.5256
23776ION     NA28176   8.647   2.610  20.158 -0.2522  0.0640 -0.2069
23777ION     NA28177  20.053   2.557  24.659  0.2692  0.3742  0.1715
23778ION     NA28178  11.676   4.326   2.597 -0.0239  0.1056 -0.3450
23779ION     NA28179   1.469   2.446  40.999  0.0097  0.2455 -0.1584
23780ION     NA28180   1.182   5.090  25.284  0.2159  0.0186 -0.0799
23781ION     NA28181  11.164   4.563  14.408  0.0794 -0.5084  0.1999
23782ION     NA28182  10.505   2.445  16.906  0.2139  0.0494  0.1101
23783ION     NA28183  15.350   1.621  36.506  0.2589 -0.2496 -0.0242
23784ION     NA28184  19.431   3.689  22.815  0.0416 -0.2911 -0.0933
23785ION     NA28185  14.733   0.991   1.940 -0.2883 -0.1118 -0.2542
23786ION     NA28186  10.189   3.501  18.048  0.1468 -0.0608  0.2224
23787ION     NA28187   4.606   3.191   0.199 -0.4816 -0.0450  0.1975
23788ION     NA28188  13.612   5.072  42.217 -0.3598 -0.1210 -0.1438
23789ION     NA28189   9.756   3.636  24.873 -0.3380  0.2676 -0.1713
23790ION     NA28190   6.085   1.991  39.437 -0.3074  0.0828 -0.1891
23791ION     NA28191  15.169   5.523  38.133 -0.1941  0.0370  0.0820
23792ION     NA28192   4.169   1.526   2.695 -0.2521 -0.2732 -0.5644
23793ION     NA28193  15.138   4.765  12.619 -0.5615 -0.1733  0.0559
23794ION     NA28194   5.144   6.021  35.850 -0.0465 -0.0375  0.0052
23795ION     NA28195  12.353   2.692   7.975 -0.2774  0.2078  0.0874
23796ION     NA28196   8.562   2.168  33.987 -0.0969 -0.1817 -0.0787
23797ION     NA28197  20.140   0.481   3.281 -0.2888  0.3027  0.2411
23798ION     NA28198  12.044   1.589  32.186  0.5539  0.0574  0.1373
23799ION     NA28199   5.992   5.352  29.622  0.2923  0.0591 -0.0366
23800ION     NA28200  19.009   6.217   0.279  0.0541 -0.3826  0.1627
23801ION     NA28201   5.097   3.360   7.863  0.0326 -0.1057  0.0153
23802ION     NA28202   2.304   5.160   2.271  0.1962  0.3724  0.0927
23803ION     NA28203  20.293   2.562  20.787 -0.3462  0.3381  0.0746
23804ION     NA28204   9.317   1.327   3.620  0.2440  0.0498  0.2099
23805ION     NA28205  20.777   5.109  31.667  0.1822 -0.6706  0.0568
23806ION     NA28206   9.341   1.795  42.712  0.3143  0.0802 -0.0783
23807ION     NA28207  20.126   4.920  31.413 -0.0744  0.1339 -0.5777
23808ION     NA28208   8.488   3.117  36.674  0.0843 -0.1949 -0.2478
23809ION     NA28209  13.115   2.088  18.837  0.0202 -0.1684 -0.0204
23810ION     NA28210  13.326   3.142  19.408  0.2184 -0.7027 -0.4393
23811ION     NA28211   7.958   0.470  44.378  0.2642 -0.0851 -0.7328
23812ION     NA28212  20.021   2.802   8.420  0.0014  0.0181  0.0119
23813ION     NA28213  20.686   6.079  10.886 -0.1337  0.0025 -0.0305
23814ION     NA28214  18.201   0.516  15.355  0.2168  0.1185  0.0075
23815ION     NA28215  11.332   4.265  11.557  0.0797  0.1065  0.1061
23816ION     NA28216   0.074   0.185  32.373 -0.2228 -0.1771  0.4322
23817ION     NA28217  18.221   6.125  31.517  0.0401  0.1676  0.1043
23818ION     NA28218   7.743   4.576  39.132 -0.2726 -0.2291 -0.1392
23819ION     NA28219  16.098   6.316  35.323 -0.2575  0.2366  0.4301
23820ION     NA28220   9.196   2.774  36.790  0.0386  0.0494  0.3489
23821ION     NA28221  16.721   6.166   1.767 -0.3800  0.1334 -0.3040
23822ION     NA28222   4.460   3.930  34.068  0.1337  0.1547  0.3018
23823ION     NA28223  19.478   1.882   3.715 -0.2405 -0.4037  0.1721
23824ION     NA28224   5.765   1.413  41.993 -0.2128  0.1281  0.2449
23825ION     NA28225  15.098   0.645  16.573 -0.2558  0.3302 -0.2136
23826ION     NA28226   9.792   0.435  37.188  0.1193 -0.8782  0.0950
23827ION     NA28227   0.595   3.359  36.178 -0.0863 -0.0191  0.3095
23828ION     NA28228   7.356   4.202   3.273 -0.1074 -0.1914  0.1043
23829ION     NA28229  14.662   5.740  14.375  0.2123  0.0084  0.0943
23830ION     NA28230  17.629   5.504  13.054 -0.0396 -0.0561  0.0176
23831ION     NA28231   6.891   1.131  12.724 -0.1747 -0.1512  0.3947
23832ION     NA28232  19.690   4.598  36.857 -0.1706  0.0923 -0.1686
23833ION     NA28233  18.354   1.765  40.763 -0.1231  0.1159 -0.1148
23834ION     NA28234  10.390   5.501  34.106  0.2887  0.4287 -0.4774
23835ION     NA28235  18.264   1.024   1.799  0.3905 -0.0013 -0.2998
23836ION     NA28236  21.014   5.195  42.244 -0.0941  0.1732  0.2506
23837ION     NA28237  16.454   5.906  24.669 -0.4535 -0.0371 -0.0398
23838ION     NA28238  15.610   4.310  29.444  0.5213  0.1379  0.3745
23839ION     NA28239   0.582   1.335  43.442 -0.4831  0.3902 -0.5766
23840ION     NA28240  16.331   3.501  38.014 -0.3149 -0.4030 -0.6612
23841ION     NA28241  13.265   1.685  11.136  0.4191 -0.3068  0.0604
23842ION     NA28242  14.719   2.401  33.087  0.0424  0.0284 -0.1863
23843ION     NA28243   2.294   3.913  43.277 -0.0212  0.0146  0.0029
23844ION     NA28244   8.098   4.914   8.595 -0.4793 -0.2627  0.1524
23845ION     NA28245  12.572   5.124  32.713 -0.1006  0.5452  0.1786
23846ION     NA28246   6.048   3.205  42.721 -0.1483 -0.3787  0.5569
23847ION     NA28247  15.198   0.088  28.656 -0.0290 -0.1330  0.1751
23848ION     NA28248  14.376   5.998  28.888  0.6873  0.1090 -0.1485
23849ION     NA28249   9.771   1.044   9.510  0.4698 -0.1168 -0.3710
23850ION     NA28250   7.574   5.041  13.602  0.0725 -0.6021  0.1086
23851ION     NA28251  19.288   6.519  10.455 -0.2950  0.1025 -0.0025
23852ION     NA28252  12.128   0.064   7.082  0.0459  0.4266 -0.1944
23853ION     NA28253   7.769   1.794   3.414  0.0772 -0.0930 -0.2068
23854ION     CL28254  19.661   5.167  37.578 -0.0628  0.3049 -0.0974
23855ION     CL28255   4.507   6.571   6.899  0.1970  0.2662  0.2172
23856ION     CL28256   1.670   6.592  44.004  0.0000  0.1014  0.2160
23857ION     CL28257   0.631   5.236   4.945 -0.1184  0.1391 -0.1778
23858ION     CL28258  18.670   5.550  42.388 -0.0967  0.2476  0.2404
23859ION     CL28259  13.779   5.778  18.230  0.1644 -0.0108  0.2467
23860ION     CL28260   8.245   3.568  37.106 -0.0571 -0.0644  0.0773
23861ION     CL28261  12.109   1.599   9.426  0.0395 -0.1312 -0.0825
23862ION     CL28262   0.366   4.237   6.528 -0.1179  0.0194 -0.5200
23863ION     CL28263   7.810   5.093  41.392 -0.4124  0.1517 -0.2549
23864ION     CL28264  13.984   5.361   2.890  0.0255  0.2281  0.0826
23865ION     CL28265  15.922   6.504   9.932  0.4663  0.4671 -0.1083
23866ION     CL28266   4.297   2.899  11.683  0.1777 -0.4071 -0.6976
23867ION     CL28267   9.328   4.821  12.085  0.0475  0.3011 -0.1026
23868ION     CL28268   6.732   2.945  41.208  0.4349  0.1771 -0.1964
23869ION     CL28269  12.299   3.758   1.212 -0.0495  0.0521 -0.0874
23870ION     CL28270   7.473   5.894  33.412  0.1781 -0.2658  0.1425
23871ION     CL28271   2.450   2.254  15.306 -0.0549 -0.1230 -0.0579
23872ION     CL28272   6.601   1.348  41.845 -0.2634 -0.2902 -0.3157
23873ION     CL28273   8.519   5.212  34.229 -0.1693  0.1008 -0.0583
23874ION     CL28274  18.271   3.159  32.775 -0.0031  0.2367 -0.2435
23875ION     CL28275  14.936   1.446  30.748 -0.1869  0.6171  0.0631
23876ION     CL28276   4.886   4.992   3.801 -0.3892  0.2002  0.2336
23877ION     CL28277   5.379   5.664  34.891  0.3457  0.1501  0.0887
23878ION     CL28278  18.210   1.664  11.606  0.1296  0.0960 -0.1744
23879ION     CL28279   8.647   1.056  13.985 -0.1645  0.3066  0.1195
23880ION     CL28280   3.177   5.560  37.500  0.2420 -0.4727  0.3446
23881ION     CL28281  16.180   1.026   2.065 -0.1956  0.2207  0.2233
23882ION     CL28282  13.659   1.173  12.050 -0.0608 -0.1130 -0.0619
23883ION     CL28283   6.651   5.664  40.738 -0.2404  0.3775 -0.1987
23884ION     CL28284   9.529   5.311  34.690  0.1145  0.3707 -0.0510
23885ION     CL28285  14.336   1.435  17.515  0.2967 -0.3602  0.4413
23886ION     CL28286  11.951   6.365  12.097  0.3272 -0.0015 -0.3379
23887ION     CL28287  15.786   1.121  32.561  0.0788  0.1945 -0.5086
23888ION     CL28288  10.745   4.072  12.106 -0.1281  0.5100  0.0376
23889ION     CL28289  16.153   4.574  29.682  0.1393 -0.3021  0.0642
23890ION     CL28290   5.490   1.112  41.367  0.0962 -0.0533 -0.1281
23891ION     CL28291   1.361   3.405  34.305 -0.1456  0.4301  0.1559
23892ION     CL28292  15.241   6.522  36.357 -0.0462  0.2562 -0.1887
23893ION     CL28293  13.929   1.373   6.825  0.2667  0.2922  0.1122
23894ION     CL28294  12.634   0.313   0.435 -0.1785  0.2334  0.1691
23895ION     CL28295   8.082   1.769   0.246 -0.0007  0.1157 -0.3762
23896ION     CL28296  20.168   1.763  29.299  0.2708 -0.0640 -0.3089
23897ION     CL28297  13.368   5.682  16.290 -0.1936  0.3980  0.1928
23898ION     CL28298   9.143   0.786  11.315 -0.2958  0.2650  0.0806
23899ION     CL28299   5.534   0.287  43.590 -0.2832 -0.0490  0.5657
23900ION     CL28300   0.829   1.772  28.354  0.4583 -0.1874  0.1828
23901ION     CL28301  20.673   4.514   7.214 -0.2688  0.1558 -0.1042
23902ION     CL28302  15.610   0.952  13.495  0.2114  0.4999 -0.2176
23903ION     CL28303   0.148   0.543  32.513  0.0618 -0.1751  0.0704
23904ION     CL28304   8.096   1.177  15.305  0.3265 -0.3766 -0.3487
23905ION     CL28305   5.362   0.169  14.704 -0.2420 -0.1155 -0.0275
23906ION     CL28306  20.833   3.052  21.897 -0.2286  0.0297  0.2174
23907ION     CL28307  13.724   2.219  37.645  0.2974 -0.0774  0.2914
23908ION     CL28308  13.643   3.434   6.941 -0.1635  0.1014  0.0574
23909ION     CL28309  14.167   5.560  37.856  0.0714 -0.2692 -0.0747
23910ION     CL28310   6.421   6.294   2.269  0.0246 -0.2073  0.2009
23911ION     CL28311  14.634   5.878  38.153  0.3096  0.1658 -0.1890
23912ION     CL28312   5.887   1.292  43.579 -0.2274  0.0225  0.2589
23913ION     CL28313  20.696   1.540  35.221  0.0426  0.0066 -0.2093
23914ION     CL28314   5.325   1.682  39.686 -0.0609 -0.0414 -0.2734
23915ION     CL28315  11.667   4.468  17.914  0.0146 -0.1130 -0.2033
23916ION     CL28316   5.558   5.309  33.206 -0.1783  0.1508 -0.1482
23917ION     CL28317   4.506   0.542   8.555 -0.3590 -0.1449 -0.2925
23918ION     CL28318  19.356   1.246  13.845 -0.2110 -0.3812  0.0341
23919ION     CL28319  15.666   3.945   1.637  0.0122  0.5949  0.0601
23920ION     CL28320   0.973   5.058  41.522 -0.1961  0.1429 -0.0732
23921ION     CL28321   7.108   3.757   1.410  0.4472  0.4915  0.5575
23922ION     CL28322  18.912   5.023  29.670  0.1924 -0.1247 -0.0387
23923ION     CL28323  13.660   4.082  32.560  0.3244  0.0041  0.2699
23924ION     CL28324   0.101   6.119  36.358  0.0840  0.2966  0.0317
23925ION     CL28325   6.613   0.897   0.760  0.2439  0.0401 -0.5728
23926ION     CL28326   8.642   2.997  36.354  0.0202 -0.1511  0.2327
23927ION     CL28327   3.242   5.946  32.800  0.4486  0.4225 -0.0715
23928ION     CL28328   1.107   0.904  44.847  0.0728  0.0136  0.2527
23929ION     CL28329   8.369   0.397  41.660  0.2547  0.5342 -0.3757
23930ION     CL28330  20.209   5.390  23.201 -0.0793  0.1241  0.2360
23931ION     CL28331   8.994   6.163  22.825  0.2869 -0.0997  0.1685
23932ION     CL28332   9.361   2.993  35.553 -0.0552  0.1262  0.1809
23933ION     CL28333  12.685   4.472   9.653 -0.3952  0.0031 -0.3993
23934ION     CL28334   3.222   4.947   9.101 -0.2866  0.3623  0.2187
23935ION     CL28335   0.826   5.583   6.916  0.3319  0.4064  0.2051
23936ION     CL28336  20.315   4.914  34.473 -0.1493 -0.2172  0.0735
23937ION     CL28337  15.581   6.240  38.162  0.2781  0.2461 -0.0755
23938ION     CL28338  20.948   2.046  10.086  0.2153 -0.2498  0.4716
23939ION     CL28339  15.921   3.437  12.842 -0.1912 -0.2936  0.0915
23940ION     CL28340  12.176   1.515  43.029  0.1439 -0.5148 -0.2191
23941ION     CL28341   1.325   2.965  24.639 -0.0183  0.3389  0.2802
23942ION     CL28342  12.285   3.458  31.051 -0.2020 -0.2129 -0.0089
23943ION     CL28343  20.207   4.472  14.171  0.1547 -0.1165  0.4837
23944ION     CL28344  13.332   3.449  38.128  0.0766 -0.0075  0.1326
23945ION     CL28345   9.082   1.131  35.178  0.0198 -0.0249  0.2431
23946ION     CL28346   2.535   6.171  10.671  0.1439 -0.1043  0.1294
23947ION     CL28347  15.999   0.043  35.549  0.1456 -0.1287  0.1542
23948ION     CL28348  15.044   0.843  39.837 -0.6917  0.3488  0.1101
23949ION     CL28349  19.924   0.386  22.779 -0.2167 -0.2328  0.4127
23950ION     CL28350   6.170   4.625  43.291  0.5538  0.1920 -0.0340
23951ION     CL28351   3.680   0.827   7.716  0.4874 -0.0653 -0.1827
23952ION     CL28352  14.859   5.620  44.983  0.0083  0.0026  0.2459
23953ION     CL28353  20.336   3.294  36.862 -0.4364 -0.0553  0.2195
23954ION     CL28354  18.829   3.278  40.737  0.0828 -0.1820  0.0719
23955ION     CL28355  10.155   3.231  34.899  0.0205  0.2137 -0.0345
23956ION     CL28356  20.036   5.399  21.799  0.1877 -0.1208 -0.0655
23957ION     CL28357  19.415   2.867  41.287 -0.1370  0.2167  0.2112
23958ION     CL28358  16.943   2.583  15.462  0.0213  0.0632  0.0820
23959ION     CL28359   2.319   5.966  41.961  0.1540 -0.5985 -0.1182
23960ION     CL28360   8.316   2.692   2.924  0.1425 -0.0859 -0.0886
23961ION     CL28361   1.796   6.472   8.714  0.5397 -0.4930 -0.0554
23962ION     CL28362  15.119   4.507  14.010 -0.1288 -0.5598  0.2472
23963ION     CL28363   0.121   1.623  22.367  0.2969  0.0326  0.0229
23964ION     CL28364  20.200   0.329   9.998 -0.1294  0.0041 -0.0945
23965ION     CL28365   9.082   4.670  39.644  0.1178 -0.3728  0.2140
23966ION     CL28366  15.280   6.016  33.334  0.3361 -0.1637  0.1092
23967ION     CL28367  20.353   5.237  38.342  0.2115 -0.1813  0.1839
23968ION     CL28368  13.956   2.518  32.166  0.7676  0.0186 -0.2012
23969ION     CL28369   2.311   1.024  25.235 -0.0260  0.1717 -0.1162
23970ION     CL28370  17.660   2.089   3.074 -0.0429 -0.1684  0.3609
23971ION     CL28371  16.406   3.364  36.816  0.1897 -0.4346  0.0192
23972ION     CL28372   3.943   1.562  28.774 -0.0532  0.2019 -0.0662
23973ION     CL28373   0.966   5.002  25.583  0.0140 -0.0044  0.4402
23974ION     CL28374   7.659   3.992  10.802  0.2797  0.3375  0.4333
23975ION     CL28375   6.774   5.478  19.855  0.0099 -0.1674 -0.1837
23976ION     CL28376  14.439   3.794  33.488 -0.2732  0.3010 -0.2041
23977ION     CL28377  13.992   5.756   1.522  0.5605  0.1724  0.0682
23978ION     CL28378  18.402   6.476  39.969  0.1292 -0.2167 -0.2893
23979ION     CL28379  15.583   5.497  34.303 -0.3118 -0.0769 -0.4997
23980ION     CL28380   3.231   6.055  31.421  0.0078 -0.1394  0.0063
23981ION     CL28381  20.293   5.936  11.539  0.1882 -0.0013 -0.2856
23982ION     CL28382  13.679   2.877  29.835  0.0263 -0.0594 -0.0811
23983ION     CL28383   3.955   3.838  27.668  0.2054 -0.1099  0.0497
23984ION     CL28384  12.285   1.006  15.083  0.0570 -0.0996  0.0435
23985ION     CL28385   4.742   5.660   0.657 -0.0136 -0.1299 -0.1467
23986ION     CL28386  13.330   3.745  32.083 -0.4803 -0.0241  0.0663
23987ION     CL28387  18.872   2.872  38.615  0.1819  0.3261 -0.1739
23988ION     CL28388  17.981   5.577  32.370 -0.2665  0.1527 -0.5247
23989ION     CL28389  14.717   1.723  32.974  0.3250 -0.4318 -0.1515
23990ION     CL28390  20.445   3.840  38.787 -0.4919  0.6105  0.0080
23991ION     CL28391   3.791   2.115  11.243  0.0747  0.0447  0.0730
23992ION     CL28392   8.187   2.871  40.630 -0.3682 -0.0972 -0.3685
23993ION     CL28393   2.193   0.969  41.097 -0.0146 -0.4049  0.1954
23994ION     CL28394  13.520   5.284   5.924 -0.1644 -0.0244 -0.1680
23995ION     CL28395  14.217   0.156  29.126  0.2975 -0.0100 -0.0253
23996ION     CL28396  13.070   4.969   3.852  0.0245 -0.1562 -0.0689
23997ION     CL28397  11.632   5.080  39.095  0.0333 -0.0363 -0.4591
23998ION     CL28398  18.642   1.256   1.891  0.3284  0.0292  0.0548
23999DPPC   NC328399   3.265   1.942  25.640  0.0798 -0.0251 -0.0594
23999DPPC   PO428400   3.420   1.738  25.889  0.1511  0.2463  0.2314
23999DPPC   GL128401   3.806   1.664  25.804  0.0227 -0.0088 -0.0461
23999DPPC   GL228402   3.699   1.486  25.608  0.0493 -0.0370  0.5191
23999DPPC   C1A28403   4.130   1.681  25.609  0.1501 -0.1162 -0.1395
23999DPPC   C2A28404   4.402   1.643  25.282 -0.1294  0.1656  0.0075
23999DPPC   C3A28405   4.662   1.567  24.864 -0.3082 -0.0289 -0.0469
23999DPPC   C4A28406   5.054   1.578  24.456  0.0685  0.0112  0.1023
23999DPPC   C1B28407   3.829   1.555  25.282 -0.0265  0.2602  0.4615
23999DPPC   C2B28408   3.977   1.709  24.953 -0.1139  0.0507  0.0777
23999DPPC   C3B28409   4.308   1.809  24.640 -0.0401  0.1275 -0.1285
23999DPPC   C4B28410   4.683   1.834  24.295  0.0804  0.0335 -0.0245
24000DPPC   NC328411   5.278   0.519  28.546  0.1768 -0.2639  0.0375
24000DPPC   PO428412   5.332   0.388  28.143  0.0494 -0.2231 -0.3396
24000DPPC   GL128413   5.758   0.331  27.916 -0.2599  0.0192 -0.3684
24000DPPC   GL228414   5.699   0.049  27.812 -0.1967 -0.2074  0.2141
24000DPPC   C1A28415   5.927   0.495  27.609 -0.5293 -0.3093 -0.1161
24000DPPC   C2A28416   6.235   0.423  27.295  0.0191 -0.0256  0.0039
24000DPPC   C3A28417   6.548   0.454  26.906  0.3302 -0.0244 -0.0938
24000DPPC   C4A28418   6.953   0.507  26.594  0.0034  0.1828 -0.0778
24000DPPC   C1B28419   5.973  -0.032  27.560 -0.0785 -0.1472  0.0686
24000DPPC   C2B28420   6.221  -0.100  27.269  0.1875 -0.0374  0.0271
24000DPPC   C3B28421   6.608  -0.108  27.010  0.4149  0.0675  0.0360
24000DPPC   C4B28422   6.914   0.022  26.700 -0.0805 -0.5557  0.4603
24001DPPC   NC328423   5.495   6.379  28.065 -0.0868  0.0971 -0.0950
24001DPPC   PO428424   5.528   6.135  27.743  0.1982  0.1127  0.2689
24001DPPC   GL128425   5.511   6.147  27.335 -0.1680  0.1826  0.1558
24001DPPC   GL228426   5.770   6.324  27.314  0.0853  0.1973  0.3735
24001DPPC   C1A28427   5.566   6.064  26.984 -0.1249 -0.1612  0.2945
24001DPPC   C2A28428   5.814   5.987  26.653  0.1637  0.4948  0.3238
24001DPPC   C3A28429   6.121   5.993  26.303 -0.2966  0.0174  0.0971
24001DPPC   C4A28430   6.406   5.946  25.932  0.2567  0.2612  0.2275
24001DPPC   C1B28431   5.947   6.283  27.003 -0.2840  0.0121  0.1082
24001DPPC   C2B28432   6.261   6.288  26.778 -0.2319  0.1920  0.2044
24001DPPC   C3B28433   6.660   6.225  26.444 -0.0353 -0.3136  0.2435
24001DPPC   C4B28434   6.955   6.254  26.046 -0.1084 -0.4810  0.0974
24002DPPC   NC328435   2.580   4.353  24.996 -0.0058  0.1486  0.0243
24002DPPC   PO428436   2.971   4.305  25.041  0.0416  0.3832 -0.2747
24002DPPC   GL128437   3.164   4.119  24.748 -0.4368  0.2491  0.1428
24002DPPC   GL228438   3.281   4.404  24.584  0.2688 -0.2382  0.0480
24002DPPC   C1A28439   3.445   3.928  24.548 -0.3567  0.1736 -0.3166
24002DPPC   C2A28440   3.670   4.063  24.235 -0.0979 -0.3233 -0.0141
24002DPPC   C3A28441   3.989   4.012  23.902  0.3056  0.2647 -0.1434
24002DPPC   C4A28442   4.297   4.085  23.552 -0.1310 -0.0022 -0.1941
24002DPPC   C1B28443   3.474   4.507  24.274  0.0421 -0.0367  0.0404
24002DPPC   C2B28444   3.767   4.542  24.000 -0.0332 -0.1020 -0.1389
24002DPPC   C3B28445   4.079   4.496  23.718  0.0238 -0.2512 -0.0071
24002DPPC   C4B28446   4.501   4.535  23.433  0.1984 -0.0992  0.1615
24003DPPC   NC328447   3.702   5.162  25.953 -0.0438  0.0438 -0.0890
24003DPPC   PO428448   3.636   5.537  25.807  0.1559  0.0487 -0.0167
24003DPPC   GL128449   3.863   5.630  25.462 -0.2248 -0.3989  0.0121
24003DPPC   GL228450   3.684   5.458  25.345  0.4214  0.3829 -0.3291
24003DPPC   C1A28451   4.138   5.785  25.257  0.0623 -0.3978 -0.0296
24003DPPC   C2A28452   4.396   5.888  25.013 -0.3085 -0.0986  0.0274
24003DPPC   C3A28453   4.713   6.004  24.659 -0.0919  0.0094 -0.2438
24003DPPC   C4A28454   5.029   6.029  24.282 -0.2308 -0.0848  0.1021
24003DPPC   C1B28455   3.871   5.502  25.023  0.3085  0.0547  0.2212
24003DPPC   C2B28456   4.126   5.585  24.723  0.1435  0.0847 -0.1548
24003DPPC   C3B28457   4.451   5.544  24.379 -0.0062 -0.1195 -0.1481
24003DPPC   C4B28458   4.765   5.656  23.941  0.2461  0.1083  0.0478
24004DPPC   NC328459   3.752   5.853  26.200  0.0195  0.0712  0.2276
24004DPPC   PO428460   3.924   6.085  26.471  0.1731 -0.1575  0.1916
24004DPPC   GL128461   4.203   6.249  26.237  0.0284 -0.1046 -0.2481
24004DPPC   GL228462   4.079   6.230  25.977  0.0293  0.0454 -0.0744
24004DPPC   C1A28463   4.404   6.500  26.095  0.0860  0.2879 -0.3922
24004DPPC   C2A28464   4.694   6.487  25.826  0.2536 -0.1476 -0.0174
24004DPPC   C3A28465   5.021   6.580  25.491  0.2608  0.2622 -0.0694
24004DPPC   C4A28466   5.282   6.658  25.056  0.2670 -0.2579 -0.0534
24004DPPC   C1B28467   4.316   6.256  25.696  0.0484  0.1796  0.0459
24004DPPC   C2B28468   4.581   6.249  25.367  0.1395 -0.2213 -0.1543
24004DPPC   C3B28469   4.906   6.336  25.076 -0.2074  0.3612 -0.1422
24004DPPC   C4B28470   5.174   6.327  24.677  0.1335 -0.1444 -0.4148
24005DPPC   NC328471   2.789   4.377  25.481 -0.1015 -0.0227  0.3036
24005DPPC   PO428472   2.923   4.002  25.512 -0.0657 -0.1776 -0.3026
24005DPPC   GL128473   3.304   4.112  25.406  0.1610  0.0781  0.2398
24005DPPC   GL228474   3.316   4.052  25.157 -0.2542 -0.0181 -0.2104
24005DPPC   C1A28475   3.603   4.312  25.534 -0.2383 -0.1584  0.3219
24005DPPC   C2A28476   3.863   4.656  25.514 -0.3185  0.0687 -0.0257
24005DPPC   C3A28477   4.251   4.818  25.280  0.0988 -0.0729 -0.0331
24005DPPC   C4A28478   4.583   4.889  25.007 -0.1601  0.0409 -0.1913
24005DPPC   C1B28479   3.584   4.175  24.905  0.2937 -0.1657  0.0798
24005DPPC   C2B28480   3.807   4.355  24.583  0.3394  0.2208  0.1883
24005DPPC   C3B28481   4.169   4.331  24.233  0.2422 -0.0446  0.0533
24005DPPC   C4B28482   4.522   4.384  23.909  0.2144  0.0583 -0.0156
24006DPPC   NC328483   5.489   1.323  27.882  0.2798  0.4438 -0.3149
24006DPPC   PO428484   5.426   1.697  27.893  0.2206  0.0128  0.1966
24006DPPC   GL128485   5.790   1.676  27.822  0.0255  0.4275 -0.0339
24006DPPC   GL228486   5.910   1.800  28.093 -0.3734 -0.2006  0.2840
24006DPPC   C1A28487   6.003   1.644  27.530 -0.0705 -0.0974 -0.1588
24006DPPC   C2A28488   6.277   1.535  27.197 -0.1653 -0.0934  0.0058
24006DPPC   C3A28489   6.606   1.479  26.877 -0.0111  0.3785  0.2055
24006DPPC   C4A28490   6.934   1.418  26.541 -0.0813  0.1518  0.2244
24006DPPC   C1B28491   6.168   2.094  28.007  0.0669 -0.2059  0.1615
24006DPPC   C2B28492   6.348   2.283  27.713 -0.0075  0.0826  0.1477
24006DPPC   C3B28493   6.578   2.277  27.307 -0.1062  0.0624  0.0552
24006DPPC   C4B28494   6.869   2.318  26.907  0.0374  0.0749  0.0178
24007DPPC   NC328495   4.006   5.841  27.313  0.0836 -0.0481  0.0656
24007DPPC   PO428496   4.051   6.069  26.950  0.2613  0.0095  0.0973
24007DPPC   GL128497   4.361   6.122  26.703 -0.0257  0.0046  0.3058
24007DPPC   GL228498   4.341   5.911  26.503 -0.2714 -0.1736 -0.1362
24007DPPC   C1A28499   4.555   6.385  26.526 -0.3224  0.1040 -0.5266
24007DPPC   C2A28500   4.866   6.344  26.272 -0.0697 -0.3250  0.3191
24007DPPC   C3A28501   5.200   6.415  25.930  0.1376 -0.0405 -0.0132
24007DPPC   C4A28502   5.480   6.408  25.592  0.0136  0.2582  0.0069
24007DPPC   C1B28503   4.588   5.996  26.241  0.0506 -0.1175 -0.1687
24007DPPC   C2B28504   4.704   6.026  25.906 -0.2567 -0.0878  0.0563
24007DPPC   C3B28505   4.988   6.049  25.549 -0.1733 -0.0622  0.0027
24007DPPC   C4B28506   5.330   6.077  25.184 -0.1445  0.0962  0.0254
24008DPPC   NC328507   5.488   4.069  28.792  0.1507  0.2585 -0.0199
24008DPPC   PO428508   5.821   3.894  28.708  0.0171  0.1181  0.1621
24008DPPC   GL128509   6.100   3.969  28.342  0.3390 -0.5291 -0.2585
24008DPPC   GL228510   6.138   4.242  28.426 -0.1270 -0.0889  0.1796
24008DPPC   C1A28511   6.034   3.944  27.934 -0.1367  0.0817  0.2443
24008DPPC   C2A28512   6.109   3.786  27.535 -0.0464  0.1120 -0.0446
24008DPPC   C3A28513   6.390   3.698  27.171 -0.1225  0.2129  0.0016
24008DPPC   C4A28514   6.646   3.684  26.756 -0.2401 -0.3464  0.2720
24008DPPC   C1B28515   6.342   4.255  28.146 -0.1401 -0.0803  0.1744
24008DPPC   C2B28516   6.400   4.194  27.722  0.1099 -0.1080 -0.2408
24008DPPC   C3B28517   6.713   4.072  27.329  0.1204 -0.2631  0.1112
24008DPPC   C4B28518   6.975   4.027  26.892 -0.1041  0.1241 -0.2183
24009DPPC   NC328519   5.440   4.476  27.990 -0.0220 -0.1906 -0.2793
24009DPPC   PO428520   5.145   4.219  28.072  0.0817  0.2912  0.0149
24009DPPC   GL128521   5.222   4.044  27.715  0.1412 -0.4344 -0.0422
24009DPPC   GL228522   5.248   4.274  27.619  0.1430 -0.1316  0.0685
24009DPPC   C1A28523   5.411   3.821  27.467  0.0609  0.1104 -0.3184
24009DPPC   C2A28524   5.668   3.904  27.140 -0.4770 -0.0707  0.3274
24009DPPC   C3A28525   6.052   3.947  26.880  0.2857 -0.4747  0.0438
24009DPPC   C4A28526   6.335   3.946  26.477 -0.0136  0.0873 -0.0594
24009DPPC   C1B28527   5.211   4.497  27.327  0.0675  0.0228  0.2493
24009DPPC   C2B28528   5.296   4.585  26.991  0.3122  0.1044 -0.1378
24009DPPC   C3B28529   5.495   4.633  26.540  0.2435  0.2217 -0.2463
24009DPPC   C4B28530   5.882   4.667  26.217  0.0353 -0.1620 -0.0237
24010DPPC   NC328531   5.512   1.962  28.266  0.1440  0.2558 -0.0862
24010DPPC   PO428532   5.469   2.352  28.296 -0.5059 -0.0754  0.1470
24010DPPC   GL128533   5.792   2.326  28.038 -0.1135  0.1254  0.0748
24010DPPC   GL228534   5.671   2.080  27.857  0.0364  0.1520  0.2117
24010DPPC   C1A28535   6.076   2.536  27.965  0.0372 -0.0944 -0.1565
24010DPPC   C2A28536   6.440   2.637  28.066 -0.0980  0.1107 -0.0400
24010DPPC   C3A28537   6.714   2.617  27.708 -0.1904 -0.0122  0.0448
24010DPPC   C4A28538   7.078   2.585  27.317  0.0758  0.0653 -0.0836
24010DPPC   C1B28539   5.939   2.044  27.670  0.1168 -0.0833  0.0431
24010DPPC   C2B28540   6.085   2.036  27.252  0.1486 -0.1569 -0.1258
24010DPPC   C3B28541   6.453   1.997  26.937 -0.1431 -0.0299  0.3404
24010DPPC   C4B28542   6.761   1.967  26.514 -0.0603  0.1977 -0.1416
24011DPPC   NC328543   5.981   6.452  28.509  0.2825 -0.1451  0.0598
24011DPPC   PO428544   5.961   6.576  28.185 -0.1103  0.0070 -0.1248
24011DPPC   GL128545   6.275   6.534  27.985  0.2614  0.0456  0.0830
24011DPPC   GL228546   6.231   6.781  27.850 -0.1636  0.1295  0.3303
24011DPPC   C1A28547   6.460   6.358  27.665  0.0908 -0.0186 -0.0934
24011DPPC   C2A28548   6.816   6.411  27.436  0.3287  0.1930  0.0372
24011DPPC   C3A28549   7.140   6.358  27.123 -0.3403 -0.0702  0.0882
24011DPPC   C4A28550   7.474   6.421  26.734  0.3717  0.0067 -0.0921
24011DPPC   C1B28551   6.542   6.799  27.611 -0.1052  0.1395 -0.0722
24011DPPC   C2B28552   6.796   6.887  27.288 -0.2542 -0.0448 -0.2878
24011DPPC   C3B28553   7.153   6.893  27.078 -0.1349 -0.1141  0.0648
24011DPPC   C4B28554   7.443   6.891  26.645  0.0431 -0.1616 -0.1765
24012DPPC   NC328555   6.375   1.147  28.650  0.1836 -0.2268  0.3345
24012DPPC   PO428556   6.455   0.876  28.370 -0.3059 -0.2023 -0.2063
24012DPPC   GL128557   6.585   0.630  28.195  0.0753 -0.1657 -0.1524
24012DPPC   GL228558   6.714   0.504  28.476 -0.3193  0.1280 -0.4717
24012DPPC   C1A28559   6.840   0.585  27.938 -0.1711 -0.2359  0.2080
24012DPPC   C2A28560   7.161   0.556  27.634 -0.3323  0.0803 -0.1697
24012DPPC   C3A28561   7.504   0.556  27.289 -0.0189  0.0195 -0.1606
24012DPPC   C4A28562   7.767   0.514  26.921  0.1177 -0.4507 -0.1558
24012DPPC   C1B28563   7.010   0.446  28.293 -0.1833 -0.1818 -0.1633
24012DPPC   C2B28564   7.339   0.360  28.052  0.1083 -0.2615  0.0531
24012DPPC   C3B28565   7.622   0.267  27.716  0.0213 -0.3099  0.1536
24012DPPC   C4B28566   7.994   0.306  27.400  0.0505 -0.0182  0.1311
24013DPPC   NC328567   3.904   5.205  26.729 -0.1415  0.0683  0.2541
24013DPPC   PO428568   3.707   4.944  26.466  0.0576 -0.1281  0.0337
24013DPPC   GL128569   3.901   4.761  26.077 -0.0691 -0.3491 -0.0479
24013DPPC   GL228570   4.138   4.667  26.247 -0.1840  0.2079 -0.1689
24013DPPC   C1A28571   4.054   4.943  25.801  0.1160 -0.0976  0.1407
24013DPPC   C2A28572   4.449   5.079  25.685  0.1270  0.2917 -0.1616
24013DPPC   C3A28573   4.810   5.187  25.344 -0.0088  0.1172  0.0861
24013DPPC   C4A28574   5.117   5.328  25.004  0.0361  0.0323 -0.0005
24013DPPC   C1B28575   4.481   4.522  26.152  0.5238  0.1539  0.3837
24013DPPC   C2B28576   4.842   4.524  26.041  0.0403 -0.1740 -0.0559
24013DPPC   C3B28577   5.145   4.528  25.714  0.1579 -0.4656 -0.2150
24013DPPC   C4B28578   5.439   4.601  25.300 -0.0271  0.0747 -0.2252
24014DPPC   NC328579   2.527   5.437  24.669 -0.0712  0.2493  0.0221
24014DPPC   PO428580   2.904   5.285  24.750 -0.1514  0.0401 -0.0642
24014DPPC   GL128581   3.095   5.072  24.438 -0.1066 -0.0717 -0.1048
24014DPPC   GL228582   2.861   5.036  24.340  0.2357  0.4180 -0.1341
24014DPPC   C1A28583   3.336   4.895  24.219  0.5117 -0.1980  0.0813
24014DPPC   C2A28584   3.634   4.986  23.932 -0.0548  0.1480  0.1358
24014DPPC   C3A28585   4.062   4.979  23.633  0.1192  0.1040  0.0557
24014DPPC   C4A28586   4.389   5.072  23.272 -0.0792 -0.1079 -0.2285
24014DPPC   C1B28587   2.954   4.754  24.146 -0.0064 -0.3156 -0.2095
24014DPPC   C2B28588   3.223   4.579  23.885  0.1105  0.4067 -0.2150
24014DPPC   C3B28589   3.538   4.630  23.518  0.2115 -0.0700 -0.0499
24014DPPC   C4B28590   3.909   4.654  23.209 -0.3821 -0.0083  0.2719
24015DPPC   NC328591   6.216   1.031  27.929 -0.1597 -0.2004 -0.1281
24015DPPC   PO428592   5.949   1.269  27.911 -0.2404 -0.3513 -0.0533
24015DPPC   GL128593   5.855   1.196  27.611 -0.0297  0.0024 -0.1220
24015DPPC   GL228594   5.669   1.380  27.449  0.4910  0.0700 -0.0561
24015DPPC   C1A28595   6.140   0.992  27.436  0.0191 -0.0987 -0.2501
24015DPPC   C2A28596   6.404   0.909  27.121  0.2264  0.0389 -0.0811
24015DPPC   C3A28597   6.750   0.952  26.765 -0.0227 -0.1618  0.3223
24015DPPC   C4A28598   7.050   0.933  26.389 -0.0897  0.3264  0.2335
24015DPPC   C1B28599   5.802   1.590  27.156  0.1519 -0.0545 -0.0987
24015DPPC   C2B28600   5.987   1.672  26.810  0.2503  0.0763  0.1039
24015DPPC   C3B28601   6.301   1.644  26.459  0.1457 -0.2063 -0.1329
24015DPPC   C4B28602   6.621   1.606  26.048  0.0968  0.1811 -0.2991
24016DPPC   NC328603   4.647   0.044  27.389 -0.4545  0.0088 -0.2604
24016DPPC   PO428604   4.579   0.444  27.440 -0.1301 -0.3234  0.0952
24016DPPC   GL128605   4.886   0.553  27.189 -0.0946  0.2370  0.2083
24016DPPC   GL228606   5.083   0.625  27.375 -0.2574 -0.2844 -0.2403
24016DPPC   C1A28607   4.894   0.300  26.937  0.1179  0.0455 -0.0954
24016DPPC   C2A28608   5.130   0.110  26.659 -0.1319 -0.0661 -0.1818
24016DPPC   C3A28609   5.441   0.081  26.304  0.2755 -0.2558 -0.0107
24016DPPC   C4A28610   5.764   0.074  25.912  0.1791  0.1325 -0.1017
24016DPPC   C1B28611   5.424   0.637  27.265  0.1624  0.0033  0.1514
24016DPPC   C2B28612   5.795   0.660  27.093  0.1769  0.0514 -0.1052
24016DPPC   C3B28613   6.152   0.604  26.731 -0.0158 -0.1077 -0.0158
24016DPPC   C4B28614   6.514   0.632  26.404  0.1013  0.4062  0.0202
24017DPPC   NC328615   6.177   3.196  29.040  0.1875  0.0790  0.1585
24017DPPC   PO428616   6.517   3.348  29.071 -0.2812  0.0844 -0.3299
24017DPPC   GL128617   6.696   3.377  28.687  0.3664  0.1619 -0.1449
24017DPPC   GL228618   6.926   3.302  28.740 -0.0284  0.1940 -0.1822
24017DPPC   C1A28619   6.660   3.456  28.367 -0.1350 -0.4123 -0.0243
24017DPPC   C2A28620   6.878   3.486  28.019 -0.1068  0.0639  0.0263
24017DPPC   C3A28621   7.126   3.467  27.632 -0.0134  0.0033 -0.3326
24017DPPC   C4A28622   7.385   3.512  27.270 -0.1546 -0.0259 -0.2095
24017DPPC   C1B28623   7.100   3.339  28.418 -0.1419 -0.0059  0.2765
24017DPPC   C2B28624   7.428   3.344  28.155 -0.1731  0.1899  0.1128
24017DPPC   C3B28625   7.726   3.292  27.759 -0.1130 -0.1881  0.1710
24017DPPC   C4B28626   8.063   3.291  27.429  0.0196 -0.1263  0.0301
24018DPPC   NC328627   4.340   1.821  26.853  0.1613  0.1801 -0.1234
24018DPPC   PO428628   4.035   1.910  26.682  0.2263  0.0882 -0.0616
24018DPPC   GL128629   4.135   2.225  26.394  0.2965  0.1452  0.1163
24018DPPC   GL228630   4.200   2.328  26.603 -0.1770  0.1697 -0.0601
24018DPPC   C1A28631   4.314   2.348  26.101  0.3507  0.1223  0.0495
24018DPPC   C2A28632   4.352   2.444  25.683 -0.3321  0.0700  0.0431
24018DPPC   C3A28633   4.739   2.508  25.370 -0.0973  0.0442  0.3909
24018DPPC   C4A28634   5.091   2.487  25.004 -0.0060  0.2158  0.0760
24018DPPC   C1B28635   4.516   2.496  26.529 -0.5252  0.0086  0.1809
24018DPPC   C2B28636   4.909   2.574  26.288 -0.0860  0.2972 -0.0797
24018DPPC   C3B28637   5.303   2.526  25.944  0.0283  0.3606  0.0348
24018DPPC   C4B28638   5.669   2.550  25.616 -0.0013  0.0288 -0.3401
24019DPPC   NC328639   3.098   0.082  25.740  0.3988  0.1359 -0.2860
24019DPPC   PO428640   3.206  -0.219  25.615  0.0872  0.1705 -0.0498
24019DPPC   GL128641   3.606  -0.249  25.426  0.0793 -0.1037  0.2940
24019DPPC   GL228642   3.485  -0.332  25.168  0.0843  0.0922 -0.0978
24019DPPC   C1A28643   3.852   0.033  25.363 -0.4251  0.0765 -0.3102
24019DPPC   C2A28644   4.094   0.238  25.072  0.0399 -0.0351 -0.1876
24019DPPC   C3A28645   4.391   0.230  24.756 -0.0218  0.4003  0.0674
24019DPPC   C4A28646   4.759   0.346  24.353  0.0823  0.2582 -0.2348
24019DPPC   C1B28647   3.414  -0.227  24.774 -0.0777  0.1952  0.1041
24019DPPC   C2B28648   3.574  -0.225  24.413 -0.0423  0.3254 -0.1034
24019DPPC   C3B28649   3.937  -0.366  24.107  0.0167 -0.2021  0.1616
24019DPPC   C4B28650   4.276  -0.287  23.724 -0.0293 -0.0309  0.1513
24020DPPC   NC328651  10.964   4.919  28.626  0.4469 -0.0074 -0.2422
24020DPPC   PO428652  10.673   4.692  28.829  0.0168  0.1787  0.0920
24020DPPC   GL128653  10.276   4.562  28.590 -0.2350 -0.0788 -0.2478
24020DPPC   GL228654  10.284   4.867  28.496  0.0593  0.4116 -0.0522
24020DPPC   C1A28655  10.411   4.333  28.351 -0.0665  0.1909 -0.0059
24020DPPC   C2A28656  10.281   4.424  27.936  0.0272  0.0409 -0.2262
24020DPPC   C3A28657  10.114   4.546  27.521 -0.0848 -0.1423  0.0015
24020DPPC   C4A28658   9.786   4.571  27.138  0.3006 -0.1339  0.0856
24020DPPC   C1B28659  10.270   4.872  28.147 -0.3428 -0.0475  0.3219
24020DPPC   C2B28660  10.116   4.977  27.757 -0.0943 -0.1243  0.3298
24020DPPC   C3B28661   9.844   5.055  27.352  0.1053  0.5731 -0.1349
24020DPPC   C4B28662   9.595   5.078  26.923  0.1295 -0.3578 -0.2141
24021DPPC   NC328663   3.038   5.084  25.287 -0.5359  0.0105 -0.3516
24021DPPC   PO428664   2.819   4.764  25.161  0.1228  0.2108  0.1608
24021DPPC   GL128665   3.233   4.708  25.019  0.0014 -0.0450  0.1765
24021DPPC   GL228666   3.243   4.942  24.847  0.3134 -0.1530 -0.2382
24021DPPC   C1A28667   3.586   4.566  25.036  0.2872 -0.1890  0.1397
24021DPPC   C2A28668   3.985   4.606  24.928  0.4820 -0.2002 -0.0711
24021DPPC   C3A28669   4.298   4.626  24.666  0.2181  0.1692 -0.1961
24021DPPC   C4A28670   4.639   4.656  24.328 -0.1990 -0.0661  0.1078
24021DPPC   C1B28671   3.466   4.859  24.600 -0.0897  0.1182  0.2110
24021DPPC   C2B28672   3.816   4.863  24.385  0.0590  0.0283  0.1009
24021DPPC   C3B28673   4.212   4.791  24.108  0.2603 -0.0792  0.3219
24021DPPC   C4B28674   4.533   4.953  23.733  0.2300 -0.0549  0.2282
24022DPPC   NC328675   2.361   2.325  24.033  0.0067 -0.1516  0.0383
24022DPPC   PO428676   2.233   2.241  23.678  0.2183  0.3716  0.3528
24022DPPC   GL128677   2.345   2.136  23.323 -0.0592 -0.0630  0.0269
24022DPPC   GL228678   2.447   2.453  23.325  0.1712 -0.3290  0.1062
24022DPPC   C1A28679   2.656   1.968  23.274  0.0540  0.0118 -0.0795
24022DPPC   C2A28680   2.841   1.748  22.963 -0.2953  0.2405  0.0235
24022DPPC   C3A28681   3.172   1.736  22.601  0.1058 -0.1682  0.0436
24022DPPC   C4A28682   3.524   1.661  22.238  0.2395  0.2503 -0.2575
24022DPPC   C1B28683   2.724   2.361  23.111 -0.0453 -0.4084  0.1974
24022DPPC   C2B28684   2.975   2.196  22.786 -0.0019 -0.1489  0.4566
24022DPPC   C3B28685   3.257   2.220  22.429 -0.4222 -0.0254 -0.0449
24022DPPC   C4B28686   3.583   2.224  22.036 -0.1150 -0.0258  0.3598
24023DPPC   NC328687   3.051   6.274  25.067  0.0510  0.0193  0.0388
24023DPPC   PO428688   3.115   6.624  25.207  0.2539 -0.0052  0.0725
24023DPPC   GL128689   3.416   6.769  25.007  0.0632 -0.2242  0.1946
24023DPPC   GL228690   3.304   6.910  24.823 -0.0774  0.2836 -0.1995
24023DPPC   C1A28691   3.724   6.571  24.942  0.1673  0.1204  0.4829
24023DPPC   C2A28692   3.986   6.531  24.606  0.3003 -0.2356  0.0955
24023DPPC   C3A28693   4.258   6.553  24.310 -0.0003  0.2761  0.2276
24023DPPC   C4A28694   4.592   6.625  23.996 -0.1569  0.1615  0.0975
24023DPPC   C1B28695   3.511   6.840  24.487  0.3295  0.3992 -0.0777
24023DPPC   C2B28696   3.751   6.764  24.204 -0.1517  0.0137  0.1002
24023DPPC   C3B28697   4.069   6.758  23.834  0.0566 -0.0449  0.1219
24023DPPC   C4B28698   4.458   6.847  23.532  0.1419  0.2030 -0.3052
24024DPPC   NC328699   7.932   5.621  29.566  0.3081  0.0811  0.0706
24024DPPC   PO428700   7.918   6.005  29.479 -0.1445 -0.0754 -0.3363
24024DPPC   GL128701   7.820   6.082  29.085  0.0630  0.2342  0.1173
24024DPPC   GL228702   7.803   5.819  29.076 -0.0667 -0.1653 -0.3307
24024DPPC   C1A28703   7.983   6.291  28.805 -0.0487  0.2660 -0.3012
24024DPPC   C2A28704   8.214   6.455  28.534 -0.2579  0.2282  0.2038
24024DPPC   C3A28705   8.397   6.763  28.271 -0.3915 -0.1766  0.0371
24024DPPC   C4A28706   8.443   7.236  28.293 -0.0649 -0.1155  0.4983
24024DPPC   C1B28707   8.023   5.821  28.769 -0.0139  0.0246 -0.2263
24024DPPC   C2B28708   8.344   5.966  28.469  0.0589  0.4270 -0.0038
24024DPPC   C3B28709   8.565   6.249  28.118 -0.0518  0.2148  0.2017
24024DPPC   C4B28710   8.776   6.494  27.749 -0.0312  0.1073 -0.1216
24025DPPC   NC328711   6.335   1.871  28.373  0.0105  0.0541 -0.1410
24025DPPC   PO428712   6.237   1.489  28.294  0.0061  0.2141 -0.3415
24025DPPC   GL128713   6.400   1.425  27.913  0.5105 -0.1726 -0.2197
24025DPPC   GL228714   6.342   1.688  27.881  0.1729  0.2833  0.2656
24025DPPC   C1A28715   6.502   1.264  27.618  0.5097 -0.1938  0.0255
24025DPPC   C2A28716   6.753   1.241  27.296 -0.2497  0.2198 -0.2045
24025DPPC   C3A28717   7.109   1.207  27.009  0.1460  0.1184 -0.0851
24025DPPC   C4A28718   7.406   1.290  26.642 -0.1842  0.1061 -0.2542
24025DPPC   C1B28719   6.454   1.873  27.564  0.2082  0.1102 -0.6619
24025DPPC   C2B28720   6.772   1.734  27.303 -0.0342 -0.0693 -0.0509
24025DPPC   C3B28721   7.042   1.767  26.910  0.2919  0.2308  0.0949
24025DPPC   C4B28722   7.267   1.780  26.459 -0.0945 -0.1149  0.0623
24026DPPC   NC328723   6.487   3.826  29.305 -0.0980  0.0136  0.2312
24026DPPC   PO428724   6.837   3.828  29.452  0.2056  0.3643  0.2098
24026DPPC   GL128725   6.923   3.672  29.095  0.0416 -0.0587  0.0971
24026DPPC   GL228726   6.885   3.930  28.937  0.1634  0.0166  0.2694
24026DPPC   C1A28727   7.224   3.624  28.888  0.0422  0.1420 -0.1248
24026DPPC   C2A28728   7.561   3.529  28.615  0.3952 -0.2835 -0.1041
24026DPPC   C3A28729   7.828   3.642  28.233  0.0340 -0.0721  0.1658
24026DPPC   C4A28730   8.219   3.692  27.920  0.0608  0.2465  0.1629
24026DPPC   C1B28731   7.030   3.862  28.575  0.0672  0.0376  0.2655
24026DPPC   C2B28732   7.253   3.808  28.240 -0.1866 -0.2835 -0.1244
24026DPPC   C3B28733   7.541   3.762  27.814 -0.2188 -0.1998  0.1444
24026DPPC   C4B28734   7.861   3.739  27.477 -0.0408  0.2187 -0.2099
24027DPPC   NC328735   4.188   5.588  26.841 -0.0808 -0.0721 -0.1308
24027DPPC   PO428736   4.399   5.540  27.152 -0.0450  0.0102 -0.0141
24027DPPC   GL128737   4.686   5.563  26.799 -0.2038 -0.0197 -0.0824
24027DPPC   GL228738   4.738   5.814  26.819 -0.0667  0.0585 -0.3400
24027DPPC   C1A28739   4.973   5.394  26.666 -0.0126 -0.1052 -0.1951
24027DPPC   C2A28740   5.202   5.398  26.314 -0.0368  0.0328 -0.0615
24027DPPC   C3A28741   5.506   5.310  25.936 -0.0220  0.0526  0.2248
24027DPPC   C4A28742   5.831   5.375  25.561 -0.1812 -0.3131 -0.1302
24027DPPC   C1B28743   4.917   5.811  26.482  0.0987  0.1650 -0.0672
24027DPPC   C2B28744   5.214   5.893  26.144  0.1991  0.1488 -0.0715
24027DPPC   C3B28745   5.513   5.845  25.774 -0.0868 -0.0799 -0.0832
24027DPPC   C4B28746   5.766   5.848  25.350  0.0148 -0.0006  0.0043
24028DPPC   NC328747   2.325   4.295  24.058 -0.2417 -0.2706  0.4881
24028DPPC   PO428748   2.554   3.958  24.127 -0.2070  0.1083  0.0259
24028DPPC   GL128749   2.846   3.815  23.908 -0.1031  0.1334  0.0775
24028DPPC   GL228750   2.854   3.646  24.095 -0.2711  0.3395 -0.0146
24028DPPC   C1A28751   3.176   3.822  23.684  0.1885 -0.4271  0.2909
24028DPPC   C2A28752   3.425   3.819  23.340  0.1829  0.0048 -0.0822
24028DPPC   C3A28753   3.628   3.824  22.941  0.2643  0.1632 -0.0428
24028DPPC   C4A28754   3.983   3.894  22.641 -0.2050  0.0059 -0.1575
24028DPPC   C1B28755   3.069   3.365  23.872  0.3773 -0.1769  0.0883
24028DPPC   C2B28756   3.267   3.380  23.549 -0.0231 -0.0301  0.2340
24028DPPC   C3B28757   3.601   3.396  23.153 -0.2886 -0.3690 -0.0960
24028DPPC   C4B28758   3.867   3.306  22.745  0.1820  0.1525 -0.2526
24029DPPC   NC328759   4.162   0.530  27.139 -0.0777  0.0991  0.2146
24029DPPC   PO428760   4.141   0.800  26.816 -0.0252  0.1791  0.0653
24029DPPC   GL128761   4.441   0.891  26.589  0.2980 -0.0567 -0.1679
24029DPPC   GL228762   4.391   0.627  26.430  0.1343  0.0774 -0.0935
24029DPPC   C1A28763   4.549   1.177  26.404  0.1199 -0.0567 -0.1361
24029DPPC   C2A28764   4.830   1.299  26.185 -0.0575 -0.0719 -0.1042
24029DPPC   C3A28765   5.148   1.244  25.849 -0.0751  0.1116  0.0484
24029DPPC   C4A28766   5.442   1.327  25.494  0.0201  0.2097  0.0560
24029DPPC   C1B28767   4.707   0.765  26.266 -0.2415  0.0677 -0.2215
24029DPPC   C2B28768   5.020   0.748  25.990 -0.0631 -0.0216  0.2070
24029DPPC   C3B28769   5.315   0.846  25.636  0.0372  0.2378  0.1220
24029DPPC   C4B28770   5.608   0.805  25.226  0.1120 -0.1224 -0.2619
24030DPPC   NC328771   4.969   2.181  27.318 -0.1069  0.0386 -0.4779
24030DPPC   PO428772   4.722   1.902  27.168  0.1098  0.1952 -0.0189
24030DPPC   GL128773   5.064   1.856  26.848  0.3040 -0.4246 -0.0711
24030DPPC   GL228774   4.954   1.587  26.872  0.1767 -0.1905 -0.2043
24030DPPC   C1A28775   5.139   1.972  26.443  0.2044 -0.0232 -0.0041
24030DPPC   C2A28776   5.369   2.029  26.114  0.0852 -0.0409  0.2468
24030DPPC   C3A28777   5.707   2.055  25.737 -0.0439 -0.1704 -0.1234
24030DPPC   C4A28778   5.972   2.029  25.340 -0.1114 -0.2297 -0.1172
24030DPPC   C1B28779   5.103   1.531  26.567 -0.0096 -0.2588  0.1098
24030DPPC   C2B28780   5.397   1.563  26.317  0.2731 -0.1073  0.3324
24030DPPC   C3B28781   5.613   1.521  25.909 -0.1374  0.0381  0.2015
24030DPPC   C4B28782   5.920   1.547  25.492  0.2167  0.1957 -0.2767
24031DPPC   NC328783   2.439   5.956  24.444 -0.0008  0.0096 -0.0392
24031DPPC   PO428784   2.607   5.914  24.831 -0.0437  0.2676 -0.0119
24031DPPC   GL128785   2.899   5.883  24.529  0.0832  0.4919 -0.3123
24031DPPC   GL228786   3.107   6.099  24.561  0.3297 -0.0837 -0.1881
24031DPPC   C1A28787   3.160   5.650  24.461 -0.0273 -0.0677  0.0819
24031DPPC   C2A28788   3.424   5.487  24.147 -0.0521 -0.2383 -0.0521
24031DPPC   C3A28789   3.735   5.472  23.784 -0.0742  0.2747 -0.1555
24031DPPC   C4A28790   4.050   5.414  23.411  0.3582 -0.2874  0.0535
24031DPPC   C1B28791   3.280   6.039  24.273  0.1423  0.0692  0.0227
24031DPPC   C2B28792   3.531   5.986  23.907 -0.1341  0.0455 -0.1557
24031DPPC   C3B28793   3.832   5.952  23.548  0.2322  0.1686  0.1128
24031DPPC   C4B28794   4.098   6.028  23.180  0.2641 -0.1837  0.2258
24032DPPC   NC328795   5.595   5.686  28.457  0.2509  0.0561  0.0779
24032DPPC   PO428796   5.771   6.015  28.311 -0.0055 -0.2109 -0.2173
24032DPPC   GL128797   6.110   6.139  28.081  0.0580 -0.2996 -0.3619
24032DPPC   GL228798   5.943   6.202  27.849 -0.1258 -0.0571 -0.1549
24032DPPC   C1A28799   6.385   5.999  27.920  0.3477  0.2002 -0.0484
24032DPPC   C2A28800   6.639   5.939  27.618  0.0604  0.4295  0.0009
24032DPPC   C3A28801   7.054   5.921  27.366  0.3432  0.1659  0.0679
24032DPPC   C4A28802   7.354   5.753  27.046 -0.1112  0.0121  0.0001
24032DPPC   C1B28803   6.121   6.164  27.525 -0.2187 -0.1415 -0.1089
24032DPPC   C2B28804   6.427   6.070  27.196  0.0194  0.0582 -0.1752
24032DPPC   C3B28805   6.767   5.993  26.959 -0.2845  0.0954  0.1813
24032DPPC   C4B28806   7.134   6.031  26.678  0.5074 -0.0789  0.0178
24033DPPC   NC328807   3.872   2.693  26.522 -0.2095  0.4960 -0.3153
24033DPPC   PO428808   3.724   2.511  26.175  0.5600 -0.2680  0.0276
24033DPPC   GL128809   3.661   2.432  25.763 -0.0993 -0.0948 -0.0904
24033DPPC   GL228810   3.677   2.240  25.774  0.2905 -0.2882 -0.1120
24033DPPC   C1A28811   3.930   2.479  25.496  0.0167 -0.2215  0.0479
24033DPPC   C2A28812   4.241   2.540  25.207  0.0102 -0.2932  0.1006
24033DPPC   C3A28813   4.611   2.611  24.834 -0.1378  0.5111  0.4363
24033DPPC   C4A28814   4.897   2.594  24.497  0.1557  0.1898 -0.1302
24033DPPC   C1B28815   4.002   2.073  25.831 -0.0708  0.0053 -0.0470
24033DPPC   C2B28816   4.442   1.971  25.850  0.1145 -0.0836 -0.0959
24033DPPC   C3B28817   4.717   1.984  25.495 -0.0955 -0.0648  0.1479
24033DPPC   C4B28818   5.036   1.967  25.168  0.1892  0.1318  0.2244
24034DPPC   NC328819   6.624   1.486  29.127  0.1352  0.0577 -0.0265
24034DPPC   PO428820   6.524   1.637  28.768 -0.1065  0.2648 -0.1817
24034DPPC   GL128821   6.695   1.531  28.449  0.1986  0.0132  0.1330
24034DPPC   GL228822   6.666   1.309  28.343 -0.3382  0.1479  0.3397
24034DPPC   C1A28823   6.800   1.688  28.101  0.0271 -0.1049 -0.0320
24034DPPC   C2A28824   7.023   1.562  27.746 -0.2444 -0.2032  0.1675
24034DPPC   C3A28825   7.392   1.549  27.373  0.1064  0.1483 -0.0037
24034DPPC   C4A28826   7.542   1.658  26.926  0.0856  0.0132  0.0464
24034DPPC   C1B28827   6.818   1.189  28.052  0.1608  0.0505  0.1456
24034DPPC   C2B28828   6.955   1.002  27.747 -0.0488  0.3019 -0.0693
24034DPPC   C3B28829   7.276   1.014  27.465  0.0536 -0.0050 -0.4775
24034DPPC   C4B28830   7.635   1.097  27.122  0.0645 -0.0992  0.0115
24035DPPC   NC328831   3.600   3.977  25.907 -0.0708  0.0536  0.0211
24035DPPC   PO428832   3.716   4.285  26.087 -0.0180  0.0983  0.1530
24035DPPC   GL128833   3.987   4.370  25.846  0.2355 -0.3333  0.0274
24035DPPC   GL228834   4.050   4.152  25.684  0.2136  0.0588  0.0522
24035DPPC   C1A28835   4.337   4.562  25.742 -0.1252 -0.2143 -0.0704
24035DPPC   C2A28836   4.670   4.687  25.499  0.0498  0.0117 -0.0374
24035DPPC   C3A28837   5.048   4.848  25.164  0.1276  0.0694 -0.0093
24035DPPC   C4A28838   4.985   4.972  24.663 -0.0321 -0.0880  0.1635
24035DPPC   C1B28839   4.200   4.312  25.419  0.1612 -0.4305  0.0003
24035DPPC   C2B28840   4.476   4.383  25.121 -0.0726 -0.1665  0.1603
24035DPPC   C3B28841   4.758   4.441  24.765 -0.0993  0.1103 -0.1482
24035DPPC   C4B28842   5.120   4.501  24.388  0.2523  0.0207  0.1932
24036DPPC   NC328843   2.608   3.041  24.663 -0.2979 -0.1734  0.1182
24036DPPC   PO428844   2.470   2.778  24.389 -0.0331  0.0739 -0.0394
24036DPPC   GL128845   2.784   2.736  24.122 -0.3271 -0.2967  0.1187
24036DPPC   GL228846   2.816   2.464  24.115  0.3201  0.1407 -0.0226
24036DPPC   C1A28847   3.028   2.918  23.874  0.3415  0.1401  0.0948
24036DPPC   C2A28848   3.263   2.862  23.535 -0.0026 -0.1274 -0.0148
24036DPPC   C3A28849   3.643   2.937  23.207 -0.1753 -0.0928 -0.2543
24036DPPC   C4A28850   3.979   2.869  22.848  0.1019 -0.0424  0.3337
24036DPPC   C1B28851   3.142   2.327  23.957 -0.1312 -0.0693 -0.0866
24036DPPC   C2B28852   3.375   2.375  23.646 -0.0324 -0.0732 -0.1340
24036DPPC   C3B28853   3.629   2.414  23.283  0.1077  0.1817 -0.0134
24036DPPC   C4B28854   3.944   2.335  22.911 -0.0436 -0.0373  0.3147
24037DPPC   NC328855   4.319   2.731  26.888 -0.3670 -0.2097  0.1982
24037DPPC   PO428856   4.513   2.409  27.024  0.0804  0.1632  0.1673
24037DPPC   GL128857   4.762   2.167  26.827 -0.3527  0.2721 -0.1784
24037DPPC   GL228858   4.578   2.101  26.583 -0.1921  0.2888 -0.0266
24037DPPC   C1A28859   5.063   2.319  26.692  0.4093 -0.1967 -0.1224
24037DPPC   C2A28860   5.417   2.368  26.473 -0.1205  0.0566 -0.1110
24037DPPC   C3A28861   5.769   2.348  26.152  0.0593  0.0070  0.0727
24037DPPC   C4A28862   6.142   2.350  25.761  0.1700  0.0926  0.0005
24037DPPC   C1B28863   4.686   2.146  26.217  0.1674 -0.0582 -0.2337
24037DPPC   C2B28864   4.853   2.291  25.891 -0.0815  0.0169 -0.1937
24037DPPC   C3B28865   5.214   2.293  25.545  0.2277  0.0956 -0.2275
24037DPPC   C4B28866   5.567   2.264  25.202 -0.1279 -0.1665 -0.1039
24038DPPC   NC328867   6.431   2.514  28.955  0.3424  0.0215  0.0643
24038DPPC   PO428868   6.426   2.172  28.769  0.0876 -0.0952  0.3233
24038DPPC   GL128869   6.538   2.282  28.465 -0.1141 -0.0556  0.4977
24038DPPC   GL228870   6.640   2.561  28.492  0.0521 -0.5766 -0.1921
24038DPPC   C1A28871   6.641   2.181  28.092  0.2288  0.1132 -0.0539
24038DPPC   C2A28872   6.886   2.075  27.776  0.0896  0.0723  0.0461
24038DPPC   C3A28873   7.091   2.101  27.341 -0.2896 -0.1370 -0.1107
24038DPPC   C4A28874   7.426   2.253  27.051 -0.1804  0.1221  0.0748
24038DPPC   C1B28875   6.945   2.541  28.245  0.3820  0.2785 -0.0403
24038DPPC   C2B28876   7.181   2.486  27.934 -0.2108 -0.0978 -0.0906
24038DPPC   C3B28877   7.496   2.529  27.592  0.0168 -0.0349  0.3534
24038DPPC   C4B28878   7.842   2.493  27.238  0.0755  0.0772 -0.1176
24039DPPC   NC328879   5.215   3.153  27.839 -0.2400  0.0209 -0.0914
24039DPPC   PO428880   4.887   3.068  27.678 -0.1697  0.2054  0.2214
24039DPPC   GL128881   4.932   3.151  27.161  0.2935 -0.0039 -0.5153
24039DPPC   GL228882   5.096   2.968  27.235 -0.2927 -0.0282 -0.0943
24039DPPC   C1A28883   5.088   3.211  26.841 -0.0111 -0.1426 -0.1640
24039DPPC   C2A28884   5.317   3.290  26.509 -0.2404  0.0197 -0.2112
24039DPPC   C3A28885   5.563   3.315  26.114  0.0126  0.2971  0.0712
24039DPPC   C4A28886   5.874   3.412  25.836 -0.2203 -0.0857  0.1622
24039DPPC   C1B28887   5.400   2.825  27.062 -0.1732  0.0247 -0.0283
24039DPPC   C2B28888   5.696   2.755  26.888 -0.0878 -0.0336  0.2817
24039DPPC   C3B28889   5.981   2.691  26.497 -0.2389 -0.0497  0.0088
24039DPPC   C4B28890   6.340   2.642  26.175  0.1423  0.4028  0.0312
24040DPPC   NC328891   2.272   1.593  24.347 -0.2027 -0.1029  0.1134
24040DPPC   PO428892   2.247   1.815  24.006  0.1952 -0.1424 -0.1090
24040DPPC   GL128893   2.470   1.815  23.708  0.0213  0.1844  0.1902
24040DPPC   GL228894   2.699   2.007  23.789  0.0790  0.1011  0.1730
24040DPPC   C1A28895   2.494   1.582  23.417 -0.0727  0.0456  0.1497
24040DPPC   C2A28896   2.738   1.312  23.230 -0.1772  0.1488 -0.1943
24040DPPC   C3A28897   3.005   1.257  22.869 -0.2307 -0.2685 -0.0608
24040DPPC   C4A28898   3.326   1.189  22.507 -0.0296  0.0278 -0.0587
24040DPPC   C1B28899   2.990   2.080  23.627 -0.1010  0.1213  0.0967
24040DPPC   C2B28900   3.171   2.100  23.269  0.0269  0.0022 -0.0670
24040DPPC   C3B28901   3.439   2.041  22.931 -0.0659 -0.1689  0.2577
24040DPPC   C4B28902   3.717   2.035  22.558  0.2512  0.0297 -0.0458
24041DPPC   NC328903   5.618   3.623  28.252 -0.2371 -0.1914 -0.0022
24041DPPC   PO428904   5.408   3.282  28.269 -0.1930  0.0193 -0.0684
24041DPPC   GL128905   5.707   3.163  27.972  0.0421 -0.0981  0.2813
24041DPPC   GL228906   5.879   3.284  28.093  0.0980 -0.1385  0.0647
24041DPPC   C1A28907   5.911   2.915  27.826  0.2397 -0.0833 -0.0224
24041DPPC   C2A28908   6.255   2.779  27.616  0.0285 -0.0244  0.0923
24041DPPC   C3A28909   6.596   2.780  27.218 -0.1998 -0.0102 -0.2897
24041DPPC   C4A28910   6.921   2.780  26.809 -0.0514  0.2295  0.0938
24041DPPC   C1B28911   6.107   3.364  27.749  0.1086  0.0683  0.1578
24041DPPC   C2B28912   6.335   3.255  27.415  0.0027  0.1490 -0.2482
24041DPPC   C3B28913   6.607   3.263  27.031  0.2641 -0.1292  0.1005
24041DPPC   C4B28914   6.909   3.251  26.605 -0.0132 -0.1431 -0.0450
24042DPPC   NC328915   2.905   5.956  25.647  0.0044 -0.1716 -0.4236
24042DPPC   PO428916   2.791   5.846  25.272 -0.1887 -0.0256 -0.4488
24042DPPC   GL128917   3.225   5.862  25.088 -0.1682  0.3620  0.1344
24042DPPC   GL228918   3.072   5.641  25.014  0.4291 -0.3145 -0.1477
24042DPPC   C1A28919   3.511   5.819  24.787  0.2906  0.2506 -0.1066
24042DPPC   C2A28920   3.743   5.833  24.413 -0.4424 -0.2008 -0.0175
24042DPPC   C3A28921   4.100   5.764  24.057 -0.1083 -0.2640  0.3518
24042DPPC   C4A28922   4.376   5.819  23.607 -0.1490  0.0656 -0.1840
24042DPPC   C1B28923   3.387   5.477  24.946 -0.1531 -0.1646 -0.1904
24042DPPC   C2B28924   3.611   5.376  24.619  0.0486 -0.1396 -0.1382
24042DPPC   C3B28925   3.953   5.322  24.310 -0.2745  0.3426  0.0371
24042DPPC   C4B28926   4.251   5.344  23.886  0.0866 -0.1911 -0.0510
24043DPPC   NC328927   4.163   6.537  26.675 -0.2574  0.0270  0.1001
24043DPPC   PO428928   4.337   6.646  27.015 -0.2433  0.0044 -0.2220
24043DPPC   GL128929   4.471   6.853  26.648  0.3436 -0.0009 -0.0465
24043DPPC   GL228930   4.506   7.102  26.857  0.0463 -0.4000 -0.0489
24043DPPC   C1A28931   4.680   6.751  26.356 -0.0360 -0.0578  0.1901
24043DPPC   C2A28932   4.969   6.864  26.100  0.1459 -0.0428 -0.0490
24043DPPC   C3A28933   5.312   6.889  25.772 -0.0144 -0.4269 -0.3007
24043DPPC   C4A28934   5.629   6.986  25.430  0.0339  0.1056 -0.0690
24043DPPC   C1B28935   4.779   7.275  26.677 -0.1895 -0.0907  0.1012
24043DPPC   C2B28936   5.138   7.198  26.497 -0.2196 -0.3504  0.2850
24043DPPC   C3B28937   5.465   7.181  26.201 -0.3945 -0.0844 -0.2122
24043DPPC   C4B28938   5.860   7.133  25.832  0.0573 -0.2788  0.3769
24044DPPC   NC328939   4.850   1.398  27.789  0.0812 -0.2983 -0.2963
24044DPPC   PO428940   4.921   1.730  27.586  0.0392 -0.0133 -0.0325
24044DPPC   GL128941   5.316   1.707  27.467  0.1403  0.0982 -0.0798
24044DPPC   GL228942   5.442   1.940  27.493 -0.0407  0.2226  0.2364
24044DPPC   C1A28943   5.330   1.496  27.134 -0.1069  0.1493  0.1646
24044DPPC   C2A28944   5.519   1.337  26.813  0.1111  0.1139  0.0518
24044DPPC   C3A28945   5.817   1.352  26.408  0.1818 -0.0083 -0.1591
24044DPPC   C4A28946   6.103   1.340  25.992  0.0465  0.0132 -0.2330
24044DPPC   C1B28947   5.438   1.944  27.122  0.1694  0.3308  0.2548
24044DPPC   C2B28948   5.551   1.834  26.753  0.1477 -0.0224 -0.2956
24044DPPC   C3B28949   5.814   1.844  26.303 -0.0590 -0.0597 -0.4564
24044DPPC   C4B28950   6.178   1.841  25.953 -0.0715  0.2891 -0.1034
24045DPPC   NC328951   4.452   2.924  27.326 -0.2279  0.3214  0.1166
24045DPPC   PO428952   4.761   2.679  27.406  0.1285 -0.2041  0.2823
24045DPPC   GL128953   4.990   2.609  27.077  0.0751  0.0535 -0.1553
24045DPPC   GL228954   4.902   2.726  26.850 -0.0046 -0.2768  0.1723
24045DPPC   C1A28955   5.283   2.429  27.013  0.1797  0.3389  0.2009
24045DPPC   C2A28956   5.673   2.277  27.013  0.1053  0.0913  0.0426
24045DPPC   C3A28957   5.945   2.205  26.654 -0.0707  0.0464  0.2268
24045DPPC   C4A28958   6.321   2.138  26.405  0.4539 -0.2382 -0.0401
24045DPPC   C1B28959   5.201   2.864  26.629  0.0693  0.1415 -0.3683
24045DPPC   C2B28960   5.464   2.857  26.330 -0.1341 -0.2840  0.1971
24045DPPC   C3B28961   5.800   2.882  25.997 -0.2387  0.3245  0.1362
24045DPPC   C4B28962   6.040   2.831  25.588  0.0330 -0.0922 -0.0151
24046DPPC   NC328963   3.441   1.178  25.798 -0.1920 -0.1538  0.0793
24046DPPC   PO428964   3.169   1.391  25.602 -0.0605 -0.1576 -0.1537
24046DPPC   GL128965   3.391   1.530  25.325  0.0702  0.1379  0.7097
24046DPPC   GL228966   3.477   1.767  25.277  0.1297  0.1687  0.2146
24046DPPC   C1A28967   3.505   1.404  25.004 -0.1797  0.2129 -0.1399
24046DPPC   C2A28968   3.696   1.412  24.671 -0.0032 -0.0445 -0.0696
24046DPPC   C3A28969   4.056   1.465  24.360  0.1536  0.1794  0.0488
24046DPPC   C4A28970   4.352   1.504  23.991  0.1285 -0.3330 -0.0207
24046DPPC   C1B28971   3.718   1.950  25.418 -0.2516 -0.0708 -0.2409
24046DPPC   C2B28972   4.091   2.053  25.299  0.2844  0.0079  0.0568
24046DPPC   C3B28973   4.486   2.112  25.036 -0.3245 -0.2628 -0.0397
24046DPPC   C4B28974   4.848   2.161  24.681  0.0827 -0.1089 -0.1076
24047DPPC   NC328975   5.178   6.372  27.575  0.1368  0.0733 -0.1795
24047DPPC   PO428976   5.084   6.775  27.567  0.4933  0.1862 -0.2855
24047DPPC   GL128977   5.239   6.837  27.259 -0.0738  0.0782  0.2859
24047DPPC   GL228978   5.472   6.714  27.396 -0.2064 -0.1632  0.0956
24047DPPC   C1A28979   5.359   6.992  26.928  0.0006  0.1502 -0.1044
24047DPPC   C2A28980   5.638   7.006  26.663  0.2849  0.0518  0.1923
24047DPPC   C3A28981   5.971   6.954  26.302 -0.1501  0.2464  0.3198
24047DPPC   C4A28982   6.373   6.910  26.067 -0.1904 -0.0832  0.2295
24047DPPC   C1B28983   5.757   6.790  27.159  0.1468 -0.2508 -0.1112
24047DPPC   C2B28984   6.055   6.748  26.884 -0.0185 -0.1951 -0.1911
24047DPPC   C3B28985   6.440   6.709  26.566  0.0765 -0.0926  0.1923
24047DPPC   C4B28986   6.808   6.735  26.220 -0.2318 -0.0225  0.0195
24048DPPC   NC328987   4.176   1.350  26.583  0.2095  0.0182  0.1787
24048DPPC   PO428988   4.367   1.316  26.954 -0.2615  0.0169 -0.0685
24048DPPC   GL128989   4.733   1.270  26.789  0.1486  0.0458 -0.3455
24048DPPC   GL228990   4.649   1.536  26.640  0.0230  0.1843 -0.1040
24048DPPC   C1A28991   5.027   1.090  26.633  0.0890 -0.1117 -0.0569
24048DPPC   C2A28992   5.290   1.035  26.312 -0.0479 -0.0895 -0.0572
24048DPPC   C3A28993   5.681   1.013  26.028  0.0957  0.1155 -0.2995
24048DPPC   C4A28994   5.889   1.034  25.531 -0.3027  0.0401  0.0873
24048DPPC   C1B28995   4.794   1.720  26.336 -0.0540  0.0918  0.0200
24048DPPC   C2B28996   4.912   1.751  25.964 -0.4051  0.0910  0.1102
24048DPPC   C3B28997   5.194   1.757  25.604 -0.0634 -0.0158  0.0209
24048DPPC   C4B28998   5.516   1.792  25.277  0.1671  0.0459 -0.1386
24049DPPC   NC328999   3.279   0.791  26.403 -0.0079  0.1236 -0.2183
24049DPPC   PO429000   3.563   0.752  26.676 -0.2180  0.0466  0.3067
24049DPPC   GL129001   3.863   0.690  26.399  0.3442 -0.2412  0.1834
24049DPPC   GL229002   3.942   1.013  26.380  0.1546  0.1577 -0.1945
24049DPPC   C1A29003   4.036   0.576  26.087  0.2423  0.3907 -0.3642
24049DPPC   C2A29004   4.389   0.387  26.031 -0.0604 -0.0726  0.1318
24049DPPC   C3A29005   4.725   0.409  25.652 -0.1940  0.0924  0.1630
24049DPPC   C4A29006   5.059   0.438  25.305  0.0898 -0.1343 -0.1408
24049DPPC   C1B29007   4.222   1.004  26.207  0.1267  0.3377 -0.2458
24049DPPC   C2B29008   4.415   0.938  25.897 -0.1619  0.3456 -0.1631
24049DPPC   C3B29009   4.795   0.930  25.534 -0.2878  0.0343 -0.2019
24049DPPC   C4B29010   5.142   0.965  25.132  0.0695 -0.5392 -0.1066
24050DPPC   NC329011   2.868   2.545  25.385  0.1171 -0.0243  0.0320
24050DPPC   PO429012   3.219   2.427  25.584  0.0242 -0.0031 -0.0704
24050DPPC   GL129013   3.432   2.224  25.338  0.2461 -0.1444 -0.1414
24050DPPC   GL229014   3.296   2.115  25.079  0.4642 -0.1947  0.1246
24050DPPC   C1A29015   3.741   2.268  25.081 -0.1035  0.2682 -0.1104
24050DPPC   C2A29016   4.058   2.231  24.797  0.1276 -0.0124  0.1606
24050DPPC   C3A29017   4.403   2.270  24.478 -0.2234 -0.1105 -0.0353
24050DPPC   C4A29018   4.699   2.290  24.091 -0.0357  0.2288 -0.0509
24050DPPC   C1B29019   3.553   1.931  24.844  0.0508 -0.0962 -0.1939
24050DPPC   C2B29020   3.814   1.937  24.520  0.1239  0.0662 -0.5039
24050DPPC   C3B29021   4.114   1.925  24.173 -0.1003 -0.2122 -0.0283
24050DPPC   C4B29022   4.465   1.949  23.795  0.1310  0.3561  0.1198
24051DPPC   NC329023   4.462   3.766  27.293  0.0216  0.0105  0.1033
24051DPPC   PO429024   4.656   3.466  27.430 -0.0032 -0.0417  0.0048
24051DPPC   GL129025   5.076   3.496  27.518  0.1311  0.1288  0.0732
24051DPPC   GL229026   5.013   3.726  27.417  0.3337 -0.2843  0.0568
24051DPPC   C1A29027   5.325   3.376  27.235  0.0386 -0.2518 -0.1515
24051DPPC   C2A29028   5.559   3.259  26.984  0.2423  0.2325  0.2009
24051DPPC   C3A29029   5.806   3.156  26.638  0.0250 -0.0267 -0.1393
24051DPPC   C4A29030   6.093   3.176  26.215 -0.1077  0.0621 -0.0072
24051DPPC   C1B29031   4.932   3.756  27.066  0.0232  0.0884  0.1221
24051DPPC   C2B29032   5.276   3.647  26.831 -0.0163 -0.0463  0.1833
24051DPPC   C3B29033   5.683   3.672  26.581  0.0234 -0.0159 -0.0833
24051DPPC   C4B29034   6.015   3.689  26.215 -0.0200 -0.1314 -0.3283
24052DPPC   NC329035   5.215   2.200  27.852 -0.0555  0.0983 -0.0426
24052DPPC   PO429036   5.032   2.547  27.909  0.0366  0.2076  0.0931
24052DPPC   GL129037   5.227   2.664  27.520 -0.0182 -0.2495 -0.0003
24052DPPC   GL229038   5.342   2.413  27.443  0.1069  0.4625  0.0067
24052DPPC   C1A29039   5.512   2.921  27.486  0.3333 -0.0213 -0.0452
24052DPPC   C2A29040   5.914   3.031  27.318  0.2320  0.0727  0.0755
24052DPPC   C3A29041   6.187   3.004  26.935 -0.2574 -0.0580  0.1627
24052DPPC   C4A29042   6.441   2.998  26.534 -0.1204 -0.0351  0.1764
24052DPPC   C1B29043   5.754   2.469  27.382 -0.0294 -0.2873 -0.4120
24052DPPC   C2B29044   6.091   2.558  27.159 -0.4115  0.1942  0.0267
24052DPPC   C3B29045   6.433   2.533  26.778  0.0471  0.3715 -0.5101
24052DPPC   C4B29046   6.752   2.498  26.438  0.1540  0.1354 -0.1682
24053DPPC   NC329047   2.927   1.043  24.549  0.0669 -0.2702 -0.1805
24053DPPC   PO429048   3.105   0.793  24.818 -0.0722 -0.1209  0.0885
24053DPPC   GL129049   3.441   0.926  24.928 -0.2073  0.1223  0.1762
24053DPPC   GL229050   3.480   0.688  25.093 -0.1068 -0.1128  0.2282
24053DPPC   C1A29051   3.748   0.954  24.725 -0.2381  0.3912  0.0284
24053DPPC   C2A29052   4.022   0.963  24.426  0.0576 -0.2277 -0.1980
24053DPPC   C3A29053   4.393   1.015  24.103  0.1900  0.2116  0.1730
24053DPPC   C4A29054   4.668   0.977  23.682 -0.1272 -0.1098  0.0492
24053DPPC   C1B29055   3.697   0.491  24.947 -0.2504 -0.0769  0.0562
24053DPPC   C2B29056   3.922   0.449  24.608 -0.0793 -0.0805  0.1439
24053DPPC   C3B29057   4.258   0.485  24.277 -0.1434 -0.2523  0.0846
24053DPPC   C4B29058   4.605   0.552  23.885  0.1008  0.0220  0.0672
24054DPPC   NC329059   4.843   3.506  27.888  0.0223 -0.0080  0.1745
24054DPPC   PO429060   5.218   3.666  28.011  0.0233  0.1106  0.1745
24054DPPC   GL129061   5.571   3.835  27.868 -0.0752 -0.1243  0.2449
24054DPPC   GL229062   5.739   3.603  27.781 -0.3479 -0.1964 -0.2304
24054DPPC   C1A29063   5.636   4.154  27.672  0.7156 -0.0795 -0.1496
24054DPPC   C2A29064   5.634   4.351  27.298  0.2541 -0.1450 -0.2327
24054DPPC   C3A29065   5.850   4.438  26.967  0.1902 -0.2868  0.4329
24054DPPC   C4A29066   6.190   4.493  26.589  0.0980  0.0641  0.1424
24054DPPC   C1B29067   5.759   3.445  27.451 -0.0498  0.1548  0.1851
24054DPPC   C2B29068   5.969   3.463  27.091  0.4284 -0.2422  0.2300
24054DPPC   C3B29069   6.205   3.426  26.673  0.2527  0.1786 -0.0951
24054DPPC   C4B29070   6.486   3.529  26.279 -0.1686  0.0350 -0.0438
24055DPPC   NC329071   4.618   5.088  26.998 -0.0316  0.0313 -0.2466
24055DPPC   PO429072   4.362   5.163  26.730 -0.2571  0.2604  0.1446
24055DPPC   GL129073   4.540   4.842  26.445  0.1335  0.0636  0.4696
24055DPPC   GL229074   4.537   4.558  26.600 -0.1153 -0.0948  0.0362
24055DPPC   C1A29075   4.619   4.917  26.064 -0.0636 -0.2081 -0.1578
24055DPPC   C2A29076   4.926   5.016  25.857 -0.1241 -0.0027 -0.0323
24055DPPC   C3A29077   5.270   5.050  25.552 -0.1958  0.0255  0.4191
24055DPPC   C4A29078   5.590   5.120  25.149 -0.2013 -0.2063  0.5855
24055DPPC   C1B29079   4.602   4.245  26.480  0.1145 -0.1461  0.0347
24055DPPC   C2B29080   4.815   4.085  26.170  0.1106  0.2319  0.1683
24055DPPC   C3B29081   5.160   4.001  25.845 -0.1613  0.2206  0.0752
24055DPPC   C4B29082   5.469   4.080  25.472 -0.1498 -0.0455 -0.2154
24056DPPC   NC329083   4.923   0.541  27.810 -0.1090  0.1728 -0.0359
24056DPPC   PO429084   5.132   0.863  27.776 -0.1445  0.0080  0.1423
24056DPPC   GL129085   5.377   1.073  27.514 -0.2305  0.1078 -0.0333
24056DPPC   GL229086   5.167   1.243  27.484 -0.3101  0.1114 -0.1854
24056DPPC   C1A29087   5.575   1.045  27.262 -0.0779  0.0123 -0.1396
24056DPPC   C2A29088   5.912   1.120  27.064 -0.0123 -0.0676 -0.2343
24056DPPC   C3A29089   6.268   1.172  26.640 -0.1572 -0.0541  0.1929
24056DPPC   C4A29090   6.553   1.130  26.258 -0.0020 -0.1264 -0.1836
24056DPPC   C1B29091   5.111   1.069  27.178 -0.1687  0.2296 -0.0141
24056DPPC   C2B29092   5.344   0.892  26.887  0.0105 -0.0774  0.1196
24056DPPC   C3B29093   5.719   0.908  26.560 -0.1440  0.0857  0.1620
24056DPPC   C4B29094   6.119   0.898  26.260  0.1198  0.0835  0.3008
24057DPPC   NC329095   2.086   3.088  24.400  0.1483  0.3811 -0.0724
24057DPPC   PO429096   2.213   3.134  24.015  0.0839  0.4305 -0.1044
24057DPPC   GL129097   2.576   3.375  23.817 -0.2645 -0.0469  0.0319
24057DPPC   GL229098   2.658   3.147  23.684  0.3307 -0.0719 -0.1795
24057DPPC   C1A29099   2.775   3.581  23.528 -0.3149  0.0653  0.0440
24057DPPC   C2A29100   3.021   3.538  23.164 -0.2423  0.1902 -0.0060
24057DPPC   C3A29101   3.293   3.551  22.726  0.2689 -0.2303 -0.3427
24057DPPC   C4A29102   3.561   3.576  22.314 -0.0536  0.1965 -0.3086
24057DPPC   C1B29103   2.898   3.161  23.399 -0.0592  0.0147 -0.5160
24057DPPC   C2B29104   3.134   3.062  23.073 -0.0307  0.1775 -0.1833
24057DPPC   C3B29105   3.430   3.020  22.679 -0.1936  0.0128 -0.1409
24057DPPC   C4B29106   3.726   3.033  22.349  0.2243  0.0945  0.0048
24058DPPC   NC329107   2.618   1.591  25.223 -0.2655  0.1208  0.0100
24058DPPC   PO429108   2.977   1.568  25.167 -0.1753  0.1136  0.0759
24058DPPC   GL129109   3.186   1.593  24.777 -0.2768  0.2195  0.0118
24058DPPC   GL229110   3.154   1.316  24.794 -0.5620  0.2074 -0.1290
24058DPPC   C1A29111   3.372   1.786  24.492  0.1830  0.0195  0.0963
24058DPPC   C2A29112   3.579   1.723  24.120  0.0484 -0.0532 -0.0277
24058DPPC   C3A29113   3.887   1.664  23.845 -0.1390 -0.0458  0.2526
24058DPPC   C4A29114   4.172   1.680  23.484 -0.0208  0.0880  0.3161
24058DPPC   C1B29115   3.368   1.223  24.467  0.0705 -0.1249  0.4189
24058DPPC   C2B29116   3.554   1.089  24.185  0.0409  0.0709 -0.0330
24058DPPC   C3B29117   3.880   1.163  23.929  0.2664 -0.2613  0.0669
24058DPPC   C4B29118   4.186   1.199  23.598  0.1463  0.1262  0.1124
24059DPPC   NC329119   3.763   3.321  27.079  0.2560 -0.0328 -0.2077
24059DPPC   PO429120   3.814   3.108  26.729  0.3100 -0.0892 -0.1087
24059DPPC   GL129121   4.168   3.100  26.629  0.3370  0.0798  0.1042
24059DPPC   GL229122   4.363   3.285  26.547 -0.1144  0.0814 -0.0317
24059DPPC   C1A29123   4.255   2.835  26.420 -0.2774  0.0938 -0.2245
24059DPPC   C2A29124   4.495   2.791  26.073  0.2588  0.0554 -0.2393
24059DPPC   C3A29125   4.894   2.797  25.788  0.0121 -0.0574 -0.3097
24059DPPC   C4A29126   5.180   2.805  25.359  0.1753  0.0022  0.2555
24059DPPC   C1B29127   4.512   3.270  26.230 -0.0027  0.0750  0.0692
24059DPPC   C2B29128   4.679   3.243  25.890 -0.1563 -0.0522  0.1144
24059DPPC   C3B29129   4.974   3.254  25.500  0.0780 -0.0592 -0.0485
24059DPPC   C4B29130   5.277   3.305  25.129  0.2787 -0.0485  0.1817
24060DPPC   NC329131   3.140   1.124  25.200  0.3746 -0.1060  0.2488
24060DPPC   PO429132   3.216   0.856  25.442 -0.0252 -0.3326  0.1035
24060DPPC   GL129133   3.609   0.854  25.492 -0.0942 -0.2653 -0.0875
24060DPPC   GL229134   3.613   1.157  25.360 -0.0532  0.3410  0.0168
24060DPPC   C1A29135   3.900   0.776  25.274 -0.1452 -0.0961 -0.1721
24060DPPC   C2A29136   4.201   0.766  24.982 -0.0543 -0.0865  0.1743
24060DPPC   C3A29137   4.486   0.804  24.623 -0.0884 -0.0357 -0.2145
24060DPPC   C4A29138   4.823   0.857  24.279 -0.5081  0.1917 -0.0753
24060DPPC   C1B29139   3.918   1.160  25.067 -0.1690 -0.2453 -0.2406
24060DPPC   C2B29140   4.226   1.261  24.822  0.4208  0.3266 -0.2392
24060DPPC   C3B29141   4.518   1.348  24.455  0.0001  0.3403 -0.2535
24060DPPC   C4B29142   4.774   1.311  24.024 -0.1207  0.0471  0.0192
24061DPPC   NC329143   3.328   2.686  25.983 -0.0447 -0.1360  0.1945
24061DPPC   PO429144   3.430   3.046  25.827 -0.4179 -0.1310  0.0663
24061DPPC   GL129145   3.690   2.975  25.504  0.1936 -0.4593  0.1967
24061DPPC   GL229146   3.637   2.758  25.409 -0.3728 -0.4299  0.1121
24061DPPC   C1A29147   4.015   3.070  25.323 -0.1598 -0.2857 -0.0116
24061DPPC   C2A29148   4.327   3.102  25.029  0.0483  0.2151 -0.1416
24061DPPC   C3A29149   4.654   3.161  24.667  0.3045 -0.0775 -0.1768
24061DPPC   C4A29150   4.991   3.094  24.333 -0.1690  0.0493 -0.3029
24061DPPC   C1B29151   3.755   2.797  25.033 -0.0464  0.0923  0.2811
24061DPPC   C2B29152   4.102   2.729  24.782  0.1234  0.1937 -0.2966
24061DPPC   C3B29153   4.394   2.833  24.404 -0.4370  0.2381  0.2237
24061DPPC   C4B29154   4.680   2.847  23.951  0.2293  0.1523  0.1504
24062DPPC   NC329155   3.971   3.824  27.174 -0.0271 -0.0679 -0.3480
24062DPPC   PO429156   4.245   4.019  26.928  0.2873  0.3306 -0.0182
24062DPPC   GL129157   4.543   3.890  26.835 -0.1978  0.2790  0.3114
24062DPPC   GL229158   4.396   3.818  26.558  0.3882  0.1359  0.1866
24062DPPC   C1A29159   4.889   3.915  26.666  0.0240 -0.4587 -0.0618
24062DPPC   C2A29160   5.202   3.824  26.418  0.0879 -0.3733  0.3147
24062DPPC   C3A29161   5.550   3.822  26.095  0.0988 -0.2255  0.1227
24062DPPC   C4A29162   5.871   3.882  25.657  0.1182 -0.2643  0.1477
24062DPPC   C1B29163   4.510   3.748  26.176  0.1900  0.1850 -0.2149
24062DPPC   C2B29164   4.691   3.744  25.832 -0.0461 -0.0082  0.0581
24062DPPC   C3B29165   4.979   3.752  25.448  0.1402  0.1458  0.1123
24062DPPC   C4B29166   5.279   3.858  25.063 -0.0745  0.1483  0.2854
24063DPPC   NC329167  11.509   0.116  28.660  0.1576  0.3079 -0.2241
24063DPPC   PO429168  11.714   0.417  28.476 -0.1911  0.1228 -0.1223
24063DPPC   GL129169  11.603   0.360  28.027  0.0209 -0.0145 -0.0036
24063DPPC   GL229170  11.397   0.540  28.062  0.3749  0.0533  0.0552
24063DPPC   C1A29171  11.653   0.176  27.701  0.3976 -0.3003 -0.1360
24063DPPC   C2A29172  12.002   0.074  27.555  0.0028 -0.0069  0.0757
24063DPPC   C3A29173  12.278  -0.142  27.215 -0.0630 -0.0282 -0.0371
24063DPPC   C4A29174  12.123  -0.529  26.942 -0.0894 -0.3200  0.0387
24063DPPC   C1B29175  11.300   0.821  27.834  0.1264  0.0976  0.0412
24063DPPC   C2B29176  11.168   0.807  27.431 -0.0017  0.1298  0.1601
24063DPPC   C3B29177  10.868   0.734  27.065 -0.1096  0.3510 -0.2906
24063DPPC   C4B29178  10.813   0.901  26.539 -0.2693 -0.2067 -0.0002
24064DPPC   NC329179   4.355   5.871  27.635  0.2969  0.3915 -0.0564
24064DPPC   PO429180   4.677   5.608  27.606 -0.1731 -0.2737  0.0096
24064DPPC   GL129181   4.830   5.641  27.219  0.2553  0.1644 -0.2591
24064DPPC   GL229182   4.862   5.381  27.249 -0.2479  0.1555  0.1515
24064DPPC   C1A29183   5.139   5.698  26.982  0.1745  0.0569  0.0415
24064DPPC   C2A29184   5.384   5.671  26.661  0.0536  0.0434  0.3044
24064DPPC   C3A29185   5.658   5.692  26.249  0.1533  0.1348 -0.2392
24064DPPC   C4A29186   5.982   5.631  25.962 -0.2276  0.2338 -0.0324
24064DPPC   C1B29187   5.082   5.159  27.023  0.1946 -0.1458 -0.0848
24064DPPC   C2B29188   5.300   5.083  26.717 -0.3416  0.2558 -0.0275
24064DPPC   C3B29189   5.630   5.123  26.369  0.0486  0.1375  0.1894
24064DPPC   C4B29190   5.971   5.133  26.020  0.1719 -0.1024  0.1884
24065DPPC   NC329191   6.643   6.366  29.091  0.0971 -0.1726 -0.0182
24065DPPC   PO429192   6.932   6.084  29.156 -0.0920  0.0342  0.1080
24065DPPC   GL129193   7.194   5.939  28.885 -0.1280  0.2857 -0.0013
24065DPPC   GL229194   7.099   5.707  28.903 -0.1083 -0.1590  0.2385
24065DPPC   C1A29195   7.525   5.920  28.706 -0.2363  0.0906 -0.1634
24065DPPC   C2A29196   7.784   5.804  28.393  0.0767 -0.2741 -0.1928
24065DPPC   C3A29197   8.193   5.773  28.005  0.2166 -0.0788 -0.2561
24065DPPC   C4A29198   8.671   5.672  28.009  0.1528 -0.0795  0.1973
24065DPPC   C1B29199   7.094   5.626  28.533  0.2086  0.1291  0.0751
24065DPPC   C2B29200   7.356   5.572  28.208  0.0535  0.0765  0.2150
24065DPPC   C3B29201   7.795   5.500  27.940 -0.0551 -0.3572 -0.3090
24065DPPC   C4B29202   8.076   5.402  27.552  0.1603  0.0727 -0.0614
24066DPPC   NC329203   5.662   5.066  28.491  0.2253  0.1182 -0.0914
24066DPPC   PO429204   5.413   4.860  28.287 -0.2438 -0.0501  0.1141
24066DPPC   GL129205   5.649   4.889  28.030  0.1409 -0.0291 -0.2680
24066DPPC   GL229206   5.870   5.013  28.062 -0.1245 -0.1562  0.0080
24066DPPC   C1A29207   5.739   4.831  27.675  0.0172 -0.1773 -0.0502
24066DPPC   C2A29208   5.959   4.783  27.371 -0.1161  0.0198  0.2660
24066DPPC   C3A29209   6.298   4.767  27.028 -0.1431  0.0252 -0.0677
24066DPPC   C4A29210   6.657   4.708  26.763  0.0239  0.0488  0.3166
24066DPPC   C1B29211   6.088   5.172  27.769 -0.1642 -0.1157 -0.2225
24066DPPC   C2B29212   6.362   5.099  27.475 -0.1627  0.0545  0.0881
24066DPPC   C3B29213   6.690   5.082  27.116  0.1437 -0.1188  0.0576
24066DPPC   C4B29214   7.033   5.028  26.825 -0.3206 -0.2395 -0.4334
24067DPPC   NC329215   2.938   4.667  24.667 -0.1688  0.0517  0.0890
24067DPPC   PO429216   2.771   4.337  24.448  0.1380  0.0516 -0.0929
24067DPPC   GL129217   2.937   4.206  24.159 -0.0626  0.2171  0.0337
24067DPPC   GL229218   2.815   4.352  23.950  0.3867  0.0618  0.3892
24067DPPC   C1A29219   3.259   4.148  24.010  0.6506 -0.0916  0.1513
24067DPPC   C2A29220   3.560   4.159  23.740  0.0187  0.2840  0.1337
24067DPPC   C3A29221   3.838   4.181  23.405  0.0010  0.2786  0.0481
24067DPPC   C4A29222   4.179   4.278  23.040 -0.1052  0.2559 -0.0933
24067DPPC   C1B29223   3.008   4.210  23.698 -0.0623 -0.4939  0.0225
24067DPPC   C2B29224   3.159   4.307  23.376 -0.0410 -0.0956 -0.2429
24067DPPC   C3B29225   3.489   4.313  23.045  0.2082 -0.0910 -0.0412
24067DPPC   C4B29226   3.799   4.438  22.647 -0.2375 -0.1013 -0.2240
24068DPPC   NC329227   4.831   4.397  27.756 -0.0808  0.0443  0.2789
24068DPPC   PO429228   4.690   4.623  27.473  0.0430 -0.0380  0.5780
24068DPPC   GL129229   4.875   4.634  27.087 -0.0801  0.1562  0.0515
24068DPPC   GL229230   5.011   4.857  27.311  0.0633  0.1635 -0.0632
24068DPPC   C1A29231   4.885   4.805  26.749  0.2022 -0.1725 -0.2336
24068DPPC   C2A29232   5.054   4.832  26.365 -0.3112 -0.0308 -0.1247
24068DPPC   C3A29233   5.321   4.837  26.054 -0.2786  0.2709  0.0306
24068DPPC   C4A29234   5.655   4.816  25.762 -0.0568  0.0113 -0.2187
24068DPPC   C1B29235   5.423   4.939  27.229 -0.1589  0.3334 -0.3381
24068DPPC   C2B29236   5.730   4.948  26.977  0.2314 -0.1234 -0.3622
24068DPPC   C3B29237   6.005   4.953  26.571  0.0936 -0.1819 -0.0370
24068DPPC   C4B29238   6.422   4.864  26.291  0.2347 -0.1660 -0.3368
24069DPPC   NC329239   2.928   3.852  24.490 -0.0243  0.0820  0.3335
24069DPPC   PO429240   2.714   3.505  24.592 -0.1521  0.0048 -0.0868
24069DPPC   GL129241   3.081   3.417  24.443 -0.1784  0.0044 -0.0135
24069DPPC   GL229242   3.041   3.129  24.503  0.1380 -0.0041 -0.2219
24069DPPC   C1A29243   3.289   3.522  24.172 -0.0509  0.2098  0.0221
24069DPPC   C2A29244   3.563   3.685  23.910  0.2276 -0.2776  0.0496
24069DPPC   C3A29245   3.876   3.667  23.540 -0.0628 -0.1396 -0.1443
24069DPPC   C4A29246   4.088   3.731  23.100  0.0265 -0.3859 -0.4451
24069DPPC   C1B29247   3.250   3.062  24.195  0.0902  0.1090 -0.2358
24069DPPC   C2B29248   3.549   3.119  23.938 -0.1110  0.0430  0.0722
24069DPPC   C3B29249   3.792   3.192  23.570 -0.2496  0.0169  0.0081
24069DPPC   C4B29250   4.125   3.135  23.246 -0.0778 -0.1710 -0.2850
24070DPPC   NC329251   5.853   4.420  28.761 -0.0009  0.1914  0.0841
24070DPPC   PO429252   5.838   4.584  28.409 -0.2699  0.0949  0.1522
24070DPPC   GL129253   6.005   4.627  28.031  0.3066  0.0421 -0.1099
24070DPPC   GL229254   5.894   4.387  27.955  0.2623 -0.3235  0.1214
24070DPPC   C1A29255   6.284   4.686  27.830  0.0538  0.0180  0.1292
24070DPPC   C2A29256   6.545   4.630  27.521 -0.2217  0.2296 -0.1333
24070DPPC   C3A29257   6.850   4.558  27.172  0.3372  0.0168  0.0554
24070DPPC   C4A29258   7.130   4.524  26.768 -0.0250 -0.0678 -0.0110
24070DPPC   C1B29259   6.003   4.305  27.592 -0.0780 -0.0522  0.1928
24070DPPC   C2B29260   6.218   4.243  27.237 -0.0301 -0.0496 -0.1491
24070DPPC   C3B29261   6.522   4.216  26.909  0.2352  0.4836  0.4980
24070DPPC   C4B29262   6.732   4.276  26.492 -0.3252 -0.0526 -0.0393
24071DPPC   NC329263   3.069   3.439  25.468  0.0825 -0.1381  0.2059
24071DPPC   PO429264   3.296   3.691  25.712 -0.0046  0.0255  0.1738
24071DPPC   GL129265   3.645   3.676  25.515  0.0214 -0.0029 -0.0291
24071DPPC   GL229266   3.764   3.456  25.436 -0.0282 -0.1030 -0.3023
24071DPPC   C1A29267   3.892   3.890  25.392 -0.1024 -0.1782  0.0275
24071DPPC   C2A29268   4.068   4.063  25.070  0.4045 -0.1200  0.0452
24071DPPC   C3A29269   4.308   4.108  24.720  0.0357 -0.2916 -0.1220
24071DPPC   C4A29270   4.619   4.143  24.399 -0.3154 -0.0987  0.1189
24071DPPC   C1B29271   4.074   3.509  25.221  0.1527 -0.4974  0.0447
24071DPPC   C2B29272   4.324   3.643  24.904  0.2875 -0.1079 -0.2051
24071DPPC   C3B29273   4.578   3.649  24.508  0.0164  0.0974 -0.1355
24071DPPC   C4B29274   4.862   3.596  24.055 -0.5059 -0.0751  0.1170
24072DPPC   NC329275   4.007   3.333  26.256 -0.0624  0.0694 -0.0182
24072DPPC   PO429276   3.710   3.431  26.016  0.0110 -0.0523  0.0480
24072DPPC   GL129277   3.838   3.221  25.864 -0.3082  0.0199  0.0608
24072DPPC   GL229278   3.889   2.966  25.939  0.1271  0.0727  0.2611
24072DPPC   C1A29279   4.153   3.360  25.675  0.2399 -0.1727 -0.1596
24072DPPC   C2A29280   4.496   3.434  25.469 -0.0732  0.0140  0.2126
24072DPPC   C3A29281   4.785   3.476  25.051  0.0251 -0.1880  0.0284
24072DPPC   C4A29282   5.056   3.485  24.629  0.2232 -0.1141 -0.2163
24072DPPC   C1B29283   4.185   2.928  25.727 -0.3039 -0.4249  0.0745
24072DPPC   C2B29284   4.522   2.935  25.512 -0.4671 -0.1731 -0.1257
24072DPPC   C3B29285   4.818   2.975  25.096  0.0187  0.4586 -0.0268
24072DPPC   C4B29286   5.162   2.923  24.768  0.0093  0.0978  0.1042
24073DPPC   NC329287   3.330   1.213  26.627 -0.3197 -0.1385 -0.0149
24073DPPC   PO429288   3.480   1.221  26.254  0.0267  0.1520 -0.3791
24073DPPC   GL129289   3.850   1.257  25.948 -0.0321 -0.0564 -0.2719
24073DPPC   GL229290   3.939   1.450  26.151 -0.0189  0.2375  0.1670
24073DPPC   C1A29291   4.026   1.134  25.672 -0.1546  0.2024 -0.3628
24073DPPC   C2A29292   4.325   1.055  25.400 -0.1809  0.2747  0.0396
24073DPPC   C3A29293   4.622   1.098  25.042  0.0332 -0.0466 -0.3030
24073DPPC   C4A29294   4.930   1.123  24.644  0.0786  0.2660  0.1684
24073DPPC   C1B29295   4.340   1.486  25.961  0.3611  0.1071  0.0620
24073DPPC   C2B29296   4.634   1.366  25.711 -0.3916 -0.1614  0.0150
24073DPPC   C3B29297   4.955   1.410  25.369  0.1765  0.0769 -0.2696
24073DPPC   C4B29298   5.182   1.506  24.976  0.0502 -0.1802  0.1895
24074DPPS   CNO29299   2.172   5.532  24.267  0.1384  0.0434 -0.0632
24074DPPS   PO429300   2.504   5.308  24.238 -0.1221  0.0917  0.0630
24074DPPS   GL129301   2.836   5.512  24.276  0.3191  0.0208  0.1195
24074DPPS   GL229302   2.759   5.767  24.170 -0.3243  0.3433  0.0151
24074DPPS   C1A29303   3.027   5.380  23.993  0.1483  0.0004  0.0471
24074DPPS   C2A29304   3.289   5.217  23.711 -0.0167 -0.1865 -0.1148
24074DPPS   C3A29305   3.624   5.123  23.366  0.3087 -0.2989 -0.0611
24074DPPS   C4A29306   3.891   5.122  22.989  0.2181 -0.1547 -0.0630
24074DPPS   C1B29307   3.063   5.810  23.935 -0.0258 -0.3166  0.1157
24074DPPS   C2B29308   3.219   5.683  23.605 -0.1099  0.0660  0.2130
24074DPPS   C3B29309   3.543   5.680  23.256  0.0418 -0.1560  0.1754
24074DPPS   C4B29310   3.888   5.583  22.944 -0.1460 -0.0860  0.2228
24075DPPS   CNO29311   2.137   2.360  24.895 -0.0341 -0.5430 -0.1858
24075DPPS   PO429312   2.372   2.308  24.606 -0.1115 -0.1572 -0.1404
24075DPPS   GL129313   2.795   2.343  24.609  0.0421  0.1082 -0.3358
24075DPPS   GL229314   2.871   2.655  24.557 -0.2666  0.1326 -0.0461
24075DPPS   C1A29315   2.999   2.139  24.399 -0.0193  0.0566 -0.3499
24075DPPS   C2A29316   3.078   1.862  24.057 -0.3221  0.2197 -0.0313
24075DPPS   C3A29317   3.419   1.877  23.700 -0.3402 -0.0906 -0.1522
24075DPPS   C4A29318   3.764   1.876  23.287 -0.0723  0.0221 -0.0187
24075DPPS   C1B29319   3.183   2.644  24.342  0.0036  0.0559  0.0506
24075DPPS   C2B29320   3.486   2.654  24.067 -0.0874  0.3284 -0.1876
24075DPPS   C3B29321   3.773   2.675  23.704  0.2012  0.1068  0.1122
24075DPPS   C4B29322   4.126   2.658  23.359  0.0535  0.3427  0.2269
24076DPPS   CNO29323   2.683   1.184  24.942 -0.0403  0.0896  0.0990
24076DPPS   PO429324   2.663   1.467  24.673  0.1895 -0.1446 -0.0745
24076DPPS   GL129325   2.896   1.484  24.347  0.0618 -0.1449 -0.0494
24076DPPS   GL229326   2.694   1.594  24.126  0.2034 -0.2359  0.1616
24076DPPS   C1A29327   3.192   1.387  24.108  0.2137  0.2600  0.1494
24076DPPS   C2A29328   3.492   1.365  23.760  0.2121  0.1582  0.3641
24076DPPS   C3A29329   3.745   1.374  23.331 -0.1617 -0.2832  0.1450
24076DPPS   C4A29330   4.157   1.365  22.988  0.1707  0.0398  0.1658
24076DPPS   C1B29331   2.850   1.585  23.804 -0.0252 -0.0491  0.2985
24076DPPS   C2B29332   3.005   1.632  23.421 -0.2252  0.0006  0.0929
24076DPPS   C3B29333   3.299   1.611  23.123 -0.3039 -0.3190  0.2230
24076DPPS   C4B29334   3.665   1.563  22.800 -0.0734 -0.0664  0.2137
24077DPPS   CNO29335   2.097   0.284  24.168 -0.1001  0.0980  0.1076
24077DPPS   PO429336   2.398   0.355  23.979 -0.0552 -0.1955  0.1779
24077DPPS   GL129337   2.807   0.161  23.826 -0.5490 -0.1844 -0.1071
24077DPPS   GL229338   2.959   0.433  23.971 -0.2660 -0.0509  0.0059
24077DPPS   C1A29339   3.110   0.029  23.590 -0.0454  0.0830  0.3184
24077DPPS   C2A29340   3.412   0.093  23.275 -0.1976  0.2721 -0.0350
24077DPPS   C3A29341   3.771   0.146  22.953 -0.0367 -0.2593  0.0966
24077DPPS   C4A29342   4.024   0.029  22.538  0.1109 -0.0126 -0.2904
24077DPPS   C1B29343   3.315   0.409  23.926 -0.2181  0.2879  0.0490
24077DPPS   C2B29344   3.615   0.383  23.663  0.3928  0.1973  0.0311
24077DPPS   C3B29345   3.964   0.455  23.326  0.0149  0.1578 -0.0485
24077DPPS   C4B29346   4.251   0.366  22.928  0.2173 -0.2451 -0.4089
24078DPPS   CNO29347   4.666   6.270  27.759 -0.1776  0.2336 -0.0214
24078DPPS   PO429348   4.828   6.073  27.458 -0.0459  0.2036 -0.1394
24078DPPS   GL129349   4.882   6.283  27.138  0.0615 -0.2164  0.0326
24078DPPS   GL229350   4.721   6.258  27.002 -0.0672 -0.0809  0.1632
24078DPPS   C1A29351   5.196   6.391  26.994 -0.0347  0.0519  0.3055
24078DPPS   C2A29352   5.558   6.520  26.854 -0.0731 -0.0340  0.1815
24078DPPS   C3A29353   5.873   6.475  26.478 -0.1198 -0.1752 -0.0284
24078DPPS   C4A29354   6.189   6.466  26.128  0.0782  0.2040  0.0679
24078DPPS   C1B29355   5.002   6.121  26.757 -0.2375  0.0273 -0.1541
24078DPPS   C2B29356   5.353   6.186  26.514 -0.1216 -0.2531 -0.1303
24078DPPS   C3B29357   5.616   6.200  26.099 -0.1060 -0.0923 -0.4218
24078DPPS   C4B29358   5.917   6.225  25.778 -0.0163  0.0583 -0.2377
24079DPPS   CNO29359   2.526   3.113  25.145 -0.1089 -0.0441 -0.0088
24079DPPS   PO429360   2.830   3.031  25.415 -0.2564  0.0744  0.2182
24079DPPS   GL129361   3.284   3.085  25.216  0.1283  0.0809 -0.1257
24079DPPS   GL229362   3.273   2.791  25.265  0.4107  0.2893  0.3063
24079DPPS   C1A29363   3.605   3.217  25.096 -0.0151  0.1410  0.1458
24079DPPS   C2A29364   3.897   3.303  24.822 -0.1666 -0.1909  0.4499
24079DPPS   C3A29365   4.169   3.306  24.458 -0.2345 -0.2062  0.2022
24079DPPS   C4A29366   4.498   3.279  24.124  0.2579 -0.0224 -0.0363
24079DPPS   C1B29367   3.443   2.545  25.021  0.1168  0.3080 -0.1442
24079DPPS   C2B29368   3.656   2.563  24.667  0.0441 -0.3849 -0.1952
24079DPPS   C3B29369   3.971   2.426  24.343 -0.1400 -0.2565  0.0428
24079DPPS   C4B29370   4.201   2.473  23.946  0.1303  0.0346  0.0002
24080DPPS   CNO29371   4.175   5.108  26.293 -0.2339 -0.2144  0.0160
24080DPPS   PO429372   4.038   5.475  26.379 -0.0474  0.0619 -0.1693
24080DPPS   GL129373   4.215   5.786  26.102 -0.0689  0.3823  0.0834
24080DPPS   GL229374   4.413   5.591  26.206 -0.0321 -0.1658  0.1762
24080DPPS   C1A29375   4.313   5.786  25.772  0.1442  0.0200 -0.0070
24080DPPS   C2A29376   4.546   5.727  25.473 -0.2809 -0.1722 -0.0667
24080DPPS   C3A29377   4.923   5.773  25.129  0.0504  0.1565  0.0113
24080DPPS   C4A29378   5.234   5.772  24.715  0.2388 -0.0939 -0.2014
24080DPPS   C1B29379   4.701   5.438  25.962 -0.0312 -0.0815 -0.1143
24080DPPS   C2B29380   4.940   5.490  25.681 -0.4222 -0.0424  0.1435
24080DPPS   C3B29381   5.350   5.552  25.363 -0.0387  0.0347  0.1621
24080DPPS   C4B29382   5.642   5.572  24.912 -0.0203  0.0621 -0.1485
24081DPPS   CNO29383   8.844   5.613  29.750 -0.2776 -0.1089 -0.2005
24081DPPS   PO429384   8.761   5.780  29.419  0.1102 -0.1775  0.0836
24081DPPS   GL129385   8.963   5.777  29.040  0.0540 -0.2575  0.0256
24081DPPS   GL229386   8.703   5.678  28.887  0.3234 -0.1901 -0.0359
24081DPPS   C1A29387   9.222   5.973  28.849  0.1844 -0.2656 -0.0039
24081DPPS   C2A29388   9.338   6.266  28.552 -0.3364 -0.0901  0.2297
24081DPPS   C3A29389   9.410   6.625  28.208  0.1983 -0.2078  0.0224
24081DPPS   C4A29390   9.710   6.892  27.964 -0.0664  0.0068 -0.0001
24081DPPS   C1B29391   8.556   6.028  28.911 -0.3866 -0.1076  0.0274
24081DPPS   C2B29392   8.486   6.412  28.945  0.0201  0.1593  0.2464
24081DPPS   C3B29393   8.336   6.862  28.800 -0.0514  0.2678  0.0632
24081DPPS   C4B29394   7.988   7.156  28.641 -0.1833 -0.0985 -0.2848
24082DPPS   CNO29395   5.895   6.005  28.814 -0.0816  0.0314 -0.3003
24082DPPS   PO429396   6.148   5.775  28.683 -0.4174  0.1417  0.0587
24082DPPS   GL129397   6.295   5.822  28.321  0.2378  0.0890 -0.1636
24082DPPS   GL229398   6.317   5.557  28.232  0.0838  0.0889 -0.0253
24082DPPS   C1A29399   6.627   5.892  28.344  0.1015 -0.0231  0.2928
24082DPPS   C2A29400   6.942   5.801  28.097 -0.0015 -0.1934 -0.2424
24082DPPS   C3A29401   7.200   5.680  27.777 -0.0237  0.0243 -0.2417
24082DPPS   C4A29402   7.580   5.664  27.471 -0.3054  0.0081 -0.0589
24082DPPS   C1B29403   6.518   5.549  27.945 -0.6048  0.1148 -0.1051
24082DPPS   C2B29404   6.740   5.441  27.649  0.0190  0.0499  0.1299
24082DPPS   C3B29405   7.069   5.385  27.299 -0.0928 -0.0844 -0.1393
24082DPPS   C4B29406   7.472   5.280  26.929  0.2005  0.4294  0.3085
24083DPPS   CNO29407   4.116   3.409  27.472 -0.0478  0.1629  0.1132
24083DPPS   PO429408   4.239   3.331  27.122 -0.0646 -0.1354 -0.5025
24083DPPS   GL129409   4.598   3.410  26.977  0.4085  0.0036  0.0405
24083DPPS   GL229410   4.581   3.120  26.903  0.3123  0.1039  0.1380
24083DPPS   C1A29411   4.751   3.448  26.663 -0.2910  0.2084  0.1565
24083DPPS   C2A29412   4.893   3.505  26.285  0.2289  0.0897 -0.2348
24083DPPS   C3A29413   5.141   3.506  25.901 -0.1796  0.0376 -0.1072
24083DPPS   C4A29414   5.433   3.577  25.531 -0.3273  0.1682 -0.3238
24083DPPS   C1B29415   4.718   3.006  26.559 -0.0707 -0.0692 -0.0580
24083DPPS   C2B29416   5.035   3.057  26.189  0.1928 -0.0345  0.1069
24083DPPS   C3B29417   5.374   3.012  25.811  0.0127 -0.1077 -0.2994
24083DPPS   C4B29418   5.604   3.084  25.430 -0.0196 -0.2188  0.2170
24084DPPS   CNO29419   4.367   3.809  27.772  0.0671 -0.0282 -0.0320
24084DPPS   PO429420   4.705   3.917  27.670 -0.0344  0.0944  0.1209
24084DPPS   GL129421   4.915   4.151  27.353 -0.1430 -0.3825  0.0678
24084DPPS   GL229422   4.659   4.167  27.212  0.3718 -0.3951 -0.1884
24084DPPS   C1A29423   5.174   4.133  27.059 -0.0135 -0.2304  0.0174
24084DPPS   C2A29424   5.461   4.166  26.758  0.1053 -0.0751 -0.2416
24084DPPS   C3A29425   5.771   4.207  26.405 -0.2628  0.1759  0.1288
24084DPPS   C4A29426   6.198   4.266  26.103  0.0215  0.1755  0.1433
24084DPPS   C1B29427   4.798   4.280  26.874  0.0717 -0.2119  0.0748
24084DPPS   C2B29428   4.994   4.405  26.557 -0.1244 -0.2158  0.1855
24084DPPS   C3B29429   5.315   4.318  26.188 -0.2055  0.2287  0.0360
24084DPPS   C4B29430   5.634   4.299  25.899 -0.0679  0.2839  0.0756
24085DPPS   CNO29431   3.084   5.358  25.881  0.0030  0.2165  0.1883
24085DPPS   PO429432   3.301   5.128  25.657  0.0649 -0.4664 -0.0284
24085DPPS   GL129433   3.501   5.042  25.277  0.1278  0.1598  0.0550
24085DPPS   GL229434   3.779   5.059  25.481  0.3674 -0.0417 -0.0756
24085DPPS   C1A29435   3.632   5.074  25.000 -0.0928 -0.1548 -0.2128
24085DPPS   C2A29436   4.019   5.086  24.802  0.1403 -0.1419  0.0701
24085DPPS   C3A29437   4.404   5.090  24.560  0.1120 -0.0335 -0.2508
24085DPPS   C4A29438   4.710   5.100  24.205 -0.0281 -0.3967  0.1801
24085DPPS   C1B29439   4.058   5.283  25.476  0.1999 -0.1623  0.3991
24085DPPS   C2B29440   4.299   5.335  25.108  0.2630 -0.2600 -0.2701
24085DPPS   C3B29441   4.589   5.448  24.832 -0.1684 -0.1220 -0.0226
24085DPPS   C4B29442   4.921   5.448  24.470 -0.4020  0.0462 -0.0940
24086DPPS   CNO29443   2.689   0.287  25.036  0.0344  0.3230  0.0843
24086DPPS   PO429444   2.878   0.391  24.727 -0.1562 -0.0982 -0.0372
24086DPPS   GL129445   3.131   0.392  24.422  0.2793 -0.0740 -0.0118
24086DPPS   GL229446   3.160   0.588  24.393  0.1152 -0.2017  0.0070
24086DPPS   C1A29447   3.185   0.079  24.142 -0.2099  0.2304 -0.2098
24086DPPS   C2A29448   3.460  -0.152  23.904  0.0655 -0.1782 -0.1000
24086DPPS   C3A29449   3.753  -0.157  23.586  0.1720 -0.1855  0.0273
24086DPPS   C4A29450   4.115  -0.046  23.252  0.0715  0.0843  0.1250
24086DPPS   C1B29451   3.501   0.636  24.278 -0.0866 -0.0701  0.0479
24086DPPS   C2B29452   3.841   0.666  24.040  0.1473 -0.2902 -0.2701
24086DPPS   C3B29453   4.148   0.698  23.745  0.5237 -0.1134  0.0701
24086DPPS   C4B29454   4.399   0.698  23.347  0.0548 -0.0001 -0.1701
24087DPPS   CNO29455   3.789   3.933  26.716  0.3312 -0.3333 -0.0695
24087DPPS   PO429456   3.848   3.841  26.364  0.1088  0.1876  0.0044
24087DPPS   GL129457   4.056   3.951  26.089  0.1350  0.0120 -0.0471
24087DPPS   GL229458   4.014   3.735  25.859 -0.4449  0.3394  0.1828
24087DPPS   C1A29459   4.364   4.127  25.963 -0.4227  0.1856 -0.2327
24087DPPS   C2A29460   4.662   4.183  25.644 -0.0080  0.0122  0.2829
24087DPPS   C3A29461   4.974   4.302  25.299 -0.0782  0.3036  0.1151
24087DPPS   C4A29462   5.218   4.359  24.897  0.1807 -0.1957 -0.0260
24087DPPS   C1B29463   4.349   3.815  25.612 -0.0957  0.1385  0.0204
24087DPPS   C2B29464   4.520   3.903  25.250 -0.0626 -0.1187  0.3863
24087DPPS   C3B29465   4.806   3.974  24.850 -0.1236 -0.0953  0.4767
24087DPPS   C4B29466   5.186   3.984  24.538 -0.4948  0.0762 -0.3854
24088DPPS   CNO29467   2.041   6.070  23.995 -0.2014 -0.3548  0.0368
24088DPPS   PO429468   2.442   5.939  23.937  0.0735  0.1483  0.1897
24088DPPS   GL129469   2.650   5.761  23.598 -0.0962  0.0515  0.0451
24088DPPS   GL229470   2.370   5.850  23.510  0.0271 -0.0955 -0.4795
24088DPPS   C1A29471   2.881   5.779  23.275 -0.1576 -0.4885 -0.3602
24088DPPS   C2A29472   3.165   5.838  22.983 -0.2632 -0.0088  0.2326
24088DPPS   C3A29473   3.515   5.842  22.706 -0.0452 -0.1027  0.0665
24088DPPS   C4A29474   3.779   5.890  22.310 -0.2093  0.0170 -0.0536
24088DPPS   C1B29475   2.464   5.950  23.197  0.0742  0.0748 -0.4263
24088DPPS   C2B29476   2.689   6.008  22.845  0.0964  0.0200 -0.5177
24088DPPS   C3B29477   3.014   6.020  22.506  0.2551  0.0421 -0.0556
24088DPPS   C4B29478   3.341   6.058  22.154 -0.1653 -0.4083 -0.1505
24089DPPS   CNO29479   3.384   6.089  26.404 -0.0225  0.0597  0.2214
24089DPPS   PO429480   3.249   5.937  26.065  0.1024 -0.0641 -0.1218
24089DPPS   GL129481   3.539   5.991  25.739 -0.1281  0.3350  0.4314
24089DPPS   GL229482   3.384   5.938  25.522  0.0383  0.2397 -0.1433
24089DPPS   C1A29483   3.893   6.057  25.594 -0.0212  0.0654  0.6305
24089DPPS   C2A29484   4.057   6.235  25.286  0.2011  0.3048  0.2522
24089DPPS   C3A29485   4.375   6.358  24.937  0.1221 -0.1015  0.2715
24089DPPS   C4A29486   4.725   6.480  24.540  0.1562  0.0705 -0.0752
24089DPPS   C1B29487   3.620   5.914  25.176  0.2176  0.4599 -0.1644
24089DPPS   C2B29488   3.872   6.071  24.836  0.2274  0.1008  0.1655
24089DPPS   C3B29489   4.243   6.022  24.475 -0.2719 -0.2095 -0.1928
24089DPPS   C4B29490   4.551   6.116  24.169 -0.1885  0.1169 -0.0515
24090DPPS   CNO29491   5.058   5.937  27.872  0.1359 -0.2524  0.1433
24090DPPS   PO429492   5.278   5.788  28.125  0.1273  0.0925 -0.3122
24090DPPS   GL129493   5.659   5.739  27.959  0.0900  0.2766  0.2270
24090DPPS   GL229494   5.542   5.617  27.727  0.0798  0.1329 -0.0077
24090DPPS   C1A29495   5.997   5.800  27.781  0.1496 -0.0860  0.1054
24090DPPS   C2A29496   6.219   5.582  27.507 -0.0178  0.0209  0.1081
24090DPPS   C3A29497   6.522   5.528  27.149  0.2217 -0.2184 -0.0574
24090DPPS   C4A29498   6.943   5.533  26.831  0.1768  0.2158  0.0498
24090DPPS   C1B29499   5.733   5.637  27.436  0.1554  0.0542  0.1266
24090DPPS   C2B29500   5.989   5.745  27.105 -0.1893  0.3426 -0.1786
24090DPPS   C3B29501   6.300   5.773  26.745  0.0602  0.3400 -0.1509
24090DPPS   C4B29502   6.667   5.734  26.453 -0.0515  0.2264 -0.3314
24091DPPS   CNO29503   5.108   4.806  27.783  0.0344  0.1536 -0.0306
24091DPPS   PO429504   4.968   5.128  27.694  0.2057 -0.4490  0.2303
24091DPPS   GL129505   5.277   5.326  27.415 -0.2005 -0.1098 -0.0444
24091DPPS   GL229506   5.495   5.222  27.546 -0.1074 -0.0911  0.4792
24091DPPS   C1A29507   5.471   5.347  27.068  0.0861  0.0830 -0.2759
24091DPPS   C2A29508   5.775   5.452  26.788  0.0447 -0.1217 -0.2810
24091DPPS   C3A29509   6.110   5.387  26.413 -0.3103  0.2002  0.0820
24091DPPS   C4A29510   6.406   5.345  26.077 -0.0267 -0.0436 -0.2909
24091DPPS   C1B29511   5.858   5.208  27.341  0.1377 -0.1765  0.2628
24091DPPS   C2B29512   6.136   5.245  27.040 -0.0373  0.0851 -0.0070
24091DPPS   C3B29513   6.485   5.193  26.709  0.0993 -0.1158 -0.0820
24091DPPS   C4B29514   6.882   5.208  26.396 -0.1041  0.2783  0.0407
24092DPPS   CNO29515   2.328   1.238  23.993 -0.2092 -0.0873 -0.4184
24092DPPS   PO429516   2.659   1.133  24.183  0.1395  0.2647 -0.0357
24092DPPS   GL129517   2.938   1.038  23.936 -0.1115 -0.0785  0.0138
24092DPPS   GL229518   3.072   0.842  24.040 -0.3419 -0.2265  0.1305
24092DPPS   C1A29519   2.987   1.119  23.586  0.0471  0.1317  0.1003
24092DPPS   C2A29520   3.225   1.087  23.280 -0.2053 -0.1022  0.0934
24092DPPS   C3A29521   3.541   1.093  22.976 -0.4083  0.1036 -0.0996
24092DPPS   C4A29522   3.807   1.081  22.578 -0.2229 -0.0878  0.0345
24092DPPS   C1B29523   3.379   0.873  23.817  0.0352  0.1284 -0.0346
24092DPPS   C2B29524   3.654   0.893  23.547  0.2802 -0.1025  0.0779
24092DPPS   C3B29525   3.978   0.923  23.188 -0.0243  0.2341 -0.0964
24092DPPS   C4B29526   4.305   0.874  22.817 -0.2240 -0.1603  0.3004
24093DPPS   CNO29527   5.696   3.550  29.087  0.1795  0.0693 -0.2777
24093DPPS   PO429528   6.038   3.711  29.127  0.0544  0.0198  0.1518
24093DPPS   GL129529   6.222   3.564  28.775 -0.1553 -0.1398  0.2549
24093DPPS   GL229530   6.435   3.797  28.816 -0.1541 -0.3721  0.0856
24093DPPS   C1A29531   6.279   3.600  28.374  0.0082  0.0972 -0.2185
24093DPPS   C2A29532   6.385   3.651  27.996 -0.3118  0.0130  0.2913
24093DPPS   C3A29533   6.660   3.622  27.583  0.3376 -0.2156 -0.2372
24093DPPS   C4A29534   6.906   3.588  27.172 -0.1073  0.0627  0.3768
24093DPPS   C1B29535   6.530   3.983  28.505  0.4059 -0.0625  0.1005
24093DPPS   C2B29536   6.742   3.956  28.168 -0.1251  0.2089  0.0797
24093DPPS   C3B29537   6.970   3.968  27.804 -0.2809 -0.0896  0.1724
24093DPPS   C4B29538   7.188   3.928  27.417  0.1823  0.2769 -0.1048
24094DPPS   CNO29539   2.994   0.484  26.040  0.1139  0.0208  0.2162
24094DPPS   PO429540   3.297   0.633  25.888  0.2828 -0.1971 -0.0933
24094DPPS   GL129541   3.651   0.434  25.818  0.0126 -0.3564  0.0210
24094DPPS   GL229542   3.542   0.156  25.887 -0.0866 -0.1259  0.1107
24094DPPS   C1A29543   3.923   0.445  25.649 -0.4087 -0.1721  0.0400
24094DPPS   C2A29544   4.286   0.571  25.445  0.0223  0.3397  0.4234
24094DPPS   C3A29545   4.661   0.605  25.117 -0.0196 -0.2221  0.2000
24094DPPS   C4A29546   4.987   0.670  24.790 -0.1306  0.1372  0.0351
24094DPPS   C1B29547   3.883  -0.013  25.778  0.2855  0.0041 -0.0601
24094DPPS   C2B29548   4.256   0.080  25.589 -0.2771  0.1110  0.1326
24094DPPS   C3B29549   4.561   0.114  25.284  0.0306  0.0440  0.0229
24094DPPS   C4B29550   4.863   0.228  24.853  0.0979  0.3894  0.1234
24095DPPS   CNO29551   2.646   3.590  25.102  0.1188 -0.0184  0.2879
24095DPPS   PO429552   2.898   3.822  25.023 -0.0002 -0.1980  0.0020
24095DPPS   GL129553   3.217   3.670  24.908  0.2458 -0.3411 -0.4737
24095DPPS   GL229554   3.386   3.586  25.188  0.3367 -0.1944 -0.0230
24095DPPS   C1A29555   3.482   3.534  24.697 -0.5301 -0.1984  0.0649
24095DPPS   C2A29556   3.709   3.506  24.393  0.0657 -0.1950  0.1220
24095DPPS   C3A29557   3.985   3.455  24.016  0.2126  0.0232  0.0442
24095DPPS   C4A29558   4.325   3.450  23.656  0.4074  0.0146  0.3156
24095DPPS   C1B29559   3.674   3.720  25.046  0.1004 -0.0169 -0.1517
24095DPPS   C2B29560   3.885   3.815  24.692  0.0243 -0.0262  0.1549
24095DPPS   C3B29561   4.113   3.876  24.329  0.0177 -0.2159  0.0036
24095DPPS   C4B29562   4.426   3.796  23.942  0.1303  0.2101  0.4767
24096DPPS   CNO29563   6.010   2.751  29.113  0.0069 -0.1033 -0.1263
24096DPPS   PO429564   6.029   2.766  28.786 -0.0831 -0.1014  0.0756
24096DPPS   GL129565   6.273   3.183  28.587  0.1447  0.2576 -0.4208
24096DPPS   GL229566   6.448   2.934  28.662  0.1768 -0.2750  0.3046
24096DPPS   C1A29567   6.274   3.191  28.214 -0.1844  0.2778 -0.2997
24096DPPS   C2A29568   6.515   3.182  27.880  0.0906 -0.0857  0.1990
24096DPPS   C3A29569   6.807   3.077  27.537 -0.1479  0.1818 -0.2997
24096DPPS   C4A29570   7.090   3.085  27.178  0.0159  0.1415  0.2917
24096DPPS   C1B29571   6.639   2.970  28.345  0.0363 -0.0632  0.0446
24096DPPS   C2B29572   6.943   2.955  28.021 -0.1129 -0.2657  0.0077
24096DPPS   C3B29573   7.233   2.978  27.641  0.1869  0.1612  0.0544
24096DPPS   C4B29574   7.590   2.966  27.268  0.0325 -0.0243 -0.1020
24097DPPS   CNO29575   6.550   0.566  29.474 -0.1573  0.2951 -0.0411
24097DPPS   PO429576   6.559   0.243  29.231 -0.0275 -0.0638 -0.0249
24097DPPS   GL129577   6.825   0.145  28.912 -0.2514 -0.4491 -0.3025
24097DPPS   GL229578   6.559   0.074  28.797  0.0411 -0.0369  0.1274
24097DPPS   C1A29579   7.075   0.191  28.659 -0.1382  0.0048  0.2515
24097DPPS   C2A29580   7.204  -0.017  28.345  0.0408  0.1124 -0.2310
24097DPPS   C3A29581   7.433  -0.133  27.992 -0.1541 -0.0069 -0.1154
24097DPPS   C4A29582   7.835  -0.200  27.713 -0.1261  0.1562 -0.1635
24097DPPS   C1B29583   6.732  -0.028  28.472  0.1107 -0.0216  0.0220
24097DPPS   C2B29584   6.678  -0.254  28.127  0.1219  0.0119  0.0488
24097DPPS   C3B29585   7.043  -0.410  27.872 -0.0686 -0.0361 -0.0099
24097DPPS   C4B29586   7.420  -0.376  27.537  0.1157  0.1427 -0.1127
24098DPPS   CNO29587   2.567   2.283  25.101 -0.2346 -0.0208  0.0564
24098DPPS   PO429588   2.590   2.630  24.951 -0.1430  0.4671  0.2093
24098DPPS   GL129589   2.975   2.699  24.961 -0.5866 -0.1512 -0.0246
24098DPPS   GL229590   3.037   2.456  24.958  0.0476  0.1936 -0.0988
24098DPPS   C1A29591   3.268   2.893  24.766 -0.0237 -0.1748  0.1000
24098DPPS   C2A29592   3.606   3.016  24.497  0.1952 -0.1815 -0.0103
24098DPPS   C3A29593   3.941   2.958  24.176  0.2385  0.1617  0.0066
24098DPPS   C4A29594   4.247   2.956  23.790  0.0637 -0.2598 -0.3773
24098DPPS   C1B29595   3.248   2.380  24.656 -0.1090 -0.1827 -0.3377
24098DPPS   C2B29596   3.429   2.192  24.293 -0.2698  0.0325  0.0700
24098DPPS   C3B29597   3.761   2.142  23.960 -0.2840  0.3167  0.1962
24098DPPS   C4B29598   4.014   2.201  23.563 -0.1877  0.1587  0.2209
24099DPPC   NC329599   6.455   1.409  22.005  0.0182 -0.1926 -0.0476
24099DPPC   PO429600   6.080   1.393  21.898  0.1879  0.1607  0.1157
24099DPPC   GL129601   5.851   1.567  22.220  0.0150 -0.1625  0.0765
24099DPPC   GL229602   6.095   1.511  22.358 -0.0371  0.3972 -0.1532
24099DPPC   C1A29603   5.577   1.495  22.445 -0.3732 -0.1041  0.4642
24099DPPC   C2A29604   5.395   1.433  22.795 -0.0141 -0.2167 -0.1660
24099DPPC   C3A29605   5.051   1.494  23.137 -0.0162 -0.2738  0.1411
24099DPPC   C4A29606   4.716   1.489  23.494 -0.3199  0.0358 -0.2875
24099DPPC   C1B29607   5.974   1.302  22.666  0.1233 -0.4427 -0.0049
24099DPPC   C2B29608   5.790   1.339  22.992  0.0847  0.1628  0.0330
24099DPPC   C3B29609   5.485   1.355  23.311 -0.0570 -0.1555 -0.3932
24099DPPC   C4B29610   5.193   1.398  23.665 -0.0767  0.1140 -0.0204
24100DPPC   NC329611   6.560   0.698  22.471 -0.0472  0.0795  0.1142
24100DPPC   PO429612   6.742   0.761  22.831 -0.1752 -0.2443  0.0413
24100DPPC   GL129613   6.430   0.578  22.998 -0.1778  0.0274  0.0516
24100DPPC   GL229614   6.325   0.434  22.768  0.2454 -0.3836 -0.2821
24100DPPC   C1A29615   6.250   0.726  23.315 -0.0988  0.3934 -0.3527
24100DPPC   C2A29616   6.039   0.708  23.648  0.1943  0.0028  0.1529
24100DPPC   C3A29617   5.660   0.705  24.006 -0.1804 -0.0361 -0.1600
24100DPPC   C4A29618   5.308   0.672  24.302 -0.2924  0.0254 -0.1382
24100DPPC   C1B29619   5.997   0.437  22.957 -0.0380  0.1794 -0.1769
24100DPPC   C2B29620   5.745   0.341  23.275 -0.0529  0.1666  0.0384
24100DPPC   C3B29621   5.426   0.355  23.595  0.1673  0.2419 -0.1902
24100DPPC   C4B29622   5.061   0.369  23.970 -0.0622 -0.1773  0.1058
24101DPPC   NC329623   7.277   3.788  23.613  0.2741 -0.0406 -0.0597
24101DPPC   PO429624   7.512   3.594  23.851  0.2068 -0.0547 -0.2744
24101DPPC   GL129625   7.272   3.619  24.188  0.0079 -0.0130 -0.0155
24101DPPC   GL229626   7.036   3.617  23.994  0.0962  0.1742 -0.1996
24101DPPC   C1A29627   7.052   3.358  24.370 -0.0761  0.0084  0.2829
24101DPPC   C2A29628   6.746   3.393  24.630 -0.3160  0.3330 -0.0964
24101DPPC   C3A29629   6.417   3.391  25.027  0.1400  0.0919  0.2872
24101DPPC   C4A29630   6.068   3.338  25.388 -0.3735  0.0039  0.1892
24101DPPC   C1B29631   6.690   3.562  24.160  0.1557 -0.1649 -0.0147
24101DPPC   C2B29632   6.392   3.609  24.426  0.4054 -0.2263  0.0716
24101DPPC   C3B29633   6.053   3.578  24.766  0.0742  0.0703 -0.3502
24101DPPC   C4B29634   5.707   3.489  25.115 -0.1460  0.0272  0.0533
24102DPPC   NC329635   8.646   3.983  24.813 -0.3007 -0.0405  0.1590
24102DPPC   PO429636   8.850   4.090  25.139  0.0715  0.3352 -0.0337
24102DPPC   GL129637   8.670   4.054  25.464 -0.1674  0.2747 -0.3200
24102DPPC   GL229638   8.728   3.817  25.666  0.0762 -0.1173 -0.0872
24102DPPC   C1A29639   8.564   4.315  25.720 -0.3240 -0.0375  0.0831
24102DPPC   C2A29640   8.328   4.303  26.041  0.1930 -0.0187  0.0308
24102DPPC   C3A29641   8.030   4.354  26.437 -0.1310  0.1415  0.0673
24102DPPC   C4A29642   7.708   4.337  26.777  0.3040  0.0606 -0.0376
24102DPPC   C1B29643   8.466   3.842  25.970  0.2684 -0.0273 -0.1357
24102DPPC   C2B29644   8.171   3.876  26.248  0.0827 -0.1244 -0.0068
24102DPPC   C3B29645   7.880   3.862  26.623 -0.0518  0.2737 -0.0023
24102DPPC   C4B29646   7.483   3.959  26.966  0.0788  0.0326  0.5878
24103DPPC   NC329647   9.356   0.887  24.634  0.0477 -0.0074  0.2482
24103DPPC   PO429648   9.382   0.908  25.058 -0.2969 -0.0212 -0.0038
24103DPPC   GL129649   9.112   0.901  25.335  0.3044 -0.0663  0.4083
24103DPPC   GL229650   8.880   1.041  25.215  0.1921  0.2810 -0.1003
24103DPPC   C1A29651   9.021   0.860  25.719 -0.4115 -0.1559  0.0305
24103DPPC   C2A29652   8.839   0.901  26.080 -0.2773  0.1784  0.1391
24103DPPC   C3A29653   8.635   0.926  26.475 -0.0650 -0.1785 -0.1449
24103DPPC   C4A29654   8.492   0.978  26.935 -0.1050  0.1486  0.0930
24103DPPC   C1B29655   8.632   1.042  25.506  0.2636  0.0811 -0.0089
24103DPPC   C2B29656   8.395   0.993  25.841  0.1256 -0.1776  0.2661
24103DPPC   C3B29657   8.160   1.036  26.267  0.1004 -0.2165 -0.1866
24103DPPC   C4B29658   7.950   1.080  26.715  0.0846 -0.1380 -0.1479
24104DPPC   NC329659   8.576   1.357  24.171 -0.1030 -0.0994 -0.1042
24104DPPC   PO429660   8.743   1.391  24.508 -0.2385 -0.0076 -0.0983
24104DPPC   GL129661   8.582   1.250  24.843 -0.1646 -0.0986  0.0367
24104DPPC   GL229662   8.675   1.509  25.012 -0.0479 -0.0872 -0.0692
24104DPPC   C1A29663   8.280   1.138  25.043  0.1917 -0.0593 -0.1597
24104DPPC   C2A29664   8.171   1.193  25.380 -0.1707 -0.0422  0.1199
24104DPPC   C3A29665   7.888   1.218  25.785 -0.1773  0.1932 -0.4546
24104DPPC   C4A29666   7.719   1.246  26.240 -0.0361 -0.0407  0.0471
24104DPPC   C1B29667   8.604   1.468  25.384 -0.2491  0.0309 -0.0332
24104DPPC   C2B29668   8.311   1.510  25.674  0.1338  0.2068 -0.0727
24104DPPC   C3B29669   8.083   1.610  26.080 -0.0244  0.0775 -0.0073
24104DPPC   C4B29670   7.860   1.628  26.537  0.0328  0.3337  0.3307
24105DPPC   NC329671   8.639   0.391  24.522 -0.0273 -0.1507  0.2183
24105DPPC   PO429672   8.527   0.037  24.581 -0.1639  0.1365 -0.1265
24105DPPC   GL129673   8.386  -0.253  24.900  0.0143  0.2344  0.2690
24105DPPC   GL229674   8.169  -0.130  24.797 -0.1255 -0.0596 -0.1817
24105DPPC   C1A29675   8.466  -0.249  25.254 -0.2250  0.3629  0.0011
24105DPPC   C2A29676   8.377  -0.215  25.596 -0.1584  0.5500 -0.1873
24105DPPC   C3A29677   8.028  -0.190  25.973 -0.3589  0.0073  0.0666
24105DPPC   C4A29678   7.761  -0.241  26.361 -0.1956  0.3249  0.1658
24105DPPC   C1B29679   8.060  -0.010  25.147  0.0230  0.1773 -0.0485
24105DPPC   C2B29680   7.856  -0.077  25.466  0.0155  0.0009 -0.3289
24105DPPC   C3B29681   7.525  -0.117  25.907  0.2035  0.0943  0.1822
24105DPPC   C4B29682   7.308  -0.113  26.257 -0.0407 -0.2976 -0.1339
24106DPPC   NC329683   5.626   3.580  20.251 -0.2420  0.0529  0.1957
24106DPPC   PO429684   5.558   3.554  20.616  0.0343  0.0846  0.1888
24106DPPC   GL129685   5.186   3.519  20.659  0.0969  0.4830 -0.0376
24106DPPC   GL229686   5.079   3.629  20.502  0.2541 -0.3311  0.2542
24106DPPC   C1A29687   5.052   3.484  21.011 -0.0405 -0.0536  0.0852
24106DPPC   C2A29688   4.755   3.606  21.290  0.0558  0.1672 -0.0240
24106DPPC   C3A29689   4.365   3.548  21.585  0.2274 -0.2942 -0.0788
24106DPPC   C4A29690   3.959   3.552  21.821 -0.0879 -0.0464  0.0314
24106DPPC   C1B29691   4.743   3.708  20.616 -0.1849 -0.2104 -0.1471
24106DPPC   C2B29692   4.445   3.804  20.866 -0.0255  0.0978  0.0895
24106DPPC   C3B29693   4.085   3.811  21.220 -0.0978  0.0239  0.0801
24106DPPC   C4B29694   3.722   3.800  21.447 -0.0182 -0.0179 -0.0230
24107DPPC   NC329695   6.463   5.001  22.176  0.2109  0.0527 -0.2369
24107DPPC   PO429696   6.309   5.360  22.214 -0.0079  0.3120 -0.1666
24107DPPC   GL129697   5.888   5.365  22.306 -0.0249  0.0301 -0.0413
24107DPPC   GL229698   6.001   5.088  22.297  0.1046  0.1590 -0.3087
24107DPPC   C1A29699   5.615   5.427  22.487 -0.2023  0.1650 -0.1846
24107DPPC   C2A29700   5.333   5.421  22.774 -0.2418 -0.0899  0.1530
24107DPPC   C3A29701   5.016   5.413  23.111 -0.3093  0.1298  0.0323
24107DPPC   C4A29702   4.690   5.415  23.474 -0.0611  0.2246 -0.3353
24107DPPC   C1B29703   5.808   5.067  22.595 -0.1109  0.0637  0.2506
24107DPPC   C2B29704   5.672   5.154  22.987  0.1671 -0.3455  0.2006
24107DPPC   C3B29705   5.411   5.211  23.362  0.2001 -0.0774  0.1609
24107DPPC   C4B29706   5.059   5.150  23.736 -0.1304  0.3131 -0.1161
24108DPPC   NC329707   6.240   2.703  22.105  0.0717 -0.2530 -0.2925
24108DPPC   PO429708   6.274   2.790  22.519 -0.1075  0.3508  0.0389
24108DPPC   GL129709   6.486   2.706  22.938  0.0134  0.3963 -0.5053
24108DPPC   GL229710   6.278   2.461  22.880  0.1599  0.3355  0.1648
24108DPPC   C1A29711   6.416   2.830  23.278  0.2571 -0.2289 -0.2911
24108DPPC   C2A29712   6.113   2.952  23.541 -0.0523 -0.3154  0.2701
24108DPPC   C3A29713   5.762   2.969  23.897 -0.1977 -0.0852 -0.2284
24108DPPC   C4A29714   5.432   2.870  24.227  0.1038 -0.0615 -0.1534
24108DPPC   C1B29715   6.002   2.498  23.108 -0.0203 -0.3231  0.0887
24108DPPC   C2B29716   5.747   2.667  23.405  0.1546 -0.1000  0.3866
24108DPPC   C3B29717   5.424   2.648  23.733 -0.0524 -0.1049  0.0532
24108DPPC   C4B29718   5.096   2.577  24.091 -0.1989  0.3409 -0.1596
24109DPPC   NC329719   5.622   5.095  20.975 -0.0286 -0.1626  0.0882
24109DPPC   PO429720   5.536   4.735  21.037  0.1846 -0.0431  0.1466
24109DPPC   GL129721   5.503   4.530  21.360  0.0807  0.1024  0.0330
24109DPPC   GL229722   5.621   4.743  21.517 -0.1580 -0.0783 -0.0258
24109DPPC   C1A29723   5.289   4.426  21.650  0.2584  0.0767 -0.3398
24109DPPC   C2A29724   5.034   4.191  21.895  0.0720  0.1224  0.1599
24109DPPC   C3A29725   4.715   4.116  22.247 -0.1037  0.1789 -0.0478
24109DPPC   C4A29726   4.386   4.264  22.597  0.0601  0.3972 -0.0388
24109DPPC   C1B29727   5.464   4.845  21.834  0.3081 -0.0593  0.0071
24109DPPC   C2B29728   5.278   5.075  22.118 -0.2011  0.1998 -0.1212
24109DPPC   C3B29729   4.980   5.007  22.492  0.0688 -0.1096  0.3739
24109DPPC   C4B29730   4.627   4.951  22.836  0.0856  0.0002 -0.0395
24110DPPC   NC329731   7.095   5.215  23.227  0.1074  0.2518  0.0419
24110DPPC   PO429732   6.856   5.055  22.982 -0.1505  0.0307  0.0101
24110DPPC   GL129733   6.618   5.052  23.327 -0.1799 -0.1087  0.1633
24110DPPC   GL229734   6.483   4.772  23.323 -0.1310 -0.3708 -0.0486
24110DPPC   C1A29735   6.345   5.159  23.592  0.1302 -0.1943  0.2689
24110DPPC   C2A29736   6.062   5.327  23.846 -0.1177 -0.1668 -0.1666
24110DPPC   C3A29737   5.721   5.350  24.211 -0.2808  0.1730 -0.1651
24110DPPC   C4A29738   5.418   5.282  24.549  0.1487  0.0403 -0.1232
24110DPPC   C1B29739   6.341   4.757  23.651  0.0673 -0.1683 -0.4129
24110DPPC   C2B29740   6.055   4.820  23.915  0.0100 -0.0093  0.0484
24110DPPC   C3B29741   5.760   4.794  24.324  0.0408 -0.0554 -0.1275
24110DPPC   C4B29742   5.458   4.790  24.736  0.0881  0.0448  0.0046
24111DPPC   NC329743   6.787   0.249  22.638  0.1373 -0.0309  0.0044
24111DPPC   PO429744   6.754   0.220  23.018 -0.0430  0.1901  0.0640
24111DPPC   GL129745   6.443   0.094  23.270  0.5412  0.1520  0.1451
24111DPPC   GL229746   6.581   0.341  23.450 -0.6037 -0.0163  0.3975
24111DPPC   C1A29747   6.130   0.152  23.477 -0.5725  0.1683 -0.1049
24111DPPC   C2A29748   5.870   0.209  23.795  0.1894 -0.1475 -0.0613
24111DPPC   C3A29749   5.513   0.214  24.077 -0.1417 -0.0154  0.1577
24111DPPC   C4A29750   5.236   0.212  24.479  0.4171 -0.2639 -0.2462
24111DPPC   C1B29751   6.485   0.477  23.734  0.4517 -0.0759 -0.2646
24111DPPC   C2B29752   6.199   0.475  24.085 -0.0447  0.0853 -0.0946
24111DPPC   C3B29753   5.786   0.493  24.436 -0.0444  0.2694  0.3570
24111DPPC   C4B29754   5.445   0.500  24.861 -0.4301  0.1665  0.0759
24112DPPC   NC329755   5.369   0.243  20.279  0.0709  0.0302 -0.1369
24112DPPC   PO429756   5.177   0.555  20.117  0.0545  0.1254  0.1520
24112DPPC   GL129757   5.040   0.644  20.460  0.2011  0.1810 -0.0447
24112DPPC   GL229758   4.792   0.485  20.382 -0.0079  0.0591 -0.0938
24112DPPC   C1A29759   5.028   0.807  20.792 -0.1589 -0.2279  0.0048
24112DPPC   C2A29760   4.717   0.766  21.119  0.3419  0.1828 -0.0865
24112DPPC   C3A29761   4.355   0.766  21.418 -0.1172  0.1219  0.1705
24112DPPC   C4A29762   4.033   0.747  21.845 -0.2973 -0.0276 -0.2365
24112DPPC   C1B29763   4.609   0.504  20.694  0.0708  0.0269  0.0598
24112DPPC   C2B29764   4.328   0.472  21.016 -0.0481  0.0161 -0.2025
24112DPPC   C3B29765   3.952   0.492  21.372  0.1500  0.2970 -0.1395
24112DPPC   C4B29766   3.557   0.467  21.695  0.0448  0.3186  0.1447
24113DPPC   NC329767   5.983   4.782  21.838  0.1985 -0.0166 -0.0297
24113DPPC   PO429768   6.084   5.162  21.803  0.2221  0.1053 -0.0771
24113DPPC   GL129769   5.808   5.544  21.895  0.1622 -0.2776 -0.3545
24113DPPC   GL229770   5.595   5.356  21.833  0.3202 -0.1541  0.0551
24113DPPC   C1A29771   5.634   5.682  22.186  0.0117 -0.0289  0.0632
24113DPPC   C2A29772   5.429   5.833  22.508  0.0862 -0.1066 -0.1835
24113DPPC   C3A29773   5.109   5.833  22.879 -0.3504 -0.0870 -0.2086
24113DPPC   C4A29774   4.779   5.865  23.271  0.0303  0.0042 -0.1894
24113DPPC   C1B29775   5.336   5.546  21.964  0.0423  0.3705 -0.0451
24113DPPC   C2B29776   5.097   5.495  22.310  0.0152 -0.0443  0.1936
24113DPPC   C3B29777   4.704   5.480  22.698 -0.1988 -0.0618  0.4343
24113DPPC   C4B29778   4.388   5.577  23.094  0.0742  0.1651 -0.1304
24114DPPC   NC329779   5.930   2.473  21.311 -0.4015  0.0041 -0.0025
24114DPPC   PO429780   5.837   2.107  21.433 -0.2902  0.1741 -0.0353
24114DPPC   GL129781   5.431   2.000  21.603  0.3364  0.2846 -0.1906
24114DPPC   GL229782   5.474   2.165  21.811 -0.0537 -0.2079  0.0425
24114DPPC   C1A29783   5.143   1.882  21.779  0.1913 -0.3657 -0.2268
24114DPPC   C2A29784   4.828   1.821  22.015 -0.1544  0.3084  0.0097
24114DPPC   C3A29785   4.539   1.899  22.402  0.2266  0.1396 -0.3297
24114DPPC   C4A29786   4.201   1.845  22.768 -0.0471  0.0590 -0.4018
24114DPPC   C1B29787   5.282   2.147  22.134  0.0099 -0.2004  0.2070
24114DPPC   C2B29788   5.018   2.082  22.400 -0.0326 -0.2175  0.0672
24114DPPC   C3B29789   4.736   2.046  22.798 -0.0393 -0.0566 -0.0274
24114DPPC   C4B29790   4.412   2.090  23.189 -0.2284  0.1846 -0.1035
24115DPPC   NC329791   8.627   2.620  24.539 -0.0587 -0.3960 -0.3418
24115DPPC   PO429792   8.487   2.803  24.834 -0.0311 -0.3350 -0.1724
24115DPPC   GL129793   8.163   2.897  24.975  0.4747  0.0843  0.2766
24115DPPC   GL229794   7.977   3.064  24.889  0.2942 -0.3449  0.0232
24115DPPC   C1A29795   7.957   2.811  25.269 -0.1225 -0.1682  0.1674
24115DPPC   C2A29796   7.750   2.778  25.634  0.2025 -0.1936  0.2667
24115DPPC   C3A29797   7.459   2.796  25.985 -0.3358 -0.0251  0.0048
24115DPPC   C4A29798   7.244   2.786  26.408  0.1740  0.3033 -0.0769
24115DPPC   C1B29799   7.658   3.013  25.060 -0.2553  0.0978  0.0031
24115DPPC   C2B29800   7.387   2.990  25.348 -0.0114 -0.1946  0.0081
24115DPPC   C3B29801   7.057   2.980  25.721 -0.1520  0.2335  0.1090
24115DPPC   C4B29802   6.813   3.027  26.128 -0.1327 -0.1615 -0.1323
24116DPPC   NC329803   7.031   1.172  22.776 -0.0298  0.1636 -0.1127
24116DPPC   PO429804   6.934   1.569  22.751  0.4357 -0.0548  0.1297
24116DPPC   GL129805   6.530   1.628  22.909  0.0638 -0.0267 -0.0475
24116DPPC   GL229806   6.645   1.594  23.187 -0.1571 -0.1547 -0.4795
24116DPPC   C1A29807   6.191   1.635  23.010  0.0477  0.4168  0.1113
24116DPPC   C2A29808   5.992   1.628  23.401  0.2985 -0.1141  0.0668
24116DPPC   C3A29809   5.708   1.659  23.677 -0.1487 -0.0323 -0.3865
24116DPPC   C4A29810   5.410   1.655  24.047 -0.2677  0.1748 -0.0901
24116DPPC   C1B29811   6.459   1.560  23.459  0.1202 -0.1854  0.1280
24116DPPC   C2B29812   6.223   1.490  23.825  0.0249  0.0804 -0.1528
24116DPPC   C3B29813   5.929   1.487  24.221  0.2610 -0.2712 -0.0533
24116DPPC   C4B29814   5.565   1.503  24.571  0.0706  0.0112 -0.2387
24117DPPC   NC329815   5.721   5.960  21.320  0.3206 -0.1320 -0.0059
24117DPPC   PO429816   5.969   6.277  21.274 -0.1484  0.2327 -0.0741
24117DPPC   GL129817   5.709   6.463  21.567 -0.3156 -0.1233 -0.0432
24117DPPC   GL229818   5.897   6.513  21.774 -0.1072  0.0228 -0.1675
24117DPPC   C1A29819   5.401   6.444  21.754  0.0120  0.2750 -0.2125
24117DPPC   C2A29820   5.150   6.442  22.093  0.0310 -0.1539  0.2809
24117DPPC   C3A29821   4.799   6.426  22.393  0.2020 -0.1039  0.2366
24117DPPC   C4A29822   4.471   6.506  22.762 -0.1325  0.1587  0.1579
24117DPPC   C1B29823   5.641   6.596  22.067  0.1404  0.4679  0.1196
24117DPPC   C2B29824   5.417   6.738  22.373  0.2854 -0.0383 -0.0485
24117DPPC   C3B29825   5.086   6.754  22.719  0.0884 -0.3057 -0.0196
24117DPPC   C4B29826   4.820   6.787  23.119 -0.2012 -0.1738  0.0501
24118DPPC   NC329827   7.181   5.718  23.229  0.2195 -0.0878 -0.0136
24118DPPC   PO429828   7.364   5.551  23.522 -0.2464  0.1746  0.2859
24118DPPC   GL129829   7.167   5.547  23.828  0.2434 -0.3652  0.0252
24118DPPC   GL229830   7.282   5.661  24.033  0.0538  0.0720 -0.3892
24118DPPC   C1A29831   7.005   5.325  24.108 -0.0678 -0.1716 -0.0073
24118DPPC   C2A29832   6.717   5.302  24.377 -0.1162  0.1522 -0.2436
24118DPPC   C3A29833   6.382   5.390  24.747 -0.2282 -0.2379 -0.1021
24118DPPC   C4A29834   6.066   5.413  25.113 -0.2902 -0.1597  0.0208
24118DPPC   C1B29835   7.126   5.641  24.336 -0.1439  0.2178 -0.2302
24118DPPC   C2B29836   6.956   5.619  24.727  0.2660  0.1079 -0.2758
24118DPPC   C3B29837   6.635   5.757  25.088 -0.0362 -0.1431  0.0905
24118DPPC   C4B29838   6.330   5.728  25.471  0.1789 -0.2154 -0.0258
24119DPPC   NC329839   7.175   4.737  22.758  0.1419 -0.0572  0.2608
24119DPPC   PO429840   7.192   4.631  23.134 -0.3606  0.2459 -0.2337
24119DPPC   GL129841   6.958   4.818  23.440 -0.1198  0.3111  0.1792
24119DPPC   GL229842   6.861   4.570  23.495 -0.0886  0.0613  0.1388
24119DPPC   C1A29843   6.737   4.956  23.698 -0.4112  0.0246 -0.0441
24119DPPC   C2A29844   6.483   5.051  24.044  0.0004 -0.2243 -0.0299
24119DPPC   C3A29845   6.182   5.062  24.353 -0.1822 -0.2449 -0.1193
24119DPPC   C4A29846   5.895   5.144  24.751 -0.0419  0.1192 -0.3370
24119DPPC   C1B29847   6.556   4.311  23.563  0.1434 -0.0641  0.4657
24119DPPC   C2B29848   6.248   4.318  23.785  0.1479 -0.2059 -0.2166
24119DPPC   C3B29849   5.951   4.340  24.152 -0.1182 -0.2124 -0.1917
24119DPPC   C4B29850   5.650   4.372  24.524 -0.0682  0.2185 -0.0772
24120DPPC   NC329851   5.885   0.784  21.288  0.0886 -0.0095 -0.0419
24120DPPC   PO429852   5.959   1.153  21.447  0.2971  0.0648 -0.4569
24120DPPC   GL129853   5.681   1.251  21.706  0.1175 -0.0438  0.1039
24120DPPC   GL229854   5.727   1.531  21.657 -0.0428  0.0626  0.1099
24120DPPC   C1A29855   5.509   1.198  22.070  0.0383  0.0452 -0.3220
24120DPPC   C2A29856   5.212   1.188  22.353 -0.1372  0.2132 -0.3223
24120DPPC   C3A29857   4.908   1.183  22.709  0.1606  0.4644 -0.0846
24120DPPC   C4A29858   4.632   1.133  23.114  0.0444 -0.1212  0.0401
24120DPPC   C1B29859   5.542   1.629  21.885  0.1681  0.1617 -0.2104
24120DPPC   C2B29860   5.270   1.681  22.198 -0.1020 -0.2762  0.0431
24120DPPC   C3B29861   4.958   1.625  22.584  0.1123 -0.2343 -0.0433
24120DPPC   C4B29862   4.611   1.585  22.968 -0.0950  0.1567  0.2881
24121DPPC   NC329863   8.864   4.514  25.396 -0.3599 -0.2686 -0.1906
24121DPPC   PO429864   9.112   4.243  25.553  0.0824  0.1709  0.2441
24121DPPC   GL129865   9.021   4.060  25.913  0.1609 -0.1703  0.2628
24121DPPC   GL229866   9.227   3.956  26.081  0.0477  0.3113  0.4071
24121DPPC   C1A29867   8.782   4.144  26.156  0.1656 -0.0818 -0.2093
24121DPPC   C2A29868   8.589   4.133  26.509 -0.1038  0.0899  0.2567
24121DPPC   C3A29869   8.288   4.184  26.821  0.1853  0.0672  0.0939
24121DPPC   C4A29870   7.899   4.113  27.149  0.3071  0.1214  0.0891
24121DPPC   C1B29871   9.101   3.979  26.420 -0.0782 -0.1053  0.0152
24121DPPC   C2B29872   8.915   3.932  26.842  0.2963 -0.0466 -0.0306
24121DPPC   C3B29873   8.636   3.970  27.194  0.0870  0.2786 -0.0108
24121DPPC   C4B29874   8.428   4.075  27.613  0.1630 -0.2783 -0.2756
24122DPPC   NC329875   7.065   3.136  23.110 -0.0054 -0.2468  0.2725
24122DPPC   PO429876   7.095   3.496  23.180 -0.1955  0.1512 -0.0444
24122DPPC   GL129877   6.887   3.760  23.307 -0.0364  0.3268  0.1255
24122DPPC   GL229878   6.789   3.926  23.073  0.1663  0.0672  0.0717
24122DPPC   C1A29879   6.643   3.722  23.651 -0.1871 -0.2382  0.0419
24122DPPC   C2A29880   6.345   3.734  23.948 -0.1623  0.0566  0.1849
24122DPPC   C3A29881   5.921   3.768  24.219  0.4353  0.0219  0.1200
24122DPPC   C4A29882   5.583   3.763  24.602 -0.0064 -0.2376 -0.2497
24122DPPC   C1B29883   6.459   3.948  23.203  0.1208  0.1485 -0.1475
24122DPPC   C2B29884   6.188   3.915  23.513 -0.1432 -0.1047  0.1020
24122DPPC   C3B29885   5.818   3.978  23.725  0.0359  0.1039 -0.0178
24122DPPC   C4B29886   5.498   4.005  24.111 -0.4470 -0.0602 -0.3884
24123DPPC   NC329887   8.346   5.103  24.035 -0.1400 -0.2597  0.2887
24123DPPC   PO429888   7.993   5.268  24.066 -0.0394 -0.0842  0.1000
24123DPPC   GL129889   7.765   5.129  24.449 -0.2903 -0.3868  0.2186
24123DPPC   GL229890   7.479   5.028  24.286 -0.3755 -0.0755  0.1538
24123DPPC   C1A29891   7.809   5.182  24.822 -0.2103 -0.4489 -0.2282
24123DPPC   C2A29892   7.774   5.208  25.222 -0.3187 -0.0968 -0.1316
24123DPPC   C3A29893   7.445   5.237  25.587 -0.2359  0.1915 -0.1003
24123DPPC   C4A29894   7.160   5.251  25.962 -0.3293  0.2109  0.1807
24123DPPC   C1B29895   7.194   5.071  24.501 -0.2094 -0.0869 -0.2412
24123DPPC   C2B29896   6.925   5.130  24.802 -0.0878 -0.0112  0.1962
24123DPPC   C3B29897   6.626   5.161  25.200  0.2017 -0.0001  0.1315
24123DPPC   C4B29898   6.316   5.161  25.580  0.0169  0.0581  0.1139
24124DPPC   NC329899   7.909   6.202  24.001  0.2474  0.0846 -0.2287
24124DPPC   PO429900   7.929   6.564  23.865  0.1458 -0.4021  0.0987
24124DPPC   GL129901   7.890   6.695  24.203  0.3900 -0.1874 -0.0471
24124DPPC   GL229902   7.666   6.815  24.193 -0.1074 -0.3960  0.2784
24124DPPC   C1A29903   7.904   6.419  24.467 -0.5137 -0.1661 -0.2043
24124DPPC   C2A29904   7.749   6.264  24.809 -0.0846  0.0665  0.1078
24124DPPC   C3A29905   7.520   6.199  25.219 -0.0568 -0.1527  0.2562
24124DPPC   C4A29906   7.193   6.238  25.612 -0.1086  0.2450 -0.0254
24124DPPC   C1B29907   7.452   6.869  24.463  0.0981  0.0924  0.0571
24124DPPC   C2B29908   7.122   6.923  24.763  0.0359 -0.2474 -0.0250
24124DPPC   C3B29909   6.842   6.990  25.155 -0.2892 -0.3573 -0.0848
24124DPPC   C4B29910   6.546   7.039  25.549  0.0196  0.3073  0.3531
24125DPPC   NC329911   6.608   4.610  22.506 -0.2912  0.0479 -0.2572
24125DPPC   PO429912   6.778   4.972  22.521  0.4357 -0.0827  0.0544
24125DPPC   GL129913   6.396   5.124  22.655 -0.0621  0.0248 -0.1041
24125DPPC   GL229914   6.443   4.979  22.855 -0.0387  0.2881  0.3607
24125DPPC   C1A29915   6.092   5.345  22.770 -0.1050 -0.0204  0.3009
24125DPPC   C2A29916   5.818   5.660  22.852 -0.2426  0.0100 -0.0252
24125DPPC   C3A29917   5.458   5.684  23.203 -0.1672 -0.3820 -0.0739
24125DPPC   C4A29918   5.136   5.638  23.570 -0.2259 -0.0924 -0.1281
24125DPPC   C1B29919   6.172   4.952  23.153 -0.0595 -0.0036 -0.1600
24125DPPC   C2B29920   5.889   5.025  23.459  0.1587 -0.0666 -0.0815
24125DPPC   C3B29921   5.557   4.964  23.871 -0.1005 -0.0949  0.0339
24125DPPC   C4B29922   5.202   4.959  24.194  0.0158 -0.1867 -0.6113
24126DPPC   NC329923   8.997   5.557  24.551 -0.0016 -0.0893 -0.0727
24126DPPC   PO429924   8.648   5.649  24.683  0.2289  0.1424 -0.0918
24126DPPC   GL129925   8.412   5.587  25.001 -0.2084 -0.0611  0.1283
24126DPPC   GL229926   8.190   5.489  24.957 -0.3233 -0.0105  0.1797
24126DPPC   C1A29927   8.520   5.620  25.349 -0.4406  0.0506  0.2211
24126DPPC   C2A29928   8.417   5.495  25.713 -0.3596  0.0777 -0.4163
24126DPPC   C3A29929   8.146   5.334  26.102 -0.0304  0.0124 -0.1348
24126DPPC   C4A29930   7.851   5.442  26.454  0.1830  0.0049 -0.3149
24126DPPC   C1B29931   7.864   5.660  25.048 -0.4140 -0.0895  0.0174
24126DPPC   C2B29932   7.542   5.683  25.304 -0.3855  0.1906 -0.0364
24126DPPC   C3B29933   7.204   5.732  25.657 -0.1343  0.1550  0.2525
24126DPPC   C4B29934   6.855   5.734  25.989 -0.5539  0.1944 -0.0130
24127DPPC   NC329935   7.313   4.534  23.630 -0.0971 -0.1294  0.0072
24127DPPC   PO429936   7.451   4.604  23.971  0.0138 -0.1190 -0.4356
24127DPPC   GL129937   7.274   4.687  24.383  0.0644  0.3739 -0.1938
24127DPPC   GL229938   7.075   4.493  24.277  0.1137 -0.1949  0.1481
24127DPPC   C1A29939   7.096   4.684  24.730 -0.1415  0.1554 -0.1981
24127DPPC   C2A29940   6.858   4.728  25.087 -0.2112  0.2384 -0.2205
24127DPPC   C3A29941   6.532   4.743  25.467  0.2604 -0.2550 -0.0162
24127DPPC   C4A29942   6.194   4.698  25.768  0.0489 -0.1897 -0.3558
24127DPPC   C1B29943   6.830   4.324  24.471 -0.0994 -0.1625 -0.5541
24127DPPC   C2B29944   6.585   4.371  24.770 -0.2196 -0.2501  0.0381
24127DPPC   C3B29945   6.253   4.381  25.149  0.0925  0.1188  0.0712
24127DPPC   C4B29946   5.903   4.393  25.475 -0.0542  0.1419 -0.1425
24128DPPC   NC329947   6.992   1.918  23.082 -0.0455  0.4155 -0.0742
24128DPPC   PO429948   6.686   2.068  22.881 -0.0464 -0.5490 -0.0180
24128DPPC   GL129949   6.486   2.318  23.226 -0.2414  0.0194 -0.2841
24128DPPC   GL229950   6.407   2.008  23.307  0.2574 -0.2642 -0.3035
24128DPPC   C1A29951   6.269   2.457  23.491  0.0799 -0.1139  0.0245
24128DPPC   C2A29952   5.974   2.478  23.766  0.0063  0.0856 -0.0044
24128DPPC   C3A29953   5.692   2.461  24.119  0.0358  0.0754 -0.1904
24128DPPC   C4A29954   5.437   2.534  24.576 -0.0253 -0.0144  0.3058
24128DPPC   C1B29955   6.282   1.977  23.700  0.0263 -0.0808  0.0188
24128DPPC   C2B29956   5.986   1.982  23.966  0.0288  0.0914  0.1565
24128DPPC   C3B29957   5.676   2.006  24.375 -0.1155  0.3515 -0.0618
24128DPPC   C4B29958   5.336   2.011  24.735  0.2288  0.0533  0.1012
24129DPPC   NC329959   8.818   6.459  24.995 -0.3710  0.0747 -0.0048
24129DPPC   PO429960   9.075   6.397  25.334 -0.0754  0.1283  0.1700
24129DPPC   GL129961   9.085   6.462  25.755  0.1667 -0.0388  0.2376
24129DPPC   GL229962   8.843   6.258  25.751 -0.3719 -0.0825  0.2998
24129DPPC   C1A29963   8.859   6.519  26.057 -0.2363  0.0666  0.3100
24129DPPC   C2A29964   8.709   6.534  26.472  0.1869 -0.0213 -0.0217
24129DPPC   C3A29965   8.446   6.566  26.897 -0.2056 -0.0753 -0.0481
24129DPPC   C4A29966   8.113   6.437  27.294  0.0387  0.3391  0.0516
24129DPPC   C1B29967   8.629   6.192  25.998 -0.1234  0.2545 -0.1492
24129DPPC   C2B29968   8.382   6.179  26.296 -0.1278 -0.0680  0.1007
24129DPPC   C3B29969   8.087   6.142  26.610 -0.1139 -0.0868  0.1715
24129DPPC   C4B29970   7.755   6.131  27.054  0.0077 -0.0691 -0.1562
24130DPPC   NC329971   6.507   3.231  22.475 -0.0477  0.0677 -0.1293
24130DPPC   PO429972   6.264   3.181  22.135  0.0843  0.1358 -0.2057
24130DPPC   GL129973   5.895   3.075  22.315  0.0781 -0.0781 -0.0010
24130DPPC   GL229974   5.974   3.135  22.585 -0.1833  0.2518 -0.0882
24130DPPC   C1A29975   5.538   3.022  22.328 -0.0715 -0.1933  0.0358
24130DPPC   C2A29976   5.218   3.036  22.577 -0.1542 -0.2727  0.0707
24130DPPC   C3A29977   4.906   2.997  22.986 -0.1031  0.4020 -0.2782
24130DPPC   C4A29978   4.569   2.970  23.349 -0.0836 -0.1366 -0.2665
24130DPPC   C1B29979   5.813   3.378  22.734 -0.0805 -0.2939 -0.0035
24130DPPC   C2B29980   5.528   3.347  23.022  0.0216 -0.1002  0.0320
24130DPPC   C3B29981   5.157   3.299  23.323  0.1466 -0.0660 -0.0034
24130DPPC   C4B29982   4.830   3.291  23.657 -0.0446  0.2951 -0.0606
24131DPPC   NC329983   6.725   5.970  22.559  0.1239  0.0353  0.1193
24131DPPC   PO429984   6.820   6.316  22.769  0.1998  0.2595 -0.0563
24131DPPC   GL129985   6.721   6.406  23.188  0.1054 -0.0440  0.5141
24131DPPC   GL229986   6.883   6.529  23.370  0.1870 -0.0630 -0.1264
24131DPPC   C1A29987   6.406   6.271  23.298 -0.1411 -0.0852 -0.5136
24131DPPC   C2A29988   6.133   6.260  23.619  0.0593  0.2870  0.0443
24131DPPC   C3A29989   5.848   6.324  23.950  0.3135  0.0555  0.2172
24131DPPC   C4A29990   5.556   6.351  24.319 -0.0819 -0.1373  0.1004
24131DPPC   C1B29991   6.610   6.511  23.639 -0.3859 -0.0344  0.3216
24131DPPC   C2B29992   6.345   6.578  23.934  0.0975 -0.0358 -0.1300
24131DPPC   C3B29993   5.991   6.629  24.318  0.1718  0.1327 -0.0312
24131DPPC   C4B29994   5.702   6.652  24.643  0.3539  0.2181 -0.1455
24132DPPC   NC329995   7.288   1.469  23.104 -0.1872 -0.0658 -0.3121
24132DPPC   PO429996   7.255   1.556  23.490  0.1098  0.2247  0.1465
24132DPPC   GL129997   7.136   1.816  23.705 -0.0951 -0.1579 -0.1559
24132DPPC   GL229998   6.895   1.775  23.497 -0.0877 -0.1682 -0.1920
24132DPPC   C1A29999   7.043   1.692  24.005  0.1190 -0.4228  0.2886
24132DPPC   C2A30000   6.855   1.618  24.372  0.2064  0.1401  0.2802
24132DPPC   C3A30001   6.581   1.592  24.729 -0.0552 -0.1975 -0.0425
24132DPPC   C4A30002   6.306   1.565  25.149 -0.0604 -0.3782 -0.2416
24132DPPC   C1B30003   6.650   1.758  23.835 -0.1987 -0.2165  0.1284
24132DPPC   C2B30004   6.405   1.821  24.181 -0.1080 -0.2466  0.3969
24132DPPC   C3B30005   6.109   1.792  24.524 -0.2480  0.1381 -0.3850
24132DPPC   C4B30006   5.868   1.739  24.928  0.0438  0.2982  0.0435
24133DPPC   NC330007   8.060   0.445  23.948  0.1112  0.1547  0.0263
24133DPPC   PO430008   7.976   0.779  24.084  0.0677  0.1944  0.0441
24133DPPC   GL130009   7.778   0.888  24.439 -0.3322  0.3339  0.0961
24133DPPC   GL230010   7.777   0.594  24.453  0.3614 -0.0297  0.0474
24133DPPC   C1A30011   7.506   1.031  24.658  0.1879 -0.2559 -0.1235
24133DPPC   C2A30012   7.360   1.132  25.021 -0.0443 -0.2342  0.3671
24133DPPC   C3A30013   7.128   1.113  25.494  0.1932 -0.0679  0.0002
24133DPPC   C4A30014   6.878   1.105  25.898 -0.3603 -0.1227  0.0696
24133DPPC   C1B30015   7.618   0.628  24.777 -0.0974 -0.0814  0.2003
24133DPPC   C2B30016   7.337   0.558  25.150 -0.1282  0.2872  0.1815
24133DPPC   C3B30017   7.074   0.547  25.534 -0.1958  0.1006  0.1736
24133DPPC   C4B30018   6.785   0.598  25.958 -0.3149 -0.1249 -0.3932
24134DPPC   NC330019   5.418   5.850  20.448  0.1289 -0.1584 -0.1026
24134DPPC   PO430020   5.388   6.168  20.653  0.1591 -0.0360  0.1889
24134DPPC   GL130021   5.417   6.348  20.996 -0.0851  0.2427  0.1130
24134DPPC   GL230022   5.187   6.492  20.940 -0.0895 -0.0209  0.0115
24134DPPC   C1A30023   5.368   6.224  21.330 -0.1764  0.1149  0.0749
24134DPPC   C2A30024   5.062   6.180  21.644 -0.5747  0.0275 -0.0284
24134DPPC   C3A30025   4.714   6.193  21.951 -0.0131 -0.1975 -0.0915
24134DPPC   C4A30026   4.372   6.181  22.341  0.0385  0.3120 -0.0775
24134DPPC   C1B30027   4.943   6.382  21.179  0.0492 -0.3005  0.2388
24134DPPC   C2B30028   4.579   6.336  21.398 -0.0940 -0.2300  0.0072
24134DPPC   C3B30029   4.245   6.383  21.807 -0.0871  0.0636 -0.1392
24134DPPC   C4B30030   3.898   6.357  22.141  0.1160  0.1179 -0.0082
24135DPPC   NC330031   7.318   1.082  23.730 -0.0404  0.1862  0.2754
24135DPPC   PO430032   7.497   0.882  24.049  0.0698 -0.0525  0.1946
24135DPPC   GL130033   7.361   0.681  24.394  0.3274  0.1992  0.1765
24135DPPC   GL230034   7.283   0.468  24.139 -0.1316  0.2338  0.0115
24135DPPC   C1A30035   7.136   0.784  24.713 -0.1518  0.1099 -0.2693
24135DPPC   C2A30036   6.959   0.865  25.091 -0.0232 -0.0359  0.0702
24135DPPC   C3A30037   6.617   0.913  25.499 -0.0322  0.0273  0.2531
24135DPPC   C4A30038   6.317   0.832  25.815 -0.0542 -0.3093  0.1311
24135DPPC   C1B30039   6.995   0.478  24.351 -0.1399  0.3466  0.0691
24135DPPC   C2B30040   6.712   0.588  24.640 -0.0029  0.1997 -0.0713
24135DPPC   C3B30041   6.465   0.654  25.082 -0.1117 -0.0194 -0.2752
24135DPPC   C4B30042   6.084   0.589  25.385  0.0109 -0.0930  0.3453
24136DPPC   NC330043   9.447   0.219  24.465 -0.1070 -0.0051 -0.0735
24136DPPC   PO430044   9.125   0.449  24.613 -0.0661 -0.0269  0.1396
24136DPPC   GL130045   8.859   0.327  24.918 -0.2669 -0.3300 -0.2485
24136DPPC   GL230046   8.984   0.583  25.058  0.1017  0.0457 -0.1102
24136DPPC   C1A30047   8.522   0.205  25.112  0.0579 -0.3967 -0.1019
24136DPPC   C2A30048   8.309   0.237  25.437  0.3907  0.2598  0.2461
24136DPPC   C3A30049   7.986   0.271  25.809 -0.0212 -0.0630 -0.2646
24136DPPC   C4A30050   7.751   0.252  26.210  0.0476  0.2830  0.1359
24136DPPC   C1B30051   8.818   0.645  25.378  0.2353  0.2998 -0.0316
24136DPPC   C2B30052   8.603   0.567  25.686 -0.4219  0.2550  0.1034
24136DPPC   C3B30053   8.273   0.606  26.096 -0.1102  0.2155  0.0132
24136DPPC   C4B30054   8.070   0.564  26.500 -0.0168 -0.0058  0.0451
24137DPPC   NC330055   5.062   5.222  20.412  0.0194  0.1454  0.0337
24137DPPC   PO430056   5.376   5.336  20.627  0.1909  0.0113  0.0997
24137DPPC   GL130057   5.176   5.317  20.993 -0.0004 -0.0424 -0.1064
24137DPPC   GL230058   5.039   5.081  20.903 -0.1125 -0.1030 -0.2371
24137DPPC   C1A30059   4.993   5.449  21.263  0.1427 -0.0437 -0.1954
24137DPPC   C2A30060   4.682   5.407  21.506  0.1035  0.0144 -0.1123
24137DPPC   C3A30061   4.348   5.380  21.739  0.2682 -0.1362 -0.0953
24137DPPC   C4A30062   4.021   5.353  22.071  0.2254  0.1618 -0.1088
24137DPPC   C1B30063   4.802   4.937  21.222 -0.3096 -0.3174 -0.0969
24137DPPC   C2B30064   4.625   4.933  21.619 -0.0086  0.1851  0.1601
24137DPPC   C3B30065   4.242   4.947  21.947  0.3870 -0.0061 -0.1746
24137DPPC   C4B30066   3.898   4.863  22.281 -0.0422  0.3729  0.2201
24138DPPC   NC330067   8.760   5.304  24.984  0.3347  0.2916 -0.0291
24138DPPC   PO430068   9.012   5.567  25.156  0.2123 -0.0520  0.2141
24138DPPC   GL130069   9.030   5.518  25.548  0.0577  0.2350  0.1869
24138DPPC   GL230070   9.023   5.731  25.696  0.2175  0.4801  0.2553
24138DPPC   C1A30071   8.889   5.297  25.764  0.3728 -0.0869  0.3214
24138DPPC   C2A30072   8.662   5.185  26.073 -0.2553  0.0367  0.2814
24138DPPC   C3A30073   8.348   5.070  26.487  0.0997 -0.2459 -0.1556
24138DPPC   C4A30074   7.965   5.175  26.854 -0.0011 -0.3421 -0.0037
24138DPPC   C1B30075   8.792   5.677  25.952  0.0576 -0.0092 -0.1883
24138DPPC   C2B30076   8.487   5.655  26.264  0.1087  0.0842  0.2295
24138DPPC   C3B30077   8.226   5.715  26.690 -0.3327 -0.1673 -0.1729
24138DPPC   C4B30078   7.890   5.688  27.055  0.2459  0.3042 -0.4018
24139DPPC   NC330079   5.884   1.346  20.956 -0.0213  0.0030  0.3578
24139DPPC   PO430080   5.819   0.948  20.822  0.1087 -0.2332 -0.1459
24139DPPC   GL130081   5.461   0.820  21.032  0.2086  0.2200  0.1531
24139DPPC   GL230082   5.485   0.609  21.150 -0.0443  0.0519 -0.0232
24139DPPC   C1A30083   5.115   0.970  21.156 -0.4063  0.4247  0.1385
24139DPPC   C2A30084   4.825   1.041  21.472 -0.2538 -0.0650 -0.1521
24139DPPC   C3A30085   4.511   1.086  21.816  0.0408  0.2560 -0.4763
24139DPPC   C4A30086   4.200   1.097  22.193  0.0725  0.3542  0.1036
24139DPPC   C1B30087   5.193   0.586  21.407  0.0520 -0.1767  0.4796
24139DPPC   C2B30088   4.846   0.585  21.614  0.2668 -0.0755 -0.1009
24139DPPC   C3B30089   4.538   0.584  21.980  0.1392 -0.4491 -0.0775
24139DPPC   C4B30090   4.193   0.603  22.351  0.1659  0.1418  0.1156
24140DPPC   NC330091   5.748   3.967  20.842  0.2720  0.1191  0.1762
24140DPPC   PO430092   5.805   4.291  21.057 -0.0196  0.0140 -0.0287
24140DPPC   GL130093   5.661   4.115  21.358  0.1077  0.0319  0.0113
24140DPPC   GL230094   5.793   4.343  21.611 -0.4883  0.1339 -0.3106
24140DPPC   C1A30095   5.402   3.874  21.468  0.0122  0.0581  0.0698
24140DPPC   C2A30096   5.025   3.982  21.440  0.1230  0.0807 -0.1571
24140DPPC   C3A30097   4.656   3.889  21.781  0.0127  0.2086 -0.0251
24140DPPC   C4A30098   4.325   3.858  22.102  0.1107  0.1301 -0.0783
24140DPPC   C1B30099   5.671   4.405  21.922  0.2072 -0.1044 -0.0013
24140DPPC   C2B30100   5.394   4.495  22.176  0.1170  0.0249  0.1797
24140DPPC   C3B30101   5.074   4.422  22.493 -0.1434 -0.3144  0.1154
24140DPPC   C4B30102   4.739   4.482  22.906  0.0198 -0.1075 -0.0232
24141DPPC   NC330103   6.759   0.760  23.407 -0.2398  0.2397  0.0467
24141DPPC   PO430104   6.991   1.078  23.243  0.0063 -0.3280 -0.0530
24141DPPC   GL130105   6.673   1.196  23.514 -0.1718 -0.1405  0.0236
24141DPPC   GL230106   6.870   1.332  23.647 -0.2745  0.3023 -0.1156
24141DPPC   C1A30107   6.345   1.052  23.685 -0.2289 -0.3305  0.0957
24141DPPC   C2A30108   6.078   1.061  24.016  0.2601  0.0342 -0.1508
24141DPPC   C3A30109   5.751   1.026  24.373  0.1450 -0.1279  0.2181
24141DPPC   C4A30110   5.425   1.000  24.739  0.1485 -0.2045  0.1714
24141DPPC   C1B30111   6.706   1.323  23.960 -0.0771  0.1390 -0.0835
24141DPPC   C2B30112   6.485   1.341  24.312  0.1544 -0.1205  0.1037
24141DPPC   C3B30113   6.147   1.284  24.675  0.0289 -0.2749  0.0472
24141DPPC   C4B30114   5.767   1.272  25.053 -0.1317 -0.0247  0.1081
24142DPPC   NC330115   5.943   1.889  21.858 -0.2083  0.0783  0.0691
24142DPPC   PO430116   6.250   1.848  22.099  0.4076  0.0341  0.0368
24142DPPC   GL130117   6.138   1.895  22.495  0.5715  0.0832  0.1608
24142DPPC   GL230118   6.241   2.048  22.724  0.3099 -0.0816  0.1858
24142DPPC   C1A30119   5.881   1.763  22.724 -0.0226 -0.1658  0.0634
24142DPPC   C2A30120   5.615   1.764  23.062 -0.2414 -0.1815  0.3614
24142DPPC   C3A30121   5.308   1.795  23.457  0.0055  0.0245  0.0420
24142DPPC   C4A30122   4.947   1.730  23.854 -0.1956  0.2253 -0.2740
24142DPPC   C1B30123   6.040   2.103  23.055  0.2275  0.2031  0.0569
24142DPPC   C2B30124   5.871   2.105  23.425  0.1387 -0.1488  0.2469
24142DPPC   C3B30125   5.545   2.125  23.768  0.2315  0.0596 -0.0283
24142DPPC   C4B30126   5.234   2.117  24.197  0.2395 -0.0179  0.1047
24143DPPC   NC330127   7.813   5.667  23.725 -0.0908  0.1761 -0.3640
24143DPPC   PO430128   7.564   5.969  23.805 -0.0762 -0.0660 -0.0936
24143DPPC   GL130129   7.355   6.149  24.054  0.1786 -0.1194  0.0186
24143DPPC   GL230130   7.514   6.389  24.246  0.0473 -0.0319  0.0962
24143DPPC   C1A30131   7.107   6.116  24.356 -0.0588 -0.2438  0.2877
24143DPPC   C2A30132   6.886   6.256  24.667 -0.1485  0.1192 -0.0672
24143DPPC   C3A30133   6.584   6.282  25.092  0.1969 -0.0706  0.0279
24143DPPC   C4A30134   6.316   6.212  25.474  0.0497 -0.0888 -0.2729
24143DPPC   C1B30135   7.340   6.402  24.616  0.3018 -0.2469  0.5431
24143DPPC   C2B30136   7.171   6.506  24.942 -0.1224 -0.2330 -0.3422
24143DPPC   C3B30137   6.912   6.571  25.373 -0.0945 -0.0659  0.2239
24143DPPC   C4B30138   6.610   6.540  25.742  0.1571 -0.0181  0.1155
24144DPPC   NC330139   8.739   6.542  24.064 -0.3753  0.0873 -0.2249
24144DPPC   PO430140   8.400   6.771  24.080 -0.0298  0.1315 -0.2970
24144DPPC   GL130141   8.175   6.906  24.444 -0.0586  0.0706  0.1913
24144DPPC   GL230142   8.184   7.156  24.453 -0.1220  0.0988  0.0813
24144DPPC   C1A30143   7.864   6.812  24.652  0.2279 -0.1155 -0.3436
24144DPPC   C2A30144   7.649   6.725  25.001 -0.2059 -0.0542 -0.0440
24144DPPC   C3A30145   7.412   6.636  25.402  0.0698 -0.0876  0.0614
24144DPPC   C4A30146   7.097   6.714  25.798  0.1191 -0.0995 -0.2090
24144DPPC   C1B30147   8.026   7.385  24.753 -0.1741 -0.0383  0.0963
24144DPPC   C2B30148   7.816   7.520  25.087  0.0374  0.0484  0.0726
24144DPPC   C3B30149   7.634   7.522  25.502  0.0936  0.1674 -0.3570
24144DPPC   C4B30150   7.415   7.556  25.924 -0.1366 -0.1269 -0.0486
24145DPPC   NC330151   7.381   6.362  23.584  0.0459 -0.0315 -0.0228
24145DPPC   PO430152   7.393   6.653  23.847  0.1163  0.1002 -0.2581
24145DPPC   GL130153   7.097   6.579  24.089  0.1748  0.1061  0.2737
24145DPPC   GL230154   6.968   6.400  23.840  0.3525  0.1182 -0.0739
24145DPPC   C1A30155   6.912   6.609  24.455  0.1417  0.2735 -0.0692
24145DPPC   C2A30156   6.708   6.664  24.790  0.0460 -0.0232  0.1433
24145DPPC   C3A30157   6.384   6.743  25.173 -0.0791 -0.1204  0.1131
24145DPPC   C4A30158   6.151   6.669  25.582 -0.1286 -0.0107 -0.0152
24145DPPC   C1B30159   6.698   6.297  24.054 -0.0457  0.1926 -0.1530
24145DPPC   C2B30160   6.455   6.381  24.414  0.1392  0.0049  0.0912
24145DPPC   C3B30161   6.194   6.448  24.798 -0.0348  0.0601  0.0599
24145DPPC   C4B30162   5.808   6.421  25.140  0.0476 -0.0498  0.1247
24146DPPC   NC330163   7.263   5.993  22.838 -0.1848 -0.1342  0.1034
24146DPPC   PO430164   7.151   6.230  23.167  0.0785  0.0999 -0.0637
24146DPPC   GL130165   6.895   5.999  23.498  0.0568 -0.0274 -0.1907
24146DPPC   GL230166   7.137   5.961  23.608  0.4334 -0.3275 -0.1339
24146DPPC   C1A30167   6.552   6.093  23.713 -0.0996  0.2610  0.1462
24146DPPC   C2A30168   6.312   6.018  24.071 -0.2155 -0.0354  0.0419
24146DPPC   C3A30169   5.985   6.118  24.404 -0.0782  0.1359 -0.1000
24146DPPC   C4A30170   5.665   6.115  24.782 -0.1251 -0.0550  0.2619
24146DPPC   C1B30171   7.013   5.957  23.934 -0.2156  0.1917  0.2047
24146DPPC   C2B30172   6.760   5.880  24.246 -0.0117 -0.0694  0.0022
24146DPPC   C3B30173   6.440   5.899  24.623 -0.0220  0.1142  0.1657
24146DPPC   C4B30174   6.127   6.003  24.966 -0.2169 -0.3158 -0.3280
24147DPPC   NC330175   6.274   6.310  21.902 -0.0663 -0.2744 -0.1258
24147DPPC   PO430176   6.315   6.051  22.165  0.2890  0.0995  0.0241
24147DPPC   GL130177   6.010   5.901  22.452  0.3055 -0.4706  0.1990
24147DPPC   GL230178   6.237   5.673  22.543 -0.0224  0.3543  0.0490
24147DPPC   C1A30179   5.817   6.094  22.730 -0.2722  0.4377 -0.4928
24147DPPC   C2A30180   5.538   6.142  23.034 -0.2443  0.0537 -0.1400
24147DPPC   C3A30181   5.176   6.123  23.415 -0.1755  0.0409  0.0603
24147DPPC   C4A30182   4.805   6.078  23.703 -0.0448 -0.3613  0.0680
24147DPPC   C1B30183   6.304   5.772  22.870 -0.0635 -0.0233 -0.1359
24147DPPC   C2B30184   6.054   5.953  23.164 -0.1111  0.3237 -0.1220
24147DPPC   C3B30185   5.703   6.009  23.503  0.1736 -0.0263 -0.2200
24147DPPC   C4B30186   5.405   6.080  23.885 -0.0794  0.2636  0.0478
24148DPPC   NC330187   8.193   4.962  24.492  0.1874 -0.2171  0.1590
24148DPPC   PO430188   8.347   5.097  24.794 -0.1745 -0.2629 -0.0203
24148DPPC   GL130189   8.223   4.781  24.975  0.1828  0.0802 -0.1700
24148DPPC   GL230190   8.006   4.721  24.878 -0.4237  0.0434  0.0642
24148DPPC   C1A30191   8.118   4.846  25.332 -0.3389  0.2466  0.4257
24148DPPC   C2A30192   8.033   5.108  25.602 -0.3986  0.1207  0.1204
24148DPPC   C3A30193   7.746   5.055  25.936  0.0064  0.1268 -0.3335
24148DPPC   C4A30194   7.475   5.102  26.354 -0.2073  0.1050  0.0017
24148DPPC   C1B30195   7.769   4.798  25.109 -0.2493  0.0686  0.2238
24148DPPC   C2B30196   7.610   4.791  25.517  0.1881 -0.1133  0.0401
24148DPPC   C3B30197   7.270   4.722  25.887 -0.0102  0.0201 -0.1747
24148DPPC   C4B30198   6.985   4.639  26.306 -0.1088 -0.0931 -0.1175
24149DPPC   NC330199   8.191   5.899  24.737  0.0120  0.1479  0.0028
24149DPPC   PO430200   8.131   5.914  24.348 -0.0728 -0.1899  0.2255
24149DPPC   GL130201   7.733   5.819  24.262  0.3303  0.1079 -0.0706
24149DPPC   GL230202   7.703   5.578  24.164 -0.3532  0.4280  0.0150
24149DPPC   C1A30203   7.553   5.993  24.467  0.2951 -0.0244 -0.1148
24149DPPC   C2A30204   7.330   5.942  24.787  0.0351  0.0927  0.2773
24149DPPC   C3A30205   7.053   6.010  25.122  0.0978 -0.1004  0.1672
24149DPPC   C4A30206   6.775   6.054  25.608  0.2210  0.1407  0.2751
24149DPPC   C1B30207   7.457   5.425  24.445  0.0826 -0.2181 -0.2055
24149DPPC   C2B30208   7.386   5.394  24.850 -0.0063 -0.1936 -0.1961
24149DPPC   C3B30209   7.065   5.426  25.216 -0.0662 -0.1324 -0.0562
24149DPPC   C4B30210   6.729   5.391  25.622 -0.2775 -0.1160  0.0010
24150DPPC   NC330211   9.286   2.868  25.208 -0.0496 -0.0348 -0.1915
24150DPPC   PO430212   8.923   2.763  25.106 -0.0372  0.1004 -0.0749
24150DPPC   GL130213   8.597   2.818  25.340 -0.1804 -0.0589  0.1506
24150DPPC   GL230214   8.430   2.650  25.307 -0.0799  0.0451  0.1675
24150DPPC   C1A30215   8.612   2.842  25.711 -0.1282 -0.2164 -0.1457
24150DPPC   C2A30216   8.464   2.911  26.073 -0.0608 -0.0071  0.2902
24150DPPC   C3A30217   8.184   2.930  26.408  0.2629 -0.1978 -0.0743
24150DPPC   C4A30218   7.974   2.990  26.863  0.1224 -0.2266  0.2350
24150DPPC   C1B30219   8.264   2.587  25.638  0.3519 -0.0267  0.2620
24150DPPC   C2B30220   8.024   2.564  25.986  0.1220  0.0732  0.1217
24150DPPC   C3B30221   7.726   2.587  26.355 -0.0330 -0.0952  0.4079
24150DPPC   C4B30222   7.547   2.656  26.796  0.4496 -0.2023  0.0787
24151DPPC   NC330223   6.696   5.450  22.563 -0.0529 -0.1240  0.1434
24151DPPC   PO430224   6.973   5.561  22.838  0.0423 -0.2791  0.0694
24151DPPC   GL130225   6.730   5.466  23.188  0.2281 -0.1252 -0.0841
24151DPPC   GL230226   6.560   5.394  22.993 -0.1162 -0.0333 -0.1998
24151DPPC   C1A30227   6.500   5.714  23.429  0.1727  0.0617 -0.0447
24151DPPC   C2A30228   6.177   5.785  23.633 -0.0176 -0.0504 -0.2345
24151DPPC   C3A30229   5.853   5.797  24.000 -0.1964 -0.0963 -0.0640
24151DPPC   C4A30230   5.583   5.835  24.327  0.1700  0.1414  0.0295
24151DPPC   C1B30231   6.227   5.411  23.182 -0.1694  0.0548  0.2916
24151DPPC   C2B30232   5.894   5.484  23.366  0.1884  0.0407 -0.2039
24151DPPC   C3B30233   5.569   5.517  23.731 -0.1679 -0.1342 -0.1304
24151DPPC   C4B30234   5.232   5.435  24.071 -0.0952  0.1191 -0.2783
24152DPPC   NC330235   7.422   4.106  23.183  0.0045  0.2162 -0.1649
24152DPPC   PO430236   7.079   4.187  23.344 -0.1292  0.0591  0.0069
24152DPPC   GL130237   6.886   4.046  23.734 -0.1730  0.1776  0.2848
24152DPPC   GL230238   7.061   4.251  23.857 -0.2086 -0.0433  0.0169
24152DPPC   C1A30239   6.640   4.091  23.971 -0.0774 -0.0997  0.1321
24152DPPC   C2A30240   6.456   4.108  24.368 -0.1425  0.0879  0.0912
24152DPPC   C3A30241   6.096   4.088  24.718 -0.1869  0.1652  0.2851
24152DPPC   C4A30242   5.748   4.074  25.081  0.1395 -0.3054  0.1467
24152DPPC   C1B30243   6.774   4.510  23.876 -0.2402  0.2413  0.1888
24152DPPC   C2B30244   6.540   4.556  24.167 -0.1764  0.0716  0.1074
24152DPPC   C3B30245   6.179   4.549  24.528 -0.1657  0.1766 -0.0506
24152DPPC   C4B30246   5.877   4.579  24.926 -0.0686  0.1528 -0.0429
24153DPPC   NC330247   5.365   1.147  20.714 -0.1198 -0.0461 -0.2024
24153DPPC   PO430248   5.465   1.526  20.808  0.0495 -0.0233 -0.0916
24153DPPC   GL130249   5.114   1.596  21.020 -0.0579  0.0498  0.2314
24153DPPC   GL230250   5.014   1.302  20.961  0.0464 -0.0691  0.4995
24153DPPC   C1A30251   4.926   1.545  21.313 -0.2884 -0.2088 -0.6683
24153DPPC   C2A30252   4.660   1.543  21.633 -0.1085  0.1107 -0.0121
24153DPPC   C3A30253   4.345   1.560  21.977 -0.3354  0.0521  0.1623
24153DPPC   C4A30254   4.015   1.556  22.369 -0.0481 -0.1051  0.2864
24153DPPC   C1B30255   4.687   1.284  21.045 -0.0084  0.0296  0.0498
24153DPPC   C2B30256   4.385   1.261  21.301 -0.2169  0.1529 -0.1176
24153DPPC   C3B30257   4.078   1.249  21.695  0.2515  0.1027  0.1154
24153DPPC   C4B30258   3.697   1.247  22.031  0.0624  0.0061 -0.1433
24154DPPC   NC330259   8.932   4.780  24.692 -0.0646 -0.4901  0.3120
24154DPPC   PO430260   8.720   4.808  25.014 -0.0902 -0.2222 -0.0184
24154DPPC   GL130261   8.624   4.975  25.365  0.0619  0.0213 -0.1357
24154DPPC   GL230262   8.398   5.191  25.230  0.1224  0.2807 -0.0157
24154DPPC   C1A30263   8.410   4.840  25.630  0.1461  0.3952 -0.0918
24154DPPC   C2A30264   8.215   4.820  25.997  0.2331 -0.0938  0.2125
24154DPPC   C3A30265   7.937   4.867  26.353  0.3811 -0.3458 -0.0674
24154DPPC   C4A30266   7.615   4.839  26.756  0.2468 -0.0615 -0.1863
24154DPPC   C1B30267   8.147   5.458  25.347  0.0606  0.1904  0.2151
24154DPPC   C2B30268   7.912   5.566  25.689  0.0878 -0.1999 -0.2444
24154DPPC   C3B30269   7.573   5.510  26.061  0.0769  0.3117 -0.2700
24154DPPC   C4B30270   7.320   5.546  26.475  0.0596 -0.2650  0.1514
24155DPPC   NC330271   6.318   0.902  21.631 -0.2267  0.2400 -0.1330
24155DPPC   PO430272   6.384   0.710  22.004 -0.1362 -0.1495 -0.1649
24155DPPC   GL130273   6.121   0.573  22.207 -0.2187 -0.0530  0.2708
24155DPPC   GL230274   6.095   0.339  22.294  0.1751 -0.1228  0.0972
24155DPPC   C1A30275   5.908   0.794  22.386  0.1029 -0.0049 -0.0067
24155DPPC   C2A30276   5.668   0.989  22.627 -0.3131 -0.3865  0.1894
24155DPPC   C3A30277   5.359   0.981  22.986  0.0735  0.4426 -0.1043
24155DPPC   C4A30278   5.050   1.039  23.367  0.0449 -0.2488  0.0010
24155DPPC   C1B30279   5.849   0.426  22.533  0.0742 -0.2562  0.0401
24155DPPC   C2B30280   5.532   0.443  22.768  0.1089 -0.0450 -0.1477
24155DPPC   C3B30281   5.283   0.530  23.141  0.1156  0.1427  0.3339
24155DPPC   C4B30282   4.909   0.541  23.486 -0.0513 -0.1520  0.3037
24156DPPC   NC330283   8.146   3.470  24.161  0.0147  0.0242 -0.2939
24156DPPC   PO430284   7.835   3.735  24.225 -0.4508 -0.0180 -0.1220
24156DPPC   GL130285   7.604   3.799  24.612 -0.0800 -0.0043  0.3634
24156DPPC   GL230286   7.755   4.063  24.690  0.0605 -0.6319  0.0206
24156DPPC   C1A30287   7.282   3.730  24.794  0.1901  0.0866  0.3793
24156DPPC   C2A30288   6.939   3.710  25.055 -0.1725  0.2468  0.2024
24156DPPC   C3A30289   6.661   3.702  25.424  0.0979 -0.2247  0.0068
24156DPPC   C4A30290   6.294   3.648  25.762  0.1476  0.0451 -0.0467
24156DPPC   C1B30291   7.577   4.038  25.034  0.2012 -0.1665 -0.2760
24156DPPC   C2B30292   7.236   3.984  25.362  0.0477  0.0421  0.0395
24156DPPC   C3B30293   6.975   3.985  25.702  0.1577  0.1348 -0.1316
24156DPPC   C4B30294   6.606   3.955  26.013  0.3414  0.1746  0.1889
24157DPPC   NC330295   5.904   3.297  21.416  0.1255 -0.0345  0.1541
24157DPPC   PO430296   5.917   3.603  21.153 -0.0167 -0.2132  0.0745
24157DPPC   GL130297   5.475   3.689  21.053  0.1304  0.0194 -0.2350
24157DPPC   GL230298   5.474   3.466  21.328  0.2983 -0.0481  0.0800
24157DPPC   C1A30299   5.180   3.849  20.990 -0.0156 -0.1598  0.2147
24157DPPC   C2A30300   4.840   4.073  20.965  0.2203  0.3381 -0.1991
24157DPPC   C3A30301   4.468   4.127  21.321  0.0525  0.3459 -0.2700
24157DPPC   C4A30302   4.103   4.134  21.694 -0.1459 -0.2935  0.1353
24157DPPC   C1B30303   5.160   3.400  21.494 -0.1394 -0.3855 -0.1137
24157DPPC   C2B30304   4.852   3.362  21.742  0.0465  0.1357 -0.0475
24157DPPC   C3B30305   4.439   3.294  22.038 -0.0689 -0.1812 -0.2004
24157DPPC   C4B30306   4.095   3.404  22.332  0.0181 -0.0292  0.1875
24158DPPC   NC330307   7.576   2.812  23.345 -0.0283 -0.1896 -0.2307
24158DPPC   PO430308   7.208   2.808  23.485  0.2645 -0.2057  0.0774
24158DPPC   GL130309   6.865   2.642  23.747  0.1937  0.2578  0.2445
24158DPPC   GL230310   6.678   2.816  23.569  0.3216  0.0112 -0.0472
24158DPPC   C1A30311   6.814   2.582  24.108  0.1714  0.1803  0.2952
24158DPPC   C2A30312   6.567   2.553  24.464  0.0713 -0.2308  0.4126
24158DPPC   C3A30313   6.272   2.574  24.823 -0.1402 -0.0767  0.3956
24158DPPC   C4A30314   5.953   2.559  25.204 -0.0865  0.1189 -0.2611
24158DPPC   C1B30315   6.407   2.729  23.796 -0.1981  0.2024  0.2395
24158DPPC   C2B30316   6.196   2.759  24.155 -0.3120 -0.2010  0.1103
24158DPPC   C3B30317   5.876   2.737  24.541  0.1193  0.0685  0.0771
24158DPPC   C4B30318   5.580   2.848  24.945  0.3114 -0.2102 -0.4191
24159DPPC   NC330319   7.121   3.753  22.755 -0.1307  0.1975  0.2329
24159DPPC   PO430320   6.960   3.402  22.648 -0.2488  0.0495  0.1916
24159DPPC   GL130321   6.643   3.257  22.929 -0.1939 -0.0290 -0.0412
24159DPPC   GL230322   6.686   3.477  23.072 -0.0311 -0.2517 -0.3111
24159DPPC   C1A30323   6.327   3.175  22.926  0.0633 -0.0993 -0.1324
24159DPPC   C2A30324   5.987   3.121  23.085  0.0125  0.0093  0.0651
24159DPPC   C3A30325   5.644   3.180  23.440 -0.0398  0.1932  0.1967
24159DPPC   C4A30326   5.274   3.161  23.769 -0.0864 -0.1738 -0.2144
24159DPPC   C1B30327   6.365   3.459  23.258 -0.0186  0.0168  0.3659
24159DPPC   C2B30328   6.018   3.475  23.539  0.1439  0.1021 -0.3318
24159DPPC   C3B30329   5.663   3.489  23.879 -0.2917  0.1295 -0.1726
24159DPPC   C4B30330   5.328   3.449  24.203  0.2116  0.0400  0.1289
24160DPPC   NC330331   6.614   1.844  22.443 -0.2137  0.2811 -0.0757
24160DPPC   PO430332   6.498   1.467  22.483 -0.2474  0.3438 -0.2424
24160DPPC   GL130333   6.416   1.149  22.810  0.2315 -0.0119 -0.0021
24160DPPC   GL230334   6.572   1.202  23.051  0.0948 -0.0532 -0.1494
24160DPPC   C1A30335   6.152   0.898  22.930  0.5362  0.1411 -0.0202
24160DPPC   C2A30336   5.781   0.796  23.130  0.0211 -0.2100 -0.0748
24160DPPC   C3A30337   5.508   0.856  23.498  0.0194 -0.2309  0.0533
24160DPPC   C4A30338   5.135   0.854  23.834 -0.0507  0.1815  0.1038
24160DPPC   C1B30339   6.312   1.125  23.279 -0.1418 -0.0326  0.1767
24160DPPC   C2B30340   5.910   1.161  23.477  0.0789  0.3924  0.1075
24160DPPC   C3B30341   5.596   1.186  23.881  0.3221 -0.0071  0.2571
24160DPPC   C4B30342   5.240   1.195  24.243 -0.1530 -0.0818 -0.0116
24161DPPC   NC330343   5.678   2.545  20.791 -0.1034 -0.2291  0.1403
24161DPPC   PO430344   5.625   2.742  20.451  0.0380  0.0457 -0.2170
24161DPPC   GL130345   5.256   2.843  20.676 -0.3384  0.2288 -0.3578
24161DPPC   GL230346   5.230   2.513  20.636 -0.3033  0.1818  0.2673
24161DPPC   C1A30347   5.020   3.075  20.870 -0.4950  0.1745  0.2708
24161DPPC   C2A30348   4.773   3.134  21.224 -0.2299  0.3652  0.0583
24161DPPC   C3A30349   4.465   3.049  21.605  0.2843 -0.1375 -0.0128
24161DPPC   C4A30350   4.083   3.046  21.931 -0.1890 -0.0299  0.1723
24161DPPC   C1B30351   5.082   2.477  21.009 -0.1762  0.1037 -0.3579
24161DPPC   C2B30352   4.840   2.495  21.333  0.0213  0.1116 -0.0395
24161DPPC   C3B30353   4.508   2.529  21.687  0.0409 -0.2753 -0.0387
24161DPPC   C4B30354   4.223   2.543  22.044 -0.0436  0.0642 -0.1852
24162DPPC   NC330355   7.821   1.213  23.913  0.0782  0.0495  0.0201
24162DPPC   PO430356   8.057   1.242  24.228  0.1452  0.0141 -0.1757
24162DPPC   GL130357   7.958   1.250  24.651 -0.1712 -0.0581  0.2687
24162DPPC   GL230358   7.675   1.342  24.389  0.0209 -0.1156  0.1887
24162DPPC   C1A30359   7.789   1.350  24.925 -0.4629 -0.0213 -0.0251
24162DPPC   C2A30360   7.707   1.350  25.308 -0.1675 -0.0616  0.1223
24162DPPC   C3A30361   7.427   1.429  25.670  0.0787 -0.0582 -0.0020
24162DPPC   C4A30362   7.229   1.374  26.132  0.0900 -0.0764 -0.0014
24162DPPC   C1B30363   7.291   1.425  24.446 -0.1425  0.3067  0.2740
24162DPPC   C2B30364   7.002   1.364  24.811 -0.2054  0.1131 -0.1603
24162DPPC   C3B30365   6.732   1.301  25.214 -0.1303  0.1810  0.1646
24162DPPC   C4B30366   6.407   1.346  25.609 -0.1686 -0.1736 -0.1455
24163DPPC   NC330367   8.663   3.220  25.018  0.1740  0.0544 -0.1852
24163DPPC   PO430368   8.589   3.598  25.101  0.4804 -0.0356 -0.0078
24163DPPC   GL130369   8.352   3.552  25.471  0.2481  0.1223  0.0907
24163DPPC   GL230370   8.384   3.228  25.431 -0.0321  0.0699  0.3642
24163DPPC   C1A30371   8.059   3.572  25.730  0.2655  0.2723 -0.0710
24163DPPC   C2A30372   7.804   3.556  26.114 -0.1970 -0.1703  0.2351
24163DPPC   C3A30373   7.528   3.590  26.471  0.0717 -0.0443 -0.0520
24163DPPC   C4A30374   7.227   3.626  26.768  0.2530 -0.2124 -0.0302
24163DPPC   C1B30375   8.134   3.007  25.593 -0.1919 -0.3371 -0.2193
24163DPPC   C2B30376   7.948   3.090  25.986 -0.0953 -0.1970  0.1701
24163DPPC   C3B30377   7.708   3.086  26.398 -0.0997 -0.1246  0.1859
24163DPPC   C4B30378   7.365   3.127  26.805 -0.3798  0.3446 -0.2278
24164DPPC   NC330379   8.580   1.858  24.765  0.2176  0.0151 -0.1161
24164DPPC   PO430380   8.381   2.194  24.631 -0.0047 -0.0677 -0.0449
24164DPPC   GL130381   8.215   2.303  24.994 -0.0907  0.0881  0.3673
24164DPPC   GL230382   8.281   2.119  25.089  0.0916  0.4165  0.0084
24164DPPC   C1A30383   7.907   2.419  25.065  0.1046 -0.1572 -0.1185
24164DPPC   C2A30384   7.575   2.521  25.226  0.1328  0.1746 -0.2096
24164DPPC   C3A30385   7.286   2.531  25.629  0.0753  0.2684 -0.3273
24164DPPC   C4A30386   6.993   2.546  26.024 -0.1590  0.1018 -0.0859
24164DPPC   C1B30387   8.054   2.207  25.405 -0.1685  0.2304 -0.0597
24164DPPC   C2B30388   7.750   2.251  25.700  0.1986 -0.2364 -0.0574
24164DPPC   C3B30389   7.432   2.235  26.027 -0.3664  0.5201 -0.2826
24164DPPC   C4B30390   7.263   2.291  26.493 -0.0279  0.1167  0.1587
24165DPPC   NC330391   6.614   2.422  22.551  0.3192 -0.2868  0.1666
24165DPPC   PO430392   6.516   2.293  22.232 -0.0862  0.2538  0.1100
24165DPPC   GL130393   6.126   2.359  22.431 -0.0401  0.1938  0.2519
24165DPPC   GL230394   5.978   2.244  22.227 -0.1171  0.1432 -0.2469
24165DPPC   C1A30395   5.878   2.327  22.672  0.2035  0.5011  0.0104
24165DPPC   C2A30396   5.625   2.249  23.017  0.0240  0.2696  0.2236
24165DPPC   C3A30397   5.385   2.288  23.354  0.2331  0.0038 -0.3126
24165DPPC   C4A30398   5.063   2.293  23.692  0.2105  0.1128  0.0957
24165DPPC   C1B30399   5.690   2.020  22.377 -0.1594 -0.1082 -0.1845
24165DPPC   C2B30400   5.398   1.958  22.629 -0.0100  0.3696 -0.0973
24165DPPC   C3B30401   5.174   1.975  22.982 -0.1643 -0.0264 -0.2787
24165DPPC   C4B30402   4.875   1.975  23.321  0.2274  0.0344 -0.1740
24166DPPC   NC330403   5.193   1.965  20.647  0.3096  0.2921 -0.1417
24166DPPC   PO430404   5.536   2.078  20.835  0.2167 -0.1361  0.2179
24166DPPC   GL130405   5.473   1.990  21.190 -0.1459 -0.1388  0.0154
24166DPPC   GL230406   5.569   1.699  21.262  0.5146 -0.2680  0.3441
24166DPPC   C1A30407   5.081   2.005  21.246 -0.0090 -0.2801 -0.0186
24166DPPC   C2A30408   4.784   2.011  21.561  0.1804  0.2807  0.0346
24166DPPC   C3A30409   4.384   2.029  21.827  0.0944  0.2336 -0.0757
24166DPPC   C4A30410   4.053   2.098  22.189  0.0620 -0.1617 -0.2224
24166DPPC   C1B30411   5.345   1.576  21.498 -0.1290 -0.0991  0.0941
24166DPPC   C2B30412   5.146   1.375  21.820 -0.0870 -0.1848 -0.1184
24166DPPC   C3B30413   4.797   1.340  22.138  0.5400 -0.0300 -0.3693
24166DPPC   C4B30414   4.481   1.374  22.557 -0.1418 -0.0352  0.0904
24167DPPC   NC330415   7.682   0.564  23.177 -0.1073  0.3969 -0.0141
24167DPPC   PO430416   7.388   0.737  23.386  0.1260 -0.3071 -0.1635
24167DPPC   GL130417   7.122   0.562  23.658 -0.0124 -0.0549 -0.2267
24167DPPC   GL230418   7.019   0.356  23.647 -0.5734  0.1791 -0.1879
24167DPPC   C1A30419   6.912   0.732  23.885 -0.2071 -0.0346 -0.2630
24167DPPC   C2A30420   6.581   0.888  24.110 -0.2583 -0.0066  0.2152
24167DPPC   C3A30421   6.217   0.792  24.443 -0.0219 -0.2535  0.2548
24167DPPC   C4A30422   5.948   0.836  24.850  0.3007 -0.0516 -0.0641
24167DPPC   C1B30423   6.805   0.261  23.949 -0.0248  0.1235 -0.3169
24167DPPC   C2B30424   6.561   0.244  24.311  0.3170 -0.0706 -0.3517
24167DPPC   C3B30425   6.268   0.322  24.696  0.0493 -0.0071  0.1059
24167DPPC   C4B30426   5.901   0.335  24.965 -0.0560  0.2795  0.0409
24168DPPC   NC330427   6.135   5.234  21.043 -0.1568 -0.0908  0.3039
24168DPPC   PO430428   5.922   5.522  20.914  0.2815 -0.2684 -0.2045
24168DPPC   GL130429   5.440   5.735  20.937  0.1666 -0.2103 -0.0951
24168DPPC   GL230430   5.537   5.563  21.186  0.3177  0.0281 -0.0411
24168DPPC   C1A30431   5.126   5.940  21.101  0.2453  0.1818  0.0137
24168DPPC   C2A30432   4.757   5.903  21.291  0.0356  0.1478  0.0491
24168DPPC   C3A30433   4.410   5.886  21.592 -0.1419 -0.0212 -0.0584
24168DPPC   C4A30434   4.104   5.868  21.976  0.1284  0.0599  0.1912
24168DPPC   C1B30435   5.321   5.690  21.455 -0.0577  0.0877 -0.0645
24168DPPC   C2B30436   4.984   5.706  21.698  0.1904 -0.0375 -0.4793
24168DPPC   C3B30437   4.635   5.695  22.048  0.1063  0.2753  0.2487
24168DPPC   C4B30438   4.287   5.716  22.414  0.1472 -0.1621  0.0981
24169DPPC   NC330439   6.249   5.637  21.870  0.1980 -0.0416 -0.1045
24169DPPC   PO430440   6.060   5.943  21.663 -0.0506  0.0400 -0.0115
24169DPPC   GL130441   5.735   6.110  21.805  0.1590  0.1922 -0.0891
24169DPPC   GL230442   5.791   6.141  22.114 -0.1542  0.0669 -0.1237
24169DPPC   C1A30443   5.380   5.957  21.879  0.2468 -0.2910  0.0313
24169DPPC   C2A30444   5.103   5.953  22.134 -0.0922 -0.0048  0.3259
24169DPPC   C3A30445   4.856   5.913  22.487  0.0144  0.2185  0.0570
24169DPPC   C4A30446   4.463   6.019  22.792  0.2006  0.0683 -0.0118
24169DPPC   C1B30447   5.532   6.232  22.336  0.2634  0.3155  0.1231
24169DPPC   C2B30448   5.245   6.340  22.610  0.1283 -0.0908  0.2849
24169DPPC   C3B30449   4.908   6.309  22.951 -0.1682 -0.1099 -0.0307
24169DPPC   C4B30450   4.554   6.317  23.296 -0.1494  0.0974  0.0481
24170DPPC   NC330451   6.354   3.852  21.830  0.0012 -0.1152  0.1648
24170DPPC   PO430452   6.477   3.687  22.122 -0.0055  0.0566  0.1132
24170DPPC   GL130453   6.174   3.574  22.415  0.1221 -0.2368 -0.0803
24170DPPC   GL230454   6.054   3.855  22.396  0.1723 -0.3814  0.3347
24170DPPC   C1A30455   6.174   3.692  22.744 -0.2530  0.0211 -0.3319
24170DPPC   C2A30456   5.970   3.698  23.068  0.3059  0.3363 -0.1785
24170DPPC   C3A30457   5.595   3.707  23.407  0.1085 -0.0370  0.1622
24170DPPC   C4A30458   5.227   3.689  23.700 -0.0158  0.1452  0.0021
24170DPPC   C1B30459   5.784   3.877  22.632  0.0966  0.2002  0.0964
24170DPPC   C2B30460   5.496   3.904  22.879 -0.1557 -0.1713 -0.0330
24170DPPC   C3B30461   5.123   3.870  23.231  0.2938 -0.0972 -0.2254
24170DPPC   C4B30462   4.751   3.905  23.586 -0.0722  0.1033  0.1123
24171DPPC   NC330463   9.439   1.693  24.943 -0.0360  0.2432  0.3600
24171DPPC   PO430464   9.083   1.829  24.912 -0.0753 -0.1978 -0.1631
24171DPPC   GL130465   8.965   1.783  25.335  0.0774  0.1311  0.5544
24171DPPC   GL230466   8.685   1.886  25.243 -0.2703  0.0889 -0.1335
24171DPPC   C1A30467   8.835   1.818  25.679 -0.0747 -0.6781 -0.3673
24171DPPC   C2A30468   8.597   1.832  26.008 -0.1546  0.1769 -0.0710
24171DPPC   C3A30469   8.395   1.899  26.408  0.0573 -0.0033 -0.1741
24171DPPC   C4A30470   8.114   1.900  26.840  0.0663  0.1050 -0.1522
24171DPPC   C1B30471   8.473   1.957  25.504 -0.0025 -0.2052 -0.0532
24171DPPC   C2B30472   8.204   2.011  25.774 -0.1294  0.0607 -0.2604
24171DPPC   C3B30473   7.914   2.111  26.201  0.0257  0.1485  0.0609
24171DPPC   C4B30474   7.709   2.136  26.657  0.0747 -0.0789 -0.3580
24172DPPC   NC330475   8.072   4.340  24.453 -0.1231 -0.2683 -0.2050
24172DPPC   PO430476   8.214   3.959  24.598  0.0587 -0.2690  0.1779
24172DPPC   GL130477   8.129   3.782  25.011 -0.1329 -0.2211 -0.2092
24172DPPC   GL230478   8.290   3.968  25.184 -0.0210  0.5183 -0.5451
24172DPPC   C1A30479   7.907   3.759  25.292 -0.1852  0.2678  0.2399
24172DPPC   C2A30480   7.600   3.736  25.584  0.1145  0.1285  0.0020
24172DPPC   C3A30481   7.351   3.769  25.937 -0.1062 -0.0514  0.0554
24172DPPC   C4A30482   6.980   3.725  26.257 -0.1261  0.0241  0.2482
24172DPPC   C1B30483   8.160   3.988  25.533  0.0805 -0.1779 -0.0275
24172DPPC   C2B30484   7.921   3.995  25.847  0.0429 -0.1625 -0.1627
24172DPPC   C3B30485   7.647   4.077  26.197 -0.0727  0.0861  0.0687
24172DPPC   C4B30486   7.309   4.080  26.544  0.1092 -0.0105 -0.3311
24173DPPC   NC330487   8.129   2.272  24.238 -0.0159  0.1757 -0.2712
24173DPPC   PO430488   7.765   2.395  24.241  0.2429 -0.0630 -0.2168
24173DPPC   GL130489   7.646   2.105  24.543 -0.0791  0.0323  0.2410
24173DPPC   GL230490   7.907   2.115  24.637 -0.1562  0.1566  0.3721
24173DPPC   C1A30491   7.433   2.151  24.811 -0.1740 -0.2571 -0.0399
24173DPPC   C2A30492   7.153   2.192  25.121 -0.1483 -0.0035 -0.0276
24173DPPC   C3A30493   6.893   2.212  25.532 -0.3733  0.3589 -0.0153
24173DPPC   C4A30494   6.624   2.094  25.944 -0.1604 -0.0925  0.3806
24173DPPC   C1B30495   7.835   2.007  25.005 -0.0647 -0.0988  0.0027
24173DPPC   C2B30496   7.578   1.936  25.246  0.1130 -0.3667  0.0559
24173DPPC   C3B30497   7.364   1.974  25.625 -0.1148 -0.0245  0.0507
24173DPPC   C4B30498   7.097   1.803  25.965 -0.0297  0.3692  0.1222
24174DPPS   CNO30499   8.188   4.618  24.066 -0.1076 -0.0347 -0.3570
24174DPPS   PO430500   7.894   4.749  24.197 -0.3136 -0.0754 -0.1560
24174DPPS   GL130501   7.733   4.675  24.499  0.0472 -0.0301  0.0275
24174DPPS   GL230502   7.583   4.405  24.464  0.0258 -0.2050  0.2340
24174DPPS   C1A30503   7.504   4.898  24.739 -0.0563  0.4170  0.3266
24174DPPS   C2A30504   7.313   4.969  25.096  0.0574  0.1436 -0.0162
24174DPPS   C3A30505   6.988   5.015  25.474  0.0285 -0.0005 -0.4827
24174DPPS   C4A30506   6.771   4.974  25.924 -0.2041 -0.2198  0.0557
24174DPPS   C1B30507   7.488   4.445  24.815  0.0878  0.2164 -0.1189
24174DPPS   C2B30508   7.323   4.425  25.191  0.2255 -0.1709 -0.2523
24174DPPS   C3B30509   7.015   4.466  25.558 -0.0137  0.0651  0.1260
24174DPPS   C4B30510   6.672   4.485  25.846 -0.3374 -0.0266  0.0306
24175DPPS   CNO30511   8.374   3.088  24.398  0.4464 -0.0547 -0.1828
24175DPPS   PO430512   8.117   2.867  24.236 -0.2393  0.1670 -0.0070
24175DPPS   GL130513   7.773   2.912  24.522  0.1787  0.0696 -0.2302
24175DPPS   GL230514   7.645   2.694  24.523 -0.0425 -0.1061 -0.0142
24175DPPS   C1A30515   7.492   3.096  24.620  0.0357  0.1897  0.0053
24175DPPS   C2A30516   7.214   3.137  24.882  0.1809  0.0445  0.1015
24175DPPS   C3A30517   6.872   3.221  25.225  0.0849 -0.2203 -0.2871
24175DPPS   C4A30518   6.515   3.265  25.582 -0.1696  0.2623 -0.0685
24175DPPS   C1B30519   7.370   2.698  24.764  0.1417 -0.2483 -0.2782
24175DPPS   C2B30520   7.093   2.656  25.033  0.0350 -0.2525 -0.3855
24175DPPS   C3B30521   6.820   2.663  25.407  0.0903 -0.2237 -0.1936
24175DPPS   C4B30522   6.533   2.652  25.758 -0.1350  0.2955  0.2821
24176DPPS   CNO30523   7.747   3.232  23.619  0.2115  0.3328 -0.0007
24176DPPS   PO430524   7.433   3.246  23.432  0.2018  0.0793  0.0321
24176DPPS   GL130525   7.087   3.260  23.635  0.0280  0.0562 -0.0149
24176DPPS   GL230526   6.841   3.290  23.511  0.2840  0.0018 -0.1198
24176DPPS   C1A30527   6.951   3.114  23.960 -0.1810 -0.0939  0.0584
24176DPPS   C2A30528   6.618   3.060  24.218 -0.2701 -0.1790  0.3348
24176DPPS   C3A30529   6.280   3.115  24.562 -0.2092 -0.3004  0.1602
24176DPPS   C4A30530   6.097   3.073  24.972  0.2665 -0.2223 -0.0562
24176DPPS   C1B30531   6.578   3.297  23.776 -0.0862  0.3157  0.0975
24176DPPS   C2B30532   6.228   3.245  23.999 -0.2893  0.1910  0.1359
24176DPPS   C3B30533   5.874   3.226  24.332  0.3088  0.1007 -0.1793
24176DPPS   C4B30534   5.554   3.290  24.691  0.0027 -0.0482  0.3063
24177DPPS   CNO30535   8.109   1.625  23.881  0.1582 -0.3375  0.0345
24177DPPS   PO430536   7.788   1.664  23.686  0.0193 -0.0464 -0.1652
24177DPPS   GL130537   7.466   1.661  24.093 -0.4812 -0.3033  0.0587
24177DPPS   GL230538   7.426   1.424  23.992 -0.0733 -0.1697 -0.0439
24177DPPS   C1A30539   7.257   1.877  24.364  0.2460 -0.2295  0.0794
24177DPPS   C2A30540   7.049   1.890  24.760 -0.0479  0.2177  0.1456
24177DPPS   C3A30541   6.763   1.846  25.122 -0.0234  0.4288 -0.0165
24177DPPS   C4A30542   6.480   1.842  25.520  0.1000  0.1041  0.0793
24177DPPS   C1B30543   7.095   1.232  24.102  0.0709  0.2176  0.0059
24177DPPS   C2B30544   6.929   1.092  24.430 -0.2008  0.0778  0.2437
24177DPPS   C3B30545   6.618   1.061  24.797  0.0416 -0.0781 -0.0008
24177DPPS   C4B30546   6.279   1.070  25.211 -0.2488  0.1239  0.0024
24178DPPS   CNO30547   6.422   4.171  22.257  0.2517 -0.1040  0.1095
24178DPPS   PO430548   6.345   4.509  22.075 -0.0427 -0.2047 -0.0548
24178DPPS   GL130549   6.099   4.631  22.295 -0.0283 -0.2546 -0.0274
24178DPPS   GL230550   6.159   4.763  22.544 -0.1892 -0.1324 -0.0350
24178DPPS   C1A30551   5.765   4.694  22.359  0.0271 -0.0576  0.1155
24178DPPS   C2A30552   5.449   4.809  22.607  0.1419 -0.0100 -0.1955
24178DPPS   C3A30553   5.176   4.899  22.955 -0.2452 -0.0467 -0.1519
24178DPPS   C4A30554   4.833   4.894  23.306 -0.0007  0.4264  0.0913
24178DPPS   C1B30555   5.941   4.703  22.769 -0.0265 -0.0297 -0.1224
24178DPPS   C2B30556   5.718   4.684  23.098 -0.1368  0.1034  0.2080
24178DPPS   C3B30557   5.311   4.681  23.456 -0.0995  0.2049 -0.1619
24178DPPS   C4B30558   4.914   4.650  23.829 -0.0503  0.3818  0.2202
24179DPPS   CNO30559   7.133   4.244  22.839  0.2344  0.2882  0.0131
24179DPPS   PO430560   6.818   4.173  22.671  0.1412  0.1407 -0.1590
24179DPPS   GL130561   6.431   4.167  22.840  0.0027  0.0024  0.0033
24179DPPS   GL230562   6.173   4.233  22.720 -0.3528 -0.0211 -0.0105
24179DPPS   C1A30563   6.345   4.400  23.103  0.1755 -0.3380 -0.0487
24179DPPS   C2A30564   6.085   4.520  23.381  0.0979  0.1673  0.3130
24179DPPS   C3A30565   5.748   4.478  23.696  0.1233  0.2924 -0.2536
24179DPPS   C4A30566   5.441   4.509  24.044 -0.1279  0.0075  0.0870
24179DPPS   C1B30567   5.976   4.258  23.025 -0.0313 -0.0153 -0.0506
24179DPPS   C2B30568   5.645   4.201  23.338 -0.1006 -0.0436  0.1177
24179DPPS   C3B30569   5.300   4.205  23.684  0.1796 -0.0645  0.2424
24179DPPS   C4B30570   5.013   4.097  24.034 -0.0026  0.0663 -0.1405
24180DPPS   CNO30571   7.179   2.345  22.918  0.0268  0.1259  0.1121
24180DPPS   PO430572   6.921   2.546  23.147 -0.1303  0.0124  0.0616
24180DPPS   GL130573   6.901   2.212  23.414  0.1824 -0.5180 -0.0741
24180DPPS   GL230574   7.171   2.328  23.526  0.3054 -0.1413 -0.5926
24180DPPS   C1A30575   6.659   2.183  23.699  0.0350  0.0567  0.2138
24180DPPS   C2A30576   6.452   2.284  24.033 -0.1334 -0.1954  0.1402
24180DPPS   C3A30577   6.155   2.277  24.400  0.1380  0.1249  0.0359
24180DPPS   C4A30578   5.847   2.272  24.784 -0.4213 -0.2031 -0.0751
24180DPPS   C1B30579   7.069   2.191  23.867 -0.2310  0.1703 -0.1316
24180DPPS   C2B30580   6.909   2.141  24.226  0.0039 -0.0272  0.0100
24180DPPS   C3B30581   6.628   2.068  24.575  0.1885  0.1699 -0.0681
24180DPPS   C4B30582   6.301   2.048  24.919 -0.3071  0.0630 -0.1522
24181DPPS   CNO30583   8.444   1.967  23.899  0.0815  0.0404  0.1991
24181DPPS   PO430584   8.442   1.825  24.240 -0.2279  0.1536  0.1630
24181DPPS   GL130585   8.129   1.690  24.484 -0.0056  0.0295  0.1691
24181DPPS   GL230586   8.306   1.498  24.552  0.2535  0.0419  0.0392
24181DPPS   C1A30587   7.798   1.717  24.631 -0.3907 -0.3365  0.0757
24181DPPS   C2A30588   7.471   1.644  24.813  0.1408 -0.0226 -0.0418
24181DPPS   C3A30589   7.203   1.556  25.226 -0.1762  0.1734  0.3483
24181DPPS   C4A30590   6.912   1.599  25.578 -0.2101 -0.0796 -0.0002
24181DPPS   C1B30591   8.210   1.609  24.906  0.1254 -0.1316 -0.0230
24181DPPS   C2B30592   8.100   1.761  25.299  0.1222 -0.3091 -0.1282
24181DPPS   C3B30593   7.792   1.726  25.693 -0.1827  0.1733  0.1939
24181DPPS   C4B30594   7.619   1.703  26.111  0.0292 -0.0884 -0.0749
24182DPPS   CNO30595   8.695   3.778  24.328 -0.0753 -0.0667 -0.1287
24182DPPS   PO430596   8.529   3.562  24.552  0.1097  0.1476  0.0010
24182DPPS   GL130597   8.090   3.490  24.604 -0.1541  0.0986 -0.0989
24182DPPS   GL230598   8.270   3.379  24.864 -0.0630  0.1023  0.0277
24182DPPS   C1A30599   7.842   3.500  24.791  0.0653  0.1132  0.0110
24182DPPS   C2A30600   7.533   3.502  25.076 -0.3330  0.1235 -0.0176
24182DPPS   C3A30601   7.237   3.481  25.412  0.1112 -0.1393  0.1995
24182DPPS   C4A30602   6.937   3.482  25.840 -0.1163  0.0688 -0.3515
24182DPPS   C1B30603   8.063   3.391  25.209 -0.0294 -0.0830  0.2292
24182DPPS   C2B30604   7.809   3.264  25.449 -0.1066  0.1067 -0.0653
24182DPPS   C3B30605   7.508   3.287  25.790 -0.2164 -0.1277  0.0355
24182DPPS   C4B30606   7.262   3.215  26.213 -0.1733  0.2493  0.1018
24183DPPS   CNO30607   6.221   2.268  21.747  0.1232 -0.3490  0.1500
24183DPPS   PO430608   5.901   2.426  21.824 -0.0123  0.2891  0.0966
24183DPPS   GL130609   5.782   2.651  22.200 -0.1151  0.1376  0.0979
24183DPPS   GL230610   5.546   2.444  22.208 -0.0827  0.0949 -0.2829
24183DPPS   C1A30611   5.772   2.746  22.550 -0.0189  0.1282  0.2497
24183DPPS   C2A30612   5.647   2.847  22.915  0.1189  0.2656  0.0090
24183DPPS   C3A30613   5.312   2.821  23.234 -0.2070 -0.0495 -0.0221
24183DPPS   C4A30614   4.956   2.785  23.565  0.0658  0.2015  0.1683
24183DPPS   C1B30615   5.439   2.459  22.565  0.0768  0.3004 -0.1536
24183DPPS   C2B30616   5.189   2.451  22.859  0.0359 -0.1084  0.0675
24183DPPS   C3B30617   4.876   2.461  23.230 -0.3425 -0.1424  0.0335
24183DPPS   C4B30618   4.628   2.418  23.610  0.0248 -0.0982 -0.0170
24184DPPS   CNO30619   6.090   4.019  21.428 -0.1188  0.0380  0.0137
24184DPPS   PO430620   6.240   4.311  21.607  0.2429  0.1676  0.0996
24184DPPS   GL130621   6.033   4.171  21.960  0.1950 -0.0147 -0.0325
24184DPPS   GL230622   5.851   3.955  21.881 -0.1241 -0.0354 -0.0001
24184DPPS   C1A30623   5.841   4.253  22.324 -0.2093  0.1047  0.2087
24184DPPS   C2A30624   5.599   4.327  22.680  0.0435 -0.0467 -0.2961
24184DPPS   C3A30625   5.291   4.358  23.003 -0.1386 -0.1817 -0.3059
24184DPPS   C4A30626   4.926   4.301  23.363 -0.3565  0.0766 -0.3871
24184DPPS   C1B30627   5.584   4.019  22.094 -0.6039 -0.1980  0.1760
24184DPPS   C2B30628   5.301   4.026  22.406 -0.1116 -0.1403 -0.0067
24184DPPS   C3B30629   4.963   4.035  22.789  0.1257 -0.0278  0.2850
24184DPPS   C4B30630   4.581   3.943  23.067 -0.0352  0.0992  0.1220
24185DPPS   CNO30631   7.709   5.242  23.328  0.1400 -0.1137  0.1333
24185DPPS   PO430632   7.460   4.969  23.478 -0.0029 -0.1324 -0.1995
24185DPPS   GL130633   7.165   5.120  23.670 -0.1516  0.0111 -0.1863
24185DPPS   GL230634   7.143   4.987  23.886 -0.2863  0.1220 -0.1690
24185DPPS   C1A30635   6.871   5.322  23.647  0.0363  0.0788 -0.0110
24185DPPS   C2A30636   6.653   5.521  23.880  0.0846 -0.0526 -0.2639
24185DPPS   C3A30637   6.347   5.567  24.211  0.0840 -0.0606 -0.2303
24185DPPS   C4A30638   5.979   5.654  24.548  0.0852 -0.0447 -0.0781
24185DPPS   C1B30639   6.915   4.926  24.176 -0.2780 -0.2316 -0.4243
24185DPPS   C2B30640   6.685   4.835  24.535 -0.0164 -0.0001 -0.2331
24185DPPS   C3B30641   6.350   4.865  24.899 -0.0320 -0.0610  0.0955
24185DPPS   C4B30642   6.051   4.875  25.283  0.2972 -0.1790 -0.0851
24186DPPS   CNO30643   9.549   2.462  25.113 -0.1476 -0.2254 -0.0703
24186DPPS   PO430644   9.192   2.298  25.112 -0.0001 -0.0383  0.0343
24186DPPS   GL130645   9.020   2.266  25.372  0.6278  0.0940  0.1087
24186DPPS   GL230646   9.193   2.212  25.644  0.3561 -0.0506  0.1559
24186DPPS   C1A30647   8.756   2.363  25.631  0.3560  0.1762 -0.0687
24186DPPS   C2A30648   8.529   2.412  25.966 -0.1026  0.1548  0.0367
24186DPPS   C3A30649   8.285   2.460  26.368 -0.2792  0.3683  0.3139
24186DPPS   C4A30650   8.068   2.466  26.789 -0.0415 -0.1788 -0.1884
24186DPPS   C1B30651   9.010   2.210  25.974 -0.0510  0.2860 -0.0472
24186DPPS   C2B30652   8.838   2.166  26.371 -0.4626 -0.1106 -0.1880
24186DPPS   C3B30653   8.609   2.299  26.761 -0.1741  0.1760  0.3541
24186DPPS   C4B30654   8.300   2.300  27.135 -0.0368  0.0469 -0.0840
24187DPPS   CNO30655   5.926   0.364  20.533 -0.0972 -0.0197 -0.1653
24187DPPS   PO430656   5.886   0.453  20.934  0.0411 -0.0877 -0.0972
24187DPPS   GL130657   5.700   0.153  21.141  0.0494  0.0759  0.1050
24187DPPS   GL230658   5.855   0.276  21.367 -0.1758  0.2243  0.2064
24187DPPS   C1A30659   5.399   0.051  21.308  0.0383 -0.0105 -0.0216
24187DPPS   C2A30660   5.097   0.184  21.504 -0.1203  0.0773 -0.1835
24187DPPS   C3A30661   4.763   0.120  21.811  0.3142  0.1056  0.1705
24187DPPS   C4A30662   4.415   0.098  22.178  0.1047  0.1821 -0.0190
24187DPPS   C1B30663   5.544   0.308  21.657 -0.1673 -0.0998  0.4733
24187DPPS   C2B30664   5.212   0.362  21.947 -0.0740  0.0651  0.0509
24187DPPS   C3B30665   4.858   0.317  22.260 -0.2208 -0.0923 -0.4246
24187DPPS   C4B30666   4.576   0.335  22.563  0.4663  0.1752  0.0125
24188DPPS   CNO30667   7.766   2.785  23.823  0.1362 -0.1565 -0.0143
24188DPPS   PO430668   7.639   2.444  23.628 -0.1585 -0.0288  0.2104
24188DPPS   GL130669   7.323   2.541  23.880 -0.0068  0.2633 -0.0988
24188DPPS   GL230670   7.315   2.821  23.930 -0.0231  0.1892  0.0474
24188DPPS   C1A30671   7.211   2.502  24.249 -0.3317 -0.0860  0.2084
24188DPPS   C2A30672   7.042   2.414  24.619  0.2226  0.0452  0.1313
24188DPPS   C3A30673   6.686   2.386  24.971 -0.0441 -0.1998  0.0385
24188DPPS   C4A30674   6.402   2.308  25.330 -0.2755 -0.0973  0.1274
24188DPPS   C1B30675   7.285   2.996  24.254 -0.1467  0.0931  0.0670
24188DPPS   C2B30676   6.983   2.884  24.526  0.1066 -0.3884 -0.1028
24188DPPS   C3B30677   6.652   2.923  24.841  0.1949 -0.1044 -0.1654
24188DPPS   C4B30678   6.407   2.824  25.242 -0.0206 -0.3423  0.0640
24189DPPS   CNO30679   7.655   4.150  23.673 -0.0141 -0.1393 -0.2417
24189DPPS   PO430680   7.852   4.252  23.980  0.0789  0.1634  0.3007
24189DPPS   GL130681   7.532   4.056  24.198  0.0965 -0.4048  0.0277
24189DPPS   GL230682   7.356   4.064  24.042 -0.5045  0.1161 -0.0640
24189DPPS   C1A30683   7.281   4.127  24.491 -0.0802 -0.0222  0.0425
24189DPPS   C2A30684   7.072   4.163  24.861  0.2110  0.0691 -0.2548
24189DPPS   C3A30685   6.732   4.199  25.251  0.0088 -0.0657  0.0905
24189DPPS   C4A30686   6.376   4.102  25.552 -0.2067  0.0157 -0.0435
24189DPPS   C1B30687   7.005   4.031  24.193  0.2059  0.1201  0.0232
24189DPPS   C2B30688   6.853   3.888  24.510  0.0450  0.1459  0.2825
24189DPPS   C3B30689   6.556   3.893  24.881  0.1449 -0.0164 -0.0678
24189DPPS   C4B30690   6.170   3.823  25.166 -0.0674 -0.0261  0.0378
24190DPPS   CNO30691   6.183   2.841  21.606  0.1779  0.0705  0.3359
24190DPPS   PO430692   5.909   2.992  21.819 -0.0166 -0.2502 -0.0086
24190DPPS   GL130693   5.593   2.732  21.634  0.2317  0.0119  0.0979
24190DPPS   GL230694   5.542   2.983  21.517  0.0202 -0.0314 -0.2117
24190DPPS   C1A30695   5.302   2.735  21.918 -0.2476  0.3929 -0.0489
24190DPPS   C2A30696   5.094   2.630  22.274  0.1331 -0.0963  0.0547
24190DPPS   C3A30697   4.768   2.627  22.605  0.1238  0.0867  0.1766
24190DPPS   C4A30698   4.471   2.661  22.939 -0.0812 -0.0285  0.1569
24190DPPS   C1B30699   5.369   3.198  21.826  0.3778  0.0330 -0.1294
24190DPPS   C2B30700   5.108   3.172  22.128 -0.2486 -0.1141 -0.0641
24190DPPS   C3B30701   4.767   3.229  22.465 -0.0212  0.0729  0.0091
24190DPPS   C4B30702   4.410   3.221  22.821  0.0750  0.1439  0.4309
24191DPPS   CNO30703   6.902   6.526  22.301 -0.0434 -0.0423  0.0599
24191DPPS   PO430704   6.549   6.481  22.318 -0.2579  0.0991 -0.0861
24191DPPS   GL130705   6.306   6.655  22.593 -0.0945  0.0673 -0.1859
24191DPPS   GL230706   6.395   6.597  22.861  0.2488  0.3952 -0.2330
24191DPPS   C1A30707   5.977   6.652  22.673 -0.0602 -0.1989 -0.2267
24191DPPS   C2A30708   5.636   6.557  22.859  0.1982  0.0716 -0.1585
24191DPPS   C3A30709   5.316   6.576  23.197  0.0856  0.3929 -0.3592
24191DPPS   C4A30710   4.947   6.653  23.624 -0.1708  0.0058 -0.2454
24191DPPS   C1B30711   6.100   6.510  23.054  0.1328  0.0492 -0.0720
24191DPPS   C2B30712   5.780   6.450  23.353 -0.3074  0.1742  0.2479
24191DPPS   C3B30713   5.434   6.466  23.681 -0.0952 -0.0218  0.1758
24191DPPS   C4B30714   5.135   6.497  24.134  0.0031  0.1682  0.0955
24192DPPS   CNO30715   8.871   0.859  24.345  0.0242 -0.0332  0.0681
24192DPPS   PO430716   8.882   0.863  24.733  0.1033  0.1699  0.2662
24192DPPS   GL130717   8.541   0.644  24.969  0.0300  0.0932  0.0418
24192DPPS   GL230718   8.378   0.546  24.861 -0.2102  0.0614  0.0205
24192DPPS   C1A30719   8.318   0.696  25.269  0.0172 -0.3742 -0.0838
24192DPPS   C2A30720   8.050   0.740  25.564 -0.3681 -0.1084 -0.0291
24192DPPS   C3A30721   7.843   0.734  25.986 -0.1347 -0.3101 -0.1194
24192DPPS   C4A30722   7.582   0.742  26.427  0.1974 -0.1029 -0.1360
24192DPPS   C1B30723   8.074   0.453  25.012 -0.0805  0.0864  0.1355
24192DPPS   C2B30724   7.772   0.398  25.385  0.2582  0.3128 -0.0419
24192DPPS   C3B30725   7.498   0.413  25.745 -0.1908 -0.0971 -0.2112
24192DPPS   C4B30726   7.258   0.395  26.164 -0.2549 -0.3301 -0.1195
24193DPPS   CNO30727   6.278   0.141  21.518 -0.1867  0.3160 -0.3055
24193DPPS   PO430728   6.260   0.222  21.906  0.0153  0.0024 -0.0086
24193DPPS   GL130729   5.969   0.338  21.821 -0.0232 -0.1689  0.2438
24193DPPS   GL230730   5.985   0.569  21.669 -0.2393 -0.1438 -0.3661
24193DPPS   C1A30731   5.707   0.418  22.067 -0.1814 -0.1707 -0.3319
24193DPPS   C2A30732   5.472   0.678  22.250  0.0623  0.1784 -0.1083
24193DPPS   C3A30733   5.130   0.706  22.580  0.1793  0.1716 -0.0761
24193DPPS   C4A30734   4.835   0.674  22.971  0.1557  0.0191 -0.1814
24193DPPS   C1B30735   5.670   0.696  21.666  0.4529 -0.4231  0.2610
24193DPPS   C2B30736   5.327   0.891  21.684 -0.0206  0.0757  0.2031
24193DPPS   C3B30737   4.976   0.882  22.057 -0.0930 -0.0266 -0.0657
24193DPPS   C4B30738   4.653   0.843  22.456 -0.0574 -0.2732 -0.2183
24194DPPS   CNO30739   9.320   5.803  24.817  0.1010  0.0408  0.1529
24194DPPS   PO430740   9.046   6.053  24.792 -0.0399  0.0968 -0.0016
24194DPPS   GL130741   8.706   6.014  25.035 -0.1007  0.0493  0.1809
24194DPPS   GL230742   8.789   6.022  25.303  0.0146  0.1332 -0.0912
24194DPPS   C1A30743   8.407   5.971  25.143  0.2081  0.2102 -0.2317
24194DPPS   C2A30744   8.033   6.083  25.328  0.3135  0.0186 -0.2432
24194DPPS   C3A30745   7.713   6.019  25.662  0.2798  0.1215 -0.1080
24194DPPS   C4A30746   7.411   6.001  26.087 -0.2175 -0.0232  0.1811
24194DPPS   C1B30747   8.576   5.982  25.595 -0.4277  0.4162  0.0560
24194DPPS   C2B30748   8.255   5.956  25.850 -0.0755 -0.1426 -0.0109
24194DPPS   C3B30749   7.890   5.922  26.154  0.1237  0.2026 -0.0095
24194DPPS   C4B30750   7.667   5.928  26.578  0.0162 -0.0086  0.0157
24195DPPS   CNO30751   5.901   5.518  21.456 -0.4248 -0.1464  0.0016
24195DPPS   PO430752   5.778   5.197  21.436 -0.1273 -0.0103 -0.0876
24195DPPS   GL130753   5.355   5.186  21.487 -0.1379 -0.4941 -0.2200
24195DPPS   GL230754   5.252   4.977  21.299 -0.2696 -0.1991  0.1126
24195DPPS   C1A30755   5.101   5.284  21.695 -0.1469 -0.2069  0.1042
24195DPPS   C2A30756   4.833   5.242  21.951  0.0475 -0.1096 -0.0742
24195DPPS   C3A30757   4.476   5.251  22.235  0.4724 -0.2118 -0.2158
24195DPPS   C4A30758   4.245   5.239  22.679  0.1474 -0.0740  0.0468
24195DPPS   C1B30759   5.077   4.847  21.593 -0.0217 -0.0151  0.1013
24195DPPS   C2B30760   4.929   4.721  21.940 -0.4577  0.1913  0.0496
24195DPPS   C3B30761   4.606   4.762  22.286  0.2348  0.1027  0.0722
24195DPPS   C4B30762   4.217   4.756  22.636  0.1901 -0.0657 -0.1674
24196DPPS   CNO30763   8.605   4.295  24.434  0.2423 -0.2064  0.1114
24196DPPS   PO430764   8.468   4.594  24.620  0.1431  0.2297 -0.0324
24196DPPS   GL130765   8.302   4.345  24.893  0.2004  0.0057 -0.1110
24196DPPS   GL230766   8.553   4.383  25.059 -0.1247 -0.3005 -0.1649
24196DPPS   C1A30767   8.026   4.302  25.130 -0.1154  0.2937  0.0644
24196DPPS   C2A30768   7.762   4.201  25.423  0.0958  0.0964  0.3787
24196DPPS   C3A30769   7.450   4.233  25.758 -0.1837  0.3018 -0.2038
24196DPPS   C4A30770   7.081   4.249  26.070 -0.1473  0.0313 -0.0289
24196DPPS   C1B30771   8.443   4.496  25.346 -0.3651 -0.1307 -0.0350
24196DPPS   C2B30772   8.122   4.479  25.621 -0.0983 -0.2946 -0.0612
24196DPPS   C3B30773   7.826   4.528  25.989 -0.2022 -0.1201  0.2282
24196DPPS   C4B30774   7.511   4.528  26.332 -0.4346  0.0506 -0.1508
24197DPPS   CNO30775   6.385   3.595  21.350 -0.0276 -0.0439 -0.1032
24197DPPS   PO430776   6.345   3.348  21.648  0.0688 -0.0246  0.1445
24197DPPS   GL130777   6.001   3.551  21.786 -0.1171 -0.0216  0.0234
24197DPPS   GL230778   5.912   3.490  22.028 -0.0968  0.0199  0.1800
24197DPPS   C1A30779   5.605   3.619  21.719  0.0734  0.2358 -0.1839
24197DPPS   C2A30780   5.245   3.698  21.901  0.0829 -0.1167  0.0346
24197DPPS   C3A30781   4.856   3.651  22.186 -0.2169  0.0906  0.0632
24197DPPS   C4A30782   4.484   3.738  22.580 -0.2907 -0.3134 -0.0974
24197DPPS   C1B30783   5.613   3.553  22.201  0.1649  0.0974  0.0457
24197DPPS   C2B30784   5.306   3.522  22.484 -0.0430  0.1978 -0.0687
24197DPPS   C3B30785   4.989   3.536  22.869  0.2578 -0.1689  0.0447
24197DPPS   C4B30786   4.646   3.478  23.220  0.1713  0.1129  0.3205
24198DPPS   CNO30787   5.506   3.180  20.940 -0.4058 -0.0455 -0.1387
24198DPPS   PO430788   5.755   2.918  21.137 -0.1381 -0.0055  0.0192
24198DPPS   GL130789   5.486   2.675  21.224 -0.0377  0.0251 -0.0468
24198DPPS   GL230790   5.523   2.409  21.273 -0.0783 -0.2028  0.1656
24198DPPS   C1A30791   5.184   2.875  21.322  0.1600 -0.2901  0.0703
24198DPPS   C2A30792   4.948   2.867  21.672 -0.1280  0.3530  0.0214
24198DPPS   C3A30793   4.650   2.832  22.048  0.1588  0.2060  0.0200
24198DPPS   C4A30794   4.260   2.953  22.394  0.1901  0.0036 -0.1381
24198DPPS   C1B30795   5.271   2.481  21.519 -0.0763 -0.3257  0.0626
24198DPPS   C2B30796   5.046   2.368  21.837  0.1690  0.3410 -0.0361
24198DPPS   C3B30797   4.677   2.381  22.156 -0.0471  0.0775  0.1748
24198DPPS   C4B30798   4.354   2.339  22.576 -0.1009  0.1647  0.2462
24199W        W30799   3.707   1.745  12.820  0.0072 -0.1715  0.0924
24200W        W30800   8.627   2.461  18.102  0.1124  0.0759  0.1864
24201W        W30801  20.787   4.914  36.185 -0.1794 -0.0239  0.0194
24202W        W30802   3.392   4.372  40.973 -0.2195  0.1543 -0.0791
24203W        W30803   6.073   2.668  33.469  0.0927 -0.1505 -0.2549
24204W        W30804  14.868   3.265  13.560 -0.0325  0.0552  0.1804
24205W        W30805   1.697   1.026  42.861 -0.2005  0.1609  0.1894
24206W        W30806   7.470   0.680   6.502  0.0414 -0.0360  0.0282
24207W        W30807  14.217   4.417   8.728 -0.0812 -0.0407  0.1138
24208W        W30808   1.152   2.708  35.026 -0.2130 -0.2315 -0.1520
24209W        W30809  17.121   1.428   9.702 -0.1347 -0.0366 -0.0538
24210W        W30810  13.533   4.806  13.809  0.0419  0.3089  0.0919
24211W        W30811   6.133   4.778   1.572 -0.1048  0.0065  0.2800
24212W        W30812   7.106   4.449   1.108 -0.0944  0.0965  0.0746
24213W        W30813   3.851   3.439  30.746  0.3370 -0.0137 -0.2771
24214W        W30814  12.591   4.985  16.227 -0.1116 -0.0104  0.3014
24215W        W30815   3.791   5.891  12.217 -0.2219 -0.0770  0.0064
24216W        W30816   6.522   5.236  34.141  0.1345 -0.0288  0.1022
24217W        W30817   1.429   3.256  15.380  0.1455  0.1530 -0.1922
24218W        W30818  10.731   5.719  37.105  0.2884 -0.3483 -0.1596
24219W        W30819  16.728   2.208   7.362 -0.1884 -0.1660  0.2848
24220W        W30820  12.431   6.349  28.339 -0.1504  0.1062  0.2029
24221W        W30821  16.940   0.652  44.632 -0.0562 -0.1422 -0.0892
24222W        W30822  14.751   3.950  33.818 -0.3176 -0.3237  0.2524
24223W        W30823  17.870   4.165  29.975  0.1245 -0.0225 -0.1516
24224W        W30824  17.435   1.134  39.867  0.3636  0.1492 -0.1539
24225W        W30825   1.853   0.255   7.926  0.0036  0.0233 -0.0563
24226W        W30826  13.315   4.644   2.294 -0.2511 -0.2286  0.3255
24227W        W30827   4.277   1.659  43.326  0.0099 -0.1466 -0.0135
24228W        W30828   6.222   3.738   7.638  0.0591  0.1149 -0.1047
24229W        W30829  12.392   1.938  39.266  0.0186  0.1551  0.1406
24230W        W30830  14.744   4.119  36.186  0.2674  0.1366 -0.1234
24231W        W30831  20.891   1.432  31.931 -0.3220 -0.1721 -0.0256
24232W        W30832  20.441   0.049   5.166  0.0848 -0.0417 -0.1960
24233W        W30833  17.964   0.407  42.453  0.2872  0.0897  0.0283
24234W        W30834   2.641   4.532  28.040 -0.0976 -0.0675  0.1168
24235W        W30835   0.688   5.968  35.922  0.2750 -0.0472 -0.0140
24236W        W30836   7.751   1.510  10.508  0.3365 -0.0704  0.1160
24237W        W30837  15.244   1.951  35.783  0.0280  0.0277  0.4759
24238W        W30838  20.818   2.932   2.720 -0.1983 -0.0220 -0.0956
24239W        W30839  12.726   5.719   0.084 -0.0060  0.1796 -0.0289
24240W        W30840  15.473   3.590  13.399 -0.2037  0.3686 -0.0375
24241W        W30841   9.494   5.597  21.707  0.1146 -0.0123 -0.0476
24242W        W30842  10.244   6.404  11.166  0.0877  0.1994  0.0106
24243W        W30843   6.710   1.289  34.031 -0.2496  0.0322 -0.0860
24244W        W30844  14.304   1.202  30.999 -0.1098  0.1184  0.1081
24245W        W30845  14.397   0.690  26.860 -0.0527  0.1787  0.3228
24246W        W30846  21.076   2.389   1.039 -0.1222 -0.2330 -0.0186
24247W        W30847   4.768   6.449   2.546 -0.2733 -0.0390 -0.0318
24248W        W30848  18.190   2.045  13.257  0.0683 -0.2611  0.2160
24249W        W30849  17.840   3.722  14.101  0.1866  0.2020 -0.2392
24250W        W30850  14.586   5.042   1.525 -0.2819  0.0996 -0.0166
24251W        W30851  14.248   5.657  43.886  0.0007  0.0930 -0.0259
24252W        W30852  20.086   5.361   5.812 -0.0461 -0.2447 -0.0206
24253W        W30853   9.176   6.266   3.194  0.0802 -0.2397  0.1160
24254W        W30854  12.724   6.469   9.139  0.1963 -0.0461  0.0205
24255W        W30855   9.416   3.693  37.793 -0.2045  0.0730  0.0737
24256W        W30856   3.139   3.314  33.471 -0.0101  0.0480 -0.0447
24257W        W30857   6.344   5.099  20.585  0.0638  0.0984  0.2031
24258W        W30858  18.447   3.453   5.970 -0.0858 -0.0578 -0.1976
24259W        W30859  10.123   4.477  12.515 -0.2438 -0.1604  0.1676
24260W        W30860  18.503   3.512  31.494  0.0172  0.0468 -0.3025
24261W        W30861   9.544   2.748  13.444  0.3184 -0.1657  0.1083
24262W        W30862  20.092   2.433  14.696  0.1086  0.0136 -0.2640
24263W        W30863  17.070   3.541  32.547  0.1035 -0.1517 -0.1117
24264W        W30864  13.961   5.708   0.338 -0.0516  0.0091 -0.2164
24265W        W30865  15.267   3.654  33.254  0.2187 -0.0476 -0.5709
24266W        W30866   6.627   5.648  30.774 -0.2126 -0.2283 -0.2147
24267W        W30867   2.527   3.566  41.973  0.0946 -0.0887 -0.1070
24268W        W30868   1.442   1.241  10.717 -0.2612 -0.0553  0.2098
24269W        W30869  13.822   4.435  36.509 -0.1742  0.2648 -0.2887
24270W        W30870   0.527   3.028  10.264  0.2690 -0.2128 -0.0824
24271W        W30871  10.087   5.612  35.481 -0.2453  0.3244 -0.0083
24272W        W30872   7.510   5.075   5.721 -0.0649  0.0097  0.0386
24273W        W30873  14.710   3.545   2.694 -0.1598  0.0202 -0.1842
24274W        W30874   4.458   2.060  39.510 -0.0503 -0.0431  0.1974
24275W        W30875   8.197   0.895   3.014  0.1780  0.2616  0.0613
24276W        W30876  17.514   3.749   9.994 -0.0219 -0.0112  0.2791
24277W        W30877   5.519   4.940  36.679  0.0166 -0.1688 -0.1191
24278W        W30878  11.186   4.630  40.541 -0.1382  0.1554  0.2026
24279W        W30879   3.570   0.789  32.088  0.1502 -0.0871  0.0579
24280W        W30880  10.554   5.668  19.051  0.0164 -0.0281 -0.0427
24281W        W30881  15.464   1.217  40.466 -0.1084  0.2985  0.3432
24282W        W30882  19.565   5.048  37.116  0.3201  0.2997 -0.0013
24283W        W30883   2.945   4.786  41.894 -0.0250 -0.3021 -0.1475
24284W        W30884  12.427   4.981  37.292 -0.0744 -0.1532 -0.1274
24285W        W30885   0.650   4.535  14.061 -0.1045  0.1177 -0.1977
24286W        W30886   9.195   0.412  12.590 -0.0312 -0.0080  0.1755
24287W        W30887   6.941   5.260   6.841  0.0366 -0.0318  0.2004
24288W        W30888  10.402   5.618  11.760 -0.2646 -0.1535  0.2488
24289W        W30889   0.890   5.549  32.732  0.0137 -0.0724  0.1138
24290W        W30890   7.434   2.496  15.788  0.0593 -0.1443  0.2670
24291W        W30891   0.915   0.486  10.272 -0.0523 -0.2489 -0.2211
24292W        W30892   2.438   0.331  36.073 -0.0635  0.1320 -0.0612
24293W        W30893  20.033   4.931  37.411 -0.2663 -0.3457  0.0598
24294W        W30894  20.393   6.396   4.771 -0.1570 -0.1150 -0.0574
24295W        W30895   1.696   0.577  10.191  0.0262  0.1965 -0.2447
24296W        W30896  11.774   1.357   9.360  0.2489 -0.3655 -0.1267
24297W        W30897  16.558   3.197  41.134  0.3016  0.2488  0.0385
24298W        W30898  12.286   6.029  10.357  0.0491  0.2650  0.0485
24299W        W30899   9.755   4.014  37.034 -0.0884  0.0188  0.0182
24300W        W30900   9.439   2.742  31.607  0.1496  0.1904 -0.0378
24301W        W30901  14.788   4.430   0.592  0.3899 -0.2209  0.0640
24302W        W30902   5.677   5.142   5.795  0.1975 -0.2329  0.1228
24303W        W30903  11.373   1.789  39.277 -0.1615  0.1207 -0.1571
24304W        W30904  11.592   2.340  29.591 -0.1430 -0.1079  0.1471
24305W        W30905   4.854   5.023  43.227  0.1105  0.1512 -0.2301
24306W        W30906  17.906   3.977  10.854  0.2116 -0.0462  0.1119
24307W        W30907   1.672   2.258  10.089  0.1611  0.2350  0.0518
24308W        W30908   1.889   4.855  27.231 -0.2001 -0.0589 -0.0279
24309W        W30909   7.057   1.478  38.953  0.1766 -0.3893  0.1881
24310W        W30910   3.634   4.797   8.264  0.0581 -0.2211 -0.3314
24311W        W30911   1.902   0.019  44.379 -0.0442  0.1062  0.1041
24312W        W30912   6.139   2.565  11.061  0.1008 -0.1438  0.4334
24313W        W30913  14.344   2.691  32.052 -0.0630  0.1626 -0.0331
24314W        W30914  15.593   3.379   2.702 -0.1881  0.3599 -0.1157
24315W        W30915  17.214   4.486  14.516  0.0794 -0.0287  0.0158
24316W        W30916   6.229   4.441   6.589 -0.2268  0.0508  0.2653
24317W        W30917  14.880   4.139   7.365  0.1610 -0.0326  0.2611
24318W        W30918   8.598   0.069  10.977  0.2416 -0.3135 -0.2962
24319W        W30919   5.504   1.883  32.106 -0.0882 -0.0188 -0.0223
24320W        W30920  16.529   2.129  43.468  0.1649  0.0304 -0.2337
24321W        W30921  11.268   3.604   4.785 -0.0172 -0.2250  0.1386
24322W        W30922  18.587   1.208  26.400 -0.0478 -0.1125  0.1354
24323W        W30923   4.151   4.594   9.023 -0.0764 -0.0661  0.1529
24324W        W30924  10.847   2.369  39.635  0.0806  0.2626  0.1836
24325W        W30925  13.782   4.167  17.176  0.0439 -0.2222  0.1503
24326W        W30926   3.762   6.392  34.177 -0.2477  0.0706  0.1997
24327W        W30927  12.217   6.059  18.718 -0.3341 -0.1472 -0.1372
24328W        W30928  19.443   2.618   0.453  0.3942 -0.3545 -0.0666
24329W        W30929  14.273   3.088   0.609  0.0432  0.0053 -0.0544
24330W        W30930   2.091   2.647   2.973  0.0470 -0.0450  0.3026
24331W        W30931   4.001   1.373   0.995  0.2463 -0.0651  0.4991
24332W        W30932  18.019   4.495  23.662 -0.1941  0.3486 -0.0381
24333W        W30933  19.453   1.514  10.281  0.0218 -0.3290  0.1021
24334W        W30934   8.978   2.991  17.703 -0.1275  0.0185 -0.1358
24335W        W30935  16.866   0.862  31.798 -0.1907  0.3494 -0.1726
24336W        W30936   3.928   1.305   9.639 -0.0359  0.0365 -0.1468
24337W        W30937  17.421   1.599  27.528  0.0262 -0.1218 -0.0231
24338W        W30938  16.629   0.968  16.607  0.3312  0.1679 -0.1701
24339W        W30939   1.862   4.833   1.829  0.1541  0.1493  0.1860
24340W        W30940   9.391   3.686   7.738  0.1354  0.0277  0.3691
24341W        W30941   2.243   3.566  15.778  0.0442 -0.0179  0.2444
24342W        W30942   1.912   6.531   1.021 -0.1293  0.0226 -0.1408
24343W        W30943   7.672   3.723   5.252 -0.0979  0.0799  0.2364
24344W        W30944  10.077   6.383  19.756  0.0775  0.0771  0.0214
24345W        W30945  18.523   0.883  32.706 -0.0426  0.0830 -0.1126
24346W        W30946   2.953   0.971  40.555 -0.2303  0.3448 -0.0554
24347W        W30947  20.954   4.018   4.051 -0.2232  0.0805 -0.4022
24348W        W30948  18.579   6.229   4.746  0.1215 -0.0854 -0.0434
24349W        W30949  16.512   1.331  41.527 -0.0508 -0.2907 -0.2016
24350W        W30950   0.203   0.984  33.414 -0.0960 -0.0117 -0.1367
24351W        W30951  14.337   5.829  32.424  0.0515 -0.1249  0.1161
24352W        W30952  15.431   2.794  37.487 -0.0215 -0.0628 -0.1192
24353W        W30953   4.413   1.427  30.805  0.0310  0.0729 -0.3186
24354W        W30954   7.315   6.559   5.151 -0.2755 -0.0663  0.1667
24355W        W30955  14.850   0.821  39.109 -0.3401  0.0356 -0.1370
24356W        W30956   4.678   5.546   4.931 -0.1378  0.0223  0.0429
24357W        W30957  13.984   3.765  32.598  0.2762 -0.1208  0.0674
24358W        W30958   8.563   2.661  20.597 -0.2302 -0.2240 -0.2999
24359W        W30959  10.612   5.342   1.311  0.0355  0.1415  0.1930
24360W        W30960   7.499   2.679  14.678 -0.0163 -0.0788  0.0469
24361W        W30961   2.389   5.403   2.605 -0.1682 -0.1771 -0.2937
24362W        W30962  20.126   3.160   5.561  0.0992 -0.0290 -0.2093
24363W        W30963  14.265   2.821  35.347  0.0087  0.1576  0.2367
24364W        W30964  10.125   5.348  31.389 -0.0016  0.0163  0.0104
24365W        W30965  19.384   3.723  19.389  0.0544  0.0697  0.1252
24366W        W30966   7.376   6.238   2.188  0.0689  0.0834  0.0559
24367W        W30967  12.567   2.141  42.723 -0.0349 -0.0400 -0.2623
24368W        W30968   4.574   0.978  33.242  0.0610  0.1911 -0.0006
24369W        W30969  20.539   0.857   3.810  0.0197  0.3017  0.1284
24370W        W30970   1.970   1.121   9.567 -0.0098  0.0140  0.0003
24371W        W30971   1.327   5.433  23.890  0.0075 -0.2830 -0.0732
24372W        W30972  10.692   4.682  28.349 -0.0232 -0.3099  0.1292
24373W        W30973   8.972   0.069  19.327 -0.1886  0.2196 -0.1610
24374W        W30974   9.264   0.934  10.925 -0.1846 -0.2123  0.1568
24375W        W30975   5.666   6.538  28.951 -0.4342  0.0507 -0.2502
24376W        W30976   5.456   0.718   9.477  0.1631 -0.4139 -0.2534
24377W        W30977  19.193   3.762  40.140 -0.1690  0.0372  0.0704
24378W        W30978   7.555   3.212   1.561 -0.0371 -0.1526  0.0707
24379W        W30979  11.051   2.761  34.725 -0.2093  0.0419 -0.0023
24380W        W30980   3.464   6.465  28.328  0.2159 -0.0560 -0.3086
24381W        W30981   1.208   3.693  40.258  0.1202 -0.0479 -0.1351
24382W        W30982   8.566   2.879  38.472  0.0371  0.1275 -0.0762
24383W        W30983  13.942   5.567   8.306 -0.0709  0.0171 -0.0413
24384W        W30984   0.054   1.381   7.871 -0.2435  0.0482  0.0070
24385W        W30985   8.384   2.166   7.347 -0.0515 -0.1476  0.2975
24386W        W30986   4.265   3.298  11.643 -0.1301  0.0538 -0.0033
24387W        W30987  16.939   1.873  31.010 -0.0750  0.1458 -0.1664
24388W        W30988  16.878   0.937  33.141  0.2160 -0.0768 -0.1718
24389W        W30989   0.869   1.357  22.179 -0.0091 -0.4952 -0.0717
24390W        W30990  20.424   0.416   8.135  0.0903 -0.0212 -0.0414
24391W        W30991  14.782   1.729  17.578 -0.2775 -0.0022  0.2681
24392W        W30992   8.159   4.919   7.703 -0.0117 -0.0084 -0.0962
24393W        W30993   8.322   6.079  36.820  0.1486  0.0864  0.0282
24394W        W30994  17.301   4.276   7.807 -0.0840  0.0999 -0.2017
24395W        W30995  18.965   2.076   2.767  0.3653  0.0438 -0.1354
24396W        W30996   8.999   6.303   9.499  0.3023  0.0896  0.1147
24397W        W30997  17.479   2.099  33.412  0.0700 -0.1298 -0.1331
24398W        W30998  18.555   1.393  11.629  0.1335 -0.2961  0.0506
24399W        W30999  11.507   1.061  13.325 -0.0108  0.1042  0.0020
24400W        W31000   4.343   5.183   4.840 -0.1215  0.0857  0.1200
24401W        W31001  15.399   5.678  33.165 -0.1141 -0.0654  0.0384
24402W        W31002   3.114   0.449  44.354  0.0898 -0.0674 -0.0750
24403W        W31003  19.005   4.104   8.702 -0.1791  0.0656  0.2350
24404W        W31004  19.272   1.135  43.338  0.0689  0.1434  0.1284
24405W        W31005   3.167   1.428   0.342 -0.0461  0.0673 -0.0808
24406W        W31006  10.138   3.941  35.869 -0.2999 -0.1654 -0.0045
24407W        W31007  16.779   2.825  30.402  0.0293  0.4372  0.2468
24408W        W31008   3.204   4.010  10.475 -0.1395 -0.0362 -0.1133
24409W        W31009   8.573   1.332  17.023  0.0072  0.0328  0.1531
24410W        W31010  20.305   5.455  32.104  0.3661 -0.0638  0.2221
24411W        W31011   4.838   1.702  11.885  0.3281  0.3405 -0.2390
24412W        W31012  14.542   0.016  28.257  0.0143  0.0335  0.0709
24413W        W31013  17.590   0.742  10.215  0.0065 -0.2758 -0.2755
24414W        W31014   1.049   5.633   1.118 -0.0193  0.0293 -0.1225
24415W        W31015  16.779   4.054  10.396  0.2172 -0.0299 -0.0797
24416W        W31016  18.146   5.725  43.222  0.0035  0.0018  0.1507
24417W        W31017  17.397   6.325   4.459 -0.1507  0.1123  0.1922
24418W        W31018  14.283   0.480   8.008 -0.2131  0.0388 -0.2504
24419W        W31019  16.210   0.555   2.482 -0.1321 -0.1697  0.1439
24420W        W31020  20.186   0.763  15.638 -0.0322 -0.0026 -0.1152
24421W        W31021  21.114   4.405  44.172 -0.1771 -0.4916 -0.1156
24422W        W31022  17.551   4.576   2.393  0.0570 -0.2330  0.2008
24423W        W31023  18.968   1.703  31.137  0.0136 -0.2765  0.2692
24424W        W31024   4.273   5.826  18.607  0.1062  0.1086  0.1778
24425W        W31025  13.808   6.010  43.314 -0.0329 -0.0004 -0.1293
24426W        W31026  20.481   5.659  43.993  0.0324  0.1882  0.0172
24427W        W31027  14.281   5.999  14.565 -0.0649  0.1479  0.3734
24428W        W31028   7.319   1.215  21.868 -0.0575 -0.0016  0.0857
24429W        W31029   8.298   5.289   5.968 -0.0068  0.4113 -0.0939
24430W        W31030  20.764   0.465  38.615 -0.0359 -0.2247 -0.2410
24431W        W31031  16.353   6.342  42.946 -0.1881 -0.1017  0.0878
24432W        W31032  13.917   1.193   1.889 -0.0610  0.1030  0.1075
24433W        W31033  14.368   1.578  33.194  0.0516 -0.0440 -0.1525
24434W        W31034   5.545   3.042  36.177 -0.3447 -0.0114  0.0283
24435W        W31035  10.754   0.100   7.415  0.0314  0.1796 -0.2681
24436W        W31036   7.917   0.717  22.734 -0.3178 -0.0817  0.1535
24437W        W31037   2.886   2.964  37.169 -0.0656 -0.1797 -0.0448
24438W        W31038   6.836   0.591  33.110 -0.1582 -0.1847  0.2057
24439W        W31039   0.537   1.828  37.345  0.2654  0.0055 -0.0848
24440W        W31040  21.095   3.762  12.135  0.1741 -0.3625 -0.3197
24441W        W31041  15.412   2.570  10.187  0.1243 -0.1240 -0.0621
24442W        W31042  14.949   4.392   2.103 -0.2305  0.0446 -0.3148
24443W        W31043   9.991   2.063  30.534 -0.0881  0.4973  0.1129
24444W        W31044   1.456   3.870  10.399  0.0806 -0.0385 -0.3750
24445W        W31045   6.641   5.828   8.328  0.0378 -0.1253 -0.2917
24446W        W31046  20.049   3.631  28.484 -0.1700 -0.0321  0.0907
24447W        W31047   6.199   0.174   0.110 -0.4061 -0.1920 -0.1906
24448W        W31048  11.626   4.159  38.759  0.1566 -0.0675  0.2052
24449W        W31049   6.615   2.733  44.674  0.2392  0.3125  0.0776
24450W        W31050  20.844   6.546  22.175 -0.3298  0.1612  0.1379
24451W        W31051  15.796   1.020  36.848 -0.0913  0.0459  0.0053
24452W        W31052   6.340   0.746  10.261 -0.0137 -0.1662  0.2447
24453W        W31053   6.109   1.886   4.297 -0.2417 -0.0350 -0.0998
24454W        W31054   1.581   6.264  41.560 -0.1260  0.1445  0.1226
24455W        W31055  10.700   0.609   7.499  0.0034 -0.4397 -0.2038
24456W        W31056   6.021   4.479  38.766  0.3942  0.3814  0.3268
24457W        W31057  16.387   2.808  37.188  0.0349  0.0129  0.0918
24458W        W31058  12.101   1.570  42.192  0.0462  0.0479 -0.1470
24459W        W31059  12.565   0.235  12.343 -0.1623 -0.3619  0.1196
24460W        W31060  11.666   3.620  35.598  0.3219 -0.0229 -0.1562
24461W        W31061   0.019   5.916  35.553  0.0372  0.1639 -0.1766
24462W        W31062   7.152   5.966  44.916  0.1238 -0.0598 -0.2938
24463W        W31063  18.937   6.413  43.014 -0.2664 -0.1477  0.1485
24464W        W31064  19.999   1.020  10.714  0.0107 -0.0589  0.1353
24465W        W31065  13.414   0.588  39.902 -0.1228 -0.1737 -0.0683
24466W        W31066   6.318   2.460   6.450 -0.2127 -0.0745  0.2811
24467W        W31067   5.541   2.660  27.845 -0.2528  0.2299 -0.1619
24468W        W31068  17.718   0.698   2.385  0.1065  0.1039 -0.0296
24469W        W31069  18.155   3.881   6.649  0.0658 -0.1551 -0.1155
24470W        W31070  10.569   0.448  40.627  0.3285  0.2971  0.0233
24471W        W31071  15.329   2.864   7.253  0.1764 -0.2137 -0.4438
24472W        W31072  14.389   2.416  43.384 -0.4105 -0.0190  0.0425
24473W        W31073   1.845   0.170  40.388 -0.1063  0.1444 -0.1312
24474W        W31074  11.028   4.993  30.698  0.1248  0.2889  0.0480
24475W        W31075   7.121   2.847  35.498  0.3823  0.0282  0.2570
24476W        W31076  12.883   4.166  19.190  0.1728 -0.4013  0.2451
24477W        W31077   1.994   6.212  37.383  0.0878  0.0134 -0.0877
24478W        W31078   3.120   4.587   5.388  0.0766 -0.0115  0.0567
24479W        W31079  10.187   0.195  17.738  0.2852 -0.0577 -0.3073
24480W        W31080   3.386   1.010  28.824  0.0487 -0.1312 -0.1996
24481W        W31081  16.513   2.143  24.549  0.1570  0.1042 -0.1590
24482W        W31082   6.265   3.529  38.388 -0.1238  0.0512  0.1847
24483W        W31083   8.156   0.676  30.588  0.3759  0.1849  0.0637
24484W        W31084   8.123   5.814  16.093  0.1951 -0.0543  0.1411
24485W        W31085   1.174   5.517  27.002  0.3134  0.1072 -0.2274
24486W        W31086  13.621   4.347  14.672 -0.0189 -0.1237  0.1106
24487W        W31087   2.277   3.417   2.679  0.2242  0.0186  0.2371
24488W        W31088   4.484   6.173  39.527 -0.0033  0.2938 -0.0630
24489W        W31089   2.162   5.148  33.513 -0.1323 -0.1347 -0.0035
24490W        W31090   2.748   5.265  43.042 -0.0355  0.1129  0.0306
24491W        W31091   5.824   4.652   0.606 -0.1806  0.3632 -0.4002
24492W        W31092  19.933   0.172   8.390 -0.0972 -0.2026 -0.0801
24493W        W31093  14.748   4.707  41.606 -0.1685 -0.1545  0.2752
24494W        W31094  13.951   5.039  43.375  0.0967 -0.2255 -0.2059
24495W        W31095  11.961   3.267  31.777  0.0529 -0.1551  0.1318
24496W        W31096   0.564   5.183  42.226  0.4347 -0.2535 -0.2820
24497W        W31097  19.487   0.996   3.774  0.0047 -0.0286 -0.1838
24498W        W31098   8.798   6.203   0.020 -0.0324  0.2404  0.1207
24499W        W31099  15.307   6.061   6.966  0.0752  0.4315 -0.1213
24500W        W31100  13.747   2.009   5.216 -0.1748  0.0266  0.1910
24501W        W31101  13.557   4.292   5.386 -0.0756 -0.1424 -0.0167
24502W        W31102   8.089   5.732   6.034  0.4303  0.0496  0.1142
24503W        W31103   9.267   1.257  14.648  0.0381 -0.1821 -0.1845
24504W        W31104  11.683   2.352   1.875 -0.0767 -0.1650  0.0769
24505W        W31105  14.258   0.558  18.610  0.0200 -0.3597  0.0792
24506W        W31106  19.596   3.219  15.763  0.2053  0.0854 -0.2845
24507W        W31107  12.115   2.079  35.127 -0.2414  0.1001 -0.0713
24508W        W31108   8.928   0.408  24.081  0.0680  0.2759  0.2482
24509W        W31109  11.817   5.041   7.216 -0.0105 -0.4566 -0.0421
24510W        W31110   8.813   5.145   6.091  0.0053  0.0732  0.0140
24511W        W31111   2.001   2.853   4.842 -0.0029 -0.0714 -0.0612
24512W        W31112   4.910   6.370  11.461  0.2457 -0.1886 -0.4647
24513W        W31113  20.430   5.359   0.350  0.1216  0.2184  0.1418
24514W        W31114   5.024   3.967  32.702  0.1678 -0.3310 -0.3057
24515W        W31115  15.817   6.244  10.283  0.2835 -0.0387  0.2225
24516W        W31116  12.446   3.426  29.804  0.0019 -0.0914  0.2295
24517W        W31117   6.718   1.719  32.307 -0.1182 -0.0834 -0.2555
24518W        W31118   3.296   0.140   2.253  0.1139  0.1902  0.0239
24519W        W31119   1.407   3.500   2.827 -0.0755 -0.0162 -0.2829
24520W        W31120   0.625   0.220   1.830 -0.1799 -0.0780 -0.4069
24521W        W31121  17.071   2.179  27.820 -0.4079 -0.0350 -0.1499
24522W        W31122  20.912   4.104  28.935 -0.1732 -0.2025 -0.2143
24523W        W31123  17.833   5.985  29.804  0.1522  0.0139  0.3177
24524W        W31124   0.879   3.384  28.256 -0.0374  0.2787 -0.1109
24525W        W31125   5.695   3.225  31.645  0.1649  0.1099 -0.1583
24526W        W31126  15.402   6.192  10.587 -0.2803 -0.3324  0.0287
24527W        W31127   4.564   4.443   6.598 -0.2989 -0.1904  0.0849
24528W        W31128   2.803   4.822  42.423 -0.0332 -0.0263  0.3570
24529W        W31129   0.169   3.202  30.495 -0.1662  0.1498 -0.0164
24530W        W31130   5.959   4.357   2.249 -0.0127  0.3721 -0.0651
24531W        W31131  12.475   1.094  17.368  0.4586  0.0469 -0.2693
24532W        W31132  19.499   2.097  31.149 -0.0580  0.2143 -0.0480
24533W        W31133  19.464   1.057  24.602 -0.1417 -0.2070 -0.1246
24534W        W31134   3.047   5.305  11.316 -0.0257 -0.1485  0.1307
24535W        W31135  16.351   1.177  13.274 -0.4163  0.0426 -0.2759
24536W        W31136   1.582   6.131  27.338  0.0878 -0.0364  0.2931
24537W        W31137  18.285   6.063  14.004  0.0275  0.0425 -0.0677
24538W        W31138   7.420   6.411   0.138  0.1380 -0.2552  0.0027
24539W        W31139   0.490   6.371  38.059 -0.2106 -0.1402  0.0677
24540W        W31140  21.110   4.564  32.411 -0.0939  0.0412 -0.0023
24541W        W31141   3.026   5.966  12.812  0.1299  0.0287 -0.0891
24542W        W31142  20.074   1.522  27.182 -0.2680  0.1972  0.0611
24543W        W31143  19.071   3.562  37.864  0.0189 -0.1772  0.1259
24544W        W31144  15.601   3.683  10.883  0.0812  0.3132  0.1996
24545W        W31145  14.050   0.042   2.562  0.2154 -0.2640 -0.2303
24546W        W31146  16.135   4.016  39.532  0.2881 -0.1720 -0.2048
24547W        W31147   6.540   4.241  10.293  0.2056  0.0049 -0.0580
24548W        W31148  16.085   2.258   2.159 -0.0539  0.1325  0.1760
24549W        W31149  11.757   6.223   1.309  0.3913  0.0851  0.2411
24550W        W31150   4.355   4.142  39.280  0.0518 -0.1036  0.3260
24551W        W31151  20.540   1.069   2.373 -0.1390  0.0488  0.1306
24552W        W31152   4.879   4.995   5.703  0.1234  0.1637 -0.0727
24553W        W31153   4.614   1.868  14.400 -0.1703 -0.2710  0.0103
24554W        W31154  10.738   1.202  31.085 -0.2264  0.2988  0.2454
24555W        W31155  11.896   0.525  37.563  0.0378  0.0881  0.0450
24556W        W31156   5.601   0.175   8.095 -0.0907 -0.0486  0.1367
24557W        W31157  17.015   1.395  35.984 -0.1061  0.1066 -0.2496
24558W        W31158  14.951   1.599  36.598 -0.0358 -0.1654 -0.3045
24559W        W31159   5.562   5.547   5.561  0.0024 -0.3790 -0.1119
24560W        W31160  18.889   2.351  36.095 -0.2451  0.1203  0.4090
24561W        W31161  19.401   1.737  20.769  0.0357  0.0307 -0.1732
24562W        W31162  18.076   3.074  38.103 -0.0152 -0.0218  0.1430
24563W        W31163  11.671   1.361  20.332  0.4232  0.1044  0.0233
24564W        W31164   6.463   4.927   8.571  0.2661 -0.2828 -0.2907
24565W        W31165  17.124   0.911  13.833 -0.1406  0.2306  0.0413
24566W        W31166  11.928   2.815  42.411 -0.1673  0.2452  0.2296
24567W        W31167  11.832   3.034  11.299 -0.0245  0.1618  0.3155
24568W        W31168   2.903   3.482   0.203  0.2361  0.0702 -0.0741
24569W        W31169  11.366   2.056   6.651  0.0168 -0.0409 -0.2360
24570W        W31170   8.755   5.193  37.869  0.2546  0.0750 -0.3225
24571W        W31171   5.723   4.547  36.160  0.0386 -0.2731 -0.0334
24572W        W31172   4.928   5.294   2.654  0.2432 -0.1798  0.2006
24573W        W31173   3.706   1.552  42.212  0.0118  0.1783 -0.0715
24574W        W31174   7.390   0.294   4.418  0.1039  0.0929 -0.1405
24575W        W31175  20.767   1.310  10.666  0.0173 -0.0348  0.2200
24576W        W31176   3.924   4.341  27.756 -0.0790  0.1468  0.1786
24577W        W31177   7.491   5.655  36.782  0.1067 -0.0206 -0.0334
24578W        W31178   2.138   1.859   4.859 -0.0567  0.0988  0.1252
24579W        W31179   3.004   5.878   7.970 -0.0385  0.0359 -0.4428
24580W        W31180  16.803   2.422  42.993  0.0631 -0.1173  0.0067
24581W        W31181  11.724   1.855  30.411 -0.0611  0.0281  0.0291
24582W        W31182  20.517   2.879  30.339  0.3166  0.0179  0.1449
24583W        W31183   8.175   1.450  15.645  0.0576 -0.1190  0.1220
24584W        W31184   6.827   0.452  19.472  0.1430  0.2248  0.0278
24585W        W31185   7.923   4.470  34.268  0.1439 -0.3257 -0.2572
24586W        W31186  15.312   1.182  44.063 -0.0781  0.1450 -0.0397
24587W        W31187   8.384   3.292  43.140 -0.3127 -0.0403 -0.0246
24588W        W31188  16.612   0.563  30.350  0.0679 -0.0016 -0.1589
24589W        W31189   8.971   1.747  21.387  0.0234 -0.2053 -0.2264
24590W        W31190  10.775   3.114  33.720 -0.0218  0.0935 -0.2012
24591W        W31191  20.530   0.792  43.608 -0.0380 -0.0543 -0.2532
24592W        W31192   9.966   6.245  33.456 -0.0376  0.1976 -0.0413
24593W        W31193  18.007   4.495  34.256  0.2879  0.5113 -0.1806
24594W        W31194   6.992   4.974  42.023  0.1501  0.1270  0.0864
24595W        W31195   7.488   5.455  40.283  0.2477  0.3491  0.0737
24596W        W31196  12.975   3.827   9.220  0.1054  0.4402 -0.0442
24597W        W31197  19.456   1.834  43.366  0.0686  0.0184 -0.0997
24598W        W31198  17.396   6.505   7.550  0.1883 -0.1934 -0.0740
24599W        W31199  16.992   4.698   1.931 -0.1909  0.2983 -0.0158
24600W        W31200  20.006   1.308  23.853  0.2884 -0.1767 -0.0837
24601W        W31201   6.918   3.884  38.218 -0.0506 -0.0250 -0.3642
24602W        W31202  20.685   5.972  13.458 -0.0795  0.1055  0.0921
24603W        W31203   9.876   3.469   9.543  0.0182 -0.0168 -0.1068
24604W        W31204  10.447   6.010  14.787 -0.1465 -0.2625 -0.5091
24605W        W31205   1.074   4.543   4.331  0.2031  0.0336 -0.0959
24606W        W31206  11.836   4.315   8.225 -0.1695  0.1709 -0.1980
24607W        W31207  11.617   2.718   6.065  0.1960 -0.0185 -0.4569
24608W        W31208  17.364   0.909  33.174  0.1912  0.1343  0.0141
24609W        W31209  15.405   6.104  13.985  0.2287  0.0073 -0.0495
24610W        W31210   2.079   4.483  15.349  0.2157 -0.0237  0.1154
24611W        W31211  17.774   2.663   4.613 -0.1331  0.0186 -0.2253
24612W        W31212  10.251   2.294  32.349  0.1887  0.1850 -0.2307
24613W        W31213  15.284   0.059  44.457  0.2732  0.1470 -0.0618
24614W        W31214   5.666   6.121  18.833  0.1364  0.2762  0.1426
24615W        W31215   9.561   0.312   0.238  0.1216 -0.0609  0.0212
24616W        W31216   5.003   4.881   2.288 -0.1549  0.0332  0.0119
24617W        W31217  15.072   6.252  44.049 -0.2211  0.1116  0.1208
24618W        W31218  11.053   0.947  25.769 -0.0127  0.0986  0.1661
24619W        W31219  13.266   3.473  39.056 -0.2352 -0.1556 -0.0393
24620W        W31220  11.392   3.707  22.265 -0.3086 -0.0060  0.3513
24621W        W31221  11.942   0.132  35.694  0.0971 -0.1299  0.0939
24622W        W31222   5.893   3.486  39.741  0.2281  0.3505 -0.1112
24623W        W31223   3.414   2.711   4.591 -0.0912 -0.0726 -0.0703
24624W        W31224  15.597   1.044  15.221  0.0526  0.0328  0.2468
24625W        W31225   7.359   5.198  15.157  0.1002 -0.0432  0.1337
24626W        W31226  18.622   1.289  44.353 -0.4282  0.2323  0.2949
24627W        W31227   0.698   1.761  12.396  0.0783 -0.0955  0.0547
24628W        W31228  11.385   5.013  28.851  0.0834  0.1769  0.0048
24629W        W31229  11.701   3.840   6.325  0.0522  0.1096  0.1015
24630W        W31230  15.987   1.454  12.793  0.1837 -0.0599 -0.0370
24631W        W31231  14.550   4.990  40.469 -0.0930  0.0592 -0.0160
24632W        W31232   7.689   1.622  33.717  0.1252 -0.0172  0.0658
24633W        W31233   0.342   5.279  28.172  0.0591  0.2171  0.0461
24634W        W31234  14.951   2.521   1.908  0.0044 -0.0538  0.1356
24635W        W31235  14.691   6.411   0.507 -0.0641  0.2242 -0.1603
24636W        W31236   8.131   2.053  21.531 -0.0581  0.0413  0.2354
24637W        W31237   9.565   4.814  16.116 -0.2432  0.0571 -0.0084
24638W        W31238   9.913   3.744   1.528 -0.0458  0.1951 -0.1418
24639W        W31239  11.215   2.940  12.059  0.2369 -0.1420 -0.0721
24640W        W31240  10.925   6.550   8.278 -0.1518 -0.1021 -0.1454
24641W        W31241   5.656   2.761   8.739  0.0138 -0.2215 -0.1115
24642W        W31242   0.612   3.873  35.033  0.1240 -0.2058 -0.4312
24643W        W31243   3.688   0.436  17.227  0.0675  0.1937 -0.1775
24644W        W31244   0.371   2.573  36.595  0.3075 -0.2991  0.4063
24645W        W31245  12.097   2.139  36.751 -0.0975  0.3191 -0.0984
24646W        W31246   3.993   4.671   0.063 -0.0322  0.1527  0.1341
24647W        W31247   9.239   2.336   4.407 -0.1034 -0.0284  0.0010
24648W        W31248   8.741   2.368  33.281 -0.3149 -0.0678  0.0119
24649W        W31249  18.786   1.482  27.155 -0.1448 -0.0193  0.0009
24650W        W31250  11.640   4.737  15.306  0.0987  0.0307 -0.1933
24651W        W31251  19.126   0.269   5.126  0.3299 -0.2925 -0.1797
24652W        W31252   0.267   4.943   6.062  0.2243 -0.0370  0.2409
24653W        W31253  19.631   3.175   5.142  0.2984  0.0966 -0.0663
24654W        W31254   6.725   5.306  11.557 -0.1168 -0.1410 -0.2625
24655W        W31255   7.095   2.476  41.797  0.0797  0.0342 -0.1666
24656W        W31256  20.248   5.645  19.424  0.2674  0.1708 -0.3223
24657W        W31257   2.621   2.280  40.543  0.2226  0.2033  0.0930
24658W        W31258   5.511   4.502  40.378  0.1257 -0.0492  0.0328
24659W        W31259  17.383   2.717  39.361 -0.0343 -0.0154 -0.2547
24660W        W31260   1.731   0.785   6.173 -0.2311 -0.1299 -0.1490
24661W        W31261  15.413   5.653   8.202  0.1309  0.2991 -0.1817
24662W        W31262   1.868   2.577  28.134  0.1628  0.0280 -0.2120
24663W        W31263   7.710   2.234  18.592  0.0064 -0.0261  0.1159
24664W        W31264   2.241   5.251   0.872  0.0524  0.0660  0.1245
24665W        W31265  20.956   3.960  37.488 -0.1436 -0.0209 -0.2153
24666W        W31266   6.302   2.734  35.888 -0.0412  0.2140 -0.0553
24667W        W31267  17.926   4.001  28.256 -0.0147  0.2210  0.0835
24668W        W31268  18.236   0.382  33.104  0.1509 -0.0829  0.1500
24669W        W31269  15.417   6.132   9.509  0.1576 -0.1912  0.2808
24670W        W31270   3.010   1.564  38.806  0.2415 -0.1356 -0.0625
24671W        W31271   8.905   0.870  18.940  0.0019 -0.1626 -0.1466
24672W        W31272   5.732   1.372   8.791  0.1099  0.1016  0.1450
24673W        W31273  17.857   3.749   2.866 -0.3090  0.4104  0.0817
24674W        W31274  19.057   4.329  35.084 -0.4317  0.0178  0.1427
24675W        W31275  16.657   4.144  12.249  0.2047 -0.1441  0.0822
24676W        W31276   6.580   3.312  19.877 -0.1035 -0.1416  0.1848
24677W        W31277   7.079   3.522  43.019 -0.3203  0.1327 -0.0002
24678W        W31278  14.755   3.153  17.478  0.2011 -0.0673 -0.2381
24679W        W31279  11.311   2.457   5.727  0.1388 -0.0941 -0.5455
24680W        W31280  10.754   0.445   8.091  0.0556  0.4583  0.0218
24681W        W31281   9.855   4.849   8.474  0.1516  0.3244  0.0351
24682W        W31282   4.715   1.732  29.430 -0.1306 -0.0272 -0.1091
24683W        W31283   1.605   6.303   0.745  0.1149  0.3720  0.3181
24684W        W31284  15.264   5.667  28.367 -0.1063  0.4074 -0.1978
24685W        W31285   0.975   5.040  39.735 -0.3348 -0.0678 -0.2123
24686W        W31286   3.454   3.077  12.579 -0.1436 -0.2563  0.0060
24687W        W31287  15.686   4.633   7.363 -0.0438  0.0731  0.1584
24688W        W31288  14.153   5.891   5.140  0.0696 -0.2450 -0.2414
24689W        W31289  15.042   2.627  34.776 -0.0266  0.0031 -0.0238
24690W        W31290  14.265   2.905  17.452  0.0874  0.0105 -0.2394
24691W        W31291  14.289   6.082  44.771 -0.0110  0.3398  0.0140
24692W        W31292  13.592   2.058   2.567 -0.0342  0.0985  0.0910
24693W        W31293  18.764   1.913  28.061 -0.1493  0.0008  0.1702
24694W        W31294   7.994   5.748  10.824  0.0333 -0.1801  0.1806
24695W        W31295   5.864   4.856   7.781  0.0932 -0.1399  0.1245
24696W        W31296   2.670   5.727   8.330 -0.0668  0.1789  0.0457
24697W        W31297  12.232   6.033  44.804 -0.1414 -0.2432  0.1302
24698W        W31298   2.675   2.637  16.068  0.3770  0.1716 -0.0089
24699W        W31299   6.533   2.801  10.817 -0.0979 -0.0346  0.4469
24700W        W31300  20.036   4.979   7.905 -0.0591 -0.1190 -0.0900
24701W        W31301   5.096   2.287  16.083 -0.1149  0.0365  0.0244
24702W        W31302  10.250   1.764  39.935  0.3366 -0.0948  0.1447
24703W        W31303   8.324   5.388   0.356  0.1320 -0.1263 -0.1680
24704W        W31304  15.031   2.988  39.398 -0.2420  0.0393 -0.1670
24705W        W31305  11.925   3.528  31.279  0.0485 -0.1124  0.0072
24706W        W31306  18.836   5.173  16.436 -0.4337 -0.0225 -0.1228
24707W        W31307   7.047   3.363  43.509  0.1984  0.1769  0.1601
24708W        W31308   0.840   6.475  38.412  0.0368  0.2664 -0.2476
24709W        W31309  20.946   3.924   0.967  0.1581  0.0909  0.2286
24710W        W31310   6.440   5.161   2.204  0.3538  0.0030  0.1106
24711W        W31311  10.588   1.976   2.622 -0.2940 -0.3038 -0.3025
24712W        W31312  12.564   2.830  35.054 -0.3007 -0.0179 -0.2748
24713W        W31313   2.051   0.484  31.274  0.0333 -0.1311  0.0583
24714W        W31314  17.912   0.898  39.348  0.0122 -0.0173  0.2157
24715W        W31315   3.719   2.385  32.978 -0.1032  0.1018 -0.0737
24716W        W31316  11.764   2.800  21.464  0.0535 -0.1307  0.3377
24717W        W31317   4.550   5.651  37.877  0.0488 -0.0460 -0.2084
24718W        W31318   3.279   0.591   0.821  0.2857 -0.0539 -0.1189
24719W        W31319   3.091   5.072   1.679 -0.3887  0.0737 -0.0698
24720W        W31320  18.524   4.675  26.230  0.0778 -0.1407  0.2040
24721W        W31321   2.708   0.161  40.213 -0.0787 -0.5271 -0.1905
24722W        W31322   5.143   1.113  15.762  0.1001 -0.1805 -0.0494
24723W        W31323  20.027   5.911   8.762  0.1348 -0.0646 -0.2115
24724W        W31324   8.585   5.545  42.734 -0.1489  0.1031  0.1229
24725W        W31325  19.989   4.822  14.013 -0.2104  0.0152  0.0462
24726W        W31326   8.564   2.964   6.237  0.2833 -0.0398 -0.0629
24727W        W31327   8.025   0.575   1.700  0.3707 -0.0706  0.0872
24728W        W31328  11.741   3.331  44.149 -0.4725  0.0026 -0.1172
24729W        W31329   9.252   2.242  44.838  0.0133  0.1570 -0.1343
24730W        W31330   5.897   1.777  28.607  0.0271 -0.2423  0.0530
24731W        W31331   8.316   1.686  40.405 -0.2161  0.0663  0.1102
24732W        W31332  17.650   4.765  11.423 -0.1643 -0.1282  0.0829
24733W        W31333   9.239   3.148  31.987 -0.0950 -0.1217 -0.5340
24734W        W31334  17.236   2.111  39.945 -0.2600 -0.3748  0.2043
24735W        W31335  13.242   1.035  17.380  0.2461 -0.1081 -0.0250
24736W        W31336  10.257   0.530  37.908 -0.2733 -0.0015 -0.1718
24737W        W31337  19.824   4.738   5.279  0.4914 -0.2887  0.1851
24738W        W31338   2.126   4.024   3.903 -0.2052  0.1898 -0.0215
24739W        W31339   5.004   3.618  29.846 -0.0759  0.2436  0.0524
24740W        W31340   7.727   6.241   7.994 -0.1030 -0.1252 -0.0980
24741W        W31341   6.928   2.354  11.124  0.3622  0.0777 -0.2226
24742W        W31342  11.284   3.827  41.574  0.0037 -0.0714  0.0269
24743W        W31343  13.118   3.465   0.152  0.0226  0.3475 -0.0246
24744W        W31344   7.256   0.764  31.237  0.0900 -0.1137  0.2839
24745W        W31345   6.944   5.362  12.500 -0.0568 -0.0441 -0.0879
24746W        W31346  18.668   3.231  14.001 -0.0024  0.1316 -0.1111
24747W        W31347  17.178   0.124  36.487  0.0525  0.1620  0.0611
24748W        W31348  12.207   6.567   0.629  0.0049  0.0777 -0.0416
24749W        W31349   4.849   1.775  40.541  0.1010  0.1677 -0.1610
24750W        W31350  10.846   4.015  34.695 -0.3667 -0.0250 -0.1258
24751W        W31351   3.212   4.531   9.015 -0.1002 -0.2436 -0.1045
24752W        W31352   2.052   6.114   5.863  0.0763 -0.0806  0.1816
24753W        W31353  15.224   1.214  44.618 -0.1452 -0.0111 -0.0825
24754W        W31354  14.872   4.032   4.755  0.0009  0.0083  0.1392
24755W        W31355   7.398   3.969   0.273  0.4146  0.0551 -0.1928
24756W        W31356   6.325   1.045  32.773 -0.3810 -0.3296 -0.1415
24757W        W31357   1.664   5.098  34.701  0.0234 -0.1604 -0.0491
24758W        W31358   6.577   5.165   1.097 -0.0686 -0.0781 -0.2212
24759W        W31359   4.799   5.591  33.812  0.1595  0.2898 -0.2472
24760W        W31360   4.837   0.381   1.266 -0.0282 -0.1929  0.0864
24761W        W31361  20.211   0.268  31.560  0.3967 -0.2216 -0.4608
24762W        W31362  11.169   1.506  31.663 -0.2648  0.0984  0.2435
24763W        W31363  17.313   1.748  30.680 -0.0416  0.0656  0.0718
24764W        W31364  19.385   3.440  24.785 -0.5358 -0.3528  0.0359
24765W        W31365  13.693   2.454  40.397  0.0125 -0.2626 -0.1988
24766W        W31366   6.788   0.886   5.470 -0.3845  0.0758 -0.1494
24767W        W31367   9.991   5.982   1.961  0.2720  0.1141 -0.0492
24768W        W31368  15.450   3.789   8.639 -0.1480  0.1337  0.1083
24769W        W31369  18.310   2.278  15.005  0.2957 -0.1014 -0.1052
24770W        W31370   4.813   4.034   7.349  0.1220  0.1152 -0.0349
24771W        W31371  19.308   3.032  30.175 -0.0250  0.3547  0.3303
24772W        W31372   7.468   1.938  22.856 -0.2105  0.1113  0.0926
24773W        W31373  19.815   2.224  33.984 -0.0635  0.0022 -0.1906
24774W        W31374   9.681   3.265  39.615 -0.1847 -0.4567 -0.1068
24775W        W31375   9.680   4.405   1.028  0.0480  0.0076 -0.0769
24776W        W31376  14.429   5.342  28.501  0.1725 -0.0956  0.0032
24777W        W31377  11.452   2.228  28.714  0.1979 -0.1943  0.0174
24778W        W31378   1.608   4.448   1.434 -0.2314  0.0030  0.0777
24779W        W31379   9.642   2.413  19.453 -0.3971 -0.1198 -0.1654
24780W        W31380  16.572   1.461   4.194 -0.1699 -0.0120  0.3254
24781W        W31381  16.251   0.907   0.421 -0.3001 -0.1556  0.2103
24782W        W31382  10.191   1.986   8.694  0.0825 -0.0099  0.0816
24783W        W31383   6.606   0.567  39.575 -0.1009 -0.0110  0.2799
24784W        W31384   6.303   2.883  17.963  0.0416  0.2816 -0.1564
24785W        W31385  10.756   2.590  22.433  0.0556 -0.0100 -0.0492
24786W        W31386  13.992   5.720  44.903  0.0900  0.3360  0.0598
24787W        W31387  10.333   3.493  23.042  0.2455 -0.0990  0.1885
24788W        W31388   7.760   0.287  12.286  0.0342 -0.2003  0.0262
24789W        W31389  11.250   6.385   2.420 -0.1375  0.3110  0.3288
24790W        W31390   2.368   6.015  10.291  0.0531 -0.0037 -0.0188
24791W        W31391  12.086   6.308  41.825 -0.1369 -0.0338  0.0100
24792W        W31392  12.433   0.257  40.708 -0.0290 -0.0657 -0.2427
24793W        W31393   4.197   2.595   7.683  0.0181  0.0406  0.1225
24794W        W31394   5.901   6.570  37.374 -0.2300  0.1317  0.0397
24795W        W31395   9.453   0.677  30.600  0.1939  0.0348  0.1029
24796W        W31396  11.761   3.946  40.160 -0.0988 -0.2127  0.0570
24797W        W31397   4.541   5.249   9.261  0.0165 -0.1924 -0.2195
24798W        W31398   8.409   1.924  39.892  0.0889 -0.1775  0.0903
24799W        W31399   0.965   5.096  12.880 -0.0010 -0.2807  0.1634
24800W        W31400   1.369   4.572  25.063 -0.4771 -0.1292  0.2238
24801W        W31401  19.033   5.077  31.674  0.3400  0.1094  0.1437
24802W        W31402   2.689   4.018  36.725 -0.1259 -0.2357  0.1445
24803W        W31403   9.710   4.994  21.749 -0.0944  0.0615 -0.0082
24804W        W31404   4.800   6.441  39.870 -0.1213  0.0553 -0.1539
24805W        W31405  18.001   3.747  21.289  0.0407 -0.0934  0.2109
24806W        W31406  20.912   4.442  36.530 -0.0609  0.3839  0.2040
24807W        W31407   5.823   3.590  16.923  0.1290 -0.0091  0.0599
24808W        W31408   6.764   2.842  15.489  0.1932  0.1000  0.2194
24809W        W31409  16.006   4.082  40.481  0.0917  0.0577  0.0466
24810W        W31410  16.971   5.597  35.461  0.2004  0.3388 -0.1169
24811W        W31411   6.269   5.917   5.595  0.1698  0.1026  0.0444
24812W        W31412   8.209   2.670   1.648  0.0240 -0.0963 -0.1506
24813W        W31413   1.598   3.698  15.026  0.2321 -0.0775 -0.0219
24814W        W31414  14.324   0.194  38.458  0.0163  0.3008  0.1689
24815W        W31415   2.705   1.101  28.186 -0.1247  0.0217  0.0481
24816W        W31416   7.345   6.169  31.591 -0.1076  0.0837 -0.0555
24817W        W31417  18.162   4.983  35.819 -0.0539  0.0602  0.0679
24818W        W31418   2.424   3.095  12.175  0.0620 -0.0810 -0.1345
24819W        W31419  17.314   1.601  39.805  0.1838 -0.0954  0.2359
24820W        W31420  12.996   0.735  11.033  0.1023  0.4192 -0.2503
24821W        W31421  12.657   2.937  38.554  0.1690 -0.1370 -0.1618
24822W        W31422  16.416   0.097  43.810 -0.1255 -0.1207 -0.1503
24823W        W31423   2.387   6.189  11.918 -0.0326  0.0383 -0.1494
24824W        W31424  19.694   1.338  25.794  0.1286  0.1697 -0.0869
24825W        W31425   0.172   4.639  14.254  0.2239 -0.0581  0.0081
24826W        W31426   2.213   2.488  12.920  0.4829  0.2216 -0.1511
24827W        W31427   5.746   3.506  36.332 -0.0734  0.2550  0.0256
24828W        W31428   1.038   1.483   0.952 -0.3255 -0.3681 -0.1606
24829W        W31429  18.194   6.176   2.563 -0.2133  0.1876 -0.1720
24830W        W31430  20.413   1.946  34.520 -0.0770  0.0715  0.2764
24831W        W31431  20.317   4.766  14.900  0.2329 -0.2936  0.3400
24832W        W31432   9.271   3.122  43.215  0.2210 -0.0898 -0.0594
24833W        W31433  13.739   0.151   9.376  0.1074 -0.0630  0.1318
24834W        W31434   8.998   0.848  30.605  0.0475  0.2434  0.0978
24835W        W31435   8.642   0.785  40.854 -0.1690 -0.0306 -0.2835
24836W        W31436   1.297   0.178  35.813  0.0756 -0.2953  0.0803
24837W        W31437   9.544   1.780  10.727 -0.0514  0.1387  0.3490
24838W        W31438  15.241   1.392  43.624 -0.1780 -0.1614 -0.0220
24839W        W31439  10.255   3.421   5.993  0.3799 -0.2693 -0.4601
24840W        W31440   9.801   3.613  33.811  0.1092  0.3150 -0.1372
24841W        W31441   3.125   1.010  33.690  0.1680 -0.0093 -0.3689
24842W        W31442  15.910   2.916   7.838  0.0090  0.0224  0.1345
24843W        W31443  11.833   1.606  30.842 -0.0700  0.2603 -0.0456
24844W        W31444  13.832   1.327  31.284  0.1755  0.1667  0.2751
24845W        W31445  16.396   6.091   8.039  0.0158 -0.0887  0.0782
24846W        W31446  10.802   6.523  23.786  0.1928 -0.0183  0.1370
24847W        W31447  17.718   0.270  29.431  0.0555  0.0056 -0.0480
24848W        W31448   5.376   5.240  13.576  0.4058 -0.4032 -0.0323
24849W        W31449  15.882   0.367  41.861  0.1058  0.3962 -0.0784
24850W        W31450   7.248   0.944  14.070 -0.0097  0.1000  0.0125
24851W        W31451  20.596   2.317  24.310 -0.1091 -0.0422  0.2407
24852W        W31452   5.246   5.047  19.868 -0.0506  0.1659 -0.0478
24853W        W31453   3.637   3.155  15.866 -0.1391  0.2296 -0.0960
24854W        W31454   4.094   0.628  32.281  0.0140 -0.0294  0.0358
24855W        W31455   4.302   1.874   4.070  0.2065 -0.0155 -0.0797
24856W        W31456   7.882   5.940   9.379 -0.0577 -0.0333  0.1046
24857W        W31457  17.272   4.729  26.792 -0.0131 -0.1990  0.2798
24858W        W31458   9.675   5.598  31.289  0.0457  0.0625  0.0445
24859W        W31459  10.522   2.312  40.014 -0.0597  0.0811 -0.0199
24860W        W31460   1.598   1.982  38.608 -0.2505 -0.1029  0.0875
24861W        W31461   5.750   2.842  11.145  0.1407  0.0950 -0.0616
24862W        W31462  20.829   1.120   6.786  0.2762 -0.0387 -0.2486
24863W        W31463   8.641   1.727  12.550  0.1137 -0.1319 -0.1219
24864W        W31464   4.095   6.361   0.796  0.1528  0.2635  0.0426
24865W        W31465   6.784   4.967   7.851 -0.0610 -0.4247  0.0326
24866W        W31466  11.252   2.680  30.424 -0.0218 -0.0152  0.0765
24867W        W31467  16.360   2.906   9.066 -0.1498  0.0609  0.2865
24868W        W31468  19.528   1.820  21.864  0.0430 -0.2571  0.1291
24869W        W31469   1.312   5.095  15.238  0.0632  0.0446  0.1269
24870W        W31470  13.756   1.534  41.820  0.0135 -0.1642  0.0028
24871W        W31471  12.229   5.541  30.348 -0.0144 -0.0581 -0.1221
24872W        W31472  12.677   5.980  18.783  0.1186 -0.1161  0.2650
24873W        W31473  17.935   1.035  34.962 -0.0917  0.2113 -0.2326
24874W        W31474   1.202   2.974  31.728  0.1047 -0.0357 -0.0419
24875W        W31475  16.238   4.650   0.014 -0.1824  0.3028  0.0291
24876W        W31476   0.055   2.738  42.227  0.1740 -0.0852 -0.1818
24877W        W31477   0.353   5.150  11.224 -0.1644  0.3617  0.1029
24878W        W31478  13.688   1.756  18.104  0.2586 -0.1498  0.2842
24879W        W31479   8.221   0.107  16.730 -0.0139  0.2181 -0.0643
24880W        W31480  16.462   3.647  37.142  0.0518  0.0720  0.0652
24881W        W31481   0.398   1.153  39.845  0.0946 -0.0785  0.3564
24882W        W31482  21.126   6.236   7.871  0.0409 -0.1043  0.2079
24883W        W31483   8.263   3.901  37.742  0.1562 -0.0559 -0.0369
24884W        W31484   7.119   6.369   1.142 -0.1492 -0.0883 -0.1170
24885W        W31485   5.339   3.122  13.121  0.1021  0.1995  0.2020
24886W        W31486  15.697   3.686  38.880  0.1643  0.0657  0.1300
24887W        W31487  18.944   3.011   9.399  0.1037 -0.2392 -0.1593
24888W        W31488   5.935   3.690  30.993  0.1052 -0.0317 -0.0590
24889W        W31489  15.270   1.851  27.192 -0.2384  0.1827 -0.1277
24890W        W31490  13.952   5.491  38.247  0.2201 -0.1883 -0.1126
24891W        W31491  11.206   1.220  37.696 -0.0528  0.2411 -0.0443
24892W        W31492   8.020   0.651  19.223 -0.0812 -0.1687  0.1987
24893W        W31493  15.631   1.053  26.832  0.0149 -0.2122  0.0276
24894W        W31494  20.649   5.951  37.239  0.3701 -0.0075 -0.2771
24895W        W31495   2.744   3.432  26.341  0.2990  0.0616  0.1432
24896W        W31496  15.996   2.803  34.284 -0.3424 -0.1760 -0.1617
24897W        W31497  21.032   6.249  38.459 -0.1897  0.1484 -0.0170
24898W        W31498   8.292   2.026  14.863 -0.0332  0.1916 -0.1176
24899W        W31499   4.532   1.674   1.001 -0.4024 -0.0803  0.0103
24900W        W31500   4.223   4.901  10.995 -0.4123  0.0484 -0.0524
24901W        W31501  20.340   2.264  45.033 -0.1234  0.2525  0.1957
24902W        W31502   7.662   6.474  30.254  0.0439 -0.1977  0.1786
24903W        W31503  17.309   2.876   5.321  0.2231 -0.2734 -0.1335
24904W        W31504  15.679   1.349  34.267  0.2383  0.1696 -0.3256
24905W        W31505   9.232   3.863  20.439 -0.2516  0.0438 -0.0881
24906W        W31506  16.556   5.787  42.979  0.1699 -0.0908 -0.0612
24907W        W31507  18.518   0.243  33.773 -0.1806 -0.1073  0.3038
24908W        W31508   2.243   3.107  11.654 -0.2453 -0.1244 -0.1156
24909W        W31509  19.651   5.374  21.556 -0.1522 -0.2170 -0.0180
24910W        W31510  12.753   0.484  34.715 -0.1136  0.0323 -0.0055
24911W        W31511  12.793   4.291   5.512 -0.1609  0.0039 -0.2391
24912W        W31512  14.139   4.254   9.847  0.1694  0.0016  0.0161
24913W        W31513  18.346   4.118  27.266 -0.3346  0.1514  0.1086
24914W        W31514  17.346   2.979  26.225  0.1010 -0.1907  0.0523
24915W        W31515  18.289   1.961  27.846  0.0617  0.2081 -0.2612
24916W        W31516  11.021   3.185  11.697  0.0978 -0.2411  0.0441
24917W        W31517  19.145   1.997  21.273 -0.2317  0.0163  0.1007
24918W        W31518  18.573   6.405  43.994  0.0712  0.0962  0.0436
24919W        W31519   5.663   2.335  37.549 -0.1674 -0.0154  0.2660
24920W        W31520  20.965   6.395  31.740  0.0120  0.1039 -0.3230
24921W        W31521  14.605   4.848  30.653 -0.1364  0.2148 -0.0130
24922W        W31522   0.949   4.174  23.167  0.0243 -0.1208  0.0052
24923W        W31523  10.590   2.657  34.918  0.1709  0.2508 -0.0311
24924W        W31524   3.360   5.747  29.341  0.0141 -0.1021  0.1241
24925W        W31525  20.114   6.269  30.108 -0.1744  0.1712 -0.1491
24926W        W31526   9.624   3.587  21.379 -0.2552 -0.2123  0.1077
24927W        W31527  11.237   6.096   0.647  0.2468 -0.3492 -0.1442
24928W        W31528   6.570   3.987  16.740 -0.0005  0.1327  0.0345
24929W        W31529   7.188   3.612   9.852  0.3255  0.1418  0.0641
24930W        W31530  13.496   0.025  19.671  0.0729  0.1621 -0.3100
24931W        W31531  20.387   0.128  27.499 -0.3941 -0.1561  0.0397
24932W        W31532   8.364   6.352   3.734 -0.0352  0.0583 -0.0232
24933W        W31533  10.051   4.083  33.335 -0.0049 -0.2562  0.1082
24934W        W31534   3.313   5.925   5.750  0.0473 -0.1305 -0.3014
24935W        W31535  20.943   2.361  35.673  0.2168 -0.2204  0.0052
24936W        W31536   1.940   5.065   5.448 -0.0358 -0.0831 -0.3159
24937W        W31537   8.978   5.503  43.859 -0.1284 -0.3426 -0.3305
24938W        W31538   9.564   6.401   7.567 -0.0154 -0.1706  0.0167
24939W        W31539  20.774   4.252  33.999  0.4923 -0.0609  0.1347
24940W        W31540  17.611   0.314  41.126  0.0429  0.1120  0.0610
24941W        W31541  13.701   0.465  30.094  0.1954 -0.0823  0.3226
24942W        W31542  19.277   4.975  42.771  0.1166 -0.0418  0.0795
24943W        W31543   3.294   0.987  42.273  0.0401 -0.1062 -0.2020
24944W        W31544  16.169   1.047  42.451 -0.2961  0.0237  0.1712
24945W        W31545  20.900   0.703  10.882  0.1819  0.1288 -0.0942
24946W        W31546   8.659   0.231  44.050 -0.0790  0.0488 -0.0876
24947W        W31547   1.655   6.557  37.728 -0.1544  0.3403  0.2583
24948W        W31548  14.777   4.339  37.876 -0.0707 -0.0092  0.0751
24949W        W31549   2.406   1.070  43.755  0.0104  0.0959  0.1422
24950W        W31550   2.868   2.893  38.837  0.0382  0.1737 -0.0108
24951W        W31551   8.335   1.713  35.225 -0.0118  0.0902 -0.0421
24952W        W31552  18.544   2.914  11.222 -0.1003  0.2172 -0.1987
24953W        W31553   1.060   3.617   1.210 -0.0280 -0.0619 -0.1431
24954W        W31554   8.172   4.692  44.268 -0.1456  0.1386 -0.2244
24955W        W31555  19.765   0.742  37.773 -0.1439 -0.0321  0.0801
24956W        W31556   8.493   1.755  12.024  0.0415 -0.2602  0.2016
24957W        W31557  10.750   5.156  13.906 -0.1156 -0.0697 -0.0313
24958W        W31558   3.256   1.806  35.024 -0.1393 -0.3223 -0.0829
24959W        W31559   2.468   1.925  10.861 -0.3280  0.0047  0.2474
24960W        W31560   3.280   6.192  42.774 -0.4601  0.2480 -0.0399
24961W        W31561   2.070   0.469  24.896 -0.2127  0.1567 -0.0638
24962W        W31562  14.271   3.222  14.318 -0.0252 -0.0561 -0.1973
24963W        W31563  11.074   4.336   1.537  0.0322 -0.1583  0.2318
24964W        W31564  19.696   3.269  12.025  0.0288 -0.1539  0.2464
24965W        W31565  13.697   1.311  39.435 -0.1869  0.0860  0.0439
24966W        W31566  18.635   3.647  26.497 -0.3166  0.0977  0.0813
24967W        W31567  21.033   2.181  13.109 -0.0390  0.3434 -0.2467
24968W        W31568   8.801   0.674   6.190 -0.0289  0.1408 -0.0473
24969W        W31569   6.011   5.066  31.865  0.1330  0.2512  0.0720
24970W        W31570   3.504   5.249  35.015  0.2984  0.2881 -0.0448
24971W        W31571  16.345   1.900  24.124  0.0607  0.0548 -0.2335
24972W        W31572  11.265   0.421  33.024  0.1109  0.0894 -0.1106
24973W        W31573  13.547   3.677  13.888  0.2548  0.2054 -0.1242
24974W        W31574  12.301   2.811  34.039  0.2109  0.1159  0.0075
24975W        W31575  14.766   2.377  27.982 -0.0137  0.1152 -0.0672
24976W        W31576  13.611   5.967  35.280  0.1884  0.2982 -0.0664
24977W        W31577   0.084   2.083  28.157  0.3574  0.0691  0.0039
24978W        W31578  10.061   0.927  16.673  0.0545  0.0631 -0.4812
24979W        W31579  11.296   5.540   0.729 -0.2916  0.1912  0.2511
24980W        W31580  19.258   4.303  13.982 -0.0781 -0.0466  0.1739
24981W        W31581  14.578   6.473  41.008 -0.2858 -0.1089 -0.1068
24982W        W31582   6.427   2.340  31.897  0.2592  0.0460 -0.3409
24983W        W31583  11.671   4.455  32.312 -0.2858 -0.1045 -0.1293
24984W        W31584   8.799   4.597   9.043 -0.0057 -0.0670  0.1893
24985W        W31585  13.240   5.007  31.023  0.2735  0.2407 -0.1146
24986W        W31586   2.931   5.729  36.848 -0.2001 -0.1942  0.1592
24987W        W31587   4.571   3.776  16.782  0.1619 -0.0369  0.0457
24988W        W31588   4.892   0.110  30.878  0.1889 -0.0683 -0.0221
24989W        W31589   5.687   3.878   2.265 -0.0735 -0.0086  0.0110
24990W        W31590   4.816   3.631  42.648  0.0220  0.0454  0.0173
24991W        W31591   2.583   1.614  42.355 -0.1014  0.0639 -0.0966
24992W        W31592  19.947   3.645  15.643 -0.0124  0.2046  0.1590
24993W        W31593  15.385   0.356  40.967 -0.0259  0.2860  0.1254
24994W        W31594   0.877   1.885  10.984 -0.0984  0.0341 -0.0050
24995W        W31595   0.919   3.248  25.947  0.3570 -0.1401 -0.2792
24996W        W31596  12.781   0.621  35.322  0.0800 -0.4436 -0.1341
24997W        W31597  18.807   4.532  41.005  0.0203  0.0499  0.0624
24998W        W31598  21.005   5.877  37.622 -0.0402  0.0645 -0.0227
24999W        W31599   5.580   2.468   9.625  0.2050 -0.1271  0.2760
25000W        W31600  13.743   5.526  43.949  0.1804  0.1372 -0.2304
25001W        W31601  12.302   4.524   0.818 -0.0462 -0.2706  0.1632
25002W        W31602  18.552   0.318  39.933 -0.2531 -0.1094  0.0903
25003W        W31603  19.375   1.671  43.912 -0.0905  0.0049 -0.1303
25004W        W31604   9.942   6.323  10.657 -0.2750 -0.4643  0.0613
25005W        W31605   3.728   4.574   4.324 -0.5941  0.0488  0.1895
25006W        W31606  16.352   1.585  13.578  0.2747 -0.2218 -0.3567
25007W        W31607  15.269   1.801   7.098  0.0697 -0.0928 -0.0799
25008W        W31608  19.951   1.275   1.857  0.0515  0.1521  0.3732
25009W        W31609   2.237   0.132   4.087 -0.1496  0.2546  0.1585
25010W        W31610   4.225   3.325  44.002  0.0234  0.0250  0.1850
25011W        W31611   1.629   1.848   7.516  0.0751 -0.3553 -0.0374
25012W        W31612   4.280   1.355   3.923  0.0015 -0.3261  0.0099
25013W        W31613   5.029   4.840   8.203 -0.2550  0.0388 -0.0823
25014W        W31614  18.073   3.759   8.038  0.0524  0.0790 -0.1588
25015W        W31615   1.591   1.799   1.534  0.4240 -0.1300  0.2060
25016W        W31616  19.491   5.129   0.379  0.0449  0.1694 -0.0510
25017W        W31617  20.801   5.002  25.195 -0.2587  0.3175  0.0694
25018W        W31618  16.079   3.359  26.115 -0.1627 -0.2434 -0.0696
25019W        W31619   6.850   5.019  15.930  0.1357 -0.1738  0.3635
25020W        W31620  12.257   3.744  37.655 -0.2326  0.4253 -0.1192
25021W        W31621  17.300   1.977  38.438  0.0841  0.1832 -0.1013
25022W        W31622   1.331   0.116   6.749  0.2052 -0.0215  0.0601
25023W        W31623  11.964   2.210  11.800  0.0463 -0.2189  0.3546
25024W        W31624  13.695   4.900   1.912 -0.0594  0.0711 -0.2744
25025W        W31625   5.070   4.829  35.649  0.0905 -0.0903 -0.1390
25026W        W31626   3.554   5.410  43.974  0.1227  0.0630  0.0947
25027W        W31627  18.860   5.425  29.488  0.2127 -0.4783  0.1993
25028W        W31628   0.347   1.162  35.361  0.1693 -0.0593 -0.0057
25029W        W31629   1.426   3.908  23.788  0.2450  0.2512  0.0841
25030W        W31630  16.374   1.050   7.148  0.1993 -0.0767 -0.0246
25031W        W31631  12.518   5.520  39.006  0.0495  0.3524  0.0656
25032W        W31632  20.386   3.968  12.666 -0.2997 -0.1318 -0.1179
25033W        W31633  11.180   6.498  30.445  0.2679  0.0994  0.2551
25034W        W31634  17.998   1.047  35.523 -0.1826 -0.0437 -0.1179
25035W        W31635  20.832   4.056  15.138  0.1408 -0.1382  0.1060
25036W        W31636   2.191   0.006  35.274  0.0824  0.1287 -0.1954
25037W        W31637   7.441   0.850  29.134  0.1701 -0.0538 -0.0853
25038W        W31638   2.760   1.582  10.108  0.1103  0.2419  0.0507
25039W        W31639   7.546   3.470   6.563  0.0128  0.2269  0.1261
25040W        W31640   5.827   6.587  35.124 -0.0447  0.0560  0.2398
25041W        W31641  14.257   5.478  42.042  0.1047  0.3633  0.0685
25042W        W31642   3.220   1.594  16.639 -0.2305  0.2618  0.1081
25043W        W31643  17.614   5.949  13.423  0.2346 -0.0264 -0.3358
25044W        W31644  11.229   4.799  34.371 -0.1247 -0.2159 -0.0356
25045W        W31645  16.286   2.225  34.182 -0.0209 -0.0585  0.1051
25046W        W31646  12.390   6.543  17.593  0.4504  0.1949  0.0245
25047W        W31647  13.857   0.806  16.684  0.2056  0.1858 -0.1720
25048W        W31648  10.270   5.517  31.861  0.0621 -0.1351 -0.2457
25049W        W31649   3.716   5.723  26.705 -0.0532  0.1861 -0.0452
25050W        W31650  14.750   1.783  39.388  0.2868 -0.3027 -0.1236
25051W        W31651   8.051   0.468  16.403  0.0776  0.0460  0.1018
25052W        W31652   1.221   0.083  31.026  0.1636  0.3011  0.0853
25053W        W31653  15.360   5.788   3.319 -0.2974  0.1149  0.0423
25054W        W31654  17.007   1.745  38.802 -0.1965 -0.1902  0.0583
25055W        W31655  16.217   2.584   1.794  0.2866 -0.3080 -0.4564
25056W        W31656  16.472   2.482  40.652 -0.2006 -0.1382 -0.1373
25057W        W31657  15.727   4.234   4.358 -0.1811  0.0893 -0.2166
25058W        W31658   5.645   0.424  39.200 -0.3320  0.0553 -0.2880
25059W        W31659  13.892   5.953  38.568 -0.0147  0.3591  0.0970
25060W        W31660   9.112   6.410  21.016  0.0431 -0.1092 -0.0831
25061W        W31661  16.543   0.049   3.595  0.1740 -0.4089 -0.0163
25062W        W31662   8.614   5.782   9.156 -0.2696  0.2323 -0.2642
25063W        W31663   7.081   4.012   2.364  0.0006 -0.4633 -0.2074
25064W        W31664   8.657   4.314   5.854 -0.0546  0.0514 -0.1682
25065W        W31665  20.659   3.968  33.615  0.2863  0.1519 -0.0141
25066W        W31666   0.267   5.649  13.328  0.1885 -0.1292  0.2333
25067W        W31667  15.981   1.886  40.287 -0.4097  0.0894 -0.3648
25068W        W31668   8.028   3.722  14.457 -0.2163 -0.2216 -0.0853
25069W        W31669  15.278   6.051  30.061 -0.2676 -0.1413 -0.3202
25070W        W31670  15.513   3.609   9.553 -0.1544 -0.0202 -0.0689
25071W        W31671   3.491   3.964  39.990 -0.0916 -0.0929  0.0389
25072W        W31672   0.392   2.711   3.821  0.0608 -0.1736  0.0783
25073W        W31673  19.688   3.563  43.688  0.1777 -0.2088 -0.0377
25074W        W31674   9.369   6.297  43.884  0.1784  0.1646  0.0207
25075W        W31675   6.201   2.519  44.901 -0.0229  0.0472 -0.1538
25076W        W31676   4.572   5.394   5.624 -0.1238  0.2926  0.0366
25077W        W31677  11.430   5.982  15.465 -0.0015 -0.0666 -0.0022
25078W        W31678   9.360   6.247  40.101 -0.2796 -0.1951  0.2831
25079W        W31679  20.997   4.390  40.232  0.1734 -0.2872  0.1318
25080W        W31680  16.789   1.048   5.508 -0.0175 -0.4622  0.0468
25081W        W31681   5.841   5.390   0.013 -0.1174  0.2395 -0.1072
25082W        W31682  14.374   1.653  44.042  0.0820  0.1132 -0.1412
25083W        W31683   2.033   1.831  13.497 -0.1219  0.0221  0.0119
25084W        W31684   2.267   2.096  35.697  0.2951  0.0709 -0.0989
25085W        W31685  20.391   5.391  29.871 -0.0178  0.1384  0.3212
25086W        W31686  13.937   5.548  40.196 -0.2245  0.0675  0.1443
25087W        W31687  13.892   4.441  11.331 -0.1933  0.1884  0.0842
25088W        W31688  20.381   3.162  37.527  0.5598 -0.3657 -0.2202
25089W        W31689   2.951   0.353  35.945 -0.3432 -0.0031 -0.1972
25090W        W31690   1.354   5.345  11.907 -0.1404 -0.3145 -0.0654
25091W        W31691   8.661   2.292  29.152 -0.0684 -0.2324  0.1377
25092W        W31692  20.913   0.979  33.743  0.2065  0.1736 -0.1648
25093W        W31693  18.403   3.524   9.976 -0.0249  0.3946 -0.0761
25094W        W31694   3.884   6.482   8.299 -0.0902 -0.1309 -0.1558
25095W        W31695  10.034   6.124   6.915 -0.2811  0.0462 -0.3880
25096W        W31696  17.638   5.146  37.961 -0.0344 -0.1063  0.1200
25097W        W31697  17.575   4.427   4.143 -0.3218 -0.1786 -0.1006
25098W        W31698  19.562   2.925  22.253  0.1938 -0.3170 -0.0185
25099W        W31699  18.566   0.014  13.089  0.4602 -0.0602  0.0270
25100W        W31700   4.790   0.608   8.033  0.1959 -0.2692 -0.0250
25101W        W31701   2.726   4.655  13.025 -0.0874  0.0249  0.0594
25102W        W31702   3.210   4.594  41.355  0.0747 -0.3889 -0.0692
25103W        W31703  16.911   4.425  29.124  0.0379  0.1095 -0.1781
25104W        W31704  11.086   0.266   8.764  0.1241 -0.0963  0.1947
25105W        W31705  20.191   3.655  31.920 -0.0406  0.0940 -0.0385
25106W        W31706   1.072   1.464   4.724 -0.2732 -0.0924 -0.2271
25107W        W31707   3.692   5.228   6.113  0.1328 -0.0212 -0.0758
25108W        W31708  14.863   3.448   1.384 -0.0490 -0.1949 -0.0284
25109W        W31709   7.551   3.836  15.381  0.1161 -0.1339  0.0736
25110W        W31710  16.692   2.945  12.921  0.0840 -0.1422 -0.0432
25111W        W31711  17.224   2.401  34.695  0.4386 -0.0359  0.1283
25112W        W31712   0.063   0.287  38.815  0.0348 -0.0232 -0.1173
25113W        W31713  10.112   5.092   2.558  0.0707  0.0349  0.1676
25114W        W31714   8.681   3.225  14.511  0.1857 -0.0479 -0.1324
25115W        W31715  17.453   4.771  41.833 -0.0449  0.0282  0.2841
25116W        W31716  15.184   6.175  41.545 -0.0820 -0.0115 -0.1504
25117W        W31717  16.214   5.444   4.171  0.2301 -0.1022  0.3351
25118W        W31718   9.478   4.714  19.155 -0.2084  0.1973  0.0654
25119W        W31719  13.120   3.983  27.703  0.1756  0.1028 -0.3001
25120W        W31720  18.347   4.842  24.383  0.0992  0.0653  0.2156
25121W        W31721  12.683   4.061  43.451  0.1936 -0.1222  0.1273
25122W        W31722   9.305   6.051  21.389  0.0570 -0.1348  0.0395
25123W        W31723  20.806   3.864  41.664 -0.1540  0.0224  0.3783
25124W        W31724  17.978   0.199  14.726 -0.2370  0.0785  0.0966
25125W        W31725   9.744   1.256  40.667 -0.3117  0.0292  0.0700
25126W        W31726  12.482   4.667  36.342  0.1576  0.0517 -0.0372
25127W        W31727   2.274   2.674  25.327  0.0308  0.0895  0.3978
25128W        W31728  13.393   1.571  14.309  0.2137  0.0642  0.0124
25129W        W31729   1.763   4.514  34.911  0.0598  0.3411 -0.3680
25130W        W31730  16.498   0.103  10.628 -0.1271 -0.2246  0.1432
25131W        W31731  14.899   2.017   8.287  0.3415 -0.1095  0.0848
25132W        W31732  18.767   0.349  36.798 -0.1161 -0.2457 -0.0765
25133W        W31733   8.851   3.129  32.726  0.0795  0.3829  0.1306
25134W        W31734   7.668   1.326  20.905 -0.2467 -0.3634  0.1165
25135W        W31735   4.157   5.447  36.508 -0.0353 -0.0709  0.1893
25136W        W31736  12.076   5.734   1.391 -0.3473 -0.1960 -0.0321
25137W        W31737   2.419   6.234  13.700  0.3107 -0.0037 -0.0190
25138W        W31738  13.353   0.490   0.728 -0.1719 -0.0603 -0.1701
25139W        W31739   7.658   3.679  14.801 -0.0547 -0.1192  0.4260
25140W        W31740  11.428   3.312  40.388 -0.2190 -0.1043 -0.1260
25141W        W31741   5.555   5.948  35.753  0.2444 -0.2231 -0.0641
25142W        W31742   2.617   3.881  29.810  0.3745  0.0468  0.1851
25143W        W31743   9.515   4.247  23.767 -0.0610 -0.3123 -0.0282
25144W        W31744  18.988   3.121  38.238  0.3244 -0.1259 -0.0157
25145W        W31745  12.232   4.351  13.455  0.1192 -0.1594 -0.0098
25146W        W31746   0.549   2.450  37.962  0.3069 -0.0002  0.0140
25147W        W31747   6.081   6.036  12.110  0.1555  0.0899  0.2479
25148W        W31748  17.212   4.612  36.317  0.0048 -0.0493  0.0186
25149W        W31749   2.164   3.493  11.256 -0.0238  0.1964  0.0573
25150W        W31750  15.212   5.790   2.353 -0.0041 -0.2011  0.1447
25151W        W31751  19.035   5.715  10.266 -0.1299 -0.0886 -0.2073
25152W        W31752   0.018   5.067   8.871 -0.0076 -0.0151  0.1644
25153W        W31753  14.694   3.202  37.713 -0.5180  0.1402  0.1176
25154W        W31754  12.782   2.181   7.124 -0.3158  0.0817 -0.1296
25155W        W31755  18.866   0.938  35.943 -0.1627  0.0461  0.2714
25156W        W31756  20.525   3.555  27.691 -0.1531 -0.1484 -0.0710
25157W        W31757  16.694   1.697   4.762 -0.1994  0.2386  0.1856
25158W        W31758  12.723   1.019   2.736 -0.0423  0.4056  0.0909
25159W        W31759   1.291   0.043  33.272  0.0081  0.1118  0.4552
25160W        W31760  20.169   5.494  14.097 -0.1462 -0.0392  0.0351
25161W        W31761  16.077   1.800   6.176 -0.1206  0.0631  0.2087
25162W        W31762   4.503   2.102  40.513  0.1557 -0.2207 -0.0112
25163W        W31763  12.026   0.490  29.388 -0.1952 -0.1039 -0.0759
25164W        W31764  17.118   2.463  14.542 -0.0444  0.0636 -0.1820
25165W        W31765   1.560   4.806   0.638 -0.0630  0.2293 -0.5542
25166W        W31766  20.996   0.737  24.856 -0.3309  0.1428  0.4374
25167W        W31767   9.737   4.082  15.313 -0.0075  0.1315  0.0773
25168W        W31768  15.593   0.240  28.446 -0.0187  0.1219 -0.2892
25169W        W31769  18.537   0.826  15.275 -0.3937 -0.1503 -0.0908
25170W        W31770   3.626   1.846  14.165 -0.0787  0.1699  0.3735
25171W        W31771   4.479   4.965   8.831  0.0953  0.2009 -0.3592
25172W        W31772   4.054   2.202  29.931 -0.1623 -0.1235  0.2763
25173W        W31773   5.371   3.691   6.283  0.0011  0.1236  0.1893
25174W        W31774  13.808   3.894  11.587 -0.1461 -0.1947  0.0804
25175W        W31775   3.460   4.359  35.276 -0.0698  0.0341 -0.1030
25176W        W31776   0.704   1.944  44.157 -0.1455 -0.1850  0.1463
25177W        W31777   9.953   4.629  40.529  0.2321 -0.2526 -0.1492
25178W        W31778  17.844   3.967  23.080 -0.1080 -0.2917  0.0040
25179W        W31779  11.079   2.697  32.837  0.0833 -0.0080  0.0269
25180W        W31780  17.116   2.673  32.641  0.0603 -0.3062  0.0894
25181W        W31781   9.094   0.138  29.918  0.2971  0.0220  0.1201
25182W        W31782   1.124   1.105  11.942 -0.1550  0.0355  0.0944
25183W        W31783   4.513   6.600  12.262  0.2145  0.3751 -0.0557
25184W        W31784  13.938   3.022  30.784 -0.0388 -0.2906  0.1134
25185W        W31785  11.819   0.368  33.642 -0.2995  0.0973 -0.0961
25186W        W31786  11.638   5.725  32.921  0.0608  0.1514 -0.1121
25187W        W31787   7.112   5.474  37.017 -0.4061  0.2433 -0.0404
25188W        W31788  18.987   0.263   6.585 -0.0198 -0.0051 -0.0484
25189W        W31789  20.465   2.372   7.502 -0.0036  0.1492 -0.0050
25190W        W31790  15.473   0.925  17.392 -0.0818 -0.2351  0.0258
25191W        W31791  18.220   3.361   2.633  0.0974 -0.0211 -0.3216
25192W        W31792   0.527   3.558  15.577  0.0709  0.1304 -0.0677
25193W        W31793  18.378   0.520  15.749  0.3344  0.3606 -0.0360
25194W        W31794  19.225   5.821  41.625  0.0301 -0.1788  0.1421
25195W        W31795  18.988   0.853  37.696 -0.3012  0.0139  0.1024
25196W        W31796   8.752   4.273  34.335 -0.2605  0.0305 -0.1297
25197W        W31797  12.003   1.658  38.296  0.0021 -0.0029 -0.0399
25198W        W31798  16.593   3.670  25.513 -0.1687 -0.0067 -0.0763
25199W        W31799   9.913   2.779  12.504  0.0975 -0.0149 -0.2157
25200W        W31800  11.810   6.361  43.633  0.0778  0.4555  0.0528
25201W        W31801   9.007   2.887  14.696 -0.0551  0.0794 -0.3105
25202W        W31802  13.098   2.432  29.218 -0.1223 -0.3086 -0.2033
25203W        W31803   4.250   6.419  17.803  0.1141  0.0375  0.1572
25204W        W31804  17.335   3.536  15.817  0.0609 -0.0187 -0.2613
25205W        W31805  11.412   1.896   4.467  0.1020  0.1362 -0.2557
25206W        W31806   8.768   0.538  12.762  0.1099  0.0926 -0.1869
25207W        W31807  14.113   0.317  12.499 -0.3110  0.0513 -0.0846
25208W        W31808  19.560   6.039  12.643  0.1157 -0.2393  0.0997
25209W        W31809   5.302   3.483  13.923 -0.3984 -0.1686  0.3305
25210W        W31810   0.559   0.614  27.092  0.2215  0.2783  0.0559
25211W        W31811  15.537   5.575   1.901  0.2938  0.0300  0.1810
25212W        W31812  20.610   1.064  34.722 -0.0841  0.0493  0.1797
25213W        W31813  11.489   2.152  33.127  0.1500 -0.3274 -0.0400
25214W        W31814   5.264   2.769  41.427 -0.1118  0.0485 -0.0025
25215W        W31815  12.040   5.935   9.979 -0.0869  0.2504  0.1539
25216W        W31816   8.533   3.937  40.047 -0.2768 -0.2683  0.0660
25217W        W31817  15.770   1.262  28.388  0.0479  0.2514  0.3208
25218W        W31818   0.577   1.904  25.066 -0.1713 -0.0697  0.2139
25219W        W31819   9.183   4.465  32.200  0.1273 -0.0088 -0.0822
25220W        W31820   0.595   2.921  25.698 -0.1130  0.0341  0.1594
25221W        W31821  12.842   5.493  11.839 -0.1931  0.0804  0.0105
25222W        W31822   6.315   5.684   3.331 -0.1325 -0.0260 -0.1068
25223W        W31823   8.075   1.569  15.116  0.1925  0.1832  0.0000
25224W        W31824  20.073   6.537  41.904  0.3443  0.0973 -0.1278
25225W        W31825   8.394   4.188  42.663 -0.0226 -0.0857  0.0224
25226W        W31826  15.101   6.136   9.144  0.0239 -0.0032 -0.1272
25227W        W31827  14.621   5.981   4.835  0.0626 -0.1114  0.1039
25228W        W31828  10.164   0.552   3.569  0.1671 -0.1178 -0.1298
25229W        W31829  15.945   1.936   0.270  0.0876 -0.0287 -0.0034
25230W        W31830   9.219   2.181  15.565  0.0596  0.2162  0.1401
25231W        W31831   0.846   4.323  32.984  0.1192 -0.2724  0.2733
25232W        W31832  18.718   5.899  14.244  0.1813 -0.2297 -0.0849
25233W        W31833   3.511   1.434   3.290 -0.0318  0.1445  0.1172
25234W        W31834  19.818   4.345  14.118 -0.0609 -0.2128  0.1035
25235W        W31835  16.396   3.464   7.205  0.0053  0.0996 -0.3218
25236W        W31836  11.315   3.825  28.600  0.1944 -0.0500 -0.2324
25237W        W31837   9.405   5.038  20.842 -0.1281 -0.0540  0.2261
25238W        W31838  12.150   5.226   2.126  0.0458 -0.1415  0.2642
25239W        W31839  17.041   5.477  13.997  0.0507 -0.1233  0.2033
25240W        W31840   0.828   0.810  29.079  0.2956 -0.1445 -0.1650
25241W        W31841  19.543   4.681  10.920  0.1215  0.4026 -0.0191
25242W        W31842  12.262   3.048  12.772  0.0067  0.2100  0.1722
25243W        W31843  17.242   0.254  32.181 -0.2479 -0.1594 -0.2234
25244W        W31844  15.922   5.301   5.535 -0.1453  0.2224  0.2948
25245W        W31845   8.195   2.970  43.508  0.1299  0.2538 -0.1104
25246W        W31846  18.541   5.854  30.331  0.3229 -0.1778 -0.1259
25247W        W31847  16.480   0.003  26.920 -0.2990 -0.0440 -0.0305
25248W        W31848  13.955   0.889  38.493  0.0778  0.3075  0.1191
25249W        W31849  14.935   5.963   4.459  0.1299 -0.2149 -0.1236
25250W        W31850  14.236   4.806  40.155  0.0118  0.0868 -0.2308
25251W        W31851   0.204   5.075  22.415  0.0230  0.1284 -0.1870
25252W        W31852   5.842   0.479   1.816  0.2646  0.1981 -0.3524
25253W        W31853  14.149   2.918  16.775  0.0082 -0.4061  0.1678
25254W        W31854  19.602   6.310  40.734 -0.0253  0.1248  0.0408
25255W        W31855   8.556   5.014   9.935 -0.1353 -0.2468  0.0041
25256W        W31856  15.821   2.333   7.705  0.0673 -0.1730  0.1210
25257W        W31857  14.959   3.153  16.545 -0.0354 -0.2107  0.1089
25258W        W31858   1.709   6.018  29.473 -0.2124  0.0861 -0.3194
25259W        W31859   6.698   5.947  23.080 -0.0447  0.4830  0.1148
25260W        W31860  19.382   6.357  12.981  0.2291 -0.1129  0.1438
25261W        W31861   4.281   5.522   0.855 -0.0371  0.1715  0.2233
25262W        W31862   3.977   0.200  32.636  0.2654 -0.2217 -0.0781
25263W        W31863   9.744   5.320   9.925 -0.0001  0.1451  0.0970
25264W        W31864  13.057   3.525  35.810 -0.0408 -0.0956 -0.0408
25265W        W31865  13.167   5.943  17.661  0.1151 -0.0285  0.1334
25266W        W31866   2.337   0.084  13.401 -0.0157 -0.0663 -0.0146
25267W        W31867   3.756   2.814   1.881 -0.1575  0.3570  0.0711
25268W        W31868   0.549   6.569   0.969 -0.1099 -0.0886 -0.0854
25269W        W31869  14.208   1.238  37.712 -0.2528 -0.1330  0.1353
25270W        W31870   0.814   3.478  10.268 -0.0314 -0.0540 -0.2748
25271W        W31871  20.551   3.646  36.759  0.2183  0.1151  0.2237
25272W        W31872  14.378   1.189  42.472 -0.0384  0.0232  0.0888
25273W        W31873  12.825   3.155  14.777 -0.0452 -0.0606 -0.2213
25274W        W31874  13.554   5.005  39.660  0.1509 -0.0033  0.1888
25275W        W31875   7.947   5.793  41.834  0.0803  0.0744  0.2498
25276W        W31876  11.800   2.718  16.825  0.0056  0.2597  0.2849
25277W        W31877  11.533   5.420  36.958  0.0551 -0.3556 -0.1112
25278W        W31878  12.023   4.842  18.813 -0.0230 -0.2250  0.0198
25279W        W31879   2.313   3.547  24.300 -0.2445  0.1104  0.1294
25280W        W31880   8.319   4.059   2.146 -0.2465 -0.0156 -0.0251
25281W        W31881  19.304   3.656   5.897  0.0903  0.0540 -0.1662
25282W        W31882  15.099   2.535  34.295  0.4112 -0.0303 -0.3724
25283W        W31883  11.231   3.661   6.191 -0.2757 -0.0194  0.1334
25284W        W31884  15.797   5.668  29.724  0.0391 -0.1650  0.2003
25285W        W31885  17.321   2.422  10.654  0.2994  0.1038 -0.0749
25286W        W31886  10.130   3.066   6.627  0.1566 -0.1521  0.2698
25287W        W31887  20.629   2.614   6.017  0.1007 -0.3961 -0.3224
25288W        W31888  17.836   0.955  26.052 -0.0334 -0.0277 -0.2366
25289W        W31889   1.021   2.437  24.033  0.3132 -0.1329 -0.2646
25290W        W31890   2.289   3.276   7.760  0.1196 -0.0226  0.0165
25291W        W31891   6.308   2.340  12.795 -0.2846 -0.2102 -0.2054
25292W        W31892  19.895   1.379  31.351 -0.3817  0.4590 -0.0736
25293W        W31893   1.605   0.572   3.441 -0.0802 -0.0171  0.0813
25294W        W31894  20.058   3.188  40.842 -0.1793  0.3223  0.2798
25295W        W31895   0.015   4.069  15.620  0.0450 -0.1530 -0.1104
25296W        W31896   1.954   5.649  10.176 -0.0643  0.0706  0.1511
25297W        W31897   2.085   0.975  25.695 -0.1800  0.1321 -0.0136
25298W        W31898   9.972   4.028  17.189  0.2145 -0.1965  0.0503
25299W        W31899  14.552   6.464  30.238 -0.3666  0.0878 -0.0988
25300W        W31900  11.677   5.079  19.418 -0.1596 -0.3243  0.0973
25301W        W31901   0.304   2.071  36.558 -0.1941 -0.2001  0.1512
25302W        W31902  14.581   3.787  18.355  0.1228  0.2888  0.0914
25303W        W31903   1.849   1.853  26.154  0.0363  0.3502  0.1293
25304W        W31904  20.143   3.815  34.956 -0.2830  0.0705 -0.1899
25305W        W31905   7.906   3.431  22.558  0.1795 -0.3471  0.2515
25306W        W31906   0.577   5.942  44.169 -0.1158  0.0606 -0.0439
25307W        W31907   3.639   5.386  42.329 -0.1504 -0.2993  0.2273
25308W        W31908  16.921   0.256   6.190  0.4341 -0.1690 -0.3697
25309W        W31909  14.284   3.525   4.331 -0.2553 -0.1811 -0.3442
25310W        W31910  18.167   2.671  43.754  0.0800  0.0783 -0.3204
25311W        W31911   9.684   4.771  20.345 -0.1711 -0.2801  0.2906
25312W        W31912   6.015   5.289  39.007  0.3583 -0.0426  0.2159
25313W        W31913   8.869   4.681  11.254 -0.1700  0.0741 -0.3177
25314W        W31914   5.471   1.855  16.737  0.0421  0.1629 -0.2175
25315W        W31915  21.003   2.919  12.354  0.0434  0.1561 -0.2563
25316W        W31916  14.604   2.348  42.335 -0.1831 -0.0809  0.0974
25317W        W31917   2.289   4.546  37.914 -0.0766  0.0036 -0.1418
25318W        W31918  12.997   1.597   9.312 -0.2335 -0.2145 -0.2739
25319W        W31919  10.381   6.198  42.251 -0.0752 -0.0649  0.0594
25320W        W31920  11.248   1.052  38.675 -0.0135 -0.2435 -0.0820
25321W        W31921  16.559   3.509  38.398  0.0494 -0.0657 -0.1523
25322W        W31922  14.791   3.391  10.134  0.4216 -0.0653 -0.2013
25323W        W31923   9.626   2.497   7.169  0.1456 -0.1190  0.1892
25324W        W31924   8.034   0.209  14.457 -0.0035  0.1782 -0.0055
25325W        W31925  19.713   4.290  31.100  0.0462  0.0944 -0.3589
25326W        W31926  12.366   0.347  35.031  0.0087 -0.1006  0.0838
25327W        W31927  10.474   1.851  39.082 -0.0114  0.2557  0.0713
25328W        W31928   3.555   4.938  40.645 -0.0827  0.0425 -0.0498
25329W        W31929  18.795   5.027   7.298 -0.1409  0.2164  0.0204
25330W        W31930  17.308   3.313   6.362 -0.0393 -0.0737  0.3216
25331W        W31931   7.415   5.040  20.275  0.0825  0.0088  0.1838
25332W        W31932  19.500   5.903  33.703 -0.0591 -0.1282 -0.1170
25333W        W31933   9.195   0.910  37.074  0.0678  0.1804  0.1425
25334W        W31934  18.050   3.490   5.636  0.1655  0.1976 -0.1263
25335W        W31935  19.935   5.526   6.684  0.3025 -0.0685  0.0067
25336W        W31936   0.225   0.841  34.383  0.2077  0.0671 -0.2290
25337W        W31937   9.313   4.289  33.693 -0.0771  0.0191 -0.1208
25338W        W31938  16.912   0.323  43.769  0.1787  0.1302 -0.2291
25339W        W31939   9.575   0.902  39.322 -0.0495  0.0626  0.2093
25340W        W31940  18.875   3.860  35.846  0.1394  0.1343 -0.1711
25341W        W31941  20.365   4.757   5.412  0.3204  0.2624  0.1298
25342W        W31942   1.080   2.697  27.684  0.2460 -0.0952  0.0252
25343W        W31943  15.931   0.126   2.538  0.1043  0.1863  0.2226
25344W        W31944  13.936   6.231  29.626  0.1088 -0.2712  0.1957
25345W        W31945  15.673   6.068  33.255 -0.2310  0.3699  0.1436
25346W        W31946  15.990   3.469  28.735 -0.2182 -0.1619  0.0439
25347W        W31947  16.369   4.646  43.464 -0.0785 -0.0737  0.1068
25348W        W31948   6.853   2.796   3.326 -0.1180  0.2062 -0.0487
25349W        W31949  13.460   0.181  44.291  0.0522 -0.0012  0.2026
25350W        W31950   9.053   0.238  14.124  0.0656  0.2024 -0.3824
25351W        W31951  15.141   4.923  43.505 -0.2554 -0.1418 -0.2887
25352W        W31952  18.969   4.056  33.445  0.0036 -0.4085  0.0564
25353W        W31953   7.990   2.231   8.696  0.0662  0.1453  0.1885
25354W        W31954   0.676   4.734   8.846  0.0954  0.0150  0.1585
25355W        W31955   7.834   0.586  17.412 -0.2910  0.1599  0.1387
25356W        W31956   9.368   5.157  21.455  0.1125 -0.1660  0.0648
25357W        W31957  10.205   3.984  12.463  0.2736  0.1498  0.1999
25358W        W31958  17.066   3.358  41.153 -0.0826 -0.0565 -0.2481
25359W        W31959  17.025   3.757  44.226 -0.0733 -0.0640 -0.0236
25360W        W31960  19.241   0.216  42.364 -0.2150  0.0030  0.0523
25361W        W31961  11.398   1.396  41.357  0.0673  0.1905 -0.1138
25362W        W31962   9.340   3.773  11.987 -0.3190 -0.3539 -0.3775
25363W        W31963   7.924   0.114  31.535 -0.0782  0.0290 -0.1197
25364W        W31964   2.159   0.301   7.101  0.2393  0.0768 -0.0739
25365W        W31965   9.116   2.484   3.310  0.2441 -0.1851 -0.0210
25366W        W31966   5.587   6.014  15.655  0.2177  0.1106  0.0890
25367W        W31967   2.331   0.737   3.200 -0.0823  0.1813  0.0975
25368W        W31968   6.132   3.065  32.513  0.2183 -0.1676  0.2936
25369W        W31969  20.673   6.021  28.003  0.2532 -0.1793 -0.0834
25370W        W31970  11.746   2.309   8.484 -0.0454 -0.2481 -0.0919
25371W        W31971   3.298   5.837  28.599  0.0032  0.0691  0.0168
25372W        W31972  11.711   5.321  20.392 -0.1812  0.2185 -0.0363
25373W        W31973  11.166   3.543  13.382  0.0919  0.2641 -0.2212
25374W        W31974  19.409   4.033  43.861 -0.0573 -0.2249 -0.2623
25375W        W31975   0.491   1.054  25.370  0.0273  0.0165 -0.3307
25376W        W31976  16.959   3.256  13.238  0.1455 -0.1185  0.0138
25377W        W31977   3.188   2.622   5.443 -0.1751  0.2535 -0.0091
25378W        W31978  13.170   2.219  10.530 -0.2045 -0.2294 -0.0089
25379W        W31979  20.117   1.592  21.386 -0.1140 -0.2650 -0.1126
25380W        W31980  19.496   3.020  10.220 -0.0519 -0.1347 -0.0521
25381W        W31981  19.146   6.432  27.500 -0.0283 -0.1216 -0.0151
25382W        W31982   6.500   6.326  21.402  0.2718  0.1069 -0.3323
25383W        W31983  12.591   0.597  37.076 -0.1815  0.0133 -0.1645
25384W        W31984   0.196   1.092  24.960  0.2749 -0.1217  0.3061
25385W        W31985   8.702   4.002   1.737 -0.1014 -0.0624 -0.0515
25386W        W31986  14.990   3.769  28.465 -0.0411  0.0088 -0.1664
25387W        W31987  12.156   5.686   4.609 -0.2912  0.2429 -0.0097
25388W        W31988  10.822   4.399  22.065  0.0137 -0.1851  0.1474
25389W        W31989   1.458   6.290   5.610  0.0324 -0.1000 -0.0013
25390W        W31990  13.972   0.195  13.410  0.1864 -0.0372  0.0187
25391W        W31991   8.752   4.211   3.384  0.0736  0.0408  0.1766
25392W        W31992   7.553   5.197  14.697 -0.1765 -0.2266 -0.2039
25393W        W31993   4.404   4.337  35.662 -0.2790  0.0041  0.2778
25394W        W31994  20.862   4.767  14.060 -0.1405 -0.1756 -0.1185
25395W        W31995   2.302   0.631  25.323 -0.0120 -0.0579  0.0093
25396W        W31996   3.386   5.478  40.311  0.2890  0.1350 -0.0456
25397W        W31997  20.834   1.236   1.443  0.2514 -0.1604  0.1220
25398W        W31998  10.659   5.683   7.803 -0.2468  0.2271 -0.0708
25399W        W31999   4.945   4.820  38.059  0.0476  0.0543  0.0089
25400W        W32000   9.349   6.385  29.658 -0.2843 -0.4523  0.3018
25401W        W32001  13.747   6.018   6.614 -0.0721 -0.0736 -0.0334
25402W        W32002  21.001   2.757  43.119  0.2882 -0.0657 -0.2082
25403W        W32003  12.535   0.694  35.848 -0.1003  0.0738  0.0362
25404W        W32004   9.413   5.716   7.167 -0.0992  0.1062  0.1536
25405W        W32005  12.952   1.074  10.149  0.1308  0.1353 -0.0089
25406W        W32006   1.052   3.032   8.909 -0.0883  0.1275 -0.0027
25407W        W32007  19.755   2.718  14.898  0.1366  0.0484  0.0543
25408W        W32008  14.939   6.161  42.040 -0.0535  0.2766 -0.0408
25409W        W32009  12.114   2.265  12.718  0.1780  0.0046  0.3161
25410W        W32010   6.145   3.105  35.488 -0.2526  0.0643  0.0361
25411W        W32011   9.090   5.384  17.273 -0.0465  0.1211  0.2978
25412W        W32012  19.383   2.058  29.800  0.1157 -0.1990 -0.0711
25413W        W32013  11.869   3.492  15.183 -0.2481  0.3130 -0.0980
25414W        W32014  18.820   0.229   2.729  0.1531  0.1102 -0.1915
25415W        W32015  19.872   5.206  39.276  0.0962  0.0329  0.2683
25416W        W32016   1.925   2.781  26.760  0.0372  0.0233 -0.2452
25417W        W32017   2.455   3.033   1.308 -0.0677  0.0034 -0.2461
25418W        W32018   6.043   0.719  39.801 -0.3149  0.0393 -0.1274
25419W        W32019  19.180   0.946  34.478 -0.1565 -0.1593 -0.0380
25420W        W32020   3.499   2.176  17.816  0.2374  0.0448 -0.2958
25421W        W32021  16.980   0.871  42.331 -0.3523 -0.1034  0.2516
25422W        W32022  14.778   5.760  35.104 -0.0743 -0.0950 -0.0324
25423W        W32023   7.611   1.129  14.647  0.1993 -0.1828 -0.2219
25424W        W32024  20.157   1.612  11.637 -0.0251 -0.2628 -0.1208
25425W        W32025   3.425   4.219   0.682  0.0572  0.0816 -0.1188
25426W        W32026  15.480   1.838  37.356  0.0535  0.0718  0.0130
25427W        W32027   3.398   6.216  44.213  0.0210  0.0695  0.1838
25428W        W32028   6.307   4.310   3.542 -0.0197  0.1587 -0.0293
25429W        W32029  13.828   3.080  28.037 -0.3748 -0.0691  0.1925
25430W        W32030   7.360   4.763  39.749 -0.1039 -0.1524  0.2499
25431W        W32031   5.695   6.559  14.908 -0.0805  0.0779 -0.0847
25432W        W32032  13.440   1.106   7.706  0.1557 -0.0765  0.2161
25433W        W32033  12.237   0.977  41.048 -0.1301 -0.0271  0.1027
25434W        W32034  11.692   6.323  44.732 -0.1288  0.5292 -0.1784
25435W        W32035   3.628   4.696   4.824  0.0351  0.3125 -0.1194
25436W        W32036  13.638   2.996   1.817 -0.1236 -0.1120 -0.0837
25437W        W32037  18.466   3.061   1.927 -0.0941  0.2273  0.0360
25438W        W32038  18.405   0.398  16.220  0.1646  0.1067  0.2549
25439W        W32039  14.936   5.819  27.115  0.1034 -0.1339  0.0723
25440W        W32040   3.200   4.360  38.553 -0.3268  0.0828 -0.0517
25441W        W32041   5.676   3.926  10.491 -0.0102 -0.1998 -0.1057
25442W        W32042   9.786   2.575  38.960  0.0628  0.2383 -0.1794
25443W        W32043  11.314   1.238  15.097 -0.1947 -0.1879 -0.1758
25444W        W32044  18.224   1.017  13.198  0.1113 -0.1887 -0.0188
25445W        W32045   2.027   1.604  37.987 -0.1194 -0.0227  0.0964
25446W        W32046  11.174   3.492  41.968  0.0520  0.0618  0.3259
25447W        W32047   1.722   0.922  36.153 -0.0428  0.2334  0.0641
25448W        W32048  18.526   2.543  39.171 -0.3875 -0.0039  0.3737
25449W        W32049  16.626   4.780   6.308  0.0657  0.1148  0.0480
25450W        W32050  12.016   1.425  37.306 -0.1265 -0.1776 -0.1054
25451W        W32051  18.303   3.193  27.559  0.0622 -0.2007  0.0022
25452W        W32052   2.735   2.481   3.891  0.0767 -0.2815 -0.2675
25453W        W32053   8.224   1.768  23.421  0.1484 -0.2121  0.0491
25454W        W32054  11.463   3.917  16.743 -0.1135  0.3575  0.1733
25455W        W32055   1.715   1.321  37.758  0.0122  0.0825  0.0832
25456W        W32056   4.488   6.445  13.274  0.0615  0.1165 -0.0973
25457W        W32057   9.116   2.628  39.747  0.3024  0.0173 -0.0548
25458W        W32058   5.739   6.330  29.755  0.0350  0.2006 -0.1023
25459W        W32059   7.982   5.530  22.005 -0.3550  0.1424 -0.1714
25460W        W32060  12.930   3.329  35.356 -0.0708 -0.2384 -0.1447
25461W        W32061   1.550   5.020  26.259  0.1628 -0.0730 -0.2781
25462W        W32062   0.172   1.875  33.745  0.2264  0.1400  0.0819
25463W        W32063  10.026   1.185  11.678  0.0455  0.3834 -0.1302
25464W        W32064  10.709   0.583   6.449  0.1325 -0.2046 -0.1861
25465W        W32065  20.933   4.108  36.167 -0.0836  0.0109  0.0799
25466W        W32066  14.236   6.517  31.480  0.2409 -0.0542  0.0077
25467W        W32067   1.302   0.355   8.917 -0.1215  0.0407 -0.0395
25468W        W32068   6.898   5.603   9.043 -0.0581  0.1308  0.2134
25469W        W32069  15.134   4.375  16.941 -0.2500 -0.1259  0.0041
25470W        W32070  16.144   0.577  40.522  0.0610 -0.1517  0.5467
25471W        W32071  14.941   4.058  17.664 -0.1634  0.2823 -0.1099
25472W        W32072  14.924   2.974  28.494 -0.3402 -0.0776  0.1063
25473W        W32073  18.921   0.400  38.217  0.1211 -0.1682  0.0503
25474W        W32074   9.540   0.513  29.036 -0.0077 -0.3134  0.1403
25475W        W32075   0.858   0.185  38.006  0.1375 -0.0939  0.2387
25476W        W32076   3.213   0.136  12.590  0.0729  0.1603 -0.2137
25477W        W32077   0.380   0.871   0.612  0.1064 -0.5510  0.0712
25478W        W32078   4.962   1.029   9.528 -0.1508 -0.0132  0.4417
25479W        W32079  12.483   1.867  33.422 -0.0226  0.0559 -0.1347
25480W        W32080  12.609   1.100   5.133 -0.1002 -0.1917 -0.0448
25481W        W32081  10.013   1.523  30.581 -0.3856 -0.3307 -0.1786
25482W        W32082  11.038   2.889  30.855 -0.0643 -0.0769  0.0273
25483W        W32083  15.154   6.483  40.209  0.0581 -0.0843 -0.1175
25484W        W32084   8.851   1.461   7.684 -0.0924 -0.0459 -0.2018
25485W        W32085   4.118   0.439  34.569 -0.0434  0.1400  0.0273
25486W        W32086   8.422   2.264   4.856  0.0057  0.0018 -0.0860
25487W        W32087  20.174   5.122  20.065 -0.1920 -0.0797 -0.0397
25488W        W32088  14.593   5.521  16.024  0.0066  0.0511 -0.0819
25489W        W32089  12.172   4.163   3.640  0.2445  0.1029 -0.0040
25490W        W32090  20.355   2.173   3.830  0.4115 -0.3933  0.0562
25491W        W32091   7.804   2.729  18.321  0.0884  0.1118 -0.0296
25492W        W32092   3.732   1.345  34.195 -0.0626 -0.2714 -0.2836
25493W        W32093  16.757   0.526  15.006  0.0482  0.0663 -0.0702
25494W        W32094  17.449   5.087   7.018 -0.1294 -0.0866  0.1676
25495W        W32095   4.095   6.334  44.822 -0.0096  0.0636  0.0922
25496W        W32096  13.084   4.895  20.925 -0.5905  0.2949 -0.0531
25497W        W32097   9.521   5.615  14.785  0.1860  0.0280  0.0593
25498W        W32098  10.640   2.300   7.866 -0.3474 -0.2926 -0.4384
25499W        W32099  18.664   4.066  10.417  0.1631  0.2713  0.3851
25500W        W32100  16.167   0.942  44.346 -0.0128 -0.1395 -0.0397
25501W        W32101  12.769   3.410  12.810 -0.3289 -0.2601  0.0654
25502W        W32102  11.075   4.211  43.880  0.1597 -0.0489 -0.4643
25503W        W32103   0.406   6.136  33.338 -0.2934  0.0201 -0.0355
25504W        W32104  12.608   6.566  41.304 -0.0023 -0.3793 -0.0784
25505W        W32105  19.365   3.304  43.155  0.1861  0.0072 -0.1353
25506W        W32106   6.015   4.708  37.245 -0.1640  0.0917 -0.0469
25507W        W32107  16.988   1.115   4.124 -0.0880  0.1257  0.0079
25508W        W32108   5.332   5.977   1.028  0.1576  0.2241 -0.1232
25509W        W32109   0.498   5.580  11.558 -0.1613 -0.0238  0.1020
25510W        W32110  14.087   3.122  36.831 -0.0128 -0.1236  0.2292
25511W        W32111  11.565   1.331  45.069  0.0350 -0.2445 -0.0349
25512W        W32112  17.816   2.193  14.959 -0.2770 -0.0327 -0.0011
25513W        W32113   8.683   0.104  45.004  0.3586 -0.1496 -0.0272
25514W        W32114   9.834   4.911  21.248 -0.1260 -0.2986 -0.2046
25515W        W32115  10.792   0.958   8.046  0.0352 -0.2153 -0.0753
25516W        W32116  19.954   1.904  22.759  0.1910  0.1721  0.2913
25517W        W32117   3.930   4.157  44.474  0.2212 -0.2518  0.0189
25518W        W32118   2.496   3.090  27.825  0.2109 -0.2492 -0.0965
25519W        W32119   8.213   4.104  44.599  0.0615 -0.4121  0.3345
25520W        W32120  16.373   5.229   9.448  0.0914 -0.2174  0.1495
25521W        W32121   2.275   1.644   6.699  0.1293 -0.0525 -0.0922
25522W        W32122   0.756   0.383  35.830  0.0556  0.2467 -0.1908
25523W        W32123  18.475   5.587   1.310  0.0166 -0.0125 -0.0024
25524W        W32124  16.942   4.888  15.160 -0.1693  0.0323 -0.1171
25525W        W32125  10.284   1.916  41.862 -0.0689  0.1088 -0.1697
25526W        W32126   0.715   1.982   0.021  0.1448  0.1227  0.3273
25527W        W32127   9.043   1.202  13.168 -0.3443 -0.1457  0.0930
25528W        W32128   3.158   3.231  10.371  0.1953  0.1049 -0.0564
25529W        W32129   3.684   0.187   4.145  0.0834 -0.0983  0.1151
25530W        W32130   7.211   1.234   5.449 -0.1995  0.0169 -0.1577
25531W        W32131   2.535   4.936   3.051  0.3584  0.0261 -0.2361
25532W        W32132  18.982   5.121   0.767 -0.2448 -0.2988 -0.2167
25533W        W32133   9.076   2.922   6.134  0.0420  0.0828  0.0267
25534W        W32134  20.404   0.908  38.745  0.0117 -0.2448 -0.2399
25535W        W32135   7.862   4.646  10.176  0.1957  0.1044 -0.0409
25536W        W32136  15.601   2.277  37.592  0.2100 -0.0682  0.1186
25537W        W32137  11.162   4.693  37.848  0.2008 -0.1574  0.1969
25538W        W32138  17.040   3.918  10.821 -0.0447 -0.1950 -0.1334
25539W        W32139  20.215   1.839   5.156  0.2196  0.0075  0.2985
25540W        W32140   2.478   4.856  24.713  0.3691 -0.2039 -0.0152
25541W        W32141  17.941   3.249  32.498  0.1156 -0.1749  0.1034
25542W        W32142  10.892   5.199   5.002 -0.0054 -0.2164 -0.0773
25543W        W32143   3.501   5.238  39.591 -0.3697 -0.0785  0.0063
25544W        W32144  17.997   3.069  36.525  0.2343  0.0730  0.1089
25545W        W32145   1.282   1.678  26.843  0.0149 -0.0710  0.0266
25546W        W32146  20.534   4.426   8.406 -0.2610  0.0908 -0.1330
25547W        W32147   1.591   0.838  37.987  0.3095  0.3414 -0.1910
25548W        W32148  14.001   0.918   2.366 -0.0511 -0.1219  0.0674
25549W        W32149  19.864   5.463   0.180 -0.2677  0.1728  0.1006
25550W        W32150   0.728   3.922   4.610 -0.0194  0.2865 -0.0153
25551W        W32151  13.978   6.121   6.109 -0.0536 -0.2963 -0.0217
25552W        W32152  16.978   0.977  39.184 -0.1597 -0.1294  0.0608
25553W        W32153   2.525   2.087  14.250 -0.1529 -0.0524  0.0623
25554W        W32154  15.706   3.874   8.000  0.1138 -0.2824 -0.4394
25555W        W32155  10.515   2.540  19.122  0.2319 -0.1147 -0.0479
25556W        W32156   2.757   4.027  34.648 -0.0372 -0.0107  0.1930
25557W        W32157  17.460   4.610   1.815 -0.0463 -0.3518  0.0584
25558W        W32158   4.476   4.929  31.404  0.1696  0.1260  0.1189
25559W        W32159   3.417   0.617  35.898 -0.2506  0.0847 -0.1333
25560W        W32160   8.271   5.961  35.736 -0.0807 -0.3678  0.2598
25561W        W32161  19.191   6.313  40.374  0.0654  0.1921 -0.1312
25562W        W32162  14.165   3.948   4.147 -0.1715 -0.2455  0.1001
25563W        W32163  10.802   0.424  43.525 -0.3053 -0.2619 -0.1404
25564W        W32164   9.574   2.727  39.821  0.0364 -0.4311 -0.0577
25565W        W32165   6.596   2.121  41.076 -0.0619 -0.0528 -0.1699
25566W        W32166   5.598   0.071  17.177 -0.3138  0.0364 -0.0647
25567W        W32167  19.454   0.537  34.420  0.1299 -0.1752 -0.3990
25568W        W32168  13.439   1.917   6.216  0.1251  0.0031  0.2161
25569W        W32169  13.909   4.002  12.183  0.0987 -0.2503 -0.0380
25570W        W32170   2.454   5.349  43.438 -0.0057 -0.1099  0.1154
25571W        W32171  14.656   4.243  42.648  0.1639 -0.4452  0.2232
25572W        W32172  13.114   1.730  40.677  0.0507  0.1637 -0.0286
25573W        W32173  15.043   0.038  42.796 -0.0258 -0.0605 -0.2348
25574W        W32174  19.963   4.559  34.611  0.2717 -0.1241 -0.1518
25575W        W32175   8.037   1.081  43.564 -0.0008 -0.3122 -0.0523
25576W        W32176   3.940   4.165  31.178 -0.1100  0.2921  0.0935
25577W        W32177  12.980   1.317  38.826 -0.3275  0.0640  0.2118
25578W        W32178  17.522   3.791  36.113 -0.5072  0.0888  0.3159
25579W        W32179  19.224   3.952  10.528  0.0649 -0.0382 -0.1594
25580W        W32180  19.816   2.505   6.651 -0.2089  0.0474  0.2354
25581W        W32181   9.901   0.304  12.523 -0.0104  0.1043 -0.1056
25582W        W32182  13.940   5.233  12.930  0.1921 -0.0428 -0.1442
25583W        W32183  13.485   5.706  14.647  0.2096  0.0158  0.1472
25584W        W32184  17.506   0.071  42.486  0.3274  0.0119 -0.0384
25585W        W32185   8.618   2.389   3.557 -0.1450 -0.1955 -0.0024
25586W        W32186  15.784   3.518  17.210  0.1343  0.0532 -0.0860
25587W        W32187   2.997   4.289  11.584 -0.3522 -0.1205  0.2235
25588W        W32188   8.712   2.592   5.123 -0.3197 -0.1040  0.0280
25589W        W32189  10.618   4.452  37.109 -0.0450 -0.0047  0.0603
25590W        W32190   5.598   2.158  18.152  0.1513 -0.1580 -0.0629
25591W        W32191  10.621   4.040  35.800 -0.1165 -0.3329 -0.1443
25592W        W32192   9.868   3.790   6.123 -0.1929  0.0329 -0.4212
25593W        W32193   6.572   2.108  44.862 -0.3087  0.2379 -0.1883
25594W        W32194  12.662   3.491  16.682  0.1026 -0.1067 -0.1582
25595W        W32195  19.948   2.893  27.585  0.1579 -0.0372  0.6937
25596W        W32196  10.076   0.383  24.686 -0.0218 -0.2008  0.0348
25597W        W32197   0.687   6.347  44.615  0.0753 -0.0746 -0.0660
25598W        W32198   0.683   3.227  33.530  0.1318  0.1229 -0.2550
25599W        W32199   4.821   4.648  12.838  0.0609 -0.1028  0.1297
25600W        W32200   9.322   0.207   0.657  0.0851 -0.0067  0.0631
25601W        W32201  16.178   2.391  39.363 -0.1150 -0.2379 -0.1298
25602W        W32202  11.924   1.978  39.406 -0.2179  0.0610 -0.1540
25603W        W32203   2.615   2.180  44.288 -0.1902  0.1828  0.1880
25604W        W32204  16.195   4.960  26.262  0.1417  0.3095 -0.0602
25605W        W32205  15.510   6.353   7.950  0.1520 -0.0581 -0.0811
25606W        W32206  15.375   1.238   6.416 -0.0063  0.3100 -0.1816
25607W        W32207   1.584   5.916  43.795  0.0579 -0.0201  0.0810
25608W        W32208   5.731   1.096  19.463 -0.0328  0.4569 -0.0385
25609W        W32209  12.566   0.779   9.958 -0.2678  0.0740  0.0737
25610W        W32210  14.512   1.729  44.584 -0.0534  0.0968  0.1514
25611W        W32211   7.797   3.603  40.581 -0.0523 -0.1920 -0.0261
25612W        W32212   2.630   1.327  27.763  0.1311 -0.1445  0.0198
25613W        W32213  20.485   1.866  28.935 -0.2764  0.2586 -0.0735
25614W        W32214   9.120   1.940  14.338  0.1925  0.3802  0.4974
25615W        W32215  14.779   5.974  14.698 -0.2985 -0.1186  0.3309
25616W        W32216  12.680   6.189  43.191  0.1131  0.2332 -0.0058
25617W        W32217   9.684   6.347   0.124 -0.4026  0.1362  0.1921
25618W        W32218   0.635   2.560  33.173  0.4053 -0.0652  0.1533
25619W        W32219  19.130   0.238   8.137  0.0622  0.2855 -0.1327
25620W        W32220  20.180   3.121  25.891  0.1110  0.1446 -0.0954
25621W        W32221  16.919   0.049  15.939  0.3039 -0.1877  0.2048
25622W        W32222  12.456   1.444  28.236  0.1194  0.0032  0.0539
25623W        W32223   1.603   3.503  37.023 -0.0907 -0.0683  0.3494
25624W        W32224   9.303   0.456   8.772  0.0105 -0.0767  0.0032
25625W        W32225  11.994   2.720   1.727  0.0671  0.2632 -0.3580
25626W        W32226   1.892   3.405   7.436  0.3270  0.0140 -0.2057
25627W        W32227  11.902   4.050  39.706 -0.2760  0.2092 -0.1059
25628W        W32228   1.237   4.745  44.717  0.1644 -0.3028 -0.1348
25629W        W32229   9.926   2.354  25.420 -0.1162 -0.1868  0.2962
25630W        W32230  18.682   1.377  10.600  0.0977 -0.1498  0.0333
25631W        W32231   8.126   1.089  34.219 -0.0795 -0.2267 -0.2716
25632W        W32232  21.054   5.770   2.936 -0.0259  0.0400 -0.0411
25633W        W32233  14.218   6.396  27.449  0.1936  0.0570 -0.0827
25634W        W32234  20.921   4.187   2.434 -0.0987  0.0307 -0.1026
25635W        W32235   7.815   5.121   2.115 -0.0838  0.1191 -0.0395
25636W        W32236  17.464   2.035  44.747 -0.1415 -0.3532  0.2622
25637W        W32237  17.855   1.497   5.748  0.0797  0.3352 -0.1387
25638W        W32238   7.136   4.333   8.462 -0.1110  0.1054 -0.2368
25639W        W32239  19.210   3.415  22.300  0.2090  0.0415  0.2009
25640W        W32240   9.418   4.335  23.254 -0.0854 -0.1990 -0.0654
25641W        W32241   0.898   4.073  30.080  0.1274 -0.0654  0.1024
25642W        W32242   0.796   2.051  42.254  0.0157  0.0192  0.0433
25643W        W32243   9.890   1.270   2.942  0.2924 -0.2669 -0.4252
25644W        W32244  20.894   5.799   1.843  0.0277 -0.0791  0.1776
25645W        W32245  12.370   4.813  13.308 -0.2231  0.1906  0.0892
25646W        W32246   6.177   1.121  42.783 -0.0586  0.0213 -0.0568
25647W        W32247   1.305   1.296  29.832 -0.2349  0.1684 -0.2053
25648W        W32248   0.787   1.655  26.992  0.0284  0.0830  0.4619
25649W        W32249  16.996   2.995  14.801 -0.0993 -0.2846 -0.0303
25650W        W32250  15.287   2.424   8.549 -0.3496  0.3300  0.0156
25651W        W32251  15.876   5.200  35.995 -0.0576 -0.0098 -0.0747
25652W        W32252  13.675   3.426  36.830  0.1091  0.0313  0.0797
25653W        W32253   5.474   5.263  43.727 -0.0318  0.1177 -0.0128
25654W        W32254   6.067   2.959   9.222  0.1693 -0.3091 -0.0171
25655W        W32255  17.306   3.096  16.126 -0.2655 -0.2984  0.0133
25656W        W32256   1.994   0.263  27.769  0.1941  0.4809 -0.0939
25657W        W32257  15.638   2.372   4.253 -0.1923 -0.3233  0.1280
25658W        W32258   7.254   1.242  36.747  0.0499 -0.0312 -0.0977
25659W        W32259  13.321   0.145   2.347  0.2521 -0.0250 -0.0086
25660W        W32260   7.017   3.299  35.786 -0.0930 -0.1902  0.1086
25661W        W32261   8.431   4.710  11.523 -0.1275 -0.3140  0.6675
25662W        W32262   1.358   3.243  42.015  0.0005 -0.0855  0.3605
25663W        W32263   6.571   5.171  14.155  0.1707  0.0198  0.0805
25664W        W32264  11.838   5.486  44.738  0.0168  0.1924  0.0404
25665W        W32265   9.049   2.165  23.815 -0.2557 -0.1490 -0.1794
25666W        W32266   9.959   1.002   3.411  0.0296  0.1723  0.0771
25667W        W32267  11.265   1.792  39.857 -0.1486 -0.1973  0.1525
25668W        W32268  14.074   0.424  37.650  0.2932  0.0999  0.0035
25669W        W32269  20.336   6.511  14.880 -0.0254  0.1336 -0.2501
25670W        W32270  13.036   0.963  16.217 -0.1293  0.0013  0.0878
25671W        W32271  18.944   0.333  43.800  0.0814  0.1641  0.0131
25672W        W32272  14.478   6.013  16.697  0.0792 -0.0680 -0.1247
25673W        W32273  18.038   1.906  34.791 -0.0270  0.0520 -0.0780
25674W        W32274  10.421   4.402  35.430  0.1329  0.2934  0.0249
25675W        W32275   6.888   2.178   3.593 -0.0245  0.2302  0.1774
25676W        W32276   8.065   1.502   3.445  0.0529 -0.0640  0.0948
25677W        W32277   1.111   2.497  31.492 -0.0584  0.1985  0.1824
25678W        W32278   1.129   1.231  37.851  0.2426 -0.0676  0.3256
25679W        W32279  16.775   3.605  37.923  0.0542 -0.0497 -0.0745
25680W        W32280   2.567   3.398   8.147  0.0855  0.0523 -0.2822
25681W        W32281  16.623   3.609   3.602 -0.1477 -0.0479  0.1797
25682W        W32282   3.046   5.450  12.238  0.1981 -0.2015 -0.2202
25683W        W32283  14.404   3.122  15.553 -0.1155  0.1012 -0.1756
25684W        W32284  15.437   4.397   6.952  0.5285 -0.0826  0.2772
25685W        W32285   0.916   4.056   7.955  0.1156 -0.0375 -0.2653
25686W        W32286  20.591   1.710  25.805 -0.1491  0.1221 -0.1454
25687W        W32287  11.997   3.097  13.253 -0.0008 -0.0333 -0.1200
25688W        W32288  16.264   1.492  30.322  0.0825 -0.1458 -0.1394
25689W        W32289   5.209   1.899  18.607 -0.0467 -0.0818 -0.1646
25690W        W32290  20.050   4.105  38.551 -0.4073 -0.1246  0.0314
25691W        W32291   2.727   3.729  14.366  0.1003 -0.1798  0.1873
25692W        W32292   2.285   1.554  12.512  0.2895 -0.0637 -0.1576
25693W        W32293   2.536   4.113  33.830 -0.0498  0.0772 -0.0130
25694W        W32294  19.783   5.913  36.122 -0.3153 -0.2594 -0.0597
25695W        W32295  14.150   2.193   2.581 -0.2457  0.0596 -0.1022
25696W        W32296  16.741   5.555  30.152 -0.0115 -0.2058 -0.1341
25697W        W32297  19.616   0.444  32.547  0.0276  0.4781 -0.0615
25698W        W32298  11.004   3.366  29.877 -0.0920  0.0183  0.0797
25699W        W32299   5.337   0.887  36.975  0.2353  0.0174 -0.1134
25700W        W32300   6.032   4.174  12.369 -0.0648 -0.3072 -0.1680
25701W        W32301   2.944   2.945   1.155  0.1376  0.0136 -0.4789
25702W        W32302   0.025   1.468  24.690  0.0223  0.2908 -0.0180
25703W        W32303  11.232   4.410  21.072  0.1726  0.0210 -0.3532
25704W        W32304   7.233   3.296   0.396 -0.2976 -0.1063 -0.1632
25705W        W32305   6.312   0.479  40.737  0.3153  0.0064  0.1325
25706W        W32306  19.648   2.434   3.921  0.2225  0.0204 -0.2364
25707W        W32307   4.545   2.547  36.428 -0.2430  0.0829 -0.3173
25708W        W32308   4.734   2.282  15.588  0.3209 -0.0984  0.1082
25709W        W32309  17.480   6.165  28.016 -0.1246  0.1892 -0.0586
25710W        W32310   0.165   1.062  31.963  0.0680 -0.0391 -0.0971
25711W        W32311   7.276   4.565  33.654  0.2266  0.0206 -0.1698
25712W        W32312  12.321   4.468  43.816 -0.3058 -0.1358  0.0755
25713W        W32313   9.646   0.810  16.011  0.0153  0.1732  0.1795
25714W        W32314   4.720   4.041   9.686 -0.0267 -0.1083 -0.0935
25715W        W32315  18.082   2.065   8.515  0.1810  0.1190 -0.0442
25716W        W32316   0.729   1.059   9.223  0.1108 -0.3120 -0.1470
25717W        W32317   9.273   1.951  33.190 -0.0162  0.4219 -0.0496
25718W        W32318  18.567   3.579   4.550  0.1664 -0.0291 -0.0414
25719W        W32319  18.894   1.628  25.506  0.0063 -0.0145  0.2666
25720W        W32320   9.354   1.535  40.812 -0.0400  0.0031 -0.0530
25721W        W32321   2.455   5.878  38.061  0.1947  0.1137 -0.1845
25722W        W32322   5.766   6.449  12.040  0.0995  0.3749  0.0185
25723W        W32323   5.731   4.658  31.892 -0.0840  0.0262 -0.2163
25724W        W32324  11.333   1.211   2.601  0.2091  0.0615  0.1383
25725W        W32325  15.948   1.817   6.970  0.2429 -0.0602  0.2668
25726W        W32326   7.666   2.604   0.295  0.1228  0.0082  0.1336
25727W        W32327   2.293   3.406  38.397 -0.1910  0.3619 -0.2519
25728W        W32328  13.284   0.579  18.238 -0.1032 -0.0957  0.2465
25729W        W32329  10.588   4.839  22.712  0.0119 -0.1594 -0.1981
25730W        W32330  20.992   3.673  35.246 -0.1405 -0.0329 -0.2658
25731W        W32331   3.807   5.792  32.297  0.0297  0.1378 -0.1060
25732W        W32332   4.910   3.377  15.604  0.1528  0.1277 -0.2161
25733W        W32333   9.340   0.320  38.555 -0.0764  0.1002 -0.2388
25734W        W32334   6.745   2.291  10.535  0.1862  0.0972  0.0103
25735W        W32335  18.574   6.494   7.302  0.1382 -0.0743 -0.2687
25736W        W32336  21.016   2.696   3.536  0.0859 -0.0665  0.0309
25737W        W32337   6.155   5.845   8.868 -0.3891 -0.1010  0.0401
25738W        W32338  17.699   2.684   3.500  0.0788 -0.0030  0.0868
25739W        W32339  15.678   5.892  43.623  0.0564 -0.0696  0.0217
25740W        W32340  19.275   2.575  23.969  0.0683  0.0005  0.1983
25741W        W32341  11.588   2.065  41.227 -0.1252  0.1952 -0.0218
25742W        W32342  14.788   4.419  40.404  0.0192  0.0506  0.2349
25743W        W32343  16.382   3.218  16.913  0.2080  0.2767 -0.0854
25744W        W32344   0.911   3.385   7.118 -0.2357 -0.1832  0.1977
25745W        W32345  10.189   5.218  35.137 -0.1428  0.2866 -0.2434
25746W        W32346   9.824   6.187  37.093  0.3436  0.1775 -0.0127
25747W        W32347   7.279   0.705  14.658 -0.2433  0.0022  0.1415
25748W        W32348  12.251   1.217  12.475 -0.0939  0.1403  0.2508
25749W        W32349   2.693   3.803  41.031  0.1732 -0.1571  0.2526
25750W        W32350   9.643   5.322   4.403 -0.0642  0.3546 -0.1415
25751W        W32351   0.433   3.452  27.307  0.1352 -0.0812  0.1311
25752W        W32352   1.055   0.551   4.244 -0.2726 -0.0763  0.0796
25753W        W32353  15.730   1.252  44.370  0.0915 -0.3398  0.1085
25754W        W32354  12.240   4.248  39.423 -0.1483 -0.0267 -0.3837
25755W        W32355  17.211   4.546  33.612  0.1518  0.0264  0.1089
25756W        W32356   2.466   5.717  29.649  0.0493  0.0718  0.0403
25757W        W32357   1.554   0.712   8.487  0.2963  0.0185 -0.1949
25758W        W32358  14.419   5.582   3.227 -0.4517  0.1588  0.3234
25759W        W32359  19.864   6.179   0.475 -0.1961 -0.2025  0.0841
25760W        W32360   7.668   1.553  15.358  0.1635  0.3743  0.0155
25761W        W32361  16.968   4.779  11.643 -0.0869  0.1011  0.1420
25762W        W32362  10.536   4.548  20.129 -0.0498 -0.0007 -0.0915
25763W        W32363   8.548   1.080  14.909  0.2304 -0.1632  0.0891
25764W        W32364  18.777   1.633   5.351  0.2566  0.0731  0.2173
25765W        W32365  10.954   5.588   2.129  0.4180 -0.1242 -0.2371
25766W        W32366  17.665   0.917  43.805 -0.0391  0.4350  0.2335
25767W        W32367  13.277   2.486   9.341  0.0347  0.1076 -0.0108
25768W        W32368  17.267   5.010  28.442 -0.2337  0.1814 -0.1417
25769W        W32369  16.248   4.491  40.356 -0.0508 -0.1722  0.1228
25770W        W32370   1.898   2.768  13.843 -0.2118 -0.2971  0.3652
25771W        W32371  17.580   0.769  24.040 -0.2069  0.3396 -0.2113
25772W        W32372  12.315   5.768  42.033  0.1736 -0.2086  0.0109
25773W        W32373   1.772   1.585   3.306 -0.0369 -0.0019  0.0271
25774W        W32374  15.945   5.789  30.604  0.1214 -0.1469 -0.2294
25775W        W32375  11.063   4.974  22.822  0.3937  0.0035  0.0004
25776W        W32376  16.917   6.467  43.531  0.1301 -0.1010  0.0186
25777W        W32377   0.231   3.246  28.087  0.2956  0.0387 -0.3895
25778W        W32378  11.800   1.616  15.342 -0.4876  0.1806 -0.0272
25779W        W32379   4.623   0.851  34.649  0.0121 -0.0918 -0.0874
25780W        W32380  19.752   2.704  38.643 -0.1293 -0.0167  0.1265
25781W        W32381  17.134   2.095  17.145  0.0036  0.1547 -0.0513
25782W        W32382  16.764   0.952   2.986 -0.0891 -0.1166  0.2100
25783W        W32383  18.219   1.464  29.494  0.1331  0.0392  0.3106
25784W        W32384   5.704   1.686   8.350 -0.0918 -0.0223  0.1723
25785W        W32385  18.037   0.659  24.866 -0.3137  0.1651 -0.2940
25786W        W32386  14.097   4.651  29.800  0.0704 -0.4214  0.0598
25787W        W32387   0.516   0.763  10.251  0.0746  0.1439  0.1105
25788W        W32388  12.555   2.111  35.797 -0.0287 -0.2329 -0.1974
25789W        W32389   3.392   6.393  30.738  0.1910 -0.2713 -0.1745
25790W        W32390   0.260   5.443  26.555 -0.2593 -0.0105  0.0040
25791W        W32391   8.747   4.673   3.678 -0.0780  0.1000  0.1398
25792W        W32392   8.700   0.412   4.377 -0.1840 -0.0874  0.0252
25793W        W32393  15.188   3.227  13.179  0.2165 -0.3697  0.2567
25794W        W32394   7.457   4.005   7.130  0.3991  0.3245  0.1248
25795W        W32395   2.138   1.226  30.907 -0.0796  0.0605 -0.3532
25796W        W32396   0.424   6.470   9.955  0.1776 -0.0939 -0.1473
25797W        W32397   1.334   3.159  10.956  0.3756 -0.1012 -0.1570
25798W        W32398  14.695   1.285  16.453  0.1343 -0.0976  0.0552
25799W        W32399  11.677   3.229  12.448 -0.2854 -0.0893 -0.0826
25800W        W32400   0.393   2.742   5.281 -0.0246 -0.0647 -0.0145
25801W        W32401  11.995   4.551  12.121 -0.1756 -0.2983 -0.0025
25802W        W32402   5.594   2.368   7.556  0.3469  0.1989  0.3008
25803W        W32403   9.649   6.010  31.596 -0.1224 -0.0416 -0.1304
25804W        W32404   9.654   0.290  17.905  0.0732 -0.0937  0.0317
25805W        W32405   5.032   6.496  42.461  0.1846  0.2213  0.0786
25806W        W32406   4.329   1.573  39.632 -0.4173  0.0809 -0.3724
25807W        W32407   5.637   0.719  41.259  0.0224  0.1116  0.1184
25808W        W32408  17.444   4.439  27.571 -0.3809  0.0164 -0.1165
25809W        W32409  12.197   6.099   8.223 -0.1532  0.1710 -0.4463
25810W        W32410   1.330   6.131   6.853  0.0306  0.0021  0.0741
25811W        W32411   4.424   1.696  31.201 -0.0612 -0.1330 -0.0714
25812W        W32412   5.811   1.472  14.571  0.2029  0.1275 -0.0053
25813W        W32413   5.101   1.900   3.641 -0.0282 -0.1508 -0.2130
25814W        W32414  17.420   3.038  34.015 -0.0024 -0.2195  0.0919
25815W        W32415  19.441   5.420  11.811 -0.1660  0.0413 -0.1928
25816W        W32416   6.613   5.598  43.693  0.3079  0.2844 -0.0095
25817W        W32417   7.924   4.357  17.343 -0.1852 -0.0924 -0.3690
25818W        W32418   0.899   1.144  41.230  0.2623 -0.0537 -0.1083
25819W        W32419  20.023   4.384   5.012  0.1308  0.1449 -0.1841
25820W        W32420  13.182   3.759  15.705  0.2241  0.1574 -0.2182
25821W        W32421   9.772   2.372   8.646  0.0760 -0.0534 -0.1694
25822W        W32422   1.706   2.736   3.896 -0.1568 -0.1732 -0.0680
25823W        W32423  18.568   3.652  30.999 -0.0674 -0.1358 -0.1220
25824W        W32424  13.538   5.237  16.190  0.0398  0.0417  0.1803
25825W        W32425  13.735   5.264   0.439  0.1675 -0.0954 -0.3462
25826W        W32426   8.799   4.334   1.211 -0.0182 -0.4945  0.2412
25827W        W32427   0.896   1.794  25.732 -0.0690 -0.1191 -0.1704
25828W        W32428   9.592   2.246  22.645  0.1066  0.0343  0.1260
25829W        W32429   2.873   3.240  25.869 -0.1243 -0.1020 -0.3475
25830W        W32430   4.934   2.769  37.686  0.2555 -0.4565 -0.0184
25831W        W32431   6.446   1.637  16.988 -0.0217 -0.1890 -0.0582
25832W        W32432   3.991   3.479  27.918 -0.3462  0.1697  0.1520
25833W        W32433   8.291   6.574  42.477 -0.0877  0.1018 -0.2645
25834W        W32434   0.516   4.482   3.112  0.4004 -0.0509 -0.0386
25835W        W32435  11.821   1.602   4.684  0.3869 -0.0998 -0.1541
25836W        W32436  18.241   1.310  28.424 -0.0287 -0.0568 -0.1905
25837W        W32437  13.030   2.528  16.271  0.0412 -0.0038  0.0222
25838W        W32438   4.003   3.882  33.988  0.2449 -0.0927  0.0209
25839W        W32439  17.475   1.235  26.247 -0.1812  0.2306  0.0036
25840W        W32440  14.942   3.328  16.048 -0.0317 -0.0410  0.0489
25841W        W32441   3.222   1.604  43.183  0.0111  0.1120  0.2377
25842W        W32442  19.720   0.036  32.268  0.3349 -0.0477  0.1317
25843W        W32443   1.659   0.908   2.689  0.0029  0.2038  0.1921
25844W        W32444   3.944   5.768   1.609 -0.0976 -0.0746 -0.1021
25845W        W32445  15.541   6.318  13.122  0.1666 -0.4840 -0.1854
25846W        W32446   0.520   3.158  34.544  0.0433 -0.3228 -0.1554
25847W        W32447   2.855   1.178   8.480 -0.1022  0.2254 -0.0350
25848W        W32448  10.831   5.447   8.316 -0.0356  0.0424  0.0551
25849W        W32449  10.300   2.921  11.197  0.0628 -0.2000  0.1710
25850W        W32450   7.452   0.846   5.639  0.0834  0.1586 -0.1431
25851W        W32451  16.815   5.115  27.294  0.1325  0.0200 -0.2149
25852W        W32452  14.837   1.045  40.959 -0.0498  0.1257  0.0042
25853W        W32453   2.619   5.057  11.271 -0.1767 -0.1982  0.0497
25854W        W32454   0.567   2.678  37.068 -0.3537 -0.1935 -0.1632
25855W        W32455  20.605   0.424  29.122  0.2091 -0.2605  0.0516
25856W        W32456   2.086   3.372  13.934 -0.0250  0.0410  0.0733
25857W        W32457  20.883   5.424  15.182 -0.1682  0.3252 -0.0097
25858W        W32458  13.853   2.054  17.228 -0.3064 -0.0065 -0.2745
25859W        W32459   3.271   1.528  39.380 -0.2660  0.0158 -0.0981
25860W        W32460   1.269   3.790  25.501 -0.0601 -0.0951  0.0196
25861W        W32461  19.794   4.897  29.400  0.0855 -0.0678 -0.1609
25862W        W32462   4.174   3.481   5.746  0.0943  0.0370  0.1010
25863W        W32463   8.671   5.645  24.185  0.2680 -0.0334 -0.0484
25864W        W32464  14.740   2.201   8.914  0.0181  0.0448 -0.1364
25865W        W32465  19.517   0.815  39.968  0.1280  0.1247 -0.1165
25866W        W32466  19.589   5.780  39.890 -0.0994  0.0677  0.0586
25867W        W32467   5.447   5.487   3.871  0.1685  0.2859 -0.2593
25868W        W32468  16.767   2.325  32.635  0.3529  0.1659 -0.1236
25869W        W32469   8.546   4.315  32.326 -0.0049 -0.0054  0.2332
25870W        W32470  17.756   0.320  33.681 -0.2525  0.4776  0.0028
25871W        W32471   0.480   1.404  13.660 -0.0189  0.3903  0.2833
25872W        W32472  11.931   0.115  11.693 -0.2594  0.0841 -0.1389
25873W        W32473  19.827   0.765  43.957 -0.0962 -0.0968 -0.0146
25874W        W32474  15.559   2.598   9.100 -0.1319 -0.0215  0.0518
25875W        W32475   8.759   0.197  15.666 -0.2706  0.2076  0.1598
25876W        W32476  11.495   4.091  31.970 -0.0643  0.4077 -0.2805
25877W        W32477   8.320   3.239  21.144  0.0028 -0.1934  0.0234
25878W        W32478   7.771   1.898  39.125  0.1239 -0.0221  0.1396
25879W        W32479   9.858   3.550   3.618 -0.0962  0.1233 -0.0615
25880W        W32480   9.252   1.337  18.079  0.3653  0.2356 -0.1609
25881W        W32481   3.774   4.312  38.682  0.0031  0.0796 -0.1044
25882W        W32482  17.141   1.773  40.799 -0.0465 -0.1358 -0.0077
25883W        W32483   2.740   2.082   9.469  0.0475 -0.0072  0.1020
25884W        W32484  20.995   1.111  41.062  0.1806 -0.1329  0.3642
25885W        W32485  17.332   5.715  37.004  0.0202  0.0714 -0.0843
25886W        W32486   7.905   3.099  34.809  0.2946 -0.1597 -0.1091
25887W        W32487  21.136   6.289  15.580 -0.1719  0.0779  0.0727
25888W        W32488   4.896   3.271  43.396 -0.1005 -0.0999 -0.1777
25889W        W32489   7.660   3.809  41.741  0.0133 -0.0152  0.0188
25890W        W32490  20.058   1.461   8.419  0.2430 -0.0584  0.2339
25891W        W32491   1.137   6.207  34.028 -0.0029 -0.0178  0.2315
25892W        W32492  17.932   0.135   3.793 -0.2398  0.1611 -0.0213
25893W        W32493   0.584   5.506  38.228  0.0604  0.1213 -0.1445
25894W        W32494  11.756   0.994  19.752  0.2232  0.1037  0.0466
25895W        W32495   0.009   4.889  28.279 -0.2581 -0.0933 -0.0904
25896W        W32496   3.548   3.433  29.740 -0.3224  0.1912  0.1743
25897W        W32497  14.273   3.276   2.728 -0.1697 -0.0412  0.2054
25898W        W32498  14.587   5.863  36.512  0.0097 -0.0764 -0.0411
25899W        W32499   9.442   0.165  32.503 -0.1157  0.0526 -0.0881
25900W        W32500  17.687   6.212  38.064 -0.0702  0.0318  0.1081
25901W        W32501   0.689   0.190  26.741 -0.1172  0.1817 -0.2023
25902W        W32502   4.910   0.266  31.876 -0.2898  0.1544  0.1395
25903W        W32503  13.168   1.379   0.857 -0.1440  0.0869 -0.2309
25904W        W32504  11.311   5.046  36.669  0.0049  0.1510 -0.2457
25905W        W32505   5.735   4.753  12.314 -0.3043 -0.1746 -0.1301
25906W        W32506  18.683   0.611  11.538  0.1633 -0.0297  0.0478
25907W        W32507  16.827   1.454  25.781  0.0756 -0.1595 -0.1600
25908W        W32508  16.119   5.063  10.718  0.2581 -0.0327 -0.3398
25909W        W32509  20.105   6.014   8.131  0.1066  0.0595 -0.0029
25910W        W32510  20.114   0.752  10.252 -0.1473  0.1504  0.0168
25911W        W32511   4.161   0.363  28.883 -0.1782  0.1516  0.0157
25912W        W32512   2.907   4.135   3.691  0.1068  0.0363  0.0659
25913W        W32513   4.032   1.972  39.748  0.0603  0.0855  0.0286
25914W        W32514   9.507   4.870  31.936  0.2158 -0.2094 -0.2160
25915W        W32515  17.096   1.036  13.345  0.2151  0.1365  0.2251
25916W        W32516  11.793   6.167   5.879  0.0460 -0.0488 -0.3935
25917W        W32517  13.305   6.551  27.523 -0.2080 -0.1932 -0.2072
25918W        W32518   3.746   3.619   9.825  0.0132  0.3098 -0.1370
25919W        W32519  11.728   0.927  31.739  0.0132  0.1817  0.0774
25920W        W32520   3.926   4.162   4.065 -0.0898  0.0722 -0.3514
25921W        W32521  14.913   0.834  28.571 -0.1635  0.0479  0.0946
25922W        W32522   9.146   5.692   5.623  0.0945  0.0536  0.1135
25923W        W32523   7.630   0.691  19.604 -0.3421  0.0987 -0.0388
25924W        W32524   0.372   3.928  25.393 -0.0116 -0.0339  0.1726
25925W        W32525  12.380   2.764  37.512  0.0649 -0.2214 -0.0710
25926W        W32526  10.156   4.121  39.446 -0.0857  0.2411  0.0743
25927W        W32527   9.778   5.464  24.121 -0.0951 -0.0739  0.1637
25928W        W32528   0.605   2.384  25.383  0.0396  0.1404  0.1220
25929W        W32529  13.336   0.823  35.334 -0.2953 -0.6063 -0.0549
25930W        W32530  15.792   3.035  28.355 -0.0113  0.0793 -0.0699
25931W        W32531   4.320   6.523  40.828  0.1477 -0.1769 -0.0349
25932W        W32532  21.036   1.169  39.935  0.0238 -0.0694  0.1287
25933W        W32533   2.455   5.530  10.306  0.1835  0.1305  0.4040
25934W        W32534  19.030   5.625   2.293 -0.3444  0.1901 -0.0843
25935W        W32535   8.152   1.109  22.055 -0.1804  0.2792 -0.0750
25936W        W32536  10.261   0.374   8.370  0.2300  0.1873  0.1231
25937W        W32537   1.194   6.316   0.457 -0.1089  0.0707 -0.3275
25938W        W32538  10.071   6.461  20.597  0.0206 -0.0539 -0.0294
25939W        W32539   5.907   0.230   5.385  0.2495 -0.3474 -0.1125
25940W        W32540   0.046   4.684  30.126 -0.3625 -0.1829  0.1449
25941W        W32541   4.847   1.099   7.789 -0.1330  0.1656 -0.2268
25942W        W32542   5.111   3.285  40.240 -0.2655 -0.1496 -0.0399
25943W        W32543  11.898   1.570  18.453  0.0517  0.0835  0.0868
25944W        W32544   0.566   3.551  13.700 -0.0290 -0.0325  0.0033
25945W        W32545  12.730   6.425   0.456  0.0962  0.2179  0.1740
25946W        W32546   5.962   2.087   8.534 -0.1184 -0.0434  0.1164
25947W        W32547   4.793   5.160  12.816 -0.1748  0.2705 -0.1036
25948W        W32548  20.683   5.629  13.937  0.1936 -0.0411  0.0750
25949W        W32549  18.504   3.830  43.046  0.0214 -0.0588 -0.0037
25950W        W32550   5.471   5.236  10.887 -0.0116  0.1412 -0.2538
25951W        W32551   6.828   3.494  39.870  0.3075  0.0271 -0.2252
25952W        W32552  17.484   2.888   6.630  0.1421  0.1517 -0.2856
25953W        W32553   4.432   3.285   8.578  0.1631 -0.0890  0.0458
25954W        W32554  21.011   4.530  21.867 -0.3312  0.0413 -0.2694
25955W        W32555   2.664   3.808  13.343  0.2612 -0.4191  0.0011
25956W        W32556  17.473   0.316  13.357 -0.0178 -0.1058  0.0542
25957W        W32557  17.520   3.687  10.865 -0.0617 -0.1881 -0.0389
25958W        W32558  11.521   1.435  14.360  0.2863  0.2810  0.0003
25959W        W32559  15.611   0.373  31.712 -0.0247 -0.0406 -0.1963
25960W        W32560  14.509   3.728  14.234  0.1409 -0.1143 -0.0426
25961W        W32561  16.990   6.027  16.682  0.0261  0.3916 -0.1694
25962W        W32562   9.550   6.119  21.862 -0.3419  0.1963 -0.1257
25963W        W32563  10.379   3.296  32.444  0.0311  0.3198 -0.0381
25964W        W32564   7.484   1.094  42.851  0.2008  0.0033  0.0017
25965W        W32565  13.470   5.248   1.536 -0.4002 -0.0182  0.1326
25966W        W32566  15.526   3.993  42.320  0.0669  0.1592 -0.2136
25967W        W32567  20.337   0.550  21.468 -0.0854  0.0543 -0.0129
25968W        W32568  20.875   2.756  15.242 -0.3004 -0.2283  0.0643
25969W        W32569  10.556   0.636  17.197  0.0414  0.0393  0.1906
25970W        W32570   9.663   1.268  42.091 -0.0964  0.1761  0.3682
25971W        W32571   2.202   0.398  33.143  0.0202 -0.1215 -0.0074
25972W        W32572   2.116   5.771  24.799 -0.3517  0.1590 -0.0775
25973W        W32573  20.057   4.626  30.759 -0.1085  0.1335  0.0183
25974W        W32574   4.213   0.926  14.217  0.0826 -0.1523  0.1891
25975W        W32575   2.441   3.667  45.034 -0.1987 -0.0659  0.1334
25976W        W32576  18.313   0.765  26.386  0.1310 -0.1564 -0.0067
25977W        W32577   9.938   3.477  43.564  0.4260 -0.1090  0.3448
25978W        W32578   6.245   1.457  12.075  0.0106  0.1578  0.1084
25979W        W32579   4.409   5.208  31.859 -0.1038  0.1881  0.0741
25980W        W32580   1.671   5.883  40.540  0.1929 -0.1162 -0.0182
25981W        W32581   0.951   2.647  12.140  0.0137  0.0792  0.0229
25982W        W32582   5.765   5.846   8.091  0.1528  0.2360  0.0118
25983W        W32583  17.436   3.652   9.214  0.0621  0.2517 -0.1879
25984W        W32584  12.207   2.199  10.210 -0.0260 -0.3147 -0.2303
25985W        W32585   5.434   6.364  33.813  0.0395 -0.0181 -0.3074
25986W        W32586   0.618   4.430   7.768  0.0009  0.1684 -0.1525
25987W        W32587  14.344   6.536   3.229  0.0474  0.3668  0.0696
25988W        W32588   2.484   0.942   7.922 -0.2325 -0.1625  0.2986
25989W        W32589  11.060   2.513  16.088 -0.1559 -0.1051 -0.0893
25990W        W32590   0.760   2.095   7.932  0.2127  0.2135  0.1248
25991W        W32591   0.394   2.181  37.020 -0.0863  0.1253 -0.2593
25992W        W32592  15.748   3.705   3.110 -0.2571  0.0779  0.0525
25993W        W32593   1.262   0.427  16.184  0.3294  0.1487  0.1952
25994W        W32594  19.325   5.525  21.865 -0.0344  0.0878  0.0280
25995W        W32595  12.296   0.096   1.136  0.0690  0.1186 -0.4669
25996W        W32596  10.200   1.153  30.213 -0.1696 -0.3827  0.0712
25997W        W32597   4.635   3.715  32.844  0.0554 -0.0136  0.1004
25998W        W32598   6.942   5.007   6.423 -0.1066  0.2010 -0.1455
25999W        W32599  13.397   2.051  27.534  0.0737  0.1530 -0.0994
26000W        W32600   2.454   1.932  41.963  0.0620 -0.0845  0.0637
26001W        W32601  19.467   2.218  43.691 -0.1480  0.1540 -0.0680
26002W        W32602   4.093   4.697  38.572  0.3195  0.0964  0.1005
26003W        W32603  13.736   2.810  43.063 -0.0741  0.1275 -0.2297
26004W        W32604  15.593   4.892   3.201  0.2338  0.1499 -0.0301
26005W        W32605   6.752   4.375  30.077 -0.0954  0.2703  0.0951
26006W        W32606   4.023   3.709  44.258 -0.1857 -0.0753  0.3745
26007W        W32607  19.319   2.021  22.703 -0.1920  0.0433 -0.3077
26008W        W32608  11.368   4.132  33.214  0.0313  0.1224 -0.0705
26009W        W32609   1.068   0.597   0.784 -0.0691 -0.2131 -0.1603
26010W        W32610   8.878   4.364  10.821 -0.3439 -0.2543  0.0265
26011W        W32611  19.353   0.974  32.628 -0.4569  0.2641 -0.1569
26012W        W32612  18.621   2.832  41.794 -0.0507  0.1197 -0.2806
26013W        W32613   4.838   4.481   0.046  0.0466 -0.0196  0.0205
26014W        W32614   5.751   3.375   0.580  0.1444  0.2703  0.3468
26015W        W32615  18.057   5.578  11.814  0.1165 -0.2304 -0.0054
26016W        W32616  16.160   0.040  44.790  0.0311  0.1998 -0.5363
26017W        W32617   0.130   1.107   6.469  0.0448 -0.0674 -0.0606
26018W        W32618   5.351   5.833  16.026  0.2180 -0.1282 -0.1111
26019W        W32619   3.387   1.453  34.680 -0.0286 -0.3038  0.1232
26020W        W32620   9.676   4.267   6.339  0.1458 -0.1148  0.3014
26021W        W32621  11.280   6.191   4.814 -0.1177  0.2408  0.1969
26022W        W32622   4.945   4.462  17.002  0.1152 -0.3493  0.2519
26023W        W32623  13.874   4.435  16.665  0.0751 -0.1750  0.0027
26024W        W32624   4.649   0.238  12.923  0.1749 -0.1312  0.2790
26025W        W32625  13.012   2.078   4.160  0.2185  0.2240  0.2435
26026W        W32626  16.732   6.291  33.119  0.2007 -0.0034 -0.2033
26027W        W32627   8.038   5.913  17.908 -0.3165  0.4304  0.0811
26028W        W32628   8.837   4.647   6.211  0.1185 -0.3554  0.0522
26029W        W32629  15.231   5.784  31.284  0.0746 -0.0704 -0.0025
26030W        W32630   8.437   1.353  42.495  0.0355 -0.0789 -0.0480
26031W        W32631   8.798   2.391  14.547 -0.1539 -0.1509  0.2110
26032W        W32632  17.937   5.828   5.988  0.0649 -0.3132 -0.2164
26033W        W32633   8.062   3.451  33.811  0.2307  0.0862  0.0615
26034W        W32634   4.926   5.737   7.029  0.1452 -0.2989 -0.1055
26035W        W32635  18.527   5.711  35.501  0.0571  0.0550  0.2932
26036W        W32636  14.048   4.574   7.726 -0.1644 -0.0557 -0.2155
26037W        W32637   0.805   2.059  31.231  0.2617 -0.1271 -0.1470
26038W        W32638  18.836   0.897  43.105 -0.1055  0.0303  0.0378
26039W        W32639  17.991   5.753  13.084 -0.1006 -0.0825 -0.1483
26040W        W32640  20.244   4.304  44.617  0.2040 -0.0448 -0.0570
26041W        W32641   3.414   5.526  26.306 -0.0423 -0.1663  0.1613
26042W        W32642   7.950   3.696   3.418 -0.1982  0.0185 -0.2874
26043W        W32643  10.427   6.044  32.089 -0.0612  0.2327  0.1256
26044W        W32644  11.446   3.174  30.701 -0.1884  0.2528 -0.2366
26045W        W32645  10.403   3.398  18.998  0.0168  0.0796  0.0660
26046W        W32646  12.641   3.364  40.856 -0.1053 -0.0182 -0.3760
26047W        W32647  15.987   1.811  37.343 -0.2101 -0.1713 -0.1247
26048W        W32648  10.003   3.627  39.648 -0.0750 -0.0559 -0.2999
26049W        W32649  16.238   0.238   9.377 -0.1081  0.4675 -0.2823
26050W        W32650   4.482   1.863   6.664 -0.1634  0.0395  0.2378
26051W        W32651  19.234   4.082  34.251  0.0042 -0.3368  0.1809
26052W        W32652   6.116   2.934  10.406  0.0005  0.2548  0.1949
26053W        W32653  18.062   1.520   6.300  0.2490  0.2589  0.0871
26054W        W32654  20.132   6.406   7.603  0.1836 -0.0427  0.0920
26055W        W32655   1.696   5.404  27.995  0.3674 -0.2069  0.0686
26056W        W32656  16.180   6.066  33.281  0.2673 -0.0835 -0.0606
26057W        W32657   3.698   1.504  27.588  0.3088 -0.1941  0.0080
26058W        W32658   4.000   3.989   7.307  0.2952  0.1393  0.0912
26059W        W32659   7.583   0.645  15.695  0.0668  0.2548 -0.1038
26060W        W32660  15.206   5.708  41.871 -0.1276  0.3193  0.1144
26061W        W32661   1.564   2.321   1.561  0.1638 -0.0242 -0.0192
26062W        W32662   9.391   6.597  35.170 -0.2145  0.1982  0.2156
26063W        W32663   9.241   3.456  30.352  0.3189  0.1188 -0.1889
26064W        W32664  11.212   6.112   7.050  0.0868 -0.0975  0.0728
26065W        W32665   8.442   4.267  19.091  0.0419 -0.1014 -0.0984
26066W        W32666  17.556   6.423  13.192  0.1765  0.3411  0.3862
26067W        W32667   2.814   1.338  13.991 -0.2286 -0.1228 -0.2323
26068W        W32668  14.381   3.635  43.930  0.0025  0.0658  0.0135
26069W        W32669  10.152   6.472  18.776  0.2057  0.1202 -0.2181
26070W        W32670  19.472   1.781  29.374 -0.2009  0.3154 -0.2343
26071W        W32671   7.346   4.231  44.124  0.1378 -0.4368 -0.0934
26072W        W32672  20.312   2.067  30.911 -0.0181 -0.3502  0.2692
26073W        W32673  19.535   0.638   0.933  0.0557  0.0761 -0.1654
26074W        W32674  19.329   3.886   3.410 -0.2268  0.2147  0.3108
26075W        W32675  14.825   5.614  37.866 -0.0602  0.0266 -0.0818
26076W        W32676   9.664   1.177   3.830 -0.1918 -0.0337  0.0019
26077W        W32677  11.068   4.358   3.641  0.0480  0.0984  0.2428
26078W        W32678  14.467   5.870   0.574  0.1181 -0.0312  0.0735
26079W        W32679   8.602   5.977  21.664 -0.0847 -0.1254 -0.0098
26080W        W32680  20.417   5.772  34.267 -0.1124  0.0032  0.1970
26081W        W32681  13.238   3.610  44.687 -0.0058 -0.4997  0.3391
26082W        W32682  10.858   5.192  41.096  0.1103 -0.0478  0.0685
26083W        W32683   7.360   0.400  15.159  0.3215  0.1634 -0.0825
26084W        W32684  12.434   0.262   7.252 -0.0038 -0.3042 -0.1061
26085W        W32685  19.496   4.265   2.599  0.2454  0.1325 -0.0788
26086W        W32686  19.953   1.560   7.390  0.1422  0.2009  0.0209
26087W        W32687  17.209   1.182  37.462  0.3090 -0.1371 -0.0057
26088W        W32688   9.788   6.230   9.870  0.1199  0.0183  0.1242
26089W        W32689  14.584   2.499   4.426 -0.1287  0.1484  0.1142
26090W        W32690   1.029   3.048  11.917  0.0077 -0.0236 -0.2153
26091W        W32691  15.277   5.842   5.922 -0.0451  0.1143 -0.2955
26092W        W32692  17.302   0.152  37.007  0.3692 -0.0096 -0.0192
26093W        W32693   5.466   1.042  18.757  0.0370  0.0781 -0.1186
26094W        W32694  17.128   2.709  30.698 -0.1502 -0.0619  0.2357
26095W        W32695  16.161   2.004  11.187  0.0781  0.0484 -0.0506
26096W        W32696  13.989   0.497  29.039 -0.3836  0.2248 -0.0736
26097W        W32697  14.861   2.458  32.349  0.1187 -0.0377  0.0389
26098W        W32698   6.960   3.286  17.726  0.1234  0.2694 -0.1896
26099W        W32699  20.128   0.006  40.279  0.2317 -0.0472  0.3264
26100W        W32700   3.719   1.452  30.285 -0.2632 -0.0300  0.1203
26101W        W32701   8.927   0.927  39.093 -0.1135 -0.0410 -0.0026
26102W        W32702   5.437   5.334  38.301  0.1281  0.0310  0.1936
26103W        W32703   2.336   6.078  34.629 -0.3457  0.0507 -0.0753
26104W        W32704  14.090   3.311   1.060 -0.0903  0.0914  0.1217
26105W        W32705  18.662   0.365   7.002 -0.1346  0.0053 -0.2042
26106W        W32706   1.218   0.635  25.484 -0.0545 -0.0763 -0.0586
26107W        W32707   3.289   1.396   7.420  0.0429  0.1976 -0.0462
26108W        W32708  10.446   0.043  36.745 -0.0258  0.0985 -0.2664
26109W        W32709  19.241   0.935  35.588  0.0468 -0.3417  0.2142
26110W        W32710  13.233   1.341  44.017  0.0700 -0.1509 -0.4402
26111W        W32711   6.472   5.531  17.233  0.0075 -0.0387  0.1128
26112W        W32712  19.487   1.068  38.752 -0.0522  0.0681 -0.0497
26113W        W32713   0.944   5.331  41.844  0.0025  0.1005  0.0613
26114W        W32714  16.392   0.257  31.203  0.1550  0.1017  0.1648
26115W        W32715  19.135   3.398  28.858  0.2593 -0.0508  0.1854
26116W        W32716  10.144   1.551   4.595 -0.2969  0.0879 -0.1900
26117W        W32717  14.863   2.319  43.456 -0.0446  0.1554 -0.0975
26118W        W32718   4.921   2.360  41.492 -0.0201  0.1257  0.1180
26119W        W32719  14.566   0.774  41.826  0.0533  0.2960  0.3801
26120W        W32720   2.170   1.678  27.971 -0.0775 -0.0045 -0.2136
26121W        W32721   4.003   2.977  44.322  0.2130  0.2509  0.0411
26122W        W32722   5.330   1.018   3.027  0.1488  0.0578 -0.0761
26123W        W32723  16.240   1.654  33.771 -0.0954 -0.4051  0.1999
26124W        W32724  17.506   3.819   3.296  0.0659 -0.0515 -0.2251
26125W        W32725   3.842   3.178  31.191 -0.1843  0.0702  0.1050
26126W        W32726  20.103   3.363   4.993  0.2909  0.1035  0.0337
26127W        W32727   7.022   4.085  31.588 -0.1934  0.0674  0.0652
26128W        W32728  14.612   0.833  43.374  0.0402  0.1736  0.2411
26129W        W32729   3.034   4.238   7.760 -0.3813  0.2747  0.2042
26130W        W32730   3.288   5.035  36.217 -0.0498 -0.1724  0.0136
26131W        W32731  20.219   1.212   9.464 -0.1650  0.0175  0.2268
26132W        W32732   3.222   3.356  27.198 -0.1162 -0.1173  0.1127
26133W        W32733   3.092   6.054   5.207 -0.2632 -0.2624  0.1737
26134W        W32734  17.502   3.644  42.205 -0.3257  0.3074 -0.3081
26135W        W32735  10.878   2.435   9.446 -0.1812  0.2993  0.1608
26136W        W32736  12.676   1.428  20.549  0.1385 -0.0588 -0.0705
26137W        W32737  17.629   3.089  40.418  0.1556 -0.0496  0.0753
26138W        W32738   5.204   4.673  31.953 -0.2378  0.0532  0.1144
26139W        W32739  18.752   2.642  14.857  0.1446  0.0919 -0.0546
26140W        W32740  18.007   1.338  35.979  0.1830  0.2493 -0.0173
26141W        W32741   7.531   3.226  36.952  0.1569 -0.0715  0.1935
26142W        W32742   1.974   5.633  28.854 -0.1304  0.4326  0.2867
26143W        W32743   0.234   1.336  15.448  0.0578  0.0349  0.0528
26144W        W32744   0.301   5.957  26.768 -0.1624 -0.2357  0.1558
26145W        W32745  12.200   1.782  38.845 -0.0733 -0.0346 -0.1370
26146W        W32746   2.646   4.052  13.903 -0.0960  0.0999  0.0314
26147W        W32747   4.528   1.341   6.289  0.1323  0.0319  0.0493
26148W        W32748   8.034   0.516  15.909 -0.0294 -0.0626  0.2461
26149W        W32749  15.905   5.334  31.223  0.1888  0.1750  0.0383
26150W        W32750  10.536   0.376  16.223 -0.1191  0.1094  0.1641
26151W        W32751  11.024   5.555  38.380 -0.1669  0.0829  0.0125
26152W        W32752  20.248   3.378   0.680  0.1169  0.1241  0.1776
26153W        W32753   9.141   5.448  15.080 -0.2735 -0.0105 -0.0883
26154W        W32754  10.541   4.646  43.369 -0.1909  0.0157  0.1463
26155W        W32755  11.053   0.487  40.409 -0.0058 -0.0796 -0.0499
26156W        W32756   2.668   3.871  11.396 -0.0170  0.0954  0.0287
26157W        W32757   1.173   3.121  39.611 -0.1800 -0.2771  0.0389
26158W        W32758   8.788   4.328  23.145 -0.0163 -0.0766 -0.3207
26159W        W32759   4.791   3.660   1.535 -0.2472 -0.0468  0.1569
26160W        W32760   3.608   3.568  44.072 -0.2660  0.3344  0.0833
26161W        W32761   9.421   6.132  17.730 -0.0212 -0.0158  0.0255
26162W        W32762   3.208   3.926  44.722 -0.0901 -0.0275 -0.1204
26163W        W32763   3.434   2.607  12.658  0.2034  0.1764  0.1590
26164W        W32764  20.080   2.661  22.214  0.1369  0.2178 -0.0005
26165W        W32765   4.543   3.825  38.427 -0.1966 -0.0729  0.2113
26166W        W32766  17.917   4.847   2.131  0.0128 -0.5649 -0.2616
26167W        W32767  14.968   3.569  37.530  0.0977  0.1486 -0.3411
26168W        W32768  20.023   6.497   6.544 -0.1646  0.1599  0.3178
26169W        W32769   1.558   2.320  25.062 -0.2043 -0.0842 -0.3970
26170W        W32770  12.719   0.563  30.887  0.1101 -0.5237 -0.3210
26171W        W32771  12.782   4.873  11.481 -0.1656  0.1744  0.2664
26172W        W32772  20.073   2.316  10.186 -0.1800  0.5369  0.1787
26173W        W32773   3.829   6.422  14.862 -0.0226  0.0604 -0.0177
26174W        W32774  14.556   4.177   4.334 -0.1412  0.2323  0.0107
26175W        W32775   4.078   3.456  13.557 -0.0468  0.3083 -0.0072
26176W        W32776   3.847   5.981  15.149  0.1611 -0.3690  0.3736
26177W        W32777   7.057   4.676  10.776  0.1010  0.0702 -0.2172
26178W        W32778  16.554   2.228  11.379 -0.0726 -0.1340 -0.0069
26179W        W32779   7.857   5.629   5.080  0.0291  0.0733 -0.3098
26180W        W32780  19.871   1.186   4.618  0.1457 -0.2201  0.0805
26181W        W32781  10.180   1.715  21.466 -0.1533 -0.0780  0.0182
26182W        W32782   4.292   3.646   1.776 -0.0996  0.1135 -0.0882
26183W        W32783  13.391   0.235   4.490  0.2454  0.2073  0.1072
26184W        W32784  17.690   0.016  36.640 -0.0404 -0.3485 -0.1098
26185W        W32785   0.293   1.778   1.960  0.0420 -0.3248 -0.3420
26186W        W32786  12.888   3.287  20.053  0.0979  0.0112  0.0914
26187W        W32787   7.697   0.864  33.160  0.1873 -0.3069  0.0856
26188W        W32788  12.834   6.253   3.797  0.2710 -0.1357 -0.1283
26189W        W32789   2.779   2.275  39.916  0.2593  0.2556  0.1856
26190W        W32790  13.319   4.748  30.605 -0.1432  0.2357  0.0738
26191W        W32791  15.993   6.484  31.883  0.0697  0.2718  0.1891
26192W        W32792   8.430   1.369  16.513 -0.0701  0.1947  0.0570
26193W        W32793  15.319   4.597  40.147  0.1040 -0.0556  0.0658
26194W        W32794   0.354   3.501  22.898 -0.0641 -0.0309 -0.0900
26195W        W32795   7.255   2.769   5.206 -0.1171 -0.0747 -0.1556
26196W        W32796  20.249   0.122  35.093 -0.1628 -0.0158  0.2291
26197W        W32797  18.528   2.449  32.861 -0.0581 -0.1400 -0.2311
26198W        W32798   8.548   5.571  19.823  0.0115  0.1357  0.2104
26199W        W32799  14.497   2.186   1.891 -0.1098  0.3106  0.1582
26200W        W32800  11.580   5.485  36.403  0.1197  0.1276  0.1882
26201W        W32801  17.813   5.006  35.422 -0.0690  0.1876  0.1881
26202W        W32802  20.475   4.189  36.347 -0.2380  0.1892 -0.0435
26203W        W32803   5.990   3.431  10.638 -0.0548 -0.0290 -0.0463
26204W        W32804   8.451   0.724  21.770  0.1100 -0.3674 -0.1738
26205W        W32805   8.292   5.296  20.125 -0.0700 -0.1394 -0.2491
26206W        W32806   9.514   2.820   1.924 -0.0083  0.1192 -0.1654
26207W        W32807  16.191   5.573  16.768 -0.0023 -0.0660 -0.0964
26208W        W32808  10.193   0.651  14.872 -0.2542 -0.2224 -0.0603
26209W        W32809  10.365   0.952  40.356  0.0215  0.2230  0.2095
26210W        W32810   1.459   0.368  14.996  0.1175  0.0341  0.2238
26211W        W32811   4.756   1.824  30.836 -0.1524  0.1176  0.4623
26212W        W32812  15.478   2.345  30.844  0.1187  0.1633 -0.2772
26213W        W32813   5.895   6.386   0.029  0.2048  0.0154  0.3321
26214W        W32814   9.917   4.289  35.581 -0.1794 -0.1358 -0.1663
26215W        W32815   9.214   0.791  29.819  0.1318 -0.3096 -0.0321
26216W        W32816  11.245   3.034  14.231  0.0445 -0.3159  0.1505
26217W        W32817   3.626   4.274   8.292 -0.2007  0.1641  0.1894
26218W        W32818   7.696   4.864  34.495 -0.0683 -0.4843 -0.3599
26219W        W32819   2.662   4.090  37.872 -0.0633  0.3391  0.0877
26220W        W32820   8.031   1.207  40.624 -0.0848  0.1689 -0.1326
26221W        W32821   6.179   6.332  43.338  0.0133 -0.1677 -0.0568
26222W        W32822   2.121   5.427  30.701  0.1520 -0.1645  0.2589
26223W        W32823  18.176   3.351   9.034  0.0213  0.1101  0.1894
26224W        W32824  10.024   4.496   2.524 -0.4746  0.0091  0.1679
26225W        W32825   0.904   3.769   3.143 -0.1094 -0.0129 -0.1348
26226W        W32826  17.124   4.204  31.052 -0.0123 -0.1032 -0.0916
26227W        W32827   8.915   5.139  14.168  0.2223  0.2249 -0.1063
26228W        W32828  10.893   5.719  14.818  0.1153 -0.1396  0.0016
26229W        W32829   4.688   6.152  32.705 -0.0435  0.2069 -0.1519
26230W        W32830  16.120   6.516  32.373 -0.0055  0.1338  0.2388
26231W        W32831  19.550   6.192  25.925  0.0224 -0.0325 -0.0737
26232W        W32832   2.069   1.240   0.742  0.1530  0.0706  0.0852
26233W        W32833  14.043   5.305  34.511 -0.0976 -0.2526  0.0096
26234W        W32834   6.575   6.317   2.682 -0.2685 -0.1726 -0.0746
26235W        W32835   2.499   6.372  26.484  0.1390 -0.2842 -0.0035
26236W        W32836  18.303   5.589  20.999 -0.0977 -0.3527 -0.0196
26237W        W32837   6.910   2.184  43.811  0.1656  0.0783  0.0961
26238W        W32838  20.486   2.924  44.033  0.1146 -0.1029 -0.2293
26239W        W32839   6.742   1.586  37.514  0.2618  0.0354  0.1109
26240W        W32840  17.556   5.611  24.321  0.1036  0.3642  0.0321
26241W        W32841   3.499   4.263  39.128  0.0529  0.1582 -0.1321
26242W        W32842   1.457   5.913  31.973 -0.3210  0.1631  0.1290
26243W        W32843   1.065   1.149  14.409  0.0592  0.0793 -0.1174
26244W        W32844   0.108   2.351  39.523 -0.0711 -0.1346  0.0438
26245W        W32845   9.776   1.834  35.238  0.0455  0.0384  0.0109
26246W        W32846   1.858   2.153  23.970  0.2351 -0.3433  0.1270
26247W        W32847  14.646   0.390  12.653  0.1561  0.0582 -0.2697
26248W        W32848  14.719   6.410  41.537  0.0883  0.1543  0.1704
26249W        W32849   6.901   4.979  31.578  0.2067 -0.3396 -0.2605
26250W        W32850   6.113   3.508  14.111 -0.0008 -0.3608  0.1448
26251W        W32851  10.684   6.556   5.598  0.2347  0.1897 -0.1328
26252W        W32852   6.674   3.789  32.019  0.2439 -0.2967  0.1380
26253W        W32853  18.907   5.776  38.841 -0.0560  0.1056 -0.1799
26254W        W32854   2.092   3.843  42.012  0.3339  0.0949  0.2520
26255W        W32855  15.259   5.907  14.833 -0.0388 -0.3355  0.0597
26256W        W32856   5.010   1.806  12.958  0.0034  0.2644  0.0569
26257W        W32857   2.653   0.322  32.932  0.0836 -0.1714 -0.0658
26258W        W32858  20.119   5.497  22.799 -0.1980  0.0679  0.1042
26259W        W32859  18.778   3.299  33.292 -0.1760 -0.0372 -0.0066
26260W        W32860  19.997   5.798  15.544  0.0132  0.3675 -0.0534
26261W        W32861  12.372   4.346  37.796  0.1555 -0.1351  0.4087
26262W        W32862   0.134   6.415   1.206 -0.0867  0.4268  0.1084
26263W        W32863  10.128   4.751  33.204 -0.0271 -0.0418 -0.3081
26264W        W32864   0.441   3.228  29.625  0.1669  0.2591 -0.1903
26265W        W32865  18.697   0.578  10.944 -0.0677  0.0732  0.1556
26266W        W32866  15.420   1.370   1.868 -0.0361  0.0901 -0.0049
26267W        W32867  14.260   3.043  34.521 -0.2432 -0.0845 -0.1867
26268W        W32868  15.458   6.242  39.794  0.0142  0.0390 -0.5016
26269W        W32869  16.033   1.411   5.836 -0.1141 -0.3736 -0.0646
26270W        W32870  18.769   0.886   6.771 -0.0580  0.1405 -0.2160
26271W        W32871   8.672   1.949   3.810 -0.2104 -0.1027 -0.2761
26272W        W32872   3.771   4.784  17.148  0.5446 -0.0647 -0.0927
26273W        W32873  20.909   5.500  29.979  0.2072  0.2880  0.1254
26274W        W32874  18.619   0.229  25.141 -0.1439  0.0871 -0.1680
26275W        W32875   4.303   6.497  37.319  0.0292  0.1297  0.1896
26276W        W32876   6.777   4.622  17.945  0.1001  0.0158 -0.5554
26277W        W32877  15.876   2.192  32.581  0.0385  0.0236 -0.0864
26278W        W32878  20.024   2.590  15.540 -0.2652  0.2362  0.2319
26279W        W32879  19.622   3.273  14.792 -0.0755 -0.2924  0.3555
26280W        W32880   5.172   4.860   2.816 -0.0521  0.1095  0.1872
26281W        W32881  11.711   0.292  36.144 -0.2164  0.0161  0.0838
26282W        W32882   3.950   3.795   2.081  0.1884 -0.2030 -0.1766
26283W        W32883   4.645   5.737   2.352  0.2244  0.0578 -0.2807
26284W        W32884  17.607   3.295  42.584  0.2345 -0.1568  0.0227
26285W        W32885   9.001   2.832  18.918 -0.1136 -0.2406 -0.0012
26286W        W32886  20.970   4.009   7.938  0.0720 -0.0036  0.2307
26287W        W32887  16.834   5.277  11.586  0.1369 -0.2197 -0.0347
26288W        W32888  12.355   5.119   3.547  0.0725 -0.1243 -0.1581
26289W        W32889  15.746   3.557  39.352 -0.2689 -0.1082 -0.1787
26290W        W32890   8.906   1.267  31.598 -0.1599  0.0943  0.2092
26291W        W32891  15.068   0.374   5.877  0.0072  0.1850 -0.1710
26292W        W32892   8.453   6.538  41.954 -0.0216  0.1773 -0.0329
26293W        W32893   5.150   1.459   9.952  0.0758  0.0057 -0.0003
26294W        W32894   8.022   4.978  18.643  0.0503 -0.1262 -0.0753
26295W        W32895   0.202   5.533   0.781  0.2512  0.1042  0.2223
26296W        W32896   6.765   4.017  36.803 -0.1893 -0.1687 -0.1652
26297W        W32897  12.051   5.174  14.500  0.0592  0.1618  0.4207
26298W        W32898  11.272   2.472  30.892  0.1854  0.1979  0.1196
26299W        W32899  16.958   4.580  40.927  0.1971 -0.0953 -0.0631
26300W        W32900  10.062   2.486  10.299  0.0674  0.3444 -0.0449
26301W        W32901   5.763   4.874  39.045  0.0499 -0.0271  0.0790
26302W        W32902   3.858   2.793  12.370 -0.0345 -0.3850 -0.0427
26303W        W32903   3.565   3.926  29.916  0.0164  0.0915 -0.1850
26304W        W32904   5.876   1.543   0.247  0.0086 -0.3292 -0.2504
26305W        W32905   3.566   4.929  42.602  0.0894  0.0282  0.0136
26306W        W32906   9.280   4.947  34.628 -0.1172  0.2462 -0.2197
26307W        W32907   7.932   2.860  13.295  0.1288 -0.1787 -0.2219
26308W        W32908  16.994   1.767   4.314  0.1771  0.1663  0.2728
26309W        W32909   2.960   2.515   7.627 -0.3174  0.0598 -0.0923
26310W        W32910  20.355   1.773   4.117  0.0883 -0.5329  0.0715
26311W        W32911   9.117   3.486  20.768  0.2923  0.2195 -0.0225
26312W        W32912  11.466   6.582  35.803 -0.0354  0.1487  0.1176
26313W        W32913  12.288   1.634   4.332 -0.0598 -0.0862 -0.2983
26314W        W32914   6.559   6.415   4.545  0.0421  0.0817  0.0040
26315W        W32915   5.268   2.729  42.890 -0.0908  0.4267  0.0943
26316W        W32916  18.602   4.521  15.267  0.0870  0.1691 -0.2837
26317W        W32917  10.875   3.980  10.260  0.0910  0.1357 -0.0534
26318W        W32918   4.587   5.447  14.620  0.1066  0.0260  0.0603
26319W        W32919   6.547   6.133  13.034  0.0418  0.4095  0.1228
26320W        W32920  17.925   3.486  32.923  0.3611 -0.0300  0.2068
26321W        W32921  16.822   3.860  43.427  0.1687  0.1261 -0.0052
26322W        W32922   1.013   6.182  14.424  0.1219  0.1735 -0.0857
26323W        W32923  10.091   2.470   8.263  0.1586 -0.1079  0.0613
26324W        W32924   6.128   0.286  35.913  0.0129  0.4183  0.0552
26325W        W32925  18.973   4.882  38.378  0.0889  0.1376  0.2325
26326W        W32926  16.318   5.473  11.222  0.1302  0.0330  0.3659
26327W        W32927   5.974   2.055   1.906  0.1230 -0.0436  0.2071
26328W        W32928   1.030   5.485  25.433 -0.1441 -0.0824  0.2704
26329W        W32929  12.950   1.452  11.436  0.0717 -0.1873 -0.1429
26330W        W32930  11.088   0.131   1.468 -0.0020  0.2992 -0.0182
26331W        W32931   9.575   6.582  20.915  0.1139 -0.0329 -0.2363
26332W        W32932   1.703   3.778  39.658  0.4280  0.2676 -0.0382
26333W        W32933  20.596   5.936  25.578 -0.1550  0.0322  0.4808
26334W        W32934   4.551   5.841   1.092 -0.2099  0.0868 -0.0257
26335W        W32935  16.189   1.135  14.425 -0.1916 -0.0562 -0.4190
26336W        W32936   4.879   3.767  37.211  0.2143 -0.1260 -0.0415
26337W        W32937  19.383   5.931   3.550 -0.1660  0.3187 -0.1300
26338W        W32938   4.511   5.483   2.862 -0.0143 -0.2309 -0.0667
26339W        W32939  13.841   1.545  11.754  0.0578  0.1020  0.0092
26340W        W32940   0.899   0.038   8.731 -0.0600 -0.2106  0.1256
26341W        W32941   0.092   3.072   0.288 -0.2578  0.1015 -0.0419
26342W        W32942   4.994   3.309  14.595 -0.0433  0.0375 -0.1459
26343W        W32943   2.228   6.082   4.334  0.0268 -0.0972  0.1051
26344W        W32944  10.062   2.018  36.436 -0.2377 -0.3069 -0.2215
26345W        W32945   5.271   0.373  39.631 -0.2951  0.2636 -0.0910
26346W        W32946   6.825   5.737   4.788 -0.0618  0.1244 -0.1194
26347W        W32947  16.760   6.306  31.202 -0.0230  0.1048 -0.2805
26348W        W32948   9.909   1.134   5.488 -0.1307  0.1369 -0.0297
26349W        W32949   2.423   1.834  30.237 -0.1415  0.0685 -0.1748
26350W        W32950   0.325   4.396  25.786 -0.0009 -0.1240  0.2230
26351W        W32951  18.574   0.533  42.387  0.2644  0.0996  0.0614
26352W        W32952  15.102   2.525   8.135  0.0300 -0.2905  0.1366
26353W        W32953  13.533   2.177  39.918 -0.1417 -0.0908  0.0862
26354W        W32954  13.098   4.592  44.497  0.0610 -0.0058 -0.0579
26355W        W32955   1.378   0.487   8.087  0.0703 -0.1449  0.0106
26356W        W32956  10.389   0.694  30.001 -0.0348  0.0579  0.3784
26357W        W32957   8.656   1.930  18.079 -0.0180  0.0516 -0.2703
26358W        W32958  16.804   0.101  15.398  0.2386 -0.0385 -0.0615
26359W        W32959   6.578   5.637  36.009  0.1297  0.1629 -0.1086
26360W        W32960  13.913   4.246   4.563 -0.1516  0.1925  0.3374
26361W        W32961  17.551   6.067   3.218  0.3397 -0.5321  0.0796
26362W        W32962  16.939   1.320  34.199  0.3315  0.4455 -0.1331
26363W        W32963   5.739   4.645   8.750  0.1250 -0.0058  0.2230
26364W        W32964  11.296   1.962  43.817  0.0929 -0.0057  0.0820
26365W        W32965  17.847   1.849  12.945 -0.2155 -0.0578  0.0351
26366W        W32966   1.960   6.400   9.518  0.0784  0.0387 -0.1972
26367W        W32967   6.529   0.684   4.246 -0.0545 -0.0042 -0.1682
26368W        W32968   3.350   5.217   0.164  0.0367 -0.2799 -0.2539
26369W        W32969   3.998   4.490  39.083 -0.1642 -0.0891  0.1503
26370W        W32970   1.387   3.086  23.310  0.0798  0.0661 -0.2591
26371W        W32971   7.308   1.057  19.641  0.2769 -0.1125  0.1948
26372W        W32972  18.980   6.276   7.469 -0.0530 -0.1604 -0.1146
26373W        W32973  10.378   6.207   1.877 -0.3560  0.0247  0.0612
26374W        W32974  12.155   6.388  39.946  0.2697 -0.2205  0.1550
26375W        W32975   5.280   2.633   4.124 -0.3141 -0.2255 -0.1231
26376W        W32976   6.927   5.610  36.521  0.0379  0.1760  0.2168
26377W        W32977   5.238   3.679  32.315  0.2316  0.1394  0.0295
26378W        W32978   7.498   5.765  44.536  0.2999 -0.2395 -0.0440
26379W        W32979   7.159   3.263   5.127  0.0001  0.1199  0.0373
26380W        W32980   9.101   2.610  20.653  0.3817 -0.1348 -0.3697
26381W        W32981   2.611   1.198   1.800 -0.0736  0.3485 -0.1072
26382W        W32982  13.510   0.100  32.716  0.0748  0.0515 -0.4605
26383W        W32983  20.972   3.797   4.506  0.3775  0.1019 -0.4364
26384W        W32984   5.129   6.227  16.518 -0.1498  0.0856 -0.2860
26385W        W32985  18.106   0.758  12.282  0.0800 -0.0203  0.0043
26386W        W32986   6.271   1.293  20.093 -0.1142  0.0391 -0.1415
26387W        W32987  11.636   1.937  42.639  0.1507 -0.1591 -0.0896
26388W        W32988   3.766   1.318  41.108 -0.1387 -0.1664  0.1073
26389W        W32989   2.927   2.893  27.992 -0.2200  0.0573  0.4064
26390W        W32990  19.655   3.993   5.763 -0.0935  0.0162  0.2370
26391W        W32991  20.393   3.087  14.289 -0.0736  0.3225 -0.3538
26392W        W32992   1.619   4.424  14.633 -0.1488  0.2388  0.0259
26393W        W32993   1.373   2.309  29.005 -0.1927  0.0269  0.0639
26394W        W32994  18.114   3.054  26.687 -0.1385  0.1089 -0.0488
26395W        W32995   1.095   1.027  14.985 -0.1048 -0.3232  0.0307
26396W        W32996   9.097   4.009  34.062 -0.2167  0.1458 -0.1839
26397W        W32997   1.475   5.736  27.626 -0.0314  0.2470  0.1441
26398W        W32998  13.724   6.447  16.563  0.1539  0.3388 -0.0470
26399W        W32999  11.256   5.964  18.384 -0.0495 -0.0161 -0.3265
26400W        W33000  19.723   5.922  23.974  0.0449  0.0988 -0.5363
26401W        W33001  18.274   3.758  13.775 -0.0168 -0.0515 -0.2630
26402W        W33002  20.158   3.199  33.499  0.0417 -0.2367 -0.0252
26403W        W33003   6.133   4.697  42.889  0.0196 -0.0303 -0.3804
26404W        W33004   3.903   2.538  31.182  0.2650  0.0073  0.3488
26405W        W33005  15.115   2.009  38.717 -0.0023  0.0841  0.3623
26406W        W33006   6.251   2.979  37.270 -0.0726 -0.3784 -0.1423
26407W        W33007  20.983   5.871   9.326  0.1039 -0.0055  0.2921
26408W        W33008   0.491   0.671  30.760  0.0376  0.4524  0.3349
26409W        W33009   5.256   0.563  10.330  0.2136 -0.0799  0.1225
26410W        W33010   5.201   1.097  19.227  0.1340 -0.1090  0.1729
26411W        W33011  12.351   5.117  36.042  0.0350  0.1866 -0.1252
26412W        W33012  20.013   4.929   0.328  0.0148  0.0702 -0.1866
26413W        W33013  18.431   2.045  23.021  0.5907 -0.1782  0.0132
26414W        W33014   9.657   2.400  12.660 -0.2389  0.3000 -0.0565
26415W        W33015   6.871   5.759  39.837 -0.0590 -0.1392 -0.1063
26416W        W33016  15.267   3.966  43.540  0.2024  0.0173 -0.3544
26417W        W33017  18.420   6.466  26.533  0.2624  0.4009 -0.0769
26418W        W33018   0.025   6.038   6.200  0.2066 -0.1322 -0.0487
26419W        W33019  10.222   5.004  43.384  0.1355 -0.0439 -0.1141
26420W        W33020   9.393   0.849  40.026 -0.0744  0.2562 -0.0765
26421W        W33021   9.012   0.200   5.981 -0.2320 -0.3628 -0.1226
26422W        W33022   6.281   3.505  36.251  0.1899  0.0755 -0.0950
26423W        W33023   2.927   5.954   1.216  0.1285  0.0419  0.2760
26424W        W33024   2.509   6.008  42.332 -0.2836  0.0322 -0.1163
26425W        W33025  10.934   2.963   1.750  0.1175 -0.2027 -0.0361
26426W        W33026   1.057   0.210  37.176 -0.1541  0.2282  0.0143
26427W        W33027  16.520   4.699  31.223  0.0207  0.2584  0.0375
26428W        W33028  21.027   5.698  39.224  0.1377 -0.3398 -0.0989
26429W        W33029  11.871   4.885   7.809  0.1209 -0.1077 -0.0954
26430W        W33030  17.643   4.526  37.146 -0.1262  0.0784 -0.2317
26431W        W33031  20.429   0.025  16.038  0.1941  0.2034 -0.0978
26432W        W33032   5.521   3.372  41.931  0.1009 -0.0690  0.2531
26433W        W33033   2.994   0.299  31.384  0.2333  0.1944  0.1303
26434W        W33034  18.175   0.221   7.046  0.0207  0.0020  0.1386
26435W        W33035   5.191   0.006  15.076 -0.1238  0.0286 -0.1003
26436W        W33036  15.883   6.241  40.745  0.2287 -0.2439 -0.1320
26437W        W33037   6.273   0.023  44.311 -0.1573  0.2264 -0.1070
26438W        W33038  15.823   5.558  33.459 -0.0660 -0.0851 -0.0852
26439W        W33039   5.970   3.875   6.346 -0.2699  0.3079 -0.0174
26440W        W33040   8.353   6.567  33.283  0.1442 -0.3676 -0.1083
26441W        W33041  12.281   0.198  12.809 -0.0002 -0.3102  0.2676
26442W        W33042  13.950   2.898  14.168 -0.0538  0.0410 -0.3761
26443W        W33043  18.355   1.326  22.399 -0.1312  0.1483  0.3566
26444W        W33044  13.485   6.070  31.881 -0.2066  0.0958  0.0002
26445W        W33045  19.431   5.160  32.401 -0.2049 -0.0924  0.0511
26446W        W33046   4.523   3.573  17.256 -0.1644  0.1136 -0.0329
26447W        W33047   1.590   5.818  10.803  0.0671 -0.2530  0.1852
26448W        W33048   2.643   5.455  15.062  0.1198  0.0174  0.2569
26449W        W33049   3.446   3.349  43.618  0.1960  0.0021  0.1177
26450W        W33050  20.249   4.807  32.716  0.0773  0.2290 -0.0781
26451W        W33051   3.017   2.754   4.991  0.0440  0.0522 -0.0403
26452W        W33052   2.549   2.759  28.271  0.2195  0.2365 -0.1583
26453W        W33053   8.707   6.332  42.832 -0.1384 -0.1200  0.2552
26454W        W33054  13.882   2.190  33.965 -0.0417  0.1170 -0.1078
26455W        W33055   4.259   2.261  29.483  0.1271 -0.1429  0.0768
26456W        W33056  12.392   0.756  30.534  0.0912 -0.2117  0.2673
26457W        W33057  10.249   6.058  44.270  0.1305  0.0233  0.2024
26458W        W33058  10.378   6.381  38.263 -0.1900 -0.1088 -0.2306
26459W        W33059  12.540   0.405  29.199 -0.0031  0.0834  0.2156
26460W        W33060  20.779   5.880  28.474  0.0480  0.0599 -0.1162
26461W        W33061   7.794   2.727  43.198 -0.0697 -0.0592 -0.1145
26462W        W33062   1.162   6.373  30.065  0.1610  0.1193 -0.0623
26463W        W33063   0.807   5.980   6.727 -0.0889  0.0816  0.1878
26464W        W33064   2.110   3.026   9.096 -0.0279  0.0438 -0.3030
26465W        W33065  11.087   2.905  23.460 -0.2613 -0.0757 -0.3208
26466W        W33066   1.666   3.961   9.394  0.0271 -0.0141 -0.2386
26467W        W33067  13.253   4.020   8.756 -0.0488  0.0351 -0.1425
26468W        W33068   4.731   1.237  38.205 -0.1635  0.0607 -0.0284
26469W        W33069  10.235   4.668   9.268 -0.4809 -0.0394 -0.2585
26470W        W33070  18.162   6.541  36.758 -0.1913  0.0627 -0.1451
26471W        W33071   2.301   0.493  43.646  0.3046  0.1665 -0.2552
26472W        W33072   8.914   1.841  16.725 -0.2414  0.1364 -0.3616
26473W        W33073  18.429   6.048   5.688  0.4969  0.1965 -0.0698
26474W        W33074   4.618   5.163  37.684  0.0336  0.1298 -0.4101
26475W        W33075   2.376   2.528  37.225  0.1677  0.3150 -0.0847
26476W        W33076  17.049   5.485  29.349 -0.3399 -0.1258  0.0309
26477W        W33077  11.070   3.138  35.049 -0.0720 -0.0065  0.2252
26478W        W33078   5.944   2.402   3.747  0.4354 -0.0082 -0.1171
26479W        W33079   3.427   3.770  42.841  0.0539  0.3888  0.0616
26480W        W33080   2.509   2.970  13.498 -0.0801  0.2725 -0.1712
26481W        W33081  14.037   0.201  42.866 -0.1517  0.2593  0.0039
26482W        W33082  15.577   1.236   0.403  0.0793  0.0409  0.2261
26483W        W33083  21.020   2.698  23.730  0.1888  0.2602  0.1553
26484W        W33084  19.289   6.449   2.407 -0.0372  0.3861  0.1568
26485W        W33085   8.678   2.630   8.310  0.1814 -0.1239  0.1787
26486W        W33086   6.065   4.011  38.426 -0.3999 -0.0264 -0.1137
26487W        W33087   0.242   4.359  43.000  0.0375  0.0313  0.0096
26488W        W33088  18.287   0.039   0.359 -0.0649  0.2103  0.0951
26489W        W33089   9.284   4.299  13.135 -0.0011 -0.1026 -0.0975
26490W        W33090  11.811   2.068   1.431  0.0066 -0.1433 -0.2004
26491W        W33091   8.255   4.225   9.686 -0.1092 -0.2163 -0.0057
26492W        W33092  11.693   4.592  29.013 -0.0416  0.4127  0.0863
26493W        W33093  13.865   4.299  12.573 -0.1354  0.0405 -0.3031
26494W        W33094  13.730   2.925   5.383 -0.0766 -0.1011  0.1650
26495W        W33095  18.603   3.113   7.180  0.0518  0.0891  0.2334
26496W        W33096   5.960   2.511  41.615 -0.2633 -0.3150 -0.0262
26497W        W33097   9.473   0.552   1.493 -0.2120 -0.1081 -0.0509
26498W        W33098  20.833   0.812  27.500  0.1546  0.1314  0.2497
26499W        W33099  16.038   4.975  13.670 -0.3355 -0.0127  0.1906
26500W        W33100  17.593   4.828  15.303 -0.0636 -0.0587  0.0836
26501W        W33101   7.915   5.759  32.386 -0.2191  0.1068 -0.1610
26502W        W33102  14.882   6.192  30.465  0.1582  0.1283 -0.2846
26503W        W33103   8.498   2.110  43.185 -0.1372  0.0663 -0.0288
26504W        W33104  10.492   1.498  24.571 -0.1681 -0.1110 -0.2675
26505W        W33105  20.628   4.708  26.038  0.1073 -0.1179  0.0722
26506W        W33106  12.245   0.443   7.647 -0.0626 -0.0050 -0.1847
26507W        W33107   6.267   0.269  38.417 -0.1009 -0.1540 -0.0574
26508W        W33108  21.064   3.359  26.112  0.0558  0.1901 -0.1542
26509W        W33109   5.573   0.338   0.536 -0.0328 -0.1979 -0.2147
26510W        W33110   8.758   6.212  44.572 -0.1168 -0.2176  0.0682
26511W        W33111  18.709   6.414  41.095 -0.0764 -0.0485 -0.1700
26512W        W33112  11.206   0.489  21.736 -0.2418 -0.2786  0.2504
26513W        W33113  17.987   2.140   2.468 -0.2417  0.0662  0.2668
26514W        W33114  13.019   2.964  10.524  0.0089 -0.2155  0.0015
26515W        W33115  12.896   1.433   4.861  0.0062 -0.2012 -0.1924
26516W        W33116   8.151   5.482  20.612 -0.2059 -0.1376  0.0980
26517W        W33117   5.684   6.344  19.721 -0.1970 -0.2152  0.2348
26518W        W33118  11.102   2.556   0.463  0.3754 -0.0224 -0.2804
26519W        W33119   4.986   2.787  43.932  0.1447  0.0007  0.3582
26520W        W33120  11.491   3.948   2.835 -0.2215 -0.0387  0.2072
26521W        W33121   2.863   2.524  43.913  0.1893 -0.0085  0.0799
26522W        W33122   0.137   6.168  40.607  0.2021 -0.1144  0.3296
26523W        W33123  19.058   2.769   1.245 -0.1053  0.1640 -0.1481
26524W        W33124   5.448   5.517   0.858  0.2594 -0.2719  0.3278
26525W        W33125   1.204   6.049  42.949  0.0896 -0.1470  0.1053
26526W        W33126   4.834   6.554  31.483  0.1407 -0.1406  0.1515
26527W        W33127  10.973   0.204  32.480  0.1057  0.3156  0.2129
26528W        W33128   8.902   2.396  10.246 -0.0990 -0.0874 -0.1329
26529W        W33129  20.382   1.742   8.176  0.0818 -0.3419  0.0058
26530W        W33130  12.551   2.717   1.067  0.1207  0.0781 -0.1974
26531W        W33131   6.184   4.342  16.538 -0.0651  0.1719  0.2395
26532W        W33132   9.982   2.948   4.348 -0.0300 -0.1052  0.1486
26533W        W33133  10.193   1.249  25.415  0.2063  0.0622  0.0076
26534W        W33134   8.133   2.914  42.395  0.0159 -0.0757 -0.1545
26535W        W33135   0.819   0.260  30.705 -0.2420  0.0515 -0.0810
26536W        W33136   1.832   2.970  39.039 -0.0269  0.0023 -0.1194
26537W        W33137  11.914   3.224   3.899 -0.2242 -0.2395 -0.3352
26538W        W33138  20.732   0.745  39.170 -0.0810 -0.0395 -0.1613
26539W        W33139  19.029   5.662  23.695  0.1641  0.2143 -0.2921
26540W        W33140   2.127   1.301  23.469  0.1012 -0.2087 -0.0196
26541W        W33141   5.407   1.950  37.203 -0.0783  0.2775  0.2086
26542W        W33142   8.582   4.425  22.670  0.0667 -0.0734  0.0066
26543W        W33143  15.802   4.687  31.032 -0.1185  0.2010 -0.0661
26544W        W33144  13.627   2.498   4.009 -0.0470 -0.2245  0.0868
26545W        W33145  19.861   2.639  20.824  0.0881 -0.3718 -0.0390
26546W        W33146  11.519   1.579   7.808 -0.2772  0.0982  0.1456
26547W        W33147  12.512   6.006  22.039 -0.0447 -0.3059  0.2661
26548W        W33148   0.051   0.277  41.251  0.0445  0.4926  0.0940
26549W        W33149   1.095   4.686  32.676 -0.1758 -0.0035  0.1134
26550W        W33150  15.609   6.061   8.969 -0.1737 -0.2630  0.2117
26551W        W33151  12.916   5.639   6.800  0.1501  0.1560 -0.0715
26552W        W33152  18.148   6.228  37.276 -0.1709  0.0794 -0.0251
26553W        W33153  19.286   2.538  40.990 -0.0162  0.2319 -0.0918
26554W        W33154   9.102   4.382  35.999 -0.1415  0.1478  0.1400
26555W        W33155   7.062   1.031  10.684 -0.1498  0.3112  0.3536
26556W        W33156   1.006   3.964  10.221  0.2374  0.1048  0.1061
26557W        W33157  15.615   0.085  32.155  0.3311  0.0472  0.0182
26558W        W33158   0.710   4.407   3.998 -0.1527 -0.2236 -0.2284
26559W        W33159   1.250   0.779   5.212  0.0983  0.0774 -0.3254
26560W        W33160  20.596   4.109  23.187 -0.0054 -0.3082 -0.1307
26561W        W33161   4.759   1.398   8.530  0.3719  0.2927  0.2231
26562W        W33162  16.278   3.315  32.241 -0.0170 -0.1991 -0.0621
26563W        W33163  11.349   5.697  43.002  0.0994 -0.2757  0.3022
26564W        W33164  12.969   2.630  30.810  0.2771 -0.1767 -0.0434
26565W        W33165  10.859   1.224  15.365  0.0719  0.1010 -0.2674
26566W        W33166   2.984   6.328  27.959  0.0565 -0.1380 -0.0302
26567W        W33167   5.635   1.958   1.512 -0.0302 -0.3077 -0.3857
26568W        W33168  17.983   1.888  11.901 -0.0865 -0.1844  0.0938
26569W        W33169   2.250   0.501  33.687  0.0295 -0.0737  0.0569
26570W        W33170   0.153   1.921  37.667 -0.1648  0.0402 -0.1144
26571W        W33171  18.899   0.307  35.716 -0.3300 -0.2031  0.0749
26572W        W33172   7.548   6.464   2.612  0.1103  0.0722 -0.0614
26573W        W33173   7.070   1.271  29.251  0.0324 -0.0090  0.1363
26574W        W33174  14.308   0.487   1.548  0.0849 -0.0233  0.0983
26575W        W33175   0.634   1.981  34.495  0.0175 -0.3037  0.3001
26576W        W33176   2.740   5.970  12.441 -0.1538  0.0001 -0.1320
26577W        W33177  19.306   3.225  14.384  0.1818 -0.4214  0.0511
26578W        W33178   6.289   5.889  10.364  0.1366 -0.0488  0.1879
26579W        W33179   8.624   3.419  36.969  0.0295  0.0180 -0.0976
26580W        W33180   8.660   6.164  13.662 -0.1242  0.1614 -0.0784
26581W        W33181   1.296   0.086   4.375 -0.0692 -0.4898 -0.1301
26582W        W33182   6.652   0.538  13.846 -0.2079  0.1377  0.0424
26583W        W33183   5.248   3.061  33.515  0.1838  0.1804 -0.0029
26584W        W33184   5.811   2.549  11.669 -0.2593  0.1152  0.0142
26585W        W33185  17.625   2.772  37.953 -0.0935 -0.2434 -0.1477
26586W        W33186  13.982   5.614   4.145  0.1693  0.4102 -0.1208
26587W        W33187  17.749   1.022  38.803  0.1793 -0.1963 -0.1129
26588W        W33188  14.297   1.825  31.813 -0.2378  0.3816 -0.2658
26589W        W33189  16.336   6.395   1.940 -0.2514 -0.3896  0.0425
26590W        W33190   6.396   3.576  38.953  0.1407 -0.1300 -0.1156
26591W        W33191  11.046   0.703   4.235  0.0690  0.1293 -0.3302
26592W        W33192   8.721   3.473   6.181 -0.0507 -0.0898  0.2019
26593W        W33193  10.705   4.121  38.684  0.0947 -0.0862 -0.0701
26594W        W33194   3.111   1.621  32.286  0.0706  0.0915 -0.1792
26595W        W33195   3.804   3.226   5.356  0.1115 -0.0130 -0.1087
26596W        W33196  19.362   5.127  31.335  0.0748  0.1071 -0.4049
26597W        W33197   5.622   1.169  11.620 -0.0070  0.3742 -0.1961
26598W        W33198  18.734   5.096  12.946  0.1366  0.0059  0.1193
26599W        W33199  20.408   4.602   2.481 -0.1654  0.0391  0.0088
26600W        W33200  15.073   5.493  27.905  0.1213  0.0138  0.0863
26601W        W33201   8.715   4.459  43.384  0.1308 -0.1310 -0.0636
26602W        W33202  19.468   3.955  33.468 -0.0850 -0.2385  0.2021
26603W        W33203   9.986   5.066  31.820  0.2050  0.0484  0.1157
26604W        W33204   6.651   0.464   3.258  0.0429  0.0577 -0.2231
26605W        W33205   5.569   2.141  28.749 -0.1769 -0.0448  0.1900
26606W        W33206  20.229   6.554  13.137 -0.0366  0.0330  0.1035
26607W        W33207   1.166   0.518  36.738  0.0067  0.0151 -0.1292
26608W        W33208  10.455   6.537   8.139 -0.0523  0.0141  0.0692
26609W        W33209   9.187   4.012   3.479 -0.0481 -0.1012 -0.0507
26610W        W33210   3.819   5.699  17.288  0.1726  0.0759  0.1300
26611W        W33211  13.382   5.754  33.452  0.1496 -0.4012 -0.3774
26612W        W33212   5.381   0.296  12.760 -0.5966  0.2494  0.0468
26613W        W33213   6.671   6.245  33.704 -0.1951  0.1188  0.0986
26614W        W33214   8.991   2.032  10.763  0.0555  0.0330  0.2273
26615W        W33215   1.416   0.883  39.270  0.0975 -0.5517  0.3595
26616W        W33216  14.337   4.327  15.434 -0.0697 -0.1384  0.0967
26617W        W33217   4.737   2.896   8.496 -0.2566  0.0465  0.0966
26618W        W33218  17.353   0.606   1.097  0.0396 -0.0897  0.0223
26619W        W33219  14.219   6.450  16.767 -0.1160 -0.0173  0.1877
26620W        W33220  10.182   4.516   9.733  0.0963  0.3082 -0.2088
26621W        W33221   3.042   0.359  35.088 -0.1112 -0.0363 -0.4727
26622W        W33222   1.642   5.829   2.741  0.0517 -0.0274  0.0274
26623W        W33223  16.599   2.520  41.689 -0.0220 -0.1509 -0.1217
26624W        W33224  17.228   3.785  42.589 -0.2289 -0.1918 -0.0756
26625W        W33225   2.870   2.752  10.772 -0.1061 -0.1408  0.1616
26626W        W33226  19.615   2.531  31.372  0.2412  0.1090  0.1956
26627W        W33227  20.512   3.037  29.856  0.0675 -0.4379  0.0417
26628W        W33228  20.943   4.185  41.998  0.3578 -0.0271  0.0409
26629W        W33229  16.891   1.042  42.840 -0.0509  0.1076 -0.3804
26630W        W33230  15.710   2.341  13.825 -0.0089 -0.1428 -0.3872
26631W        W33231  10.139   1.336  42.952 -0.0649 -0.3414  0.3241
26632W        W33232   8.494   2.627   7.634  0.2707  0.1209 -0.0002
26633W        W33233  12.135   5.745   3.176 -0.1416  0.2181  0.0838
26634W        W33234   2.274   5.897  32.004  0.0673 -0.0649 -0.0950
26635W        W33235  16.131   5.262   4.696  0.0276  0.0729 -0.1392
26636W        W33236   7.375   2.869  20.920 -0.1285  0.2432  0.3185
26637W        W33237   6.900   5.133  10.688  0.0763 -0.0297 -0.0533
26638W        W33238   9.003   2.576  16.737  0.4191  0.0146 -0.2068
26639W        W33239  14.213   5.997  41.827  0.2648 -0.1756  0.1902
26640W        W33240   7.571   2.478  12.770 -0.1970  0.1812 -0.0801
26641W        W33241   6.476   0.959  13.607 -0.2186 -0.0780 -0.1071
26642W        W33242  20.056   6.291  11.507  0.1923  0.0821 -0.3057
26643W        W33243  16.762   4.899  43.047 -0.1074  0.0235 -0.0718
26644W        W33244  10.921   2.774  44.357  0.2849 -0.2730  0.0859
26645W        W33245   7.493   2.092  16.055 -0.1676  0.1433  0.1639
26646W        W33246   4.677   3.523   0.488  0.0963  0.2509 -0.1631
26647W        W33247   1.318   6.507   7.223  0.0180 -0.0077 -0.0776
26648W        W33248  17.111   3.129   8.350  0.0850  0.3045  0.1967
26649W        W33249  13.823   0.848  31.128  0.0896  0.0762  0.0769
26650W        W33250   7.498   6.323  38.153  0.0993 -0.2811 -0.1280
26651W        W33251   9.060   4.976   1.422 -0.1339  0.1912 -0.2556
26652W        W33252   0.913   3.796  38.336 -0.0592  0.3668 -0.2898
26653W        W33253  14.205   0.208   9.414 -0.0570 -0.1386 -0.0270
26654W        W33254   1.002   6.514  39.303 -0.0738  0.1041  0.0640
26655W        W33255  19.773   0.388  33.070 -0.5759 -0.0845  0.2050
26656W        W33256  10.474   4.178  19.329  0.2556 -0.3225  0.0602
26657W        W33257   4.149   6.245  27.859 -0.2272  0.0818  0.1206
26658W        W33258  11.048   0.692  20.535 -0.0228  0.0115 -0.1446
26659W        W33259   4.810   2.886  10.673  0.1113  0.3280 -0.1868
26660W        W33260  12.455   3.972  32.097  0.2513 -0.2474  0.2486
26661W        W33261   9.873   3.432  37.689  0.4282 -0.2693  0.2493
26662W        W33262   0.106   4.747  26.090  0.0545 -0.1403  0.0422
26663W        W33263  13.307   4.638  28.487 -0.2399  0.3539  0.4628
26664W        W33264   2.723   0.189  40.707 -0.0664  0.0187 -0.2866
26665W        W33265   7.930   1.983  35.206 -0.0487  0.1856  0.0115
26666W        W33266  13.658   1.588  19.768  0.2142 -0.2535  0.2402
26667W        W33267  14.904   2.197  15.452  0.0393 -0.0062 -0.0002
26668W        W33268  16.178   1.312  24.864 -0.0902  0.0773  0.2435
26669W        W33269  16.010   1.601   3.551 -0.0090  0.0490 -0.0331
26670W        W33270   1.630   2.547  43.426  0.1433  0.1669 -0.2063
26671W        W33271  20.194   1.306  26.644 -0.1074 -0.2561 -0.0887
26672W        W33272  17.067   5.763  32.099 -0.0311  0.0680  0.2058
26673W        W33273  10.872   3.631  10.965 -0.3251  0.1576  0.1537
26674W        W33274   8.079   5.719  17.103  0.1385  0.2730 -0.0557
26675W        W33275  12.570   1.754  21.753  0.0168  0.3399 -0.1498
26676W        W33276  20.400   6.489  40.776  0.1193 -0.1313  0.3545
26677W        W33277   2.053   1.216   4.155 -0.3634  0.0583  0.2754
26678W        W33278   7.123   0.626  20.365  0.1504  0.0433  0.2931
26679W        W33279   3.987   1.367  13.979  0.1934 -0.2537 -0.1429
26680W        W33280   6.325   3.389  16.065  0.0037  0.0276  0.1538
26681W        W33281  20.997   4.214  29.942 -0.0031 -0.1859  0.2400
26682W        W33282   2.148   5.321   3.647  0.0025 -0.2430 -0.0248
26683W        W33283   1.281   2.077  31.208  0.1962 -0.2584 -0.1238
26684W        W33284   4.443   4.416  38.844  0.0262 -0.0485 -0.1590
26685W        W33285   9.995   3.284  35.356 -0.0786 -0.0226 -0.0539
26686W        W33286   9.787   1.168  14.775  0.1644  0.1539  0.1035
26687W        W33287  12.249   3.635  12.437 -0.0992 -0.3243  0.0391
26688W        W33288   4.720   0.550  42.500  0.1275  0.3842 -0.1966
26689W        W33289   8.145   0.981  20.932  0.1113  0.0469  0.1024
26690W        W33290  12.066   5.750   7.380  0.0350  0.0896  0.0594
26691W        W33291  10.005   6.080  23.624 -0.2003  0.0785 -0.0242
26692W        W33292  17.526   0.388   9.451 -0.0790 -0.0849  0.1234
26693W        W33293   9.912   3.885   1.968  0.2265 -0.1318 -0.0408
26694W        W33294   9.689   1.708  40.411  0.0412  0.0215 -0.1111
26695W        W33295  13.387   4.175  13.799 -0.1194 -0.0363 -0.0869
26696W        W33296  18.182   5.555  25.103  0.0304 -0.1008  0.0505
26697W        W33297   5.263   3.185  44.188 -0.2515  0.1879  0.0900
26698W        W33298  17.191   5.286  41.176 -0.2909 -0.2385 -0.1365
26699W        W33299  16.236   5.391  38.851 -0.0238 -0.1347 -0.1525
26700W        W33300   1.228   1.290  40.246 -0.1304 -0.3077 -0.0004
26701W        W33301   2.174   4.504  34.015 -0.1751  0.0694  0.2470
26702W        W33302   3.911   1.836   1.097  0.2357 -0.2604 -0.0214
26703W        W33303  10.760   3.863   5.554 -0.0705  0.0767  0.5075
26704W        W33304   9.214   0.365   6.386  0.1106 -0.2024 -0.3701
26705W        W33305   8.317   3.950  41.296 -0.3425  0.0160 -0.5451
26706W        W33306  18.259   2.063  32.984 -0.0681 -0.1635 -0.1631
26707W        W33307   4.993   5.334  37.890  0.2358  0.0586 -0.1812
26708W        W33308  13.416   4.841  10.517 -0.6001 -0.3676 -0.2414
26709W        W33309   6.478   1.465   2.424 -0.1540  0.1474  0.1220
26710W        W33310   2.779   0.420   4.068 -0.0545  0.0268  0.0710
26711W        W33311  14.564   6.062  16.144 -0.1460  0.1777 -0.1079
26712W        W33312   8.903   4.850  35.920 -0.0116  0.3344 -0.0177
26713W        W33313  14.712   0.100  31.420  0.0319  0.1778  0.0478
26714W        W33314  20.125   4.678  24.714  0.2607  0.2981 -0.2155
26715W        W33315   0.994   5.522  41.397 -0.0188 -0.1169  0.3445
26716W        W33316  13.345   4.018  42.484  0.3427 -0.1098  0.0150
26717W        W33317   8.090   5.301  11.080  0.0520  0.0766  0.2609
26718W        W33318  18.912   3.175  37.245 -0.2915 -0.1541 -0.0143
26719W        W33319   2.586   3.419  34.576  0.0739  0.2086 -0.1758
26720W        W33320  12.803   1.615  12.490  0.1947 -0.1340  0.0206
26721W        W33321   4.045   6.034   0.104  0.0297  0.0568  0.1370
26722W        W33322  14.477   5.526   4.081  0.0627  0.0505  0.2267
26723W        W33323   4.037   6.518  12.176  0.1797  0.0908 -0.1394
26724W        W33324  10.084   2.321  36.882  0.0861  0.0683  0.1066
26725W        W33325   9.163   1.299  42.049 -0.1554  0.1538 -0.3448
26726W        W33326   0.093   3.143  21.720 -0.0555 -0.0296 -0.2237
26727W        W33327   1.835   1.156  23.866 -0.1656 -0.1555 -0.6277
26728W        W33328  12.355   1.430  16.864  0.0388 -0.1413 -0.3249
26729W        W33329  20.839   3.402  44.592 -0.1415  0.1634  0.0047
26730W        W33330   2.624   3.614  25.614  0.1923 -0.1257 -0.1263
26731W        W33331   9.915   0.358  32.540  0.1587 -0.1125 -0.0841
26732W        W33332  11.646   2.704  14.370  0.0268 -0.0097 -0.0156
26733W        W33333  12.980   2.365  44.064 -0.0642 -0.2628 -0.0451
26734W        W33334  20.044   0.110  24.529  0.1891  0.0374 -0.3227
26735W        W33335   9.462   1.752   9.720 -0.0678 -0.0155  0.2372
26736W        W33336   3.698   1.340  28.501 -0.0011 -0.0308  0.1822
26737W        W33337  11.736   3.343   2.367 -0.0846 -0.2598  0.0996
26738W        W33338   5.491   3.316   1.015 -0.1505 -0.0098  0.0396
26739W        W33339   7.253   0.005  12.174  0.0931 -0.2871  0.0858
26740W        W33340   1.439   4.063  28.079 -0.2288  0.2194 -0.3105
26741W        W33341  19.048   0.618  36.515  0.0727  0.0586 -0.1219
26742W        W33342  13.779   2.511   0.218 -0.3441  0.1521 -0.0204
26743W        W33343  15.727   3.379  34.973  0.0772 -0.0297 -0.0942
26744W        W33344   8.531   0.516   7.118 -0.2755 -0.1688 -0.0847
26745W        W33345   2.819   3.382  27.510  0.0871 -0.0190 -0.4198
26746W        W33346   5.275   2.863   8.397  0.1955  0.2171  0.0402
26747W        W33347   0.213   4.741  26.559  0.2439 -0.1271 -0.3959
26748W        W33348   6.559   4.987  33.229 -0.0404 -0.0063 -0.1498
26749W        W33349  14.004   2.430   1.611 -0.1005 -0.0664 -0.0819
26750W        W33350   5.179   5.932   5.964 -0.1552 -0.1981  0.3176
26751W        W33351   9.606   4.885  22.274  0.0630 -0.0295 -0.1729
26752W        W33352  15.521   0.668  38.280 -0.0724 -0.2005  0.1355
26753W        W33353  10.359   0.133   4.247  0.1880 -0.1951  0.1443
26754W        W33354   4.387   3.916  37.237  0.1916  0.1009  0.2063
26755W        W33355  16.935   0.428  36.136 -0.0194  0.1662  0.1115
26756W        W33356  15.519   6.535  28.028  0.4136 -0.1607  0.1579
26757W        W33357  18.946   0.201  21.606  0.1092  0.2286 -0.2036
26758W        W33358   9.858   2.914  21.890  0.0125  0.0133  0.2451
26759W        W33359  14.095   1.310  34.910 -0.0384  0.0560 -0.1773
26760W        W33360  13.898   3.964   2.963 -0.2359 -0.3997 -0.0881
26761W        W33361   0.762   5.263   1.713 -0.0550 -0.0700  0.1727
26762W        W33362  13.053   1.011   3.360  0.1128  0.1549  0.1313
26763W        W33363  18.123   0.614  29.281 -0.0391 -0.1629  0.1305
26764W        W33364  16.644   6.169   3.552 -0.1618  0.0403 -0.0951
26765W        W33365  10.823   5.798  13.299  0.1076 -0.1240 -0.0513
26766W        W33366   5.303   0.233  17.667 -0.6602 -0.2032 -0.1724
26767W        W33367  14.972   0.711  33.575  0.0158  0.0290  0.1403
26768W        W33368  10.363   2.995   4.637  0.2199 -0.3571  0.1003
26769W        W33369  10.312   1.987  44.084 -0.0376 -0.0644 -0.1010
26770W        W33370  20.086   6.052  39.032 -0.0253 -0.0255  0.2318
26771W        W33371  12.495   3.169   0.134  0.1243 -0.1529 -0.1279
26772W        W33372   1.872   2.400  28.882 -0.1200 -0.1349  0.2100
26773W        W33373   6.224   2.823  12.100  0.0222  0.0888  0.0078
26774W        W33374   4.196   1.939  30.724  0.1681 -0.0116 -0.4036
26775W        W33375  11.977   4.842  20.150  0.0651 -0.0106  0.0249
26776W        W33376  12.796   5.848   3.526  0.0766  0.0342 -0.1375
26777W        W33377   2.670   5.081  28.270  0.1777 -0.1620 -0.0450
26778W        W33378   6.930   1.210  15.948  0.0633  0.2174 -0.1765
26779W        W33379   1.917   0.466  35.258  0.2214  0.0728  0.3317
26780W        W33380   2.131   2.035  13.961  0.1206  0.1929 -0.2512
26781W        W33381  14.461   0.953  18.963  0.0347  0.0890 -0.2123
26782W        W33382   6.564   5.987  17.522 -0.2740  0.1832 -0.0734
26783W        W33383   1.158   1.763  23.376 -0.2046 -0.0244  0.1001
26784W        W33384  19.716   5.571  19.462 -0.1365  0.4410 -0.3205
26785W        W33385  17.047   2.146  36.493  0.0370  0.4024  0.1198
26786W        W33386   0.634   3.193  43.636  0.0953 -0.0900 -0.2370
26787W        W33387   3.757   3.444  12.766 -0.0356 -0.2071  0.2550
26788W        W33388   2.718   5.931   9.315 -0.4045  0.0924  0.4185
26789W        W33389   3.677   3.325  10.220  0.0804 -0.2486  0.0051
26790W        W33390   0.397   3.502   6.289  0.1646 -0.4311  0.4107
26791W        W33391   2.299   3.368  10.617 -0.0002 -0.0234 -0.0076
26792W        W33392  18.593   6.360  10.500 -0.1125 -0.1820  0.1633
26793W        W33393  17.735   3.803  12.154 -0.1203  0.0327 -0.0240
26794W        W33394  17.516   2.992  32.443  0.2547 -0.1643  0.0148
26795W        W33395   4.123   5.569   7.202  0.1327  0.1262 -0.0252
26796W        W33396  15.294   4.226  36.885  0.1567  0.1172  0.1863
26797W        W33397  19.449   5.780  20.405 -0.2437  0.2339 -0.2574
26798W        W33398  11.313   4.013  13.422 -0.0027  0.3376 -0.0567
26799W        W33399  19.434   0.628  30.833  0.0196  0.2218  0.0223
26800W        W33400  16.473   3.408  28.835 -0.0369  0.0524  0.0075
26801W        W33401  14.703   4.282  15.762 -0.0495 -0.0530 -0.0165
26802W        W33402   0.302   3.793   8.725 -0.3850 -0.0113  0.4364
26803W        W33403   6.987   2.910  11.132 -0.0144  0.0435  0.2420
26804W        W33404  12.216   5.138  12.080  0.1086  0.2605 -0.2132
26805W        W33405   7.753   2.898  15.578  0.2035  0.2847  0.1982
26806W        W33406  19.958   2.903  28.996 -0.0382 -0.0650 -0.2000
26807W        W33407  14.240   0.616   4.073 -0.3460  0.1647 -0.1549
26808W        W33408  14.892   5.061  17.702 -0.0737 -0.1955  0.3603
26809W        W33409   1.746   5.089  39.452  0.2584  0.1539 -0.2019
26810W        W33410   3.621   4.921  41.164  0.0822  0.2113 -0.0940
26811W        W33411  10.483   3.619  38.638  0.0262  0.2527  0.1506
26812W        W33412  10.279   3.183  14.068 -0.1371  0.1111  0.1546
26813W        W33413  13.003   5.977   0.477 -0.0344  0.1690 -0.0156
26814W        W33414   2.854   1.774  16.102  0.2079 -0.2215 -0.0105
26815W        W33415   3.016   1.940  31.018 -0.0884  0.2774  0.0765
26816W        W33416  20.813   1.985  21.248  0.1138  0.2386 -0.2730
26817W        W33417  14.257   6.312  38.384  0.1586  0.1409  0.1323
26818W        W33418  12.634   1.827   3.102 -0.0676 -0.0048  0.1717
26819W        W33419   6.817   4.434   4.238 -0.0298 -0.3633  0.1018
26820W        W33420  13.270   6.440  15.866  0.3479 -0.1702  0.1670
26821W        W33421   6.200   1.492  13.167 -0.1731  0.1322  0.0185
26822W        W33422   8.138   5.133  40.173  0.0661  0.1492  0.2423
26823W        W33423   3.816   1.634   8.385  0.1752  0.1217  0.1459
26824W        W33424  11.081   0.781   9.566  0.0697 -0.3180  0.2959
26825W        W33425  14.109   6.406   7.821  0.0736  0.1603 -0.0080
26826W        W33426   2.765   4.697   8.384  0.2177 -0.0333  0.1384
26827W        W33427   6.623   4.705  32.469 -0.4057 -0.0200 -0.0088
26828W        W33428  17.939   1.061  25.261  0.2694 -0.2061 -0.2998
26829W        W33429  19.678   4.188  42.242  0.3199 -0.1606 -0.3384
26830W        W33430   6.503   2.373  33.659  0.0218  0.1269  0.1365
26831W        W33431  17.853   2.738  24.471  0.0231  0.1031  0.0652
26832W        W33432  18.045   5.319  12.305 -0.0782 -0.0013  0.1016
26833W        W33433   3.552   2.512   8.338  0.3148 -0.2028  0.1600
26834W        W33434  17.688   0.318  26.950 -0.0825  0.1809  0.0003
26835W        W33435  14.166   2.132   4.588 -0.0439  0.0113 -0.2594
26836W        W33436  12.199   6.522  17.019 -0.1336  0.2901  0.0871
26837W        W33437  20.675   3.975  34.969  0.2372 -0.0105  0.0226
26838W        W33438   1.140   3.114  41.539  0.2355 -0.2150 -0.3670
26839W        W33439   7.349   2.668  38.779 -0.0569  0.0916  0.3297
26840W        W33440   0.442   5.442  31.292 -0.0076  0.1073  0.2021
26841W        W33441  12.075   6.260   7.141  0.0859 -0.1541  0.3666
26842W        W33442  20.972   1.441  39.140  0.0928 -0.0014 -0.0111
26843W        W33443  13.567   2.529   4.939  0.0185 -0.0028  0.0948
26844W        W33444   2.801   4.063   6.252  0.2103  0.0716 -0.0005
26845W        W33445  10.040   2.611  29.048  0.3082  0.1463  0.0744
26846W        W33446  19.953   2.966  24.771 -0.0234  0.1148  0.0675
26847W        W33447  19.491   0.345  13.777 -0.1106  0.1863 -0.0100
26848W        W33448  10.763   6.524  29.979 -0.3063 -0.2587 -0.1295
26849W        W33449  19.853   4.816  33.344  0.1288 -0.1078  0.1915
26850W        W33450  12.818   2.745  40.216 -0.3317 -0.0257  0.4255
26851W        W33451   1.297   1.377  27.309 -0.1663 -0.0589 -0.1005
26852W        W33452   4.335   1.632   9.696  0.1448  0.0669  0.0342
26853W        W33453   3.096   4.092   2.679 -0.2121  0.1659 -0.0323
26854W        W33454  18.797   4.365  43.719  0.2022 -0.1152  0.1033
26855W        W33455   9.266   5.996  32.910  0.0003 -0.0474 -0.0563
26856W        W33456  10.329   3.235  36.703  0.3050  0.0504 -0.2014
26857W        W33457   1.794   1.759  16.433  0.0167 -0.4010 -0.1959
26858W        W33458  18.376   2.968  13.163 -0.3017 -0.0952  0.0091
26859W        W33459  14.566   3.271  27.013 -0.1405 -0.0425 -0.2350
26860W        W33460   4.620   1.673   8.937 -0.2023 -0.1456  0.1128
26861W        W33461   0.110   5.528   8.911 -0.1076 -0.2681 -0.3834
26862W        W33462  19.973   0.704  14.780  0.1696  0.1040 -0.0788
26863W        W33463  15.674   2.559  34.518  0.0137  0.1801  0.0585
26864W        W33464   1.286   1.575  36.363  0.1394 -0.0857 -0.3118
26865W        W33465  19.730   0.620   7.384 -0.0743  0.0440 -0.1116
26866W        W33466   3.699   3.871  29.016  0.3268 -0.1474  0.1495
26867W        W33467  16.105   1.774  15.090 -0.2503  0.3430 -0.3098
26868W        W33468   7.987   6.270  32.245 -0.3437  0.2350 -0.3269
26869W        W33469  10.096   3.560   6.527 -0.3483  0.0158 -0.0597
26870W        W33470   1.385   5.637   6.143 -0.0398 -0.0923  0.0335
26871W        W33471   1.618   1.288  36.683 -0.2185  0.0268  0.0713
26872W        W33472  12.013   1.148  32.137  0.2636 -0.1029  0.0135
26873W        W33473  14.094   5.884   9.447 -0.0192  0.0120  0.0571
26874W        W33474   9.026   4.775  44.172  0.2360  0.0636  0.0075
26875W        W33475   6.782   6.478  41.506  0.1668  0.3749 -0.2127
26876W        W33476   5.218   6.065   4.892 -0.0793 -0.0994 -0.1025
26877W        W33477   3.972   4.619  28.717 -0.2548 -0.0278 -0.1018
26878W        W33478  18.341   4.598   0.708 -0.6419  0.1001  0.1996
26879W        W33479   9.265   5.551  21.190  0.0670  0.0684  0.2061
26880W        W33480   4.369   4.941  34.880 -0.2061 -0.1004  0.1102
26881W        W33481  11.145   2.529  20.760 -0.0821  0.0546  0.0421
26882W        W33482   5.916   0.943  21.974 -0.0529  0.0613  0.3976
26883W        W33483   2.406   4.905  27.647  0.2611  0.0095 -0.1587
26884W        W33484  10.541   3.479  21.450  0.0526  0.1043  0.2148
26885W        W33485   7.247   4.993  12.399  0.0190 -0.3937 -0.1074
26886W        W33486  20.089   3.793  41.050 -0.0232 -0.0752  0.3793
26887W        W33487  12.576   3.039   9.064 -0.1894 -0.2196  0.1382
26888W        W33488  19.254   6.411  20.646 -0.4688 -0.2861 -0.0268
26889W        W33489   1.841   4.038  23.943 -0.0316 -0.1830 -0.2332
26890W        W33490  10.153   0.631   8.833 -0.0615  0.2766  0.0596
26891W        W33491  17.115   1.260  40.251  0.3057  0.1544 -0.1549
26892W        W33492  15.962   2.360  13.302 -0.2479  0.2087 -0.2153
26893W        W33493   7.255   0.397   6.139 -0.0792  0.1785 -0.2858
26894W        W33494   3.230   5.172  14.321 -0.0692  0.0326 -0.0060
26895W        W33495   8.665   5.733   1.632  0.2880 -0.4119  0.4256
26896W        W33496  16.983   1.295  15.290 -0.3363 -0.1103  0.1400
26897W        W33497   1.341   0.337  29.728  0.0791 -0.3337  0.2620
26898W        W33498  12.515   0.205  20.148 -0.2382  0.0959 -0.2526
26899W        W33499   1.445   3.613  12.550  0.1788 -0.0072  0.2127
26900W        W33500   6.433   5.752  13.303  0.0475  0.2478  0.0087
26901W        W33501   6.885   4.317  15.226  0.2602 -0.3009  0.2312
26902W        W33502   5.547   3.901  43.237 -0.2529  0.2919 -0.2751
26903W        W33503  10.537   1.182  39.293  0.0892  0.0293  0.1936
26904W        W33504   7.189   1.072   3.702 -0.0099  0.0081  0.3873
26905W        W33505  20.231   0.121   2.601 -0.1361 -0.0279  0.1445
26906W        W33506  13.356   4.928   6.129  0.1207 -0.0024 -0.3568
26907W        W33507  15.911   2.199   2.918  0.2086 -0.1352 -0.1747
26908W        W33508  16.897   0.220   3.970 -0.0678  0.0597  0.0593
26909W        W33509   2.019   0.995   8.788  0.0271 -0.2845 -0.0714
26910W        W33510   9.369   2.140  41.528  0.0712  0.1280 -0.1775
26911W        W33511   4.157   2.794  14.047 -0.1461 -0.3563 -0.2780
26912W        W33512   2.726   6.145  30.536 -0.0841 -0.0098 -0.1767
26913W        W33513  12.011   0.638  32.056  0.0438 -0.2365 -0.0913
26914W        W33514   8.970   1.557   3.742  0.0204 -0.3131 -0.1287
26915W        W33515  16.288   5.717  12.532  0.1243  0.0562  0.3438
26916W        W33516  18.603   4.753   8.260  0.0130  0.1843 -0.1183
26917W        W33517  10.538   4.627   2.833  0.0030  0.1374  0.1956
26918W        W33518  10.276   1.170  20.619  0.0811 -0.0395 -0.0298
26919W        W33519   9.317   5.418  34.305 -0.1226 -0.1582 -0.1553
26920W        W33520   8.804   3.571  30.115  0.2403 -0.2636 -0.1059
26921W        W33521  18.418   5.379   9.034 -0.2763 -0.1391 -0.1934
26922W        W33522  10.671   0.397  37.525  0.0816  0.1438  0.0697
26923W        W33523  15.384   3.985   9.872  0.1293  0.2222  0.1274
26924W        W33524   8.654   0.122  23.621  0.0075 -0.1872 -0.0447
26925W        W33525   5.408   0.107   7.603  0.2753 -0.0508  0.1647
26926W        W33526  19.715   3.803   2.600 -0.2405  0.2057  0.0239
26927W        W33527   3.507   6.274  36.436 -0.0946 -0.4051  0.1211
26928W        W33528   0.812   5.833  33.207  0.0596 -0.1675  0.1654
26929W        W33529   2.021   4.699   8.039 -0.0265  0.0482  0.1249
26930W        W33530   6.717   4.187  17.605 -0.0633 -0.1253 -0.3563
26931W        W33531   4.360   6.561  36.819 -0.1417  0.0929  0.2207
26932W        W33532  13.390   0.138  40.739 -0.0087  0.0521  0.1823
26933W        W33533  14.206   1.556   3.148 -0.1688  0.2263 -0.1205
26934W        W33534  14.105   5.033  28.025 -0.1838  0.1273 -0.2185
26935W        W33535  13.609   2.213   3.527  0.1692  0.2458 -0.0393
26936W        W33536  14.349   4.834  44.910 -0.2236  0.3329  0.1264
26937W        W33537  20.201   0.696   9.749  0.2828  0.0040 -0.3662
26938W        W33538  18.114   6.334  24.420 -0.1087 -0.1488 -0.1511
26939W        W33539  11.546   3.679  38.525  0.0807 -0.2771  0.1678
26940W        W33540  17.554   2.409  38.674 -0.0606 -0.0296  0.2933
26941W        W33541   9.476   2.802  30.700 -0.0318 -0.3482  0.0962
26942W        W33542   8.320   5.912   2.983  0.1434 -0.0362 -0.0138
26943W        W33543   0.730   3.452  31.278 -0.2920  0.1972 -0.2437
26944W        W33544  17.965   1.223  14.858  0.0718  0.2598 -0.0568
26945W        W33545  16.742   1.910   2.786  0.1587 -0.1405  0.0482
26946W        W33546  18.386   0.937  37.130  0.0577  0.0624  0.0574
26947W        W33547   1.181   6.273  44.561 -0.0886 -0.1931 -0.1038
26948W        W33548  13.082   4.963  36.576  0.1646  0.0595  0.2275
26949W        W33549  10.631   4.137  19.793 -0.0318 -0.0422 -0.4383
26950W        W33550   4.430   5.704  44.974  0.1209 -0.0008 -0.0492
26951W        W33551   1.766   4.219   8.900  0.0431  0.1394  0.1103
26952W        W33552  19.861   0.733  13.797  0.1037 -0.1416  0.1631
26953W        W33553  14.148   0.597   6.977 -0.1413  0.0883  0.0813
26954W        W33554   4.869   0.743  35.864  0.5188  0.2488  0.0716
26955W        W33555  20.509   3.428   8.508 -0.0853 -0.0652  0.0979
26956W        W33556   1.105   6.573  26.629  0.2323 -0.0350 -0.1747
26957W        W33557  11.332   2.574   8.627  0.0302  0.0157  0.0584
26958W        W33558  11.007   3.075  30.365  0.2295 -0.1856  0.1114
26959W        W33559   2.694   3.775  15.156  0.5283  0.0248 -0.1622
26960W        W33560  19.750   5.914  28.295  0.2441 -0.1592 -0.0016
26961W        W33561  13.762   3.258   1.413  0.0566  0.1834 -0.4274
26962W        W33562   4.351   3.755  42.625 -0.2929  0.1360 -0.2748
26963W        W33563  10.241   0.375   6.230  0.0868 -0.1971  0.1366
26964W        W33564  17.681   6.567  24.148 -0.1767  0.1650  0.0366
26965W        W33565   4.250   2.070   8.945 -0.0860  0.0406  0.2567
26966W        W33566  14.359   4.372  27.537  0.3354  0.0074 -0.2273
26967W        W33567  19.185   0.681  28.493  0.1134 -0.2213 -0.0074
26968W        W33568   2.936   5.166  26.820  0.2879 -0.0750 -0.3998
26969W        W33569  17.447   4.205   1.508 -0.3306  0.1069 -0.1691
26970W        W33570   3.964   4.124  31.722 -0.1645  0.0062  0.0997
26971W        W33571   3.309   1.919   0.921 -0.4583 -0.2128 -0.0936
26972W        W33572  17.794   2.124  42.888  0.2246  0.1966  0.0710
26973W        W33573  16.737   3.375  31.898  0.0681 -0.0275  0.0150
26974W        W33574  17.793   0.541   0.762  0.3277 -0.2180  0.1335
26975W        W33575   7.453   2.761  11.820 -0.1059 -0.0728 -0.0373
26976W        W33576   0.685   2.167  11.870  0.0320 -0.3673  0.0627
26977W        W33577   6.495   5.601  44.544  0.2498  0.1227 -0.0230
26978W        W33578   2.718   5.502   5.374  0.0976 -0.0738 -0.0235
26979W        W33579   6.956   1.747  33.385 -0.1446 -0.2590 -0.3614
26980W        W33580   5.694   0.829  16.538 -0.1297  0.2097 -0.2736
26981W        W33581  19.012   5.740   7.768  0.0114  0.0233 -0.0841
26982W        W33582  21.099   5.403  24.529 -0.1731 -0.0140 -0.0963
26983W        W33583  12.062   5.650   6.693  0.2268 -0.0102  0.3663
26984W        W33584  11.415   5.988  32.059 -0.0256  0.1610  0.1199
26985W        W33585  11.126   4.075  35.090  0.0999  0.2800 -0.2248
26986W        W33586   6.115   4.951  20.041 -0.0633  0.1883 -0.0618
26987W        W33587  14.949   3.106   7.565  0.0245  0.3553 -0.0969
26988W        W33588   0.131   2.591  31.161 -0.1759  0.0943 -0.0062
26989W        W33589  11.323   1.084   7.789 -0.1874  0.0161  0.2737
26990W        W33590  20.097   5.162  28.841 -0.1186 -0.0664 -0.0674
26991W        W33591  15.731   6.145   5.699 -0.0353 -0.1401 -0.0187
26992W        W33592   2.731   6.516  14.826 -0.0994  0.0072  0.1778
26993W        W33593   2.207   2.089   4.173  0.1857  0.0546 -0.1639
26994W        W33594  20.244   6.175  29.635  0.1709  0.7272 -0.0961
26995W        W33595  20.984   6.181   2.635  0.3547 -0.0666 -0.2107
26996W        W33596  21.122   1.028   9.231 -0.3417  0.1610  0.1604
26997W        W33597  10.508   1.157  15.824  0.0562  0.0688  0.3448
26998W        W33598  11.593   0.782  13.856 -0.1169  0.0719  0.1714
26999W        W33599   5.636   4.522   9.616  0.1938  0.0714  0.0914
27000W        W33600   2.225   2.835  29.037 -0.0366  0.1597 -0.0553
27001W        W33601   0.092   3.477   3.248 -0.0028  0.1551 -0.2108
27002W        W33602   5.247   4.742   1.386  0.1672  0.1839  0.0864
27003W        W33603  12.765   2.564  43.452  0.0593  0.0821  0.0558
27004W        W33604   8.116   5.207   8.952 -0.0760  0.0173  0.0721
27005W        W33605   8.817   0.894  31.921 -0.3169  0.0860 -0.0914
27006W        W33606   0.454   6.278  24.268  0.2925  0.2789 -0.0446
27007W        W33607  14.347   4.841  43.087 -0.2275 -0.2701 -0.1394
27008W        W33608  12.746   3.909  34.442  0.0860 -0.3082 -0.2271
27009W        W33609   4.390   1.587   8.303 -0.0354 -0.2518  0.5583
27010W        W33610  18.476   1.616  35.475 -0.1079 -0.0735 -0.1114
27011W        W33611  14.353   3.324  32.250  0.1967 -0.1094 -0.1737
27012W        W33612  20.675   2.511  20.987  0.1832  0.0159 -0.0404
27013W        W33613   1.660   2.440  31.411  0.0409 -0.0590  0.1134
27014W        W33614  19.465   5.827  42.081  0.0205 -0.0362 -0.0678
27015W        W33615   6.416   4.717  30.005 -0.1267 -0.0583 -0.4172
27016W        W33616  16.736   3.395  34.656  0.2041  0.1928 -0.2375
27017W        W33617  13.355   0.645   3.539 -0.0125 -0.2208  0.1416
27018W        W33618   2.830   1.531  33.809 -0.0983 -0.0498 -0.1421
27019W        W33619   6.384   6.097  34.402  0.4799  0.1598  0.0117
27020W        W33620   3.167   3.363  14.101  0.0971  0.3091 -0.0918
27021W        W33621   3.149   6.179  36.746 -0.0283  0.3037  0.0195
27022W        W33622  11.643   6.559  42.983  0.2635  0.1002  0.0648
27023W        W33623   3.114   3.645  43.262 -0.2577  0.1926 -0.1477
27024W        W33624   1.585   5.714  33.910 -0.2532 -0.0008 -0.0516
27025W        W33625  19.129   2.441  32.777 -0.0044 -0.1139  0.0632
27026W        W33626  20.576   0.734  22.671 -0.1809 -0.2474 -0.0412
27027W        W33627  16.978   1.246  39.624  0.1558  0.0137 -0.1387
27028W        W33628  12.880   1.479  16.100 -0.2684  0.2671 -0.2185
27029W        W33629  11.915   4.462  12.639  0.2986  0.1772 -0.0583
27030W        W33630  18.386   4.910  44.490  0.1600 -0.0778 -0.1969
27031W        W33631   4.922   2.271  31.083 -0.0909  0.2063  0.0930
27032W        W33632   3.941   6.376   1.310  0.2794 -0.0109  0.1024
27033W        W33633   3.680   0.190  11.802 -0.0440 -0.2530  0.1268
27034W        W33634   5.124   1.358  42.746 -0.0702  0.0716  0.0309
27035W        W33635   0.675   0.760  34.661  0.1446 -0.0468  0.0208
27036W        W33636   1.899   2.683  32.214 -0.0346  0.0312 -0.3868
27037W        W33637  11.773   4.416   3.504  0.1468  0.0261  0.1910
27038W        W33638  15.130   6.054   8.206  0.1277 -0.2547 -0.2792
27039W        W33639  10.924   5.076   1.743 -0.0407  0.2321 -0.4239
27040W        W33640   8.948   5.292  12.705 -0.1139  0.0762 -0.3098
27041W        W33641  12.902   5.057   8.725  0.0294 -0.1154  0.0789
27042W        W33642   1.072   0.576  24.993 -0.2221  0.1172 -0.3979
27043W        W33643  13.060   3.190   8.626  0.1041  0.0005 -0.1048
27044W        W33644  19.897   6.133   9.839 -0.2791 -0.0998  0.1270
27045W        W33645   6.381   1.854   3.684 -0.0921 -0.0561 -0.0453
27046W        W33646   3.280   5.592   5.303  0.0367 -0.1209 -0.1182
27047W        W33647  14.081   2.197  39.890 -0.0256 -0.1775 -0.1314
27048W        W33648   0.223   4.461   5.906 -0.0914 -0.2619 -0.0317
27049W        W33649  16.971   4.485  12.373  0.3101 -0.0328  0.1999
27050W        W33650  10.146   1.263  23.307 -0.1105  0.3092 -0.1763
27051W        W33651  14.647   3.681  12.594 -0.1203  0.1684 -0.0419
27052W        W33652   5.093   4.616  11.569 -0.1180 -0.0131  0.0791
27053W        W33653   7.912   6.468  36.871  0.1788 -0.0487 -0.1669
27054W        W33654  11.419   1.860  14.596 -0.1008 -0.3139 -0.2344
27055W        W33655   0.851   0.197   7.855  0.3935 -0.1914  0.0623
27056W        W33656   0.197   0.422   2.669  0.1903 -0.2020  0.4487
27057W        W33657  13.350   4.718  20.217  0.2080  0.3051  0.1441
27058W        W33658   0.848   4.709  30.819 -0.0609  0.1099 -0.1380
27059W        W33659   1.994   3.531  32.054 -0.3190  0.1403 -0.0404
27060W        W33660  16.537   0.105  44.305  0.0773 -0.0615  0.0572
27061W        W33661   5.296   0.098  32.208 -0.2115 -0.2126  0.3467
27062W        W33662   0.903   0.368  39.302  0.1546  0.2412  0.0448
27063W        W33663  12.848   0.201  31.373  0.3302 -0.0745 -0.0990
27064W        W33664   6.976   5.716  33.958 -0.1866 -0.0221 -0.1257
27065W        W33665  15.677   1.538   1.420 -0.1230  0.1550 -0.0561
27066W        W33666   1.827   2.112   9.662 -0.1286 -0.0344 -0.0134
27067W        W33667   7.914   3.095  10.755 -0.4657  0.4239  0.3344
27068W        W33668   9.849   6.560   0.606 -0.0750  0.1779  0.2970
27069W        W33669   9.336   2.242  42.746  0.0472  0.0759 -0.0883
27070W        W33670  19.180   0.834   2.153  0.1342 -0.0743  0.0106
27071W        W33671  18.601   5.606  30.806 -0.0824 -0.3281  0.0190
27072W        W33672   4.152   5.989  33.424  0.5219 -0.0318  0.2845
27073W        W33673   2.686   2.824  28.780 -0.1296  0.2410 -0.1386
27074W        W33674   6.126   2.042  33.673  0.0348 -0.5442 -0.2135
27075W        W33675  14.744   4.948  40.019 -0.0827  0.2068  0.1128
27076W        W33676  20.421   0.955  34.044 -0.1515  0.0210 -0.1859
27077W        W33677  19.055   2.975  43.447 -0.0798 -0.1751  0.0178
27078W        W33678   9.303   1.423  29.935  0.0467 -0.0763  0.1884
27079W        W33679   5.789   2.825  35.802 -0.2311  0.0499 -0.0598
27080W        W33680   8.368   2.860  40.251  0.2635 -0.0665  0.0851
27081W        W33681   6.881   4.455  40.859  0.0384 -0.1586 -0.2183
27082W        W33682  19.007   0.831   5.017  0.0243  0.0605  0.1678
27083W        W33683  20.924   5.225  36.509  0.0556 -0.0871 -0.3038
27084W        W33684  10.826   2.634  14.957  0.2601  0.0064  0.0186
27085W        W33685   8.320   1.751  32.737  0.1392 -0.0623 -0.0137
27086W        W33686   2.549   1.776  32.108  0.0341  0.4712  0.0278
27087W        W33687   6.627   1.272  44.636  0.0071 -0.0320  0.2116
27088W        W33688   2.707   2.940   2.404 -0.2222  0.0068  0.2343
27089W        W33689  20.507   1.923  11.291  0.1735 -0.1482  0.0188
27090W        W33690  19.383   2.527   5.727  0.1530  0.4170 -0.2186
27091W        W33691  11.100   1.647   1.788  0.0322 -0.1779 -0.1724
27092W        W33692   8.505   1.590  44.240  0.0225 -0.0279  0.0289
27093W        W33693   4.463   3.458  18.747  0.2296 -0.1756 -0.1789
27094W        W33694  21.115   5.180   4.244 -0.1373  0.3230  0.0339
27095W        W33695  19.318   1.725  40.837 -0.0973 -0.0058  0.2908
27096W        W33696   1.194   2.341  42.528  0.0700  0.0245  0.0486
27097W        W33697  15.619   3.027   3.678  0.0340 -0.1874  0.1036
27098W        W33698  11.557   1.680   9.052 -0.0748 -0.1105 -0.2438
27099W        W33699   4.337   0.559  33.456 -0.2100 -0.1410 -0.1774
27100W        W33700  13.113   6.132  30.119  0.2491  0.2292  0.1117
27101W        W33701  11.991   1.134  36.077  0.1508 -0.0795  0.1106
27102W        W33702   0.602   0.257  33.071  0.2268 -0.0199 -0.1137
27103W        W33703  20.021   0.594  42.824  0.2122 -0.1691  0.0525
27104W        W33704   9.929   1.644   0.376 -0.0371  0.0722  0.2730
27105W        W33705   3.596   5.851  40.617 -0.0271 -0.1775  0.1755
27106W        W33706  20.221   5.220  15.144  0.0847 -0.3728  0.0292
27107W        W33707   5.276   4.428  28.487 -0.1632 -0.1072  0.0703
27108W        W33708   7.916   3.632   9.108  0.2008  0.1243 -0.1346
27109W        W33709  20.717   4.762  32.124  0.2501 -0.1757  0.1251
27110W        W33710   3.633   3.922  12.480 -0.3205 -0.2892  0.1099
27111W        W33711   8.733   0.288  20.657  0.2061 -0.1048  0.0042
27112W        W33712   0.197   1.931   7.866  0.3266  0.0532  0.0511
27113W        W33713  14.129   3.341  36.321  0.0956  0.0492 -0.1395
27114W        W33714   6.655   5.682  11.186  0.0084  0.1638  0.3969
27115W        W33715   8.283   4.761  19.360 -0.0794 -0.1298  0.0461
27116W        W33716   7.425   4.813   6.679 -0.3003 -0.4473 -0.0485
27117W        W33717  14.044   0.406  27.142 -0.3234  0.0979  0.0133
27118W        W33718  14.376   2.231  32.255  0.3030 -0.0865 -0.0009
27119W        W33719   1.228   5.652   7.006 -0.0596  0.2408  0.0436
27120W        W33720   7.220   0.345  43.815 -0.2971 -0.1523 -0.0050
27121W        W33721  20.183   6.167   4.351  0.0578 -0.3780  0.1133
27122W        W33722   7.038   5.549  39.121  0.2246 -0.0031 -0.1752
27123W        W33723   5.822   3.813  41.990 -0.2013  0.1566  0.1229
27124W        W33724  18.967   2.601   5.997  0.0514 -0.1530 -0.1908
27125W        W33725  16.470   0.433   0.613 -0.0488  0.0010 -0.1269
27126W        W33726   2.730   4.376  38.755  0.0585 -0.1935 -0.1227
27127W        W33727  15.246   2.193  44.228  0.0482 -0.0410  0.1870
27128W        W33728   4.035   1.158   9.059 -0.0605  0.0568 -0.0248
27129W        W33729   1.512   6.237  30.416  0.0431 -0.2571 -0.2987
27130W        W33730   3.781   1.090  44.310 -0.0033  0.1179  0.3904
27131W        W33731  18.304   1.717   1.502  0.0159  0.0660  0.1067
27132W        W33732  18.946   4.790   0.394 -0.0387  0.1016  0.4532
27133W        W33733  15.048   4.160  44.714 -0.1258  0.0510  0.1954
27134W        W33734  18.235   1.844  37.531  0.1236 -0.1933 -0.0611
27135W        W33735   8.360   4.912  15.168 -0.0561 -0.0130 -0.0541
27136W        W33736   8.592   5.867  15.746 -0.0252 -0.0475 -0.0266
27137W        W33737  10.897   0.872  43.298  0.3435  0.0141  0.2521
27138W        W33738   0.451   2.597  27.008 -0.2007 -0.0014 -0.2534
27139W        W33739   8.494   3.521   5.092 -0.1381 -0.2274 -0.0179
27140W        W33740  15.884   2.824  40.005 -0.3336 -0.1705  0.2897
27141W        W33741   2.201   4.817  39.599 -0.2188  0.0087  0.0502
27142W        W33742   0.971   1.408  33.690 -0.0781 -0.0434 -0.0152
27143W        W33743   1.523   2.823  29.660 -0.1535  0.0495  0.0857
27144W        W33744  21.032   2.262  23.453  0.0470  0.0569 -0.1746
27145W        W33745   3.415   6.433  16.227 -0.3120  0.1913  0.0552
27146W        W33746  21.068   2.941  22.262  0.1277  0.0998 -0.0856
27147W        W33747  10.144   6.305  43.083  0.1976  0.3977  0.0394
27148W        W33748  16.774   2.307  14.157  0.3459  0.0232  0.0692
27149W        W33749  13.592   5.782   4.975 -0.1512 -0.1185  0.0722
27150W        W33750   4.742   3.556  30.273 -0.2167  0.1932  0.1593
27151W        W33751  19.501   3.549  35.291 -0.0045  0.0020 -0.3920
27152W        W33752  16.424   5.672  44.982 -0.0847  0.0793 -0.2927
27153W        W33753  14.771   5.385   2.968 -0.1823  0.0843  0.2207
27154W        W33754  16.039   6.493  42.029 -0.0079  0.0497 -0.1724
27155W        W33755   4.089   4.998  40.725 -0.0395 -0.0817 -0.1052
27156W        W33756   8.245   5.275  13.378 -0.1465  0.1457 -0.0069
27157W        W33757  16.612   5.756  37.384 -0.0792 -0.1784 -0.1930
27158W        W33758  13.475   6.036  37.558 -0.2108  0.0682  0.0662
27159W        W33759  20.000   0.682  11.660  0.0917  0.1642 -0.1269
27160W        W33760  10.239   1.936  23.612  0.0923 -0.1344 -0.0381
27161W        W33761  12.989   4.586   4.135 -0.0972 -0.1138  0.2156
27162W        W33762   6.806   2.560  42.171 -0.3208 -0.1508 -0.1329
27163W        W33763   5.835   5.820  30.628  0.0118  0.2122 -0.0078
27164W        W33764   3.186   6.511  36.096  0.0786 -0.0645  0.0873
27165W        W33765  19.594   4.685  12.823 -0.2697 -0.2666 -0.0523
27166W        W33766   6.170   1.174  36.800 -0.0679  0.0715  0.0550
27167W        W33767   2.131   3.177  42.760 -0.1530 -0.1616 -0.0667
27168W        W33768   5.011   4.328  20.476  0.0221  0.2610  0.2196
27169W        W33769  16.703   1.704  12.284  0.0136 -0.0652  0.0183
27170W        W33770  15.169   0.274   5.189 -0.1869  0.0478  0.0669
27171W        W33771   6.498   3.526  39.472  0.4261 -0.1085  0.0538
27172W        W33772   7.952   1.782   5.515 -0.0183 -0.1158 -0.1944
27173W        W33773   1.991   2.581  24.386 -0.2190  0.2883 -0.1558
27174W        W33774  18.856   1.673  40.710  0.0008 -0.2730  0.0839
27175W        W33775   0.432   3.861  31.404  0.2152 -0.1201 -0.1155
27176W        W33776  13.113   6.487  15.052  0.0264  0.0751  0.2011
27177W        W33777  17.518   5.540   3.378 -0.0642 -0.0786 -0.1030
27178W        W33778  12.045   4.721   1.870  0.0929 -0.1677  0.0471
27179W        W33779   5.730   1.187  10.691 -0.2079 -0.1458 -0.0625
27180W        W33780   2.393   5.595  42.151 -0.2050 -0.0074 -0.1652
27181W        W33781  16.241   3.084  28.505 -0.2864 -0.0069  0.5727
27182W        W33782  16.849   0.745   5.967  0.0838 -0.0587  0.2565
27183W        W33783  12.746   5.215  32.190 -0.0172 -0.1577  0.0370
27184W        W33784   7.333   6.569  32.434  0.1459 -0.0409  0.0661
27185W        W33785  16.354   0.342  29.989  0.3269  0.1218  0.1278
27186W        W33786   5.389   6.234   1.483  0.0692  0.2247  0.2394
27187W        W33787  13.718   0.180  41.557 -0.1654  0.0108 -0.0676
27188W        W33788  10.528   2.017  20.423 -0.0076  0.1361  0.1877
27189W        W33789  12.391   5.638  33.374  0.0198 -0.1390  0.0837
27190W        W33790  14.978   0.587  27.150  0.1079  0.1047 -0.0949
27191W        W33791  13.746   4.790  14.213 -0.1968 -0.0325 -0.0514
27192W        W33792   6.575   1.687  12.368  0.3315  0.1922  0.0365
27193W        W33793   8.669   2.495  15.701 -0.0578  0.1398 -0.2127
27194W        W33794   6.466   1.970  29.794  0.1423 -0.0796 -0.0501
27195W        W33795  19.844   0.033  26.139 -0.0676 -0.0382 -0.3390
27196W        W33796   7.398   4.127  22.450  0.2540 -0.0330 -0.1603
27197W        W33797   1.135   3.787   8.556  0.1526  0.1575  0.2239
27198W        W33798   1.404   2.076  44.739  0.2848  0.0881  0.2964
27199W        W33799  15.861   3.217  24.774 -0.1051  0.2785 -0.0864
27200W        W33800   8.984   6.011  34.412 -0.0656 -0.4648 -0.0628
27201W        W33801   0.134   5.687  10.379 -0.1604 -0.2167  0.1219
27202W        W33802  21.016   5.798   3.453 -0.3171  0.0870  0.0742
27203W        W33803   7.939   1.556  12.830 -0.3476  0.1281 -0.1086
27204W        W33804  14.401   1.603  31.332 -0.1096  0.0135  0.0791
27205W        W33805  18.879   3.634  13.685  0.1256 -0.0708  0.2078
27206W        W33806  14.791   2.067  38.228  0.0661  0.2080 -0.0003
27207W        W33807   3.786   0.777  39.520  0.1975 -0.1530  0.2429
27208W        W33808  15.918   1.234  33.752 -0.2159 -0.2581 -0.6191
27209W        W33809  19.445   5.300   6.628 -0.0446 -0.0269 -0.0819
27210W        W33810  20.828   0.084  24.077  0.1914  0.0426 -0.4001
27211W        W33811   4.778   0.108   5.057  0.1558 -0.0564 -0.1316
27212W        W33812   7.203   5.271  30.275 -0.2009  0.1154 -0.0925
27213W        W33813  12.603   4.228   7.231  0.0434 -0.2646 -0.2333
27214W        W33814  19.951   0.671  42.300  0.1050 -0.1624 -0.4141
27215W        W33815   0.292   2.622  28.227 -0.2334  0.1530  0.1906
27216W        W33816   7.913   2.950  36.015 -0.5049  0.2561 -0.0856
27217W        W33817  20.926   6.211  45.064 -0.1267 -0.0204  0.1928
27218W        W33818   3.691   3.505   2.944 -0.1771  0.0052 -0.0686
27219W        W33819   7.558   4.002  42.658  0.2107 -0.0076 -0.2090
27220W        W33820   6.878   4.239   0.619 -0.2982 -0.1861 -0.2342
27221W        W33821  16.110   0.463  37.188  0.1568 -0.0203  0.2958
27222W        W33822   6.734   4.333  11.579  0.0048 -0.2244  0.0203
27223W        W33823   4.234   6.054  12.900  0.1075  0.1585 -0.1622
27224W        W33824  11.061   1.479  14.279 -0.1103  0.1858  0.2031
27225W        W33825   2.501   1.659  26.954  0.0579 -0.3705  0.3059
27226W        W33826   5.093   1.841   8.869 -0.2912  0.1685  0.3782
27227W        W33827  18.464   5.160   3.474 -0.4061  0.0365  0.0435
27228W        W33828   4.979   3.971  17.022  0.0614 -0.2110  0.1682
27229W        W33829  20.568   0.503  32.259 -0.0331 -0.3243  0.1210
27230W        W33830   3.267   1.552  14.104  0.0239 -0.0928 -0.0465
27231W        W33831  14.833   5.752  33.355  0.1742 -0.1560 -0.0592
27232W        W33832   4.815   4.722  41.775 -0.0956 -0.1929 -0.1676
27233W        W33833  10.154   6.240  24.979 -0.4794  0.1303  0.2539
27234W        W33834   3.451   0.318  10.247  0.0874 -0.0747  0.0323
27235W        W33835   1.398   5.779  25.186  0.3367 -0.1533 -0.1755
27236W        W33836   5.091   1.382  29.563  0.2980  0.2362  0.3950
27237W        W33837   0.513   4.094   6.153  0.1191 -0.0427 -0.1993
27238W        W33838  18.711   4.740   7.750 -0.1544  0.0214  0.1989
27239W        W33839  13.955   0.003   5.303  0.3021 -0.0241  0.4098
27240W        W33840  17.878   5.572  35.552  0.0289 -0.1895 -0.2082
27241W        W33841   8.774   6.077  39.002  0.0771 -0.1796  0.1083
27242W        W33842   1.163   0.140  44.884  0.0339  0.0717  0.1563
27243W        W33843   2.136   0.635   0.089  0.0006  0.0934  0.0174
27244W        W33844  16.616   0.120  24.029  0.1019  0.2327  0.3806
27245W        W33845   7.976   2.499  21.210  0.0029 -0.1377  0.0717
27246W        W33846  11.544   4.908  44.078 -0.1417  0.1158 -0.0451
27247W        W33847   4.880   4.516  19.181  0.2847 -0.1538 -0.2187
27248W        W33848  13.102   5.692  40.808  0.1668  0.0838  0.2979
27249W        W33849   3.240   6.062  34.887 -0.0084  0.1537  0.0125
27250W        W33850  15.853   3.596   2.265  0.0297  0.0407  0.2100
27251W        W33851  11.727   1.236  28.609  0.1532 -0.2555  0.2567
27252W        W33852   6.755   6.115  36.157 -0.1159 -0.1193 -0.0658
27253W        W33853  17.713   4.090  39.470  0.0608 -0.1172  0.1091
27254W        W33854   7.025   3.458  32.292 -0.2715 -0.1723 -0.1570
27255W        W33855   2.887   6.551   6.918 -0.0319 -0.0441  0.1148
27256W        W33856   0.014   3.247  39.767  0.0720 -0.0222  0.2452
27257W        W33857  18.542   3.091  37.934 -0.2959  0.0627 -0.0416
27258W        W33858  19.431   5.294  43.191  0.2616 -0.1561  0.1535
27259W        W33859   3.012   0.816   3.711  0.2309  0.1762 -0.1332
27260W        W33860   6.106   0.842  34.642  0.0025 -0.0714  0.0204
27261W        W33861  20.835   5.069  12.237  0.0500 -0.0315  0.2581
27262W        W33862  18.568   3.418  42.128 -0.2137  0.2340 -0.1442
27263W        W33863   8.768   3.844  32.117  0.0567  0.0742 -0.0192
27264W        W33864   7.267   3.731   5.483 -0.1133 -0.0672 -0.0103
27265W        W33865   1.879   2.645  11.563  0.1950  0.1160 -0.0930
27266W        W33866   6.052   3.510   2.372 -0.3565 -0.0580 -0.3808
27267W        W33867  13.799   0.166  43.915  0.1543 -0.0695 -0.1015
27268W        W33868   2.903   3.399  40.762 -0.1022  0.0798 -0.0436
27269W        W33869  12.708   3.505  37.211  0.3273 -0.1083  0.1244
27270W        W33870  10.381   2.243  44.662  0.2736  0.3205  0.3176
27271W        W33871  18.137   3.229  41.182  0.2329  0.4131 -0.3199
27272W        W33872   9.535   2.705  16.278  0.0079 -0.0392  0.3533
27273W        W33873  13.004   1.848  44.085 -0.0394  0.0324  0.0663
27274W        W33874  19.098   6.477  14.441 -0.0916 -0.5897 -0.1000
27275W        W33875  18.213   0.615  31.905  0.2179 -0.1238 -0.1093
27276W        W33876   8.510   0.825   2.516  0.0218  0.0123  0.1142
27277W        W33877   5.860   2.737  39.245 -0.0888 -0.1096  0.0571
27278W        W33878   4.467   1.383   7.865 -0.1600 -0.0384  0.2302
27279W        W33879   2.642   2.097  41.115  0.0723 -0.1721  0.0545
27280W        W33880  19.912   3.752  12.728 -0.1452 -0.3002  0.1884
27281W        W33881   4.336   5.572  15.555 -0.0277  0.0194  0.0516
27282W        W33882   1.926   1.462   4.563 -0.2610  0.0560 -0.0165
27283W        W33883   9.437   0.383  36.368 -0.3540  0.3157  0.0579
27284W        W33884   3.844   4.319  34.119  0.2218 -0.3139  0.1145
27285W        W33885  13.154   5.332  12.234  0.0274  0.2258  0.0216
27286W        W33886  20.439   5.494   4.095  0.0311 -0.1374 -0.2252
27287W        W33887  16.589   3.833  24.595 -0.0393  0.1207 -0.0898
27288W        W33888  16.143   0.361   6.651  0.4290  0.1081  0.2192
27289W        W33889   9.170   4.617  38.127  0.0520 -0.0756 -0.2538
27290W        W33890  20.853   3.311  10.985 -0.2628 -0.0383  0.1454
27291W        W33891  10.889   1.985   6.554 -0.3569 -0.2550  0.0877
27292W        W33892  19.161   2.427  31.207  0.2540  0.1440  0.1462
27293W        W33893  17.835   5.483   1.255  0.2557 -0.1406 -0.0672
27294W        W33894   6.224   3.465  40.806 -0.1297  0.1660 -0.0317
27295W        W33895   5.953   1.977  29.598 -0.1471  0.1655  0.2001
27296W        W33896  16.108   1.719  30.795  0.4175 -0.2799  0.1134
27297W        W33897   8.583   5.455  14.990  0.4294  0.0295  0.1438
27298W        W33898  18.337   2.761  42.698 -0.0033  0.0102 -0.1395
27299W        W33899  10.915   3.300  12.256 -0.1494 -0.2936 -0.0182
27300W        W33900   8.740   2.941   1.260 -0.2932  0.1286  0.0574
27301W        W33901   4.573   2.980  37.470 -0.1891  0.1348  0.0839
27302W        W33902  16.145   5.226   7.998 -0.0875  0.2468 -0.0965
27303W        W33903   6.821   4.111  12.771 -0.0312  0.1626 -0.1239
27304W        W33904  16.667   1.331  14.597 -0.1179 -0.1557 -0.3833
27305W        W33905   3.390   3.959   5.925 -0.0553  0.0707  0.0857
27306W        W33906  14.153   4.207  39.260  0.1408  0.0720 -0.0038
27307W        W33907   4.454   6.183  38.545 -0.1711 -0.3845  0.2210
27308W        W33908  20.856   1.466  22.520  0.0105  0.1289  0.1128
27309W        W33909  14.286   2.287   9.096 -0.0222 -0.3466  0.0814
27310W        W33910  10.850   2.325  13.109  0.0492  0.1542  0.0055
27311W        W33911  18.897   3.376  44.241  0.2424  0.2089  0.3978
27312W        W33912   6.419   2.233   9.740  0.0697 -0.1075  0.0260
27313W        W33913   0.617   1.277  32.645 -0.2881 -0.0387  0.0769
27314W        W33914  14.459   5.130  31.610  0.0470  0.2902 -0.0040
27315W        W33915   4.907   5.248  11.072  0.1884  0.2696  0.2306
27316W        W33916   2.264   4.813  13.354  0.2891 -0.1199  0.0483
27317W        W33917  19.389   4.410  25.797  0.0248 -0.1040 -0.1562
27318W        W33918   4.104   0.386  16.911 -0.0241 -0.0217 -0.0407
27319W        W33919  10.316   6.590  15.934  0.4665 -0.0839  0.0617
27320W        W33920   1.976   2.643   4.340  0.0671  0.3671  0.2931
27321W        W33921   4.189   4.494   2.918  0.0146  0.0068 -0.1020
27322W        W33922  10.958   2.838  16.503 -0.0889 -0.2667  0.0415
27323W        W33923   0.448   0.426  29.290 -0.1936  0.1346  0.1267
27324W        W33924  20.402   3.627  33.432  0.4925 -0.0781 -0.1951
27325W        W33925  10.995   5.645  44.908 -0.0145 -0.1225 -0.1439
27326W        W33926  11.441   1.415  19.858  0.1509  0.2382 -0.0080
27327W        W33927   7.122   3.045  41.333  0.0510 -0.0926  0.1023
27328W        W33928   0.652   5.354  37.194  0.4135  0.1693  0.0736
27329W        W33929   3.285   1.283  10.166  0.1090  0.0545 -0.0132
27330W        W33930   4.175   1.136  37.342  0.0888 -0.2674  0.3610
27331W        W33931  10.933   1.320  35.119 -0.1994 -0.1058  0.2004
27332W        W33932  16.967   5.784   8.877 -0.1792  0.1998 -0.1248
27333W        W33933  13.569   0.641  31.567  0.1443  0.0035  0.3721
27334W        W33934  14.467   5.336  37.643 -0.0476 -0.2486 -0.0396
27335W        W33935  12.683   5.795  38.681  0.3095  0.2510 -0.0259
27336W        W33936  14.116   4.877   0.389  0.1781  0.1461 -0.0303
27337W        W33937   3.824   1.561   1.557  0.0035  0.0543 -0.3906
27338W        W33938   1.967   3.939   7.196  0.1481 -0.3090  0.0757
27339W        W33939   7.068   3.340  16.649  0.0170  0.0931  0.1876
27340W        W33940   3.277   0.172  29.864 -0.0221 -0.1512 -0.0704
27341W        W33941   8.645   5.918  35.258 -0.1562  0.5931  0.0639
27342W        W33942  10.748   3.978  31.715  0.0318 -0.1472 -0.1719
27343W        W33943  14.753   3.275  14.160 -0.2457  0.1684  0.1492
27344W        W33944   5.773   4.437  42.077  0.2014  0.1858  0.2279
27345W        W33945   9.238   5.469  31.132 -0.0686  0.0005 -0.1408
27346W        W33946  20.105   5.894   3.908  0.2546 -0.1365 -0.0350
27347W        W33947  17.567   1.073  13.027  0.2793  0.3033 -0.0614
27348W        W33948  11.648   2.033  31.091 -0.2527 -0.2256  0.0442
27349W        W33949   3.065   0.227  38.822  0.2125  0.1135  0.0163
27350W        W33950  12.677   0.800  40.887  0.0614  0.2058 -0.0324
27351W        W33951  12.976   6.367  12.177  0.3489 -0.2487  0.0764
27352W        W33952   2.807   3.224  36.574  0.2033  0.1905  0.2182
27353W        W33953   5.196   4.778   9.918  0.3060 -0.0868  0.2464
27354W        W33954  20.841   5.322  31.278  0.0421 -0.0811 -0.0709
27355W        W33955   8.536   5.819   6.873 -0.0289 -0.2141 -0.2323
27356W        W33956  18.575   2.328  11.333  0.0362 -0.2076  0.1575
27357W        W33957   5.991   6.529  36.235 -0.0468  0.0821  0.3674
27358W        W33958  11.583   1.712  17.220 -0.4290 -0.1830 -0.0309
27359W        W33959   0.091   2.935  27.106 -0.2364 -0.1631  0.0184
27360W        W33960  15.302   6.350  38.459  0.0760 -0.0102  0.1039
27361W        W33961   8.894   0.512  11.054 -0.0167 -0.1403 -0.0820
27362W        W33962  19.921   1.923   8.173  0.2728  0.1393 -0.1091
27363W        W33963  13.788   4.785  36.143 -0.1930 -0.1053  0.0466
27364W        W33964  19.624   6.189  26.430 -0.2000 -0.1591 -0.1459
27365W        W33965  20.850   1.770  23.339 -0.3206 -0.0400  0.0682
27366W        W33966  14.886   5.496  14.650 -0.2010  0.1050 -0.0402
27367W        W33967   7.927   1.364  41.216  0.0109 -0.2446 -0.2685
27368W        W33968   7.851   3.531  32.139 -0.3043  0.1198  0.0170
27369W        W33969   5.125   5.159  40.067 -0.2674 -0.2620 -0.0827
27370W        W33970  10.014   3.547  41.150  0.0465  0.0335  0.0826
27371W        W33971   5.424   0.819   0.662  0.2318 -0.0922 -0.3090
27372W        W33972  11.209   2.091  42.066  0.0913 -0.2352 -0.2411
27373W        W33973   8.766   2.518  44.123  0.0632 -0.0189  0.3617
27374W        W33974  11.850   1.689  35.543  0.1306 -0.1999 -0.0205
27375W        W33975   6.181   0.692  30.119 -0.1972 -0.0992  0.0296
27376W        W33976  20.693   0.741  45.016 -0.2665 -0.1660  0.0334
27377W        W33977   7.638   0.585  30.765  0.0258  0.1767 -0.2418
27378W        W33978  17.633   3.822  38.600 -0.0387 -0.0732  0.0911
27379W        W33979  10.883   1.054   2.903 -0.1325  0.0183 -0.0189
27380W        W33980   0.809   3.591  39.660 -0.0408 -0.0835 -0.2241
27381W        W33981  12.963   1.622  42.354 -0.0250  0.2451  0.1650
27382W        W33982   8.451   0.129  36.376  0.1542  0.2965 -0.1053
27383W        W33983  11.028   6.056  15.762  0.0546 -0.0795  0.4123
27384W        W33984  20.847   0.949  13.572 -0.2587  0.2119 -0.0010
27385W        W33985  11.207   5.379  39.666 -0.1238 -0.2364  0.2482
27386W        W33986   2.490   3.329  31.367 -0.1670 -0.0244  0.2449
27387W        W33987  19.835   3.447   7.026 -0.3286 -0.1979  0.1130
27388W        W33988   2.008   1.317  34.829  0.0449 -0.0195 -0.0108
27389W        W33989   7.592   0.611  14.309  0.3830  0.1773  0.0428
27390W        W33990  13.458   1.192  30.823 -0.4694  0.0753  0.0944
27391W        W33991  14.457   2.381   0.917 -0.1569  0.0498 -0.0333
27392W        W33992  17.261   2.343  44.376 -0.1854  0.0670 -0.1548
27393W        W33993   9.397   5.189   8.894  0.0843 -0.2505 -0.0432
27394W        W33994   0.540   0.608  43.717  0.0787  0.1010  0.2811
27395W        W33995  18.744   5.113   6.737 -0.1090 -0.0200 -0.2627
27396W        W33996   8.602   3.454  10.015  0.1294  0.1751  0.1995
27397W        W33997   8.931   0.037  37.214 -0.2146  0.1904 -0.0797
27398W        W33998  19.766   0.943  40.456  0.0974 -0.1080 -0.0972
27399W        W33999   4.717   3.143  33.734  0.1538 -0.0623 -0.1228
27400W        W34000  14.208   4.475   2.802 -0.0157  0.1893  0.0202
27401W        W34001  16.099   6.354   3.423  0.0966 -0.0338 -0.3106
27402W        W34002  18.896   3.611   5.108  0.3686  0.2507  0.2042
27403W        W34003   9.386   2.063  16.020 -0.1267  0.0921 -0.0940
27404W        W34004   7.788   0.803   1.326  0.1633 -0.0761  0.1852
27405W        W34005  14.998   1.636   7.987 -0.4750 -0.1071  0.1888
27406W        W34006  16.229   2.971  13.950 -0.3699  0.1017 -0.2023
27407W        W34007   9.736   4.426  22.709  0.3065 -0.1343  0.1350
27408W        W34008   4.453   5.766  14.218 -0.1780  0.0615  0.0282
27409W        W34009   2.933   4.112  12.986  0.0228  0.0845  0.2533
27410W        W34010  12.967   4.778  19.383  0.1175  0.3436 -0.1335
27411W        W34011  14.140   1.217   0.363  0.0478  0.0953 -0.3362
27412W        W34012   5.266   0.623  43.687 -0.1673  0.0458 -0.0228
27413W        W34013  19.676   0.700   3.411  0.1899  0.1674  0.2222
27414W        W34014  10.209   2.026  34.214  0.1626  0.1108  0.0097
27415W        W34015  15.696   2.965  26.425 -0.0153 -0.2456  0.0941
27416W        W34016  13.312   0.123  14.649 -0.0894 -0.1005 -0.0324
27417W        W34017  21.038   5.109   8.212 -0.1419 -0.2708 -0.0259
27418W        W34018  15.746   5.067  10.376  0.0783  0.2662  0.0449
27419W        W34019  13.054   5.835  33.051 -0.0041 -0.1961  0.1667
27420W        W34020  17.616   3.475  38.994 -0.2177 -0.1216 -0.5020
27421W        W34021  16.613   5.926  11.256  0.0416  0.0405  0.0673
27422W        W34022  16.456   4.633  35.869 -0.4391  0.2495 -0.0758
27423W        W34023   1.299   4.609   6.118 -0.0569 -0.2733 -0.0783
27424W        W34024  21.056   0.581  26.278 -0.2280 -0.0966  0.0114
27425W        W34025   7.490   4.214  31.272 -0.0001 -0.1943 -0.1525
27426W        W34026   5.558   1.531  37.985  0.0806  0.0135  0.0597
27427W        W34027   2.865   1.590   9.561 -0.0088  0.1094 -0.0450
27428W        W34028   6.732   0.001  21.766  0.2179 -0.0009  0.1314
27429W        W34029  13.807   1.727  28.394  0.1445  0.0520 -0.1069
27430W        W34030  19.653   0.446  14.506 -0.1584 -0.0247 -0.1609
27431W        W34031  20.881   6.054  12.030 -0.1371 -0.1469 -0.1502
27432W        W34032  15.915   5.709  35.860 -0.2671 -0.0972 -0.0219
27433W        W34033  14.182   4.307  11.763  0.1351 -0.0021 -0.2660
27434W        W34034   3.745   5.767   3.411 -0.1162  0.1420 -0.1262
27435W        W34035   5.126   6.559  19.619  0.2624 -0.0671  0.1152
27436W        W34036   3.389   2.445  13.132 -0.4032 -0.0551  0.3044
27437W        W34037   7.284   0.508  12.192 -0.2924 -0.0984  0.0207
27438W        W34038   9.818   1.875  39.645  0.2447 -0.1860 -0.1932
27439W        W34039  12.884   1.595  11.971  0.0864 -0.1869  0.1796
27440W        W34040  13.299   1.097  14.526  0.1377 -0.0839 -0.0608
27441W        W34041  12.157   3.199  10.670  0.1381  0.0547 -0.0451
27442W        W34042   3.863   3.402   0.492 -0.1663  0.2304  0.3523
27443W        W34043  10.919   5.977  33.845 -0.0135 -0.4372 -0.2842
27444W        W34044   3.427   6.497  34.765 -0.2055  0.1566 -0.1688
27445W        W34045   8.684   1.968  34.375 -0.0226  0.2971  0.1140
27446W        W34046   4.905   2.672  12.423 -0.0556  0.1932  0.1799
27447W        W34047   3.612   2.012  13.222  0.0963 -0.3004 -0.1278
27448W        W34048  16.177   2.148  25.883 -0.1195  0.0055  0.0381
27449W        W34049  13.392   1.888   9.248 -0.2099  0.0406 -0.1701
27450W        W34050   6.215   3.972  31.832 -0.0555 -0.0098  0.0899
27451W        W34051  20.316   2.682  26.156  0.2148  0.0169  0.0278
27452W        W34052  12.229   5.187  39.964  0.0792 -0.2149 -0.1042
27453W        W34053  20.547   3.868  44.757 -0.0816 -0.1992 -0.0490
27454W        W34054  15.457   0.161  12.391  0.0393 -0.4279  0.0868
27455W        W34055   3.452   5.844  15.476  0.1363  0.1995  0.1920
27456W        W34056  10.957   5.325  40.123 -0.1424  0.0051 -0.0097
27457W        W34057  17.747   4.528   0.713  0.3617 -0.2044  0.2316
27458W        W34058   9.146   3.789  19.505  0.0665  0.0929  0.2997
27459W        W34059   4.009   6.131  32.003  0.0576  0.0360 -0.0095
27460W        W34060  12.900   5.521  18.390 -0.1481 -0.0572 -0.1276
27461W        W34061   7.957   3.947  15.173 -0.2554  0.1657  0.0217
27462W        W34062   8.688   1.196  12.732  0.1260  0.3259 -0.0701
27463W        W34063  12.927   2.319  43.023 -0.1902  0.4964  0.1202
27464W        W34064  11.818   5.469  33.363 -0.2559  0.0324  0.2757
27465W        W34065  18.675   2.905   5.295 -0.1996  0.1751 -0.0215
27466W        W34066   5.787   6.100   1.790  0.2867 -0.1668 -0.1368
27467W        W34067   5.028   0.326  18.094 -0.2289  0.1666  0.1410
27468W        W34068   3.925   1.682  29.647  0.2847  0.2187  0.0618
27469W        W34069   4.875   5.255  38.882  0.0906  0.0331  0.0413
27470W        W34070   6.860   5.475  31.326 -0.0723 -0.1352 -0.2241
27471W        W34071  17.773   4.393  15.827  0.0721 -0.0358 -0.1699
27472W        W34072  13.908   3.261  17.279  0.0040 -0.1523  0.1215
27473W        W34073   2.478   0.654  42.403  0.1257  0.0597  0.0769
27474W        W34074   9.868   3.742  43.990 -0.0177 -0.0118 -0.2346
27475W        W34075   6.289   1.101  39.633  0.0762  0.2694  0.1765
27476W        W34076  16.013   3.706  33.273  0.0054  0.1222 -0.0116
27477W        W34077  17.012   5.855  11.483 -0.1179 -0.3337  0.1902
27478W        W34078  13.719   1.132  11.266 -0.0368  0.5288 -0.2158
27479W        W34079  20.595   0.518  10.112  0.1997  0.0842 -0.0743
27480W        W34080   1.467   5.529  30.611 -0.0835 -0.1758 -0.1461
27481W        W34081   1.269   4.161  44.014 -0.0446  0.1919  0.0020
27482W        W34082  12.715   2.986   1.451 -0.1449 -0.1952  0.1176
27483W        W34083  10.591   2.034  33.437 -0.2860  0.2857 -0.0650
27484W        W34084   1.190   2.135   9.911 -0.0675  0.2338  0.0231
27485W        W34085  17.277   3.505   8.716 -0.1633 -0.0239 -0.3082
27486W        W34086  13.123   3.567  10.676 -0.1103 -0.3051  0.2436
27487W        W34087  10.531   2.422  29.273  0.0944 -0.0994 -0.1526
27488W        W34088  15.038   3.938   3.752 -0.2296 -0.1343 -0.0633
27489W        W34089  20.947   6.198  36.048 -0.0403 -0.0528 -0.0493
27490W        W34090   7.137   0.122  20.139  0.1425  0.0703 -0.2608
27491W        W34091  13.401   0.756   2.072 -0.0016  0.0928 -0.1131
27492W        W34092   6.085   1.194  11.657 -0.0581  0.1923 -0.0307
27493W        W34093  17.888   4.425  10.590  0.0628 -0.1384 -0.2935
27494W        W34094   7.857   1.148  19.940 -0.1060 -0.0461 -0.3320
27495W        W34095   4.367   2.874   2.767 -0.0457 -0.0623 -0.1726
27496W        W34096   0.439   1.767  11.266  0.1890 -0.2173 -0.0760
27497W        W34097  10.927   5.370  12.505  0.1507 -0.1485 -0.1207
27498W        W34098  19.291   4.983  42.106 -0.0663  0.0935  0.0624
27499W        W34099   6.451   4.179  14.409 -0.0213 -0.4435 -0.0614
27500W        W34100   7.277   3.216  20.562  0.0643 -0.1640  0.0455
27501W        W34101  12.976   0.864   4.834 -0.0009 -0.1139  0.2249
27502W        W34102  19.508   3.824  43.162  0.3272  0.1522  0.1887
27503W        W34103   0.993   1.098  16.529  0.0102  0.0561  0.0563
27504W        W34104  12.063   2.441  39.398  0.1487  0.2410 -0.1655
27505W        W34105   9.736   0.702  24.413  0.2602 -0.0356  0.4374
27506W        W34106   8.658   2.332  19.759 -0.0162 -0.0242 -0.0911
27507W        W34107   4.304   4.289   0.169  0.1289  0.1330 -0.0692
27508W        W34108   0.490   4.944  28.779 -0.2044  0.0679  0.0502
27509W        W34109  18.709   2.585  21.918  0.1789 -0.1247 -0.2994
27510W        W34110  20.509   3.891  39.853 -0.0997  0.0827  0.2303
27511W        W34111  16.946   2.755  13.331 -0.1126 -0.2439 -0.1520
27512W        W34112   6.897   0.300  12.450 -0.1286 -0.2393  0.0099
27513W        W34113  15.375   6.566   2.022  0.0322 -0.0853  0.0402
27514W        W34114   6.750   0.123  39.736 -0.1528 -0.2937 -0.3055
27515W        W34115   6.462   4.518  36.529  0.1352 -0.0705  0.3032
27516W        W34116  14.904   1.684   3.626 -0.0111 -0.0322  0.3181
27517W        W34117  13.387   4.793  30.018  0.0416 -0.1126  0.0529
27518W        W34118   1.598   4.716  10.813  0.0902  0.0675  0.0990
27519W        W34119   7.034   0.600   7.363 -0.1491  0.0180 -0.0534
27520W        W34120   3.670   0.567  35.476 -0.2820 -0.5494  0.0466
27521W        W34121   3.756   1.560  39.556 -0.1286 -0.1515  0.1499
27522W        W34122   7.229   1.202  14.962  0.1339 -0.0167  0.0393
27523W        W34123  15.614   0.628  15.473  0.0496  0.1223 -0.1053
27524W        W34124   6.848   4.746  19.095  0.3408 -0.0275  0.2728
27525W        W34125  14.761   0.905  16.137 -0.1150  0.0112 -0.1695
27526W        W34126   8.300   0.027  13.716 -0.2462 -0.0678  0.3303
27527W        W34127  12.352   0.947  21.034  0.0471  0.1893  0.1158
27528W        W34128   6.116   2.625  38.612  0.2032  0.2666  0.0580
27529W        W34129  11.079   3.777  20.730 -0.0047  0.1957 -0.0586
27530W        W34130   5.343   4.476  19.232 -0.2616  0.2192  0.2065
27531W        W34131  17.026   3.745  34.894  0.1241 -0.0423  0.0557
27532W        W34132   8.966   1.648   9.742 -0.3193 -0.3683 -0.1036
27533W        W34133   2.325   5.694  41.640  0.1598 -0.3030  0.1377
27534W        W34134  19.660   5.108  35.031  0.1727  0.1639  0.0249
27535W        W34135   6.535   0.464  30.351  0.1371 -0.0511 -0.2526
27536W        W34136  19.373   0.942  41.836 -0.1944  0.0617  0.0942
27537W        W34137   6.465   1.035  31.312  0.0921 -0.1203 -0.1616
27538W        W34138   9.204   1.080  12.114 -0.1040 -0.0462  0.0516
27539W        W34139   7.198   0.028  22.823  0.0505 -0.2323 -0.0251
27540W        W34140  18.569   5.831  10.143 -0.1966  0.0129  0.1617
27541W        W34141   5.780   4.480  35.002  0.0554  0.0376 -0.1052
27542W        W34142  19.306   0.990  42.826  0.0365  0.0093 -0.2962
27543W        W34143   1.059   3.100  41.068  0.1515  0.2220  0.1294
27544W        W34144  16.100   4.968   8.573 -0.1126 -0.0502 -0.0021
27545W        W34145  14.974   6.052  39.229 -0.4174 -0.2272 -0.0101
27546W        W34146  17.187   4.848   5.714  0.0294  0.1975  0.0580
27547W        W34147   1.532   0.443  34.884  0.0778  0.0272 -0.1561
27548W        W34148   5.431   4.528  11.127  0.1362 -0.0849  0.1759
27549W        W34149  14.578   6.514   9.634 -0.0526  0.0892 -0.1172
27550W        W34150   8.454   0.975  32.373  0.1275 -0.1448  0.2077
27551W        W34151  18.643   5.848  29.147  0.1132 -0.0732 -0.0001
27552W        W34152  19.541   3.783   0.684 -0.0937 -0.0828  0.1421
27553W        W34153  18.196   5.408  28.348  0.1968 -0.2256 -0.2389
27554W        W34154  20.010   5.378   1.929 -0.0330  0.0810  0.1216
27555W        W34155   8.395   3.006  16.273  0.0096  0.1215 -0.1867
27556W        W34156  11.711   5.022  31.394  0.0536 -0.1023 -0.1188
27557W        W34157  18.916   6.310  24.283 -0.0073 -0.0145  0.0372
27558W        W34158  20.262   3.358  24.683 -0.0476 -0.0826 -0.0739
27559W        W34159   9.639   3.144   3.859 -0.4546 -0.0875 -0.2041
27560W        W34160   2.289   3.270  33.355 -0.1410  0.3279  0.1929
27561W        W34161   3.970   5.375  17.704 -0.1882 -0.1252  0.1470
27562W        W34162  17.248   4.035   0.607  0.0070 -0.0246  0.2513
27563W        W34163   1.033   0.209   2.717 -0.0714 -0.2869  0.0159
27564W        W34164   7.992   2.848  36.773  0.2368 -0.0072 -0.3174
27565W        W34165  12.552   1.556  10.557 -0.0583  0.2579  0.1164
27566W        W34166   6.822   3.473  38.525 -0.1663 -0.3799 -0.0759
27567W        W34167  20.948   1.415  33.417  0.1940  0.2131 -0.2626
27568W        W34168  13.119   2.415  20.201  0.2490  0.1136  0.1450
27569W        W34169  16.223   5.084   1.773 -0.1879 -0.1343 -0.0047
27570W        W34170  10.913   3.905  32.232  0.0025 -0.2443 -0.1859
27571W        W34171   8.387   6.368   6.623 -0.6117 -0.1757 -0.1453
27572W        W34172   1.434   1.903   6.409 -0.1201  0.0469 -0.2296
27573W        W34173  17.118   5.213  35.765 -0.3083  0.2784 -0.0386
27574W        W34174   1.933   3.110  37.159 -0.0511  0.0895  0.0571
27575W        W34175   2.040   4.358  27.967 -0.1351  0.0029  0.1555
27576W        W34176   1.677   2.453   2.908  0.0327 -0.2513 -0.1040
27577W        W34177  16.553   3.555   8.517  0.2492 -0.1685  0.2646
27578W        W34178  15.388   5.743  30.460 -0.0237  0.0380  0.1474
27579W        W34179   1.133   0.049   8.234 -0.1789  0.1749  0.2521
27580W        W34180  10.017   0.159   0.102 -0.0582 -0.2182 -0.2152
27581W        W34181  10.671   5.536  18.084  0.0443  0.2325  0.0812
27582W        W34182   4.734   2.579   2.594  0.2111  0.0068 -0.0345
27583W        W34183   9.234   0.146  33.730 -0.1461 -0.5183  0.1231
27584W        W34184   0.951   0.001  28.561  0.0247  0.1569 -0.2300
27585W        W34185   7.678   5.357  32.662  0.2731 -0.0242 -0.1293
27586W        W34186   0.848   2.750  40.096  0.1867 -0.1908  0.4052
27587W        W34187  15.279   2.994  12.526 -0.1417 -0.1942  0.1920
27588W        W34188  17.330   1.218  16.141 -0.0202 -0.1134 -0.0940
27589W        W34189   6.936   4.063   5.201 -0.0217  0.5293  0.1950
27590W        W34190   1.807   2.712  16.011 -0.3136 -0.2107 -0.0433
27591W        W34191  19.693   3.139  32.399 -0.0394 -0.0579 -0.2425
27592W        W34192  19.178   0.027  44.985 -0.1450 -0.1674  0.1223
27593W        W34193  20.346   3.940   0.607 -0.0162 -0.0221 -0.2687
27594W        W34194   8.269   5.739  29.155  0.2696 -0.1048 -0.2213
27595W        W34195  17.861   5.015  30.109 -0.4506 -0.1775  0.2545
27596W        W34196  10.799   5.800  10.779 -0.1905  0.0015  0.1375
27597W        W34197  19.109   4.955   1.415 -0.1912  0.0305  0.1906
27598W        W34198  16.730   5.811  15.926  0.0990 -0.3421  0.0708
27599W        W34199  21.075   3.526   0.049 -0.2017 -0.2532  0.0255
27600W        W34200   3.537   3.638  14.212  0.2632 -0.2154 -0.2608
27601W        W34201  20.836   4.376   5.425 -0.1295  0.0032 -0.0897
27602W        W34202   7.536   0.385  32.931 -0.2746  0.2959  0.0825
27603W        W34203  12.548   2.937   3.301 -0.2215  0.2982  0.0938
27604W        W34204   2.434   4.027   7.019 -0.0663  0.1959 -0.0665
27605W        W34205   2.605   2.155  43.694  0.0366 -0.0761 -0.2711
27606W        W34206   0.573   1.061  33.715 -0.1502  0.0050 -0.1399
27607W        W34207   6.496   3.225   9.341  0.0438  0.0490 -0.0174
27608W        W34208   2.649   1.261  15.382 -0.1877 -0.0012 -0.0772
27609W        W34209   9.652   3.538  20.296 -0.0143  0.0574 -0.2127
27610W        W34210   4.501   5.121  27.492 -0.0725 -0.2091 -0.3104
27611W        W34211  13.728   2.401  14.913  0.0709  0.2938  0.0450
27612W        W34212  14.792   4.648  16.193 -0.1722  0.1526  0.2907
27613W        W34213   9.874   4.137  14.697  0.1620  0.1218  0.0064
27614W        W34214   6.816   6.226  14.226  0.0641 -0.0722  0.0508
27615W        W34215   6.158   4.477  32.074  0.1185  0.1096  0.1141
27616W        W34216  11.116   3.891  30.030  0.1099 -0.1235  0.1590
27617W        W34217   0.374   1.328   6.086  0.2922  0.0156 -0.0276
27618W        W34218  10.118   0.807   0.948  0.0959  0.1189  0.0589
27619W        W34219  19.841   4.493  44.436 -0.0267  0.2715  0.2452
27620W        W34220   9.678   4.120  16.802  0.1846  0.1283  0.2823
27621W        W34221   1.222   4.967   3.614 -0.1933  0.2627 -0.0280
27622W        W34222  14.612   2.398  12.855  0.0014 -0.6418 -0.0311
27623W        W34223  13.223   5.270  19.516  0.1395 -0.0601  0.1120
27624W        W34224  11.733   1.640  10.510  0.0851  0.1318  0.0763
27625W        W34225  10.024   6.272  16.504 -0.0077 -0.1492  0.0034
27626W        W34226   3.474   4.757  12.896 -0.0436 -0.2144  0.0733
27627W        W34227   0.622   6.464   3.419 -0.1013  0.0942  0.0503
27628W        W34228   8.121   2.319  13.442  0.1905 -0.4375 -0.1345
27629W        W34229  10.673   2.374  14.381 -0.4790  0.0201 -0.0847
27630W        W34230  11.439   5.835  39.661 -0.0506 -0.2103  0.3211
27631W        W34231  19.134   6.375  35.884  0.3604  0.1168 -0.2610
27632W        W34232  19.762   0.678  21.068  0.3016 -0.0713 -0.4490
27633W        W34233  20.310   5.173  24.973 -0.0123 -0.0447 -0.1847
27634W        W34234  11.440   0.511  21.132 -0.2333 -0.2938  0.0190
27635W        W34235   6.024   4.713   3.292 -0.1139 -0.0275  0.0718
27636W        W34236   9.438   4.083  41.546  0.0127 -0.1332  0.0767
27637W        W34237  20.977   5.235  39.346  0.0400 -0.1484  0.0803
27638W        W34238   7.649   2.398  30.107  0.0868  0.0293  0.1594
27639W        W34239  19.259   1.421  41.667 -0.1671  0.0321  0.1924
27640W        W34240  12.046   0.500  27.911 -0.0314 -0.1266 -0.0142
27641W        W34241  17.684   4.954  28.815 -0.2008  0.0431  0.0419
27642W        W34242  12.056   4.154  30.881 -0.2343 -0.0665  0.0752
27643W        W34243   3.302   0.576   4.058  0.2095  0.0771 -0.1551
27644W        W34244   6.700   0.303   2.763  0.0891 -0.1408  0.2110
27645W        W34245  10.471   1.025  36.159 -0.1531 -0.1058  0.2888
27646W        W34246   0.507   4.805  35.600 -0.1612  0.0422 -0.1330
27647W        W34247   3.340   2.947   3.023 -0.1624 -0.0106  0.0489
27648W        W34248   2.292   1.765  38.555 -0.0318  0.0235  0.1279
27649W        W34249  12.742   5.725  34.383  0.0174  0.2779  0.3814
27650W        W34250  12.475   3.924   4.556  0.0659  0.2919  0.2090
27651W        W34251   7.293   3.044   6.784 -0.0373  0.2531  0.0248
27652W        W34252   9.972   0.852  42.015  0.0413 -0.1617 -0.0898
27653W        W34253   5.196   3.516  17.820  0.0549 -0.0536 -0.0449
27654W        W34254   1.418   2.087  37.371 -0.3049 -0.1177  0.5170
27655W        W34255  19.802   4.914  31.154 -0.1105  0.3652 -0.0035
27656W        W34256   0.756   0.843   9.800  0.1124 -0.1941 -0.0881
27657W        W34257  14.582   0.516  35.087  0.0456 -0.0185  0.2679
27658W        W34258  16.403   0.553  14.277  0.1118 -0.1386 -0.0757
27659W        W34259  17.311   6.159   5.333  0.0697 -0.2997  0.3585
27660W        W34260  12.336   3.444  30.263 -0.0548 -0.0705  0.1365
27661W        W34261  14.590   1.603  38.046 -0.1691 -0.1766  0.3546
27662W        W34262  12.313   2.206  32.261 -0.1956  0.4595 -0.1219
27663W        W34263  16.944   1.858  27.477  0.2714 -0.1981 -0.4566
27664W        W34264   9.289   0.166  38.069 -0.3855 -0.1357  0.0263
27665W        W34265  15.960   5.050   7.490  0.0716  0.1941 -0.0445
27666W        W34266  16.046   0.336  25.795  0.1868 -0.0560  0.2343
27667W        W34267  16.938   2.304  29.950 -0.0884 -0.2908 -0.3999
27668W        W34268   1.612   2.917  43.884  0.0670 -0.0485 -0.2260
27669W        W34269  20.263   0.960  38.100  0.4726  0.0602  0.2227
27670W        W34270  10.660   2.739   4.940 -0.2503  0.3202 -0.2070
27671W        W34271  17.710   0.614   3.721  0.1110  0.1639  0.2239
27672W        W34272  12.773   1.270  43.821 -0.1417 -0.1763  0.0948
27673W        W34273   2.476   4.731  24.256  0.0435  0.0367  0.0118
27674W        W34274   4.466   4.669  38.191  0.0896 -0.2134  0.1789
27675W        W34275   3.130   3.654  39.930  0.0344 -0.0383  0.1489
27676W        W34276   7.825   3.315  39.604  0.0233 -0.2314  0.3655
27677W        W34277  20.271   6.361  25.383 -0.0574 -0.1147  0.0698
27678W        W34278  15.593   0.321   2.925  0.1574  0.0687  0.1676
27679W        W34279  11.062   5.466  21.112 -0.5432 -0.3865 -0.1556
27680W        W34280   4.986   0.170  13.680  0.1862  0.4257 -0.0789
27681W        W34281   5.785   3.102  40.035 -0.0945  0.1697 -0.0631
27682W        W34282   7.150   3.887  41.919 -0.0205  0.1680  0.0754
27683W        W34283  18.321   0.348   5.125  0.1681 -0.1952  0.0672
27684W        W34284   6.250   2.223  34.105  0.2495  0.0637 -0.2006
27685W        W34285  14.271   0.753  43.754  0.2441  0.0553 -0.1576
27686W        W34286   2.917   0.325  41.798 -0.2989 -0.1016 -0.5012
27687W        W34287  15.178   3.416   8.509 -0.0911 -0.3174 -0.0121
27688W        W34288   8.152   2.609   3.342  0.0442 -0.1349  0.1580
27689W        W34289  12.027   3.938   5.940  0.1642  0.1769  0.0552
27690W        W34290   6.001   6.262  31.605 -0.1779  0.2293 -0.1570
27691W        W34291  18.050   5.637  22.220  0.1447  0.1941  0.0144
27692W        W34292  13.725   3.643  17.511 -0.1141  0.0706 -0.3313
27693W        W34293  15.198   6.281  11.231  0.0000 -0.2164  0.0812
27694W        W34294  19.323   2.258  19.286  0.0257 -0.0358 -0.0097
27695W        W34295  15.655   4.525  40.465 -0.4778  0.3318 -0.0719
27696W        W34296  12.477   2.596  29.499 -0.1177 -0.0599 -0.2542
27697W        W34297   9.776   3.158  43.929 -0.0670 -0.2297  0.0301
27698W        W34298  13.369   0.828   8.178  0.0064 -0.0661  0.2957
27699W        W34299   6.170   5.918  40.890  0.0902  0.2331 -0.0143
27700W        W34300  18.195   3.450   3.128 -0.0169  0.3112 -0.1052
27701W        W34301  20.294   1.870  27.950 -0.0889 -0.0819 -0.2340
27702W        W34302   4.608   5.960  29.202 -0.1399  0.2446  0.0410
27703W        W34303  13.658   1.133  13.106  0.1450  0.1171  0.1178
27704W        W34304   4.770   3.377   6.672 -0.1686  0.0050 -0.0490
27705W        W34305  15.743   6.411   8.608 -0.1319  0.1825 -0.1499
27706W        W34306  11.197   2.817  36.973  0.1708 -0.0080  0.0322
27707W        W34307   3.100   4.000  29.793 -0.4012  0.0158 -0.1323
27708W        W34308   6.289   4.122  30.052  0.0588 -0.2116 -0.0021
27709W        W34309  17.654   3.750   6.490 -0.2370 -0.0022  0.0316
27710W        W34310   7.731   4.583  39.935  0.0026  0.0359 -0.3450
27711W        W34311   9.034   2.627  15.401  0.0976  0.0748 -0.2098
27712W        W34312   2.815   3.376  34.080 -0.0961 -0.0086  0.0223
27713W        W34313   7.886   5.396  15.961  0.0876 -0.0892 -0.2803
27714W        W34314  12.103   3.625  39.865  0.5578 -0.0667  0.0309
27715W        W34315  13.186   5.273  30.017  0.3107 -0.1444 -0.2308
27716W        W34316   2.744   5.677  13.778 -0.0153 -0.0838 -0.0489
27717W        W34317   4.005   0.715  42.458 -0.3379  0.2078  0.0059
27718W        W34318   2.175   2.081  16.550 -0.1359 -0.1007 -0.0294
27719W        W34319  18.980   1.725   0.964 -0.0645 -0.2173 -0.3520
27720W        W34320  11.219   4.504  32.693  0.0346  0.0462 -0.1598
27721W        W34321   5.463   4.786  41.798 -0.0429  0.3277  0.0472
27722W        W34322   4.062   1.644   9.181  0.0752 -0.0797  0.0452
27723W        W34323   4.312   0.515  37.123  0.1090 -0.0361 -0.2896
27724W        W34324   2.654   2.488   1.116 -0.3233  0.0297 -0.0319
27725W        W34325  17.394   6.100   5.913  0.0165  0.0811 -0.1347
27726W        W34326  20.786   0.005  34.167 -0.2969 -0.0846  0.2372
27727W        W34327  11.687   4.852   9.332 -0.2590 -0.3255 -0.1331
27728W        W34328  11.217   4.200   1.994 -0.2551 -0.0153  0.2003
27729W        W34329  13.399   3.817  10.219  0.0278  0.1173 -0.0496
27730W        W34330   5.699   6.135  34.135  0.0370  0.0764  0.2864
27731W        W34331   0.805   4.353  26.521  0.0482 -0.0990 -0.1111
27732W        W34332   5.659   3.137  37.993 -0.0411  0.1085  0.3799
27733W        W34333  20.126   3.874  29.427  0.1226  0.0753  0.1970
27734W        W34334  18.739   1.573  40.187 -0.1020  0.1535  0.0366
27735W        W34335  13.399   4.331  30.228  0.6728 -0.2164  0.3581
27736W        W34336  20.278   5.032  36.332  0.2327 -0.1399  0.1403
27737W        W34337  18.377   1.030  39.399  0.1714  0.1564 -0.0050
27738W        W34338   6.923   0.763   6.552  0.0455 -0.3140  0.0736
27739W        W34339  12.541   3.415  43.940 -0.1659  0.2270 -0.0219
27740W        W34340   6.239   1.281  44.222 -0.2215  0.1114  0.1924
27741W        W34341  19.443   2.285  11.043 -0.0298  0.0534 -0.2670
27742W        W34342   7.160   1.966  30.700 -0.0647  0.2499  0.0254
27743W        W34343  14.375   4.880  18.729 -0.2130  0.1737 -0.0212
27744W        W34344  12.538   3.219  37.654 -0.2286 -0.0265  0.1131
27745W        W34345   6.348   4.939  37.500 -0.0374 -0.3702 -0.1375
27746W        W34346   8.176   5.705  31.918  0.1034  0.1479 -0.1103
27747W        W34347   4.552   0.357  35.827  0.2273  0.0193 -0.3221
27748W        W34348   6.175   3.448  29.518 -0.0426  0.1523  0.0219
27749W        W34349  10.145   2.430  24.992 -0.0913 -0.1149 -0.3281
27750W        W34350   1.306   0.136  15.452 -0.1130 -0.1553 -0.0564
27751W        W34351  16.075   3.593   5.165  0.0145  0.1598 -0.1523
27752W        W34352   7.894   4.409  22.385 -0.3355 -0.0269  0.0793
27753W        W34353   7.123   2.125   8.972  0.3395  0.0213 -0.0539
27754W        W34354  13.312   5.324  29.429  0.1642 -0.1202  0.1091
27755W        W34355   2.573   6.226  36.578  0.0236 -0.2781  0.1788
27756W        W34356   3.786   1.009  44.844 -0.0880 -0.3270 -0.3330
27757W        W34357  12.460   4.575  33.979 -0.0360  0.1927 -0.1107
27758W        W34358   2.563   4.061  41.891  0.3328  0.1215 -0.1194
27759W        W34359   6.231   0.192   4.294 -0.0628  0.2004 -0.0964
27760W        W34360   5.039   1.791  36.847  0.0586  0.0750  0.1164
27761W        W34361  20.487   3.864  12.162 -0.3517  0.1198 -0.0796
27762W        W34362   6.408   6.017  42.547  0.0992  0.3284 -0.1557
27763W        W34363   5.997   1.648  15.980 -0.1967  0.2159 -0.0111
27764W        W34364   6.069   5.999   4.365  0.0915 -0.2920  0.2035
27765W        W34365  15.411   3.443   4.425  0.2652  0.0766 -0.2164
27766W        W34366  10.153   4.420  23.945  0.1549 -0.0364 -0.2763
27767W        W34367  19.382   2.737   6.874  0.0918 -0.0903  0.0711
27768W        W34368   7.457   4.907  38.797 -0.1218  0.1364 -0.1736
27769W        W34369   2.653   2.452  42.220 -0.1635  0.1213  0.2740
27770W        W34370  18.756   0.308  44.810 -0.3950 -0.0198  0.2940
27771W        W34371   4.382   0.959   1.882  0.0554  0.1577  0.1557
27772W        W34372  20.945   2.819  31.958 -0.3317  0.0112 -0.1837
27773W        W34373   9.102   1.800  17.739  0.0633  0.5152  0.2010
27774W        W34374  16.244   1.390  37.492 -0.0162  0.1879 -0.0035
27775W        W34375  20.263   5.105  40.283 -0.0211 -0.2756  0.2621
27776W        W34376   9.503   4.706  42.424 -0.0891  0.1100 -0.1181
27777W        W34377  20.082   4.036  20.734  0.1454 -0.0209 -0.2266
27778W        W34378   5.570   2.246  29.771 -0.1152 -0.0935 -0.0113
27779W        W34379   7.575   2.988  15.056  0.0296 -0.3780 -0.3928
27780W        W34380  16.132   5.456  12.116  0.2423 -0.1394  0.1653
27781W        W34381  11.537   4.702  14.403  0.1531 -0.1379 -0.2291
27782W        W34382   1.144   2.517   3.159 -0.1710  0.1230  0.0134
27783W        W34383   1.470   5.408  36.141  0.2348 -0.3022 -0.0657
27784W        W34384   5.243   5.076  34.410  0.1262 -0.1742  0.1080
27785W        W34385  15.529   3.278  38.530  0.0667  0.3538  0.2455
27786W        W34386   3.230   2.320  13.931 -0.0836  0.0467  0.1977
27787W        W34387  12.778   0.280  17.468  0.2472 -0.2990  0.0464
27788W        W34388  16.756   4.193  39.268 -0.1773  0.1775  0.0113
27789W        W34389  16.896   2.503  15.051 -0.0043 -0.0535 -0.0448
27790W        W34390   7.673   2.101  30.536 -0.2667  0.0485 -0.1376
27791W        W34391  11.964   0.471   6.426 -0.2726 -0.0989 -0.0519
27792W        W34392  10.014   1.069   4.428  0.2561 -0.0984 -0.2726
27793W        W34393  21.096   0.394   6.935 -0.1677 -0.0458 -0.2806
27794W        W34394  10.382   0.804   1.579 -0.0337 -0.0892  0.0119
27795W        W34395  18.375   0.059  10.831 -0.4616  0.0104  0.0374
27796W        W34396   6.120   1.788  29.142 -0.0677  0.1730  0.0617
27797W        W34397  18.288   1.523  12.035 -0.0168  0.3998 -0.0601
27798W        W34398  19.525   1.153  33.088 -0.2685  0.2449 -0.1740
27799W        W34399  19.136   1.022  39.120  0.2524 -0.0398 -0.2047
27800W        W34400   7.252   3.074  13.364  0.0526 -0.1642  0.0366
27801W        W34401   6.847   4.347  44.239 -0.0912 -0.3824 -0.0085
27802W        W34402  12.716   0.640  44.552  0.0452  0.0172 -0.0243
27803W        W34403   1.441   1.281  31.050  0.0528  0.1633 -0.0913
27804W        W34404  10.883   4.775  36.780  0.1436  0.4302 -0.0407
27805W        W34405  20.725   3.614   0.428 -0.0501  0.0605 -0.5096
27806W        W34406   0.406   6.360  32.898  0.0380 -0.0649  0.3216
27807W        W34407  19.453   1.067  37.132 -0.1838 -0.0216 -0.1401
27808W        W34408   4.829   0.453  28.261 -0.2465  0.1344 -0.1671
27809W        W34409  20.151   5.780  21.684 -0.0281  0.0508  0.2013
27810W        W34410   6.698   0.923  30.445 -0.4347  0.0396  0.0575
27811W        W34411  11.457   2.628  29.216 -0.0667 -0.4248 -0.0408
27812W        W34412   9.613   3.284  40.164 -0.1894  0.3840  0.0137
27813W        W34413  18.696   1.911  36.308  0.0098 -0.0975  0.1287
27814W        W34414   4.612   1.699  41.962  0.1917  0.2791  0.1978
27815W        W34415   2.561   6.211  29.671 -0.0362 -0.2375 -0.1496
27816W        W34416   6.078   2.037   6.478  0.1442  0.1802 -0.0929
27817W        W34417  10.774   0.847  16.105 -0.0518  0.0941 -0.0303
27818W        W34418   9.095   2.989   3.208  0.2495 -0.1854  0.1557
27819W        W34419   4.490   1.476  32.499  0.0593  0.0024 -0.0985
27820W        W34420  18.817   3.056  30.172 -0.0847  0.1499  0.1706
27821W        W34421   7.974   4.031   8.670  0.0005  0.1056  0.0822
27822W        W34422  12.475   3.591   9.340  0.1579 -0.2486  0.2330
27823W        W34423  15.608   4.327  27.209 -0.0178  0.0534 -0.2669
27824W        W34424  17.575   1.918  25.547  0.2237  0.0385  0.0413
27825W        W34425  13.321   2.712  40.138  0.2179  0.2993  0.1024
27826W        W34426  19.849   2.266  37.857  0.1080 -0.2342 -0.0924
27827W        W34427   6.736   2.879  37.418 -0.0302 -0.0901 -0.1370
27828W        W34428  10.023   3.112  44.687  0.0664 -0.4035  0.2502
27829W        W34429   2.703   4.552  10.190  0.4686 -0.0347  0.1275
27830W        W34430   8.447   4.287  17.189  0.1094 -0.0673  0.0851
27831W        W34431  17.512   3.197  11.066 -0.2308 -0.0548  0.0120
27832W        W34432   8.272   2.356  34.251  0.3663  0.0075  0.0814
27833W        W34433  12.300   2.807  42.076 -0.1935  0.0994 -0.0422
27834W        W34434  10.892   3.673  11.904 -0.1353  0.1464  0.2098
27835W        W34435  19.884   1.710  40.844 -0.0530 -0.4991  0.2117
27836W        W34436   0.506   2.457   0.218 -0.2063 -0.0337  0.0097
27837W        W34437  15.933   0.954   3.870 -0.0028 -0.1746 -0.0918
27838W        W34438   1.401   6.589  28.731 -0.0637 -0.1366 -0.0480
27839W        W34439  19.541   5.348  13.702  0.3137 -0.1407  0.0637
27840W        W34440   7.773   2.849  31.269  0.0035  0.1169  0.1001
27841W        W34441  11.970   5.550  11.985  0.1217  0.2206  0.1040
27842W        W34442  18.661   5.251   2.665  0.0407 -0.0930 -0.0880
27843W        W34443   5.418   4.677  28.912 -0.0688 -0.5161 -0.0398
27844W        W34444   4.102   3.670   6.215  0.0335 -0.1883  0.2996
27845W        W34445  17.205   2.155  15.838  0.1098 -0.1288 -0.1008
27846W        W34446   6.813   2.319   1.973 -0.0659 -0.1688  0.0756
27847W        W34447  18.687   5.771  14.733  0.1807  0.1938  0.0456
27848W        W34448   2.292   1.979  11.346 -0.4051 -0.0598 -0.0710
27849W        W34449   5.119   6.374   4.505 -0.3012  0.0884 -0.1673
27850W        W34450  15.002   3.690  16.432 -0.1362  0.0680  0.1431
27851W        W34451  16.847   4.310  24.813  0.0524  0.1038  0.1133
27852W        W34452  11.873   6.322  17.379  0.1856 -0.0791 -0.1775
27853W        W34453   9.857   4.875  30.554 -0.0195 -0.1530 -0.2481
27854W        W34454   7.000   1.330  43.219 -0.2434 -0.0633  0.0721
27855W        W34455  20.947   4.278  13.954  0.0889 -0.1652  0.3756
27856W        W34456   7.604   5.720  16.154 -0.1238 -0.1371 -0.2574
27857W        W34457  13.014   4.062   4.677  0.2091 -0.1110  0.3640
27858W        W34458  15.119   2.437  12.145  0.3146 -0.0873  0.3302
27859W        W34459  10.855   6.020  16.810  0.0891  0.0789  0.0354
27860W        W34460   3.558   6.348  12.156 -0.1932 -0.0743 -0.2397
27861W        W34461   8.018   0.364  42.663 -0.1303  0.1451  0.2703
27862W        W34462   5.998   3.178  12.871 -0.2977  0.2939  0.1477
27863W        W34463   3.145   1.147  39.052 -0.3292  0.0769 -0.3172
27864W        W34464   0.967   3.875  23.631 -0.2034  0.0275  0.2425
27865W        W34465   0.428   5.338  29.510 -0.3223  0.1073  0.0675
27866W        W34466  20.331   2.862  38.343 -0.2096  0.1054  0.0730
27867W        W34467  19.138   4.666  24.797 -0.2464  0.0263  0.1447
27868W        W34468  15.546   4.007  43.101 -0.0771 -0.1244  0.1162
27869W        W34469  20.022   4.838  41.977 -0.2042 -0.1851  0.1962
27870W        W34470  13.161   2.113  14.348 -0.1262 -0.0954  0.0575
27871W        W34471   5.557   0.270  40.347  0.0896  0.0387  0.2027
27872W        W34472   8.809   1.697  17.254 -0.0750 -0.1076  0.0598
27873W        W34473   5.240   1.915  43.900 -0.1289 -0.1861  0.0457
27874W        W34474  10.570   5.308   6.355  0.1541  0.0251 -0.0090
27875W        W34475   6.829   2.473  34.772  0.2438  0.1737  0.0592
27876W        W34476   6.894   3.589  37.124 -0.2836 -0.1489 -0.0121
27877W        W34477  13.715   3.361  12.772 -0.1436  0.0189  0.1121
27878W        W34478  20.367   4.849  27.751 -0.0097 -0.1034 -0.0853
27879W        W34479  19.940   4.135  27.190 -0.0964  0.3956  0.3678
27880W        W34480   5.410   1.356   6.785  0.0989 -0.0250 -0.0193
27881W        W34481   3.756   5.509   4.406  0.2426 -0.2678  0.0280
27882W        W34482   5.413   6.163  18.398 -0.0349 -0.0724  0.2331
27883W        W34483  10.709   4.766   5.722  0.1465  0.1498 -0.5000
27884W        W34484   6.929   2.482   5.540 -0.1753  0.0298  0.0201
27885W        W34485  18.093   3.844  31.031 -0.0263  0.1428 -0.0302
27886W        W34486  11.971   5.205  42.791  0.2341 -0.1695  0.1776
27887W        W34487  20.410   4.070  43.423 -0.0794 -0.1515  0.4189
27888W        W34488  17.003   2.550  40.782  0.1394 -0.1358  0.3336
27889W        W34489  13.719   4.938  13.300  0.2332 -0.1078 -0.1473
27890W        W34490  12.858   2.240  19.811 -0.2515  0.0415  0.0499
27891W        W34491   5.616   1.153  36.006  0.0588 -0.0093  0.1859
27892W        W34492   9.706   4.404  32.507 -0.1183 -0.2333 -0.1489
27893W        W34493  18.199   6.366  43.596 -0.0998 -0.0372  0.4618
27894W        W34494   8.597   6.552  41.449  0.2545 -0.0111  0.1435
27895W        W34495  20.531   3.984   8.683  0.2609 -0.0063  0.0490
27896W        W34496  10.959   3.674  16.088 -0.3442  0.0033 -0.0125
27897W        W34497  19.885   2.210  21.520  0.0141 -0.1204 -0.0434
27898W        W34498  11.591   0.528   9.504  0.1387  0.2320  0.1863
27899W        W34499  10.482   2.970  16.508  0.0370  0.0917 -0.3257
27900W        W34500   0.658   0.190   8.354 -0.2015  0.1615 -0.2463
27901W        W34501   2.847   1.639   7.415  0.0306  0.0243 -0.2072
27902W        W34502   1.625   3.696   3.846  0.0607  0.2728  0.2578
27903W        W34503   4.907   3.009  16.525 -0.1171 -0.1158 -0.1230
27904W        W34504   7.634   0.456  11.806 -0.0951 -0.0442  0.4546
27905W        W34505  16.599   1.243   8.245 -0.0064 -0.0774  0.3294
27906W        W34506   3.915   6.150  18.404  0.1792  0.1109 -0.0226
27907W        W34507   5.363   6.233  39.747  0.0705  0.0978  0.1115
27908W        W34508  10.591   1.514  14.008  0.0197  0.1276 -0.3065
27909W        W34509  19.959   4.419  37.750  0.0746  0.2006  0.0438
27910W        W34510   7.684   5.717   8.580 -0.0045 -0.1506  0.0287
27911W        W34511   7.886   5.516  40.601 -0.3136  0.1318 -0.3816
27912W        W34512  15.761   5.729  39.613 -0.1298  0.1394  0.0825
27913W        W34513  10.269   0.740  41.462  0.1006 -0.1850 -0.1281
27914W        W34514   8.710   1.967   7.652  0.0556  0.1666  0.1807
27915W        W34515   3.272   2.844  42.710 -0.0550  0.0029  0.2720
27916W        W34516  14.932   1.583  11.174  0.4268 -0.2010 -0.1812
27917W        W34517  20.655   2.853  10.601 -0.2108  0.1800 -0.0134
27918W        W34518  20.032   2.844   5.185 -0.1806 -0.2379 -0.2207
27919W        W34519  14.016   2.581  13.152  0.1218  0.2603  0.0583
27920W        W34520   1.622   1.077  43.385  0.0937 -0.0060 -0.1461
27921W        W34521  20.922   1.604   6.478  0.1533  0.1336  0.0405
27922W        W34522  20.144   6.352  31.398  0.3643  0.2127 -0.2755
27923W        W34523  13.768   2.853   9.207 -0.0892 -0.1039 -0.0457
27924W        W34524  10.435   4.046  21.427  0.0431  0.2029  0.0011
27925W        W34525   9.876   4.099  34.604  0.2628 -0.1495  0.2495
27926W        W34526   7.953   2.185  35.680  0.1354  0.2566  0.1040
27927W        W34527  15.331   4.612  16.534  0.1695  0.1389  0.0085
27928W        W34528  18.692   1.782   0.444 -0.1360  0.1452 -0.0719
27929W        W34529   2.185   5.724   0.849  0.2713  0.1596  0.1535
27930W        W34530  10.034   3.647  22.722  0.0027 -0.2312  0.2035
27931W        W34531  12.120   3.319  16.081 -0.0134  0.0875 -0.1390
27932W        W34532  14.475   3.877  35.723 -0.0354  0.0570  0.2117
27933W        W34533  20.959   1.988   1.268 -0.0505  0.0399 -0.3108
27934W        W34534  18.293   4.723   9.506  0.3664  0.0961  0.0933
27935W        W34535   9.781   0.503   2.748 -0.0682  0.1103 -0.1798
27936W        W34536  15.574   6.287  37.258 -0.0331  0.0970  0.2667
27937W        W34537   9.029   6.601  24.486  0.2389 -0.0680  0.4678
27938W        W34538  10.752   6.058  29.763 -0.0420  0.1449  0.1208
27939W        W34539   5.593   1.990  39.996  0.0374  0.4521  0.3104
27940W        W34540   7.755   2.760   5.350  0.1379 -0.3740  0.0391
27941W        W34541   5.866   0.265  29.893  0.1227  0.1129  0.0861
27942W        W34542   4.103   1.672  34.301  0.0464 -0.0921  0.2049
27943W        W34543   8.298   1.783   9.314 -0.1058 -0.1393  0.1667
27944W        W34544   4.586   0.108   1.995 -0.2488 -0.1357 -0.0487
27945W        W34545   7.463   0.514   8.112 -0.1008 -0.3369 -0.1416
27946W        W34546  19.645   5.357  34.619 -0.1635  0.1442  0.3176
27947W        W34547  20.086   0.420  35.963  0.0908  0.0930 -0.0795
27948W        W34548   4.546   2.689  12.039 -0.0127 -0.3979  0.1978
27949W        W34549   4.808   1.041  39.173 -0.0210 -0.0688 -0.0790
27950W        W34550   4.617   0.911  27.102 -0.1297 -0.0063 -0.0707
27951W        W34551  10.348   3.770   4.249  0.1978 -0.0451 -0.0178
27952W        W34552   6.246   6.143  19.537 -0.0498  0.1795  0.2359
27953W        W34553   8.103   5.493  35.961 -0.0392  0.2059  0.1815
27954W        W34554  10.595   5.411  25.240 -0.1221  0.0373  0.4244
27955W        W34555   6.479   4.017  15.281 -0.0565 -0.1554  0.0394
27956W        W34556  19.070   5.878   0.050  0.2699 -0.0437 -0.1039
27957W        W34557  21.070   3.196  35.073  0.0541 -0.2491  0.0598
27958W        W34558   2.154   2.393  44.442  0.0792  0.0226 -0.0542
27959W        W34559   6.555   5.012  12.304  0.1628  0.1928  0.1124
27960W        W34560  17.724   4.372  15.288 -0.0229  0.2263  0.0121
27961W        W34561   0.084   2.099   2.822  0.0498  0.1296 -0.0821
27962W        W34562   8.290   2.566  12.117  0.0772 -0.4638 -0.2045
27963W        W34563  15.083   1.482  11.723 -0.2379 -0.0673 -0.1071
27964W        W34564  18.416   2.809  14.254 -0.1737 -0.0239  0.0439
27965W        W34565   7.665   5.936  43.773 -0.6461  0.0412  0.0546
27966W        W34566  20.870   5.478   8.534 -0.0484 -0.1164 -0.1076
27967W        W34567   4.994   2.209   5.324  0.1163 -0.4254  0.0037
27968W        W34568  13.415   1.379   2.047  0.0301 -0.0570  0.1723
27969W        W34569  13.522   6.285   6.153  0.0106  0.0014  0.0298
27970W        W34570   8.193   4.680  39.065  0.0637 -0.0370 -0.2708
27971W        W34571  21.029   1.665  28.209  0.0869 -0.0764  0.0409
27972W        W34572  17.589   2.407  34.342  0.2551  0.0096 -0.0899
27973W        W34573  16.499   1.584   6.327 -0.1476 -0.0272  0.1422
27974W        W34574  18.902   3.288  26.032 -0.0274 -0.2416  0.1115
27975W        W34575  10.532   2.839  40.795 -0.2027  0.1074 -0.0350
27976W        W34576   4.971   4.850  36.615 -0.2060  0.1350 -0.4485
27977W        W34577   6.063   5.718   7.485 -0.2368  0.4832 -0.1750
27978W        W34578   1.752   5.811  12.206 -0.2797 -0.3728 -0.2800
27979W        W34579   4.449   6.305   1.120 -0.0150 -0.0513 -0.0706
27980W        W34580  12.261   1.577   2.817 -0.2769 -0.1654  0.1225
27981W        W34581  13.478   2.013   7.787  0.2400 -0.3907 -0.3253
27982W        W34582  18.083   0.571  10.172 -0.0830 -0.1257 -0.1794
27983W        W34583   0.622   5.714   1.626 -0.0990  0.0188  0.0387
27984W        W34584  13.866   0.014  28.303  0.0442  0.0361 -0.0094
27985W        W34585  21.122   0.633  15.306  0.1875 -0.2784 -0.0471
27986W        W34586   2.831   3.775   1.867  0.1533 -0.3853  0.1811
27987W        W34587  13.471   3.127  15.626 -0.1114 -0.0014 -0.0675
27988W        W34588  17.298   5.662   9.228  0.1348  0.0355  0.2692
27989W        W34589   1.726   3.220  24.822  0.0841  0.0192  0.1951
27990W        W34590   7.669   3.483  33.458  0.1397 -0.1277  0.0006
27991W        W34591  11.267   3.306  28.597  0.1012  0.0483 -0.0402
27992W        W34592   1.356   3.282  14.840  0.3051  0.2239 -0.1093
27993W        W34593  10.658   4.354  32.079  0.1347  0.3811  0.0466
27994W        W34594   3.213   3.530   2.815 -0.0151 -0.2684  0.0524
27995W        W34595  19.299   0.021  26.069  0.1355 -0.1554 -0.3178
27996W        W34596   1.301   5.601  32.343 -0.1091  0.0392 -0.2482
27997W        W34597  16.623   1.065  44.659  0.1252  0.1814  0.0662
27998W        W34598   0.817   0.428  28.248  0.0314 -0.2481  0.0325
27999W        W34599   0.994   6.459   1.831 -0.0063  0.3702  0.0143
28000W        W34600   1.649   5.213  40.786 -0.1256  0.0373 -0.1396
28001W        W34601   2.501   0.782  41.331  0.0686  0.1138 -0.2083
28002W        W34602   3.985   4.728  15.831  0.1225 -0.1046 -0.0706
28003W        W34603   0.142   5.330  10.814  0.1372  0.1734 -0.0685
28004W        W34604  15.618   0.189  35.607 -0.3628  0.0127  0.0407
28005W        W34605   2.791   3.652   8.497 -0.3737 -0.2446  0.0465
28006W        W34606   2.238   5.254  31.193  0.1526  0.2211  0.3822
28007W        W34607   7.116   3.036  29.844 -0.2648  0.0115 -0.0963
28008W        W34608   2.102   2.873  24.825 -0.1098 -0.0265  0.0106
28009W        W34609  15.244   2.683  41.231 -0.2683  0.0785 -0.2220
28010W        W34610  10.074   1.253  17.598  0.2182  0.1035 -0.0397
28011W        W34611  14.481   3.177  37.170 -0.0006  0.4058  0.1984
28012W        W34612  10.536   1.724  37.340  0.3414  0.0661 -0.1107
28013W        W34613   4.569   5.878   1.790 -0.0890  0.1554  0.0632
28014W        W34614   9.052   4.381  17.333  0.0440 -0.1600 -0.3140
28015W        W34615   0.577   1.383   1.735  0.3855 -0.1075 -0.0787
28016W        W34616   5.320   1.613  11.695  0.0507  0.1104 -0.3511
28017W        W34617   6.930   4.021  40.132  0.0631  0.1104  0.0343
28018W        W34618   9.711   0.109   1.461 -0.2155  0.0369 -0.0824
28019W        W34619   3.164   0.195   9.250 -0.0582 -0.0940 -0.0135
28020W        W34620   8.268   2.300  18.580 -0.1409  0.0051  0.0312
28021W        W34621  10.660   0.295  21.723  0.0688  0.1154 -0.0758
28022W        W34622  10.174   4.170  22.572  0.2961 -0.0344 -0.0585
28023W        W34623  18.676   3.209   9.770  0.0838 -0.1359 -0.0789
28024W        W34624  16.504   1.359  35.146 -0.2787 -0.0207 -0.0091
28025W        W34625   2.162   4.488  27.372 -0.0980  0.2608  0.1595
28026W        W34626   9.669   0.501  18.871  0.0248  0.2018 -0.3182
28027W        W34627   9.423   1.138  37.455  0.3466  0.1798 -0.2707
28028W        W34628   0.233   4.672  25.117  0.3402  0.1280  0.1621
28029W        W34629   9.757   1.094  10.768  0.1225  0.0088  0.0231
28030W        W34630  12.705   3.586  30.986 -0.0534 -0.0253  0.1018
28031W        W34631   5.996   0.873  20.298 -0.1328  0.0242  0.0085
28032W        W34632  18.183   5.897  34.159 -0.0290  0.1546  0.0211
28033W        W34633   1.571   1.216  41.672  0.0075  0.2462  0.1569
28034W        W34634  12.283   4.405  12.976 -0.2405  0.1412 -0.0231
28035W        W34635  15.187   3.327  10.492  0.0277  0.1387 -0.1327
28036W        W34636   0.215   1.921   0.962 -0.0668  0.1092 -0.3017
28037W        W34637  11.461   1.743   1.320  0.2149  0.1829 -0.2340
28038W        W34638   2.619   5.066  39.729 -0.0168  0.0069  0.0681
28039W        W34639   9.346   5.431  10.915  0.3190 -0.1303 -0.0715
28040W        W34640  16.637   6.095  44.780 -0.2669 -0.1860 -0.1795
28041W        W34641   3.610   4.420  17.783 -0.2925  0.0791  0.0528
28042W        W34642   2.809   5.958  41.276  0.0467 -0.1079  0.2323
28043W        W34643  18.064   3.082   1.393 -0.0677  0.0236  0.1840
28044W        W34644   5.842   3.100  16.663 -0.1459 -0.1339  0.2784
28045W        W34645  13.360   4.918  32.998 -0.0731  0.2026  0.0493
28046W        W34646  10.800   2.184  44.080 -0.0545  0.0468 -0.0534
28047W        W34647  21.019   5.557  28.732  0.2322  0.3173 -0.0220
28048W        W34648   4.473   4.386  32.492  0.0307 -0.1138 -0.0751
28049W        W34649  12.948   4.793  12.519 -0.2200 -0.1555 -0.0865
28050W        W34650   7.059   3.997  29.860  0.2203 -0.1032 -0.0236
28051W        W34651  10.970   4.579  11.416  0.0529 -0.1151 -0.2288
28052W        W34652  16.638   3.330  14.719  0.2088 -0.1982 -0.1551
28053W        W34653   7.951   0.995  32.246 -0.0809 -0.1124 -0.0575
28054W        W34654  20.586   2.555  12.466 -0.4664 -0.1900 -0.1761
28055W        W34655  15.755   3.921  29.508 -0.2261  0.0190 -0.1347
28056W        W34656   6.430   4.111   7.907  0.1623 -0.1374 -0.0151
28057W        W34657  14.142   3.320  19.369 -0.3668  0.0941 -0.2662
28058W        W34658   0.362   4.879  12.713  0.2070  0.1853 -0.3184
28059W        W34659  14.864   1.214  42.517 -0.1292  0.2044 -0.3372
28060W        W34660  13.990   0.232  11.246  0.0402  0.2635 -0.2856
28061W        W34661   9.287   6.463  32.066  0.3922  0.2359 -0.1997
28062W        W34662   8.710   3.134  17.302 -0.0061 -0.2423  0.1557
28063W        W34663   4.163   3.749  44.793  0.2708 -0.0848  0.0522
28064W        W34664  16.128   0.193  36.720  0.1341 -0.0760  0.3168
28065W        W34665  20.696   2.347   9.382 -0.1510  0.3126  0.1928
28066W        W34666   8.704   1.255  12.092 -0.0749  0.4347  0.0950
28067W        W34667   8.106   5.439  16.476 -0.0011 -0.1873  0.0073
28068W        W34668  13.615   3.703  14.808 -0.2116  0.0859  0.2062
28069W        W34669   5.332   6.350  17.441  0.3923 -0.2613  0.0710
28070W        W34670  11.193   1.156  37.181  0.4144  0.0469 -0.0262
28071W        W34671   8.065   0.563   3.845 -0.3868 -0.2281 -0.0477
28072W        W34672   6.911   5.993  39.346  0.2858  0.1362  0.3401
28073W        W34673  19.373   4.515  40.324 -0.1132 -0.1502  0.1364
28074W        W34674  12.021   3.338   9.288 -0.0432 -0.0405  0.0885
28075W        W34675   3.218   5.692   3.729  0.1399 -0.1460  0.1570
28076W        W34676   8.525   0.740   3.371 -0.1476  0.1685  0.0751
28077W        W34677   5.242   5.286  44.256  0.1388 -0.0153 -0.3474
28078W        W34678   3.149   1.993  14.294  0.1716 -0.1762 -0.0663
28079W        W34679  10.043   2.366  22.555 -0.0369 -0.0870  0.1063
28080W        W34680  14.157   0.285  18.169  0.0554 -0.1513  0.2224
28081W        W34681   9.035   6.295  15.514 -0.2775 -0.0267  0.4197
28082W        W34682  11.067   1.336  19.399 -0.2020 -0.3230  0.0162
28083W        W34683  19.792   2.259  26.813 -0.0878 -0.2282 -0.0663
28084W        W34684   5.054   1.840  44.398  0.0507 -0.1340 -0.1092
28085W        W34685   5.538   0.973  32.080 -0.1425  0.2233 -0.0997
28086W        W34686   2.526   2.556  17.623 -0.2237  0.0005 -0.1776
28087W        W34687  17.061   6.354  10.771  0.2716 -0.1642 -0.0895
28088W        W34688  19.202   2.233  34.037  0.2402  0.0437 -0.2353
28089W        W34689  20.907   4.201   6.000 -0.1327 -0.3921 -0.2345
28090W        W34690  12.708   4.067  10.701 -0.1374  0.0471  0.2199
28091W        W34691  20.173   1.572  25.308  0.0236 -0.3640 -0.1771
28092W        W34692   9.929   2.023  23.996  0.1102 -0.3766  0.0597
28093W        W34693   9.344   5.398  16.789  0.1161 -0.0118 -0.1621
28094W        W34694   9.709   1.280  22.874 -0.1336  0.0302 -0.0906
28095W        W34695   4.081   4.574   0.891  0.0138 -0.1572  0.1252
28096W        W34696   4.904   5.601  40.285 -0.1849  0.2872 -0.0876
28097W        W34697  21.121   4.131   3.553 -0.1053 -0.1831  0.1367
28098W        W34698   0.532   2.484  23.082  0.1413  0.0647  0.0873
28099W        W34699   4.859   5.723  44.272 -0.2183  0.0049 -0.1346
28100W        W34700   1.573   6.345  26.916 -0.1729 -0.3246 -0.1617
28101W        W34701   5.666   2.270  14.740 -0.0423 -0.1742  0.1517
28102W        W34702   3.515   3.380   4.918  0.2355 -0.1770 -0.2901
28103W        W34703  12.247   0.361  28.784 -0.1285 -0.1363  0.2028
28104W        W34704   4.346   4.410  18.368 -0.1820 -0.2490 -0.0686
28105W        W34705   0.382   5.013  39.622 -0.4337 -0.4239  0.2265
28106W        W34706  16.092   3.713  12.075  0.1919  0.0780  0.0237
28107W        W34707  19.584   5.927  41.349 -0.3671 -0.0038  0.2641
28108W        W34708   6.426   2.409   7.629  0.3054 -0.1724 -0.1629
28109W        W34709   9.354   1.662  37.358 -0.2112  0.2536  0.0411
28110W        W34710  18.546   1.326  23.725  0.1565 -0.0189  0.4580
28111W        W34711   5.890   6.430  18.087 -0.0819 -0.0124 -0.0554
28112W        W34712   4.467   3.342  35.848 -0.1443 -0.2853  0.0747
28113W        W34713   7.708   0.925   3.766 -0.1227  0.0109  0.1690
28114W        W34714  20.805   4.598  25.549  0.1795  0.1080 -0.2254
28115W        W34715   9.727   5.946  41.173  0.1507  0.3013  0.1720
28116W        W34716  18.180   4.954  37.776  0.1657 -0.1981  0.0928
28117W        W34717  19.878   5.455  41.280  0.1509  0.0508  0.0095
28118W        W34718  10.811   3.075  32.632 -0.1890 -0.0754 -0.4040
28119W        W34719   0.036   6.249  10.880  0.1009  0.0007 -0.0978
28120W        W34720   2.938   1.018   6.442 -0.1935  0.0926 -0.1539
28121W        W34721  18.115   1.165  32.204  0.0270  0.3104 -0.1536
28122W        W34722  11.198   4.908  18.646  0.0032  0.0042  0.1165
28123W        W34723   7.037   4.836  42.527  0.2753 -0.1191  0.0140
28124W        W34724  14.220   5.707  30.659  0.0358 -0.1928  0.1338
28125W        W34725   2.181   0.916   5.881 -0.0672  0.0513 -0.1707
28126W        W34726   1.453   5.254  26.732 -0.1229  0.0635 -0.2430
28127W        W34727   2.119   4.323  11.340  0.0388 -0.0764 -0.2815
28128W        W34728   7.103   6.095  32.399  0.1325  0.0264  0.1755
28129W        W34729   8.927   2.572  36.565 -0.0260 -0.2476 -0.1500
28130W        W34730   3.971   4.692   3.426  0.4686 -0.1046 -0.2610
28131W        W34731  12.476   0.350   9.420  0.1640  0.1363  0.1889
28132W        W34732  11.595   4.543  15.929  0.2030 -0.0599  0.1561
28133W        W34733   2.886   4.432   0.372  0.0495  0.0989 -0.0597
28134W        W34734  10.364   5.900  16.598  0.0956 -0.1370  0.0025
28135W        W34735   6.919   4.214  41.263  0.1274  0.1394  0.2188
28136W        W34736   4.040   3.183  32.103  0.2079 -0.2082  0.1166
28137W        W34737  15.375   3.549  16.797 -0.0505  0.1152  0.0594
28138W        W34738   3.686   2.493  36.360 -0.1732  0.2536 -0.0924
28139W        W34739   6.407   5.637  38.210 -0.1030  0.0022  0.5030
28140W        W34740  10.908   6.317  10.929  0.0822  0.1701 -0.2007
28141W        W34741  10.710   5.229  44.032  0.0882  0.2975 -0.1233
28142W        W34742  20.393   4.096  32.018  0.1817 -0.3248  0.4047
28143W        W34743  11.137   1.099  15.825  0.4670 -0.1315  0.1036
28144W        W34744  15.855   3.826  16.872 -0.4772 -0.1686 -0.0616
28145W        W34745   7.955   3.388   2.997 -0.3131  0.0736 -0.3200
28146W        W34746   5.463   5.862  38.408 -0.1518 -0.3322 -0.0638
28147W        W34747   4.460   1.254  37.753 -0.1931  0.0047  0.0735
28148W        W34748   5.514   5.151   0.490 -0.0588  0.1487 -0.1261
28149W        W34749   7.293   3.007   3.491  0.0500 -0.3915  0.2439
28150W        W34750  20.197   3.685  21.123 -0.0830  0.0332  0.1658
28151W        W34751   6.511   2.989  20.673  0.2176 -0.2426  0.0484
28152W        W34752  13.806   2.851  39.250  0.1416 -0.2051  0.1122
28153W        W34753  16.590   1.589  24.776  0.1609  0.0205  0.2958
28154W        W34754  13.674   0.330   6.181 -0.1652 -0.0757  0.2779
28155W        W34755   9.588   1.212   9.951 -0.1326 -0.0252 -0.0109
28156W        W34756   1.678   5.837  35.255  0.5237  0.1184 -0.0861
28157W        W34757  18.027   2.066  25.348 -0.0454 -0.2483 -0.0239
28158W        W34758   9.854   0.902   1.411 -0.0356  0.2642  0.2136
28159W        W34759  15.650   2.196   2.360  0.2690  0.2048 -0.1433
28160W        W34760  12.581   1.758  40.075 -0.2762 -0.1782 -0.0185
28161W        W34761  19.991   1.202   0.826 -0.1857  0.1582  0.0047
28162W        W34762   3.702   5.906   7.344 -0.2112 -0.0752 -0.0341
28163W        W34763   8.291   0.557   1.197  0.1368 -0.1132 -0.0852
28164W        W34764   4.707   5.428  16.693 -0.1300 -0.1126 -0.0603
28165W        W34765  13.597   2.429  34.326  0.0953  0.0395  0.0840
28166W        W34766  19.410   1.991  10.095 -0.1109 -0.1547  0.0859
28167W        W34767   7.959   1.898   7.177 -0.0715 -0.1402  0.1516
28168W        W34768  19.669   5.979  28.910 -0.0045  0.3889 -0.1648
28169W        W34769   1.278   1.701  44.388 -0.0955  0.0249  0.3265
28170W        W34770   8.140   5.437  44.982  0.2740  0.0298  0.2173
28171W        W34771   3.837   0.526   3.851  0.1057 -0.0697  0.0645
28172W        W34772   7.038   4.951  31.092  0.3357  0.6092 -0.1372
28173W        W34773  14.634   4.080  41.269  0.0158  0.2511 -0.0812
28174W        W34774  16.000   5.761   4.942 -0.0639 -0.0497  0.0206
28175W        W34775   0.449   5.272  41.036 -0.0415  0.1955  0.1703
28176W        W34776  16.848   0.854   8.008 -0.1285 -0.0178  0.3715
28177W        W34777  20.792   1.589   5.497 -0.0198 -0.2612  0.1054
28178W        W34778  13.041   2.561   0.693 -0.2456 -0.0587 -0.2070
28179W        W34779   7.463   1.637  16.334 -0.0952 -0.0766  0.0600
28180W        W34780  13.954   0.939  37.958  0.0176 -0.1609 -0.0110
28181W        W34781   7.919   3.364  43.699  0.0258  0.0312  0.1182
28182W        W34782   7.027   3.069  18.663 -0.1994  0.2144  0.2284
28183W        W34783   5.751   4.238  10.846 -0.0375  0.0547 -0.3818
28184W        W34784   9.681   5.316  20.309  0.0058 -0.1724 -0.0616
28185W        W34785   8.384   1.812  16.797 -0.1181  0.0259  0.1224
28186W        W34786   3.941   1.607  44.360  0.1024 -0.1724  0.0112
28187W        W34787  13.323   0.759   5.345 -0.1732 -0.1193 -0.0616
28188W        W34788   2.581   3.070   0.730 -0.0038  0.2178 -0.0054
28189W        W34789   1.072   1.464  12.711  0.6182 -0.0556  0.2588
28190W        W34790  17.582   5.077  13.257 -0.1964  0.1143 -0.3204
28191W        W34791  14.142   1.354  32.737 -0.2347 -0.0085 -0.1652
28192W        W34792  17.706   0.162   7.839  0.3072 -0.1108  0.0133
28193W        W34793  16.159   1.192  36.485 -0.2063  0.0015 -0.2795
28194W        W34794   2.161   1.290   1.246  0.2298 -0.1213 -0.1158
28195W        W34795   4.426   1.261  40.052  0.0177 -0.1437 -0.0473
28196W        W34796   3.230   4.321  37.997  0.2508  0.0438 -0.4601
28197W        W34797   0.867   2.539   0.541  0.0477 -0.0335  0.2215
28198W        W34798  16.346   4.555   8.169 -0.0056 -0.0606 -0.1490
28199W        W34799   3.391   2.267   4.353 -0.1742 -0.0876  0.1437
28200W        W34800  17.142   5.201  39.204  0.0254  0.0505 -0.2818
28201W        W34801   5.892   5.549  41.138  0.0969  0.1577 -0.2045
28202W        W34802   4.425   1.550  34.655 -0.0274  0.0898  0.0447
28203W        W34803  14.276   1.242   9.043  0.1100 -0.0390 -0.0086
28204W        W34804  18.664   4.052  25.453  0.1273  0.3015  0.4134
28205W        W34805   3.070   3.708   2.372 -0.1143 -0.0409 -0.0962
28206W        W34806   7.375   3.673  29.613 -0.4020 -0.2381 -0.0298
28207W        W34807   4.105   0.322   0.722  0.1856  0.0433 -0.0188
28208W        W34808  19.959   2.797  25.294  0.0462 -0.5934  0.0172
28209W        W34809  13.213   0.054  11.777 -0.0435 -0.0809 -0.0139
28210W        W34810   6.731   1.412   8.630 -0.0762 -0.3765 -0.2019
28211W        W34811   9.510   4.108  31.877  0.2957 -0.1048  0.2570
28212W        W34812   2.903   3.633  33.094 -0.0367  0.2006  0.4533
28213W        W34813  16.945   2.634  42.522  0.3750  0.0397 -0.0023
28214W        W34814  20.210   3.521  35.896 -0.0244  0.1214  0.0387
28215W        W34815  18.227   2.913   2.861  0.0936 -0.1278 -0.0910
28216W        W34816  18.822   5.720  39.356 -0.2868 -0.3835 -0.2096
28217W        W34817   5.881   6.377  11.339 -0.1002 -0.1551 -0.1467
28218W        W34818   1.916   0.754  30.884  0.2788 -0.0036  0.2862
28219W        W34819   0.499   4.023   3.846  0.3275  0.1775  0.0175
28220W        W34820   0.139   4.753  36.331 -0.1395 -0.2681 -0.1652
28221W        W34821   8.613   2.117  42.270  0.2119 -0.1434  0.1825
28222W        W34822  19.829   2.027   2.272 -0.1351 -0.0927 -0.0430
28223W        W34823  11.617   2.197  14.323 -0.1585  0.3382 -0.0129
28224W        W34824  16.952   5.895  43.338 -0.0429 -0.1401  0.1328
28225W        W34825  13.044   5.266  38.206  0.1650 -0.1960 -0.0457
28226W        W34826   7.221   5.725  13.274  0.0881  0.2802  0.1807
28227W        W34827   2.750   2.439   1.614  0.0964  0.2797  0.0908
28228W        W34828   2.921   5.286  38.354  0.2613  0.2725  0.1347
28229W        W34829  16.971   6.004  27.611  0.0431  0.1780 -0.1085
28230W        W34830  11.925   0.538   5.025  0.0101  0.1056  0.1567
28231W        W34831   8.829   6.582   3.889 -0.2419  0.1782  0.0618
28232W        W34832   6.580   1.170   4.425 -0.1771  0.3366  0.0805
28233W        W34833   9.966   5.939  42.744  0.1337  0.0092  0.3050
28234W        W34834   3.389   2.307  30.106  0.1862  0.1984  0.1702
28235W        W34835   1.101   0.761  35.847  0.0668 -0.2404  0.1897
28236W        W34836  13.832   4.601  17.613  0.0926 -0.0369  0.1309
28237W        W34837   2.403   2.474  15.701 -0.0484 -0.0897  0.1599
28238W        W34838  17.434   1.194  11.809 -0.0746  0.0463  0.0708
28239W        W34839  10.491   5.122  24.651 -0.0802 -0.0656  0.0552
28240W        W34840   8.674   0.032   1.394 -0.1547 -0.2327  0.1824
28241W        W34841   0.819   4.320  41.813 -0.3169 -0.1177 -0.0681
28242W        W34842  19.324   4.489  20.345 -0.1184  0.0999 -0.1508
28243W        W34843  19.915   0.510  44.392  0.0224 -0.0411  0.0777
28244W        W34844   2.547   2.732   6.001 -0.1724  0.1247  0.1639
28245W        W34845   2.267   2.052  29.502  0.2112  0.0618 -0.2275
28246W        W34846   2.874   0.785  15.368 -0.0425 -0.0464 -0.0189
28247W        W34847   0.267   0.266  23.609  0.3002  0.4790  0.1802
28248W        W34848   5.854   4.462  19.898  0.1935  0.2434 -0.0411
28249W        W34849  11.507   4.196  24.170  0.0258 -0.1621 -0.0115
28250W        W34850   8.454   0.707  35.518 -0.1187  0.1438 -0.3306
28251W        W34851   4.007   5.447  15.171  0.4595  0.1440 -0.2527
28252W        W34852   8.552   1.874  33.198  0.0515  0.4352 -0.1880
28253W        W34853  13.744   3.058   2.727  0.0336 -0.2172  0.0412
28254W        W34854   7.245   0.412   5.460 -0.0834 -0.2681  0.3846
28255W        W34855   4.467   4.466   9.462 -0.1495  0.0099 -0.1466
28256W        W34856   4.119   3.213  37.295 -0.0718  0.1703  0.0455
28257W        W34857  16.882   1.131  10.538  0.0153  0.1002  0.1383
28258W        W34858  17.851   0.949   0.545 -0.3210 -0.1245  0.0689
28259W        W34859  12.285   3.264  41.204 -0.0939  0.0571 -0.0258
28260W        W34860   2.745   0.042  28.580  0.1528  0.0588  0.0498
28261W        W34861   2.218   2.572  40.564  0.0408 -0.1368 -0.0005
28262W        W34862  13.189   0.798  39.048 -0.1043 -0.0013  0.1172
28263W        W34863  16.452   3.147   6.407  0.1232 -0.0681  0.1988
28264W        W34864   8.782   4.576  41.844  0.0312 -0.1335  0.0073
28265W        W34865  18.230   5.984   6.574 -0.2649  0.2524 -0.1887
28266W        W34866  11.442   2.807  40.506  0.4341 -0.1665 -0.0224
28267W        W34867  18.590   5.313  22.423 -0.0854 -0.0418 -0.4599
28268W        W34868  20.848   1.270  25.810  0.1746  0.0337 -0.0842
28269W        W34869  10.366   5.956  21.280  0.1671 -0.1322 -0.2037
28270W        W34870  19.543   1.236   2.217 -0.0160  0.1391  0.1614
28271W        W34871  11.590   3.648   1.827 -0.2573 -0.1127 -0.1711
28272W        W34872   8.280   4.066   6.579  0.0698 -0.1246 -0.1223
28273W        W34873   6.850   5.553  13.555  0.2166 -0.0012 -0.2978
28274W        W34874  12.969   4.546  20.555 -0.2212  0.4126 -0.2982
28275W        W34875  20.627   0.205  14.052 -0.1330  0.0639 -0.0753
28276W        W34876  20.042   6.594  21.005 -0.1611 -0.1912  0.1656
28277W        W34877  18.836   2.419  24.673 -0.1881 -0.0934 -0.2015
28278W        W34878  19.878   0.656   6.939 -0.1838  0.6123 -0.1829
28279W        W34879  20.929   5.250   2.118 -0.4461  0.2275 -0.1456
28280W        W34880  16.367   0.227  34.316  0.1042 -0.0856  0.4150
28281W        W34881   0.757   5.422  27.224  0.0657  0.2894  0.4152
28282W        W34882  13.845   2.218  12.171 -0.3848 -0.1058 -0.0093
28283W        W34883  17.459   4.109   6.156  0.1670 -0.3214  0.0168
28284W        W34884   3.256   2.832  14.172  0.0233  0.1252  0.0257
28285W        W34885  13.427   0.641  43.376 -0.2586 -0.0987  0.0132
28286W        W34886  14.584   1.244  14.064  0.0785 -0.2937 -0.1712
28287W        W34887   1.887   0.262  35.940 -0.0342 -0.2527 -0.1555
28288W        W34888   8.512   0.858  30.309 -0.0670 -0.1786 -0.0354
28289W        W34889  12.282   2.655   9.205 -0.0053  0.0964 -0.2770
28290W        W34890  10.959   2.956   9.400 -0.0513 -0.0468 -0.0593
28291W        W34891   7.200   0.832  32.916  0.2582 -0.0745  0.2268
28292W        W34892  16.613   0.142  11.400 -0.2319  0.2333  0.0808
28293W        W34893   0.771   5.501  36.087 -0.0879  0.1938 -0.2680
28294W        W34894   4.174   4.974  32.230 -0.1967 -0.1566  0.2860
28295W        W34895  16.930   0.346  24.474 -0.1815 -0.1530 -0.0546
28296W        W34896  12.637   2.247  40.068  0.0972 -0.1300  0.2978
28297W        W34897   9.969   2.097   5.107  0.1887 -0.1751  0.1116
28298W        W34898  10.056   5.072  30.994  0.0455 -0.1426  0.2543
28299W        W34899  14.439   4.643   5.117 -0.1937  0.1863 -0.1686
28300W        W34900   0.810   3.290  14.706 -0.0456 -0.0703 -0.1227
28301W        W34901  17.600   4.656   1.335 -0.0614 -0.1389 -0.1837
28302W        W34902  15.490   1.626   8.100 -0.1960  0.2089  0.0545
28303W        W34903  14.015   1.071  11.735 -0.0228 -0.0565  0.2204
28304W        W34904   6.613   3.566   8.963 -0.2102 -0.0283  0.0727
28305W        W34905   0.916   3.010  41.974  0.0428 -0.0414  0.1245
28306W        W34906  18.964   1.772  29.432  0.1574 -0.0223 -0.1961
28307W        W34907  16.004   4.540  38.734  0.1469  0.1576  0.0994
28308W        W34908   9.360   4.023  17.712  0.1390  0.0399  0.0901
28309W        W34909  15.473   3.012   3.042  0.2072  0.0595 -0.0799
28310W        W34910  12.301   3.820  29.533  0.1607 -0.2994  0.0665
28311W        W34911  10.750   1.372  12.964 -0.1142 -0.2015 -0.2370
28312W        W34912  12.187   3.084  17.555 -0.2079  0.0640  0.0024
28313W        W34913   9.786   4.306  13.348  0.0587  0.0064 -0.0017
28314W        W34914  10.913   0.289  13.238 -0.0037  0.3052 -0.1586
28315W        W34915   0.076   5.794  28.206 -0.0041 -0.0028  0.1886
28316W        W34916   1.834   6.073  28.434 -0.0375 -0.0397 -0.0550
28317W        W34917  18.798   2.216  25.254  0.1239 -0.0923 -0.0820
28318W        W34918   6.254   5.971  30.872 -0.0240 -0.3101 -0.0804
28319W        W34919  12.100   3.490   6.128 -0.2446  0.2067 -0.1839
28320W        W34920   2.538   5.742  36.492 -0.0777  0.2812 -0.0037
28321W        W34921   5.161   1.137  34.689  0.2287 -0.0461 -0.1969
28322W        W34922  20.569   0.211  34.677  0.0693  0.1293  0.1963
28323W        W34923  20.495   5.265  39.842 -0.1151 -0.0983 -0.1320
28324W        W34924  18.592   5.061  11.370  0.0092 -0.1754 -0.0498
28325W        W34925   1.801   2.359  26.449  0.0148 -0.2540  0.0561
28326W        W34926  20.267   0.283   9.069  0.1081  0.1576 -0.1259
28327W        W34927  14.375   6.495  31.002  0.1927 -0.0297  0.1783
28328W        W34928  20.096   1.487  44.574  0.1490  0.0489 -0.0000
28329W        W34929  13.811   3.689  17.040 -0.3576 -0.0423  0.0586
28330W        W34930   8.386   1.581  16.065 -0.0940 -0.1431 -0.1044
28331W        W34931   0.037   3.894   6.303  0.2483 -0.0370 -0.1520
28332W        W34932  11.518   3.943  41.071 -0.3801 -0.1434  0.0571
28333W        W34933   6.941   0.723   9.220 -0.1126 -0.0916  0.0182
28334W        W34934  10.216   4.934  12.707 -0.2304 -0.2312 -0.0964
28335W        W34935  15.276   0.432  26.746  0.4496  0.2351  0.2970
28336W        W34936   2.746   2.659  30.169 -0.2301  0.0327  0.1572
28337W        W34937  20.793   0.790  37.098 -0.3401 -0.1248  0.2031
28338W        W34938   0.373   3.892  37.356  0.1572 -0.1704  0.0067
28339W        W34939   1.280   0.453   7.113 -0.3148  0.1059 -0.1578
28340W        W34940   9.822   0.123   6.187  0.1360 -0.2591  0.3520
28341W        W34941  11.512   6.266  11.091  0.1436  0.1882 -0.0900
28342W        W34942   3.822   4.938  30.470 -0.2840 -0.0780  0.1042
28343W        W34943   8.355   0.976   6.871  0.0943 -0.0970 -0.0055
28344W        W34944  16.959   3.438  28.892 -0.1247  0.0235  0.1460
28345W        W34945   0.287   0.036  15.693 -0.3236 -0.0788  0.0793
28346W        W34946   8.106   0.913  41.119 -0.2307  0.2646 -0.0287
28347W        W34947   1.009   2.140   8.550 -0.0125 -0.0239 -0.0510
28348W        W34948  17.844   4.024  28.812  0.0910  0.1753  0.0458
28349W        W34949  20.727   0.005  38.620 -0.1393  0.1597  0.2507
28350W        W34950  13.878   1.254   5.837 -0.1508 -0.3703 -0.0459
28351W        W34951   5.604   3.886  30.662  0.0798  0.0233  0.0892
28352W        W34952  14.839   0.221  30.473 -0.0337  0.0668  0.2799
28353W        W34953   1.264   1.127  42.541  0.3419 -0.0465  0.0543
28354W        W34954   1.203   3.528  34.714  0.1690  0.3392  0.0378
28355W        W34955   0.379   0.342  44.867  0.0336 -0.1390 -0.0855
28356W        W34956   8.347   5.897   3.615  0.0109 -0.1828 -0.0894
28357W        W34957   1.056   6.015  35.425  0.1740 -0.1870  0.0505
28358W        W34958  15.488   4.161  27.721  0.3168 -0.2917 -0.2296
28359W        W34959  11.440   4.752   3.279 -0.1365 -0.4802  0.2147
28360W        W34960  19.180   0.741  29.438 -0.0661  0.0972  0.1458
28361W        W34961  16.100   5.066  15.133  0.0100 -0.2097 -0.0873
28362W        W34962   6.669   1.179   9.057  0.0556  0.1521 -0.2446
28363W        W34963   0.223   0.170  23.064 -0.0098  0.2931 -0.0623
28364W        W34964   3.501   1.109  17.106  0.0678  0.1743  0.0273
28365W        W34965  18.681   4.179   9.096  0.2620 -0.0561  0.0355
28366W        W34966  16.191   4.370  31.415 -0.0611  0.3237  0.0602
28367W        W34967  19.162   5.188   4.097  0.0034  0.0810  0.0927
28368W        W34968   2.970   4.435  12.215 -0.0085 -0.0783  0.1930
28369W        W34969   0.509   1.688  10.192 -0.0426  0.1756  0.1703
28370W        W34970   4.953   1.469  33.931 -0.1136 -0.0355  0.0880
28371W        W34971  20.476   0.674  11.407 -0.0137 -0.3891 -0.1276
28372W        W34972   7.124   0.439  32.583 -0.1042  0.0542 -0.1863
28373W        W34973  18.997   1.908   9.831 -0.0072  0.5689 -0.2251
28374W        W34974  10.300   0.971  44.125 -0.0209 -0.5360 -0.0800
28375W        W34975   7.760   2.062  37.964  0.0797 -0.0494  0.0296
28376W        W34976  12.940   3.080  19.558  0.2391  0.1156 -0.0927
28377W        W34977   4.765   0.668  18.373  0.0743  0.1007  0.0923
28378W        W34978   7.230   4.607  21.230 -0.1205  0.0475 -0.4492
28379W        W34979  17.066   1.568  35.040  0.3453  0.1585 -0.0945
28380W        W34980  18.981   6.269  38.360 -0.1677  0.1368  0.0240
28381W        W34981   4.222   3.865   5.342 -0.2212 -0.2079  0.1399
28382W        W34982   0.141   4.137  32.254 -0.3168  0.1631 -0.1828
28383W        W34983   4.893   3.303  41.926 -0.0857  0.0353  0.2717
28384W        W34984   5.510   4.445  38.955 -0.2293  0.2580  0.0175
28385W        W34985  14.211   2.584  31.115 -0.1329 -0.4349 -0.0708
28386W        W34986  20.647   6.048  33.292  0.1465 -0.1223 -0.0177
28387W        W34987   0.052   2.032  31.930  0.0317 -0.2480 -0.1121
28388W        W34988  10.096   0.467   1.354  0.0246  0.0688 -0.0062
28389W        W34989   7.825   4.745  13.895  0.0837  0.1871 -0.0918
28390W        W34990   3.701   2.475  27.439  0.1346  0.0030  0.1512
28391W        W34991   7.942   6.459  17.758  0.0897 -0.0959  0.2526
28392W        W34992  17.987   0.331   5.978  0.1748 -0.2909  0.2258
28393W        W34993   2.322   3.582  35.909 -0.2348  0.1244  0.2464
28394W        W34994  14.555   6.422  33.314 -0.3140 -0.1290  0.0733
28395W        W34995   2.373   0.197  31.015 -0.2186  0.1166 -0.1222
28396W        W34996   4.900   1.702   4.629 -0.0706 -0.1536 -0.1007
28397W        W34997  12.108   3.837  31.690  0.0513  0.2119 -0.2091
28398W        W34998   1.329   5.154  33.468 -0.0566 -0.2433 -0.2919
28399W        W34999   9.166   4.492  42.857  0.2845 -0.0879  0.1287
28400W        W35000   4.942   5.530   3.175 -0.1288 -0.1963 -0.0882
28401W        W35001   3.858   4.421   0.493 -0.0659 -0.0300  0.0382
28402W        W35002  12.235   5.758   0.183  0.1774  0.0724  0.0214
28403W        W35003  13.714   3.107   7.871 -0.0205  0.2588 -0.3174
28404W        W35004  10.571   5.121  29.340 -0.1889 -0.0688  0.1583
28405W        W35005   6.752   6.026   7.900 -0.1024 -0.0998 -0.1292
28406W        W35006   4.266   5.543   1.986  0.2500 -0.0459 -0.0913
28407W        W35007  18.421   3.558  23.703 -0.0816  0.0907 -0.1697
28408W        W35008   9.351   0.368   4.258  0.2174  0.1104 -0.1725
28409W        W35009   6.548   0.077   9.892  0.0545  0.1209 -0.1174
28410W        W35010  18.606   3.139   3.439  0.1405  0.0647  0.0196
28411W        W35011   6.520   2.774  31.703 -0.0147  0.0434 -0.2956
28412W        W35012  17.307   0.679  26.879 -0.1117  0.0150  0.0957
28413W        W35013   4.222   5.528   3.242  0.1670  0.1192 -0.1046
28414W        W35014  15.577   0.032  17.570 -0.0561  0.1950 -0.1032
28415W        W35015  18.637   1.423   9.633 -0.2147  0.0028 -0.1969
28416W        W35016   8.358   0.010  40.463  0.2344 -0.3626  0.0244
28417W        W35017   7.948   2.942   2.852 -0.0892 -0.0092  0.2478
28418W        W35018  18.923   0.105  39.622  0.0126  0.1576  0.0853
28419W        W35019  15.651   0.654  37.269 -0.1506  0.0099 -0.0793
28420W        W35020  21.088   3.118  44.151  0.2783 -0.2865 -0.0326
28421W        W35021  13.339   4.726  43.826  0.1916 -0.3274  0.1220
28422W        W35022  12.552   5.504  18.944 -0.2365 -0.0233 -0.2807
28423W        W35023  19.330   2.068   7.406 -0.2474  0.4707  0.0437
28424W        W35024   0.431   1.942  44.641  0.1118  0.2057 -0.0145
28425W        W35025  17.241   1.700  32.029 -0.0054 -0.4134  0.1102
28426W        W35026  13.294   5.218  30.557 -0.1716 -0.1323  0.0641
28427W        W35027  20.193   0.118  12.432 -0.2751 -0.4424 -0.2881
28428W        W35028   8.631   0.390  20.230  0.1027 -0.1459  0.1322
28429W        W35029   2.836   3.075  26.943  0.2918 -0.2568 -0.1515
28430W        W35030   6.684   0.905  19.237  0.0026 -0.0930 -0.1319
28431W        W35031  15.683   4.233  35.208  0.0867  0.0763  0.1645
28432W        W35032  18.278   0.143  29.410 -0.1774 -0.0330 -0.0212
28433W        W35033  16.037   4.309  29.382 -0.0915 -0.0778  0.0761
28434W        W35034   9.109   3.075  15.188  0.3678  0.0726  0.2674
28435W        W35035   7.458   2.510  10.991  0.1982 -0.2182 -0.2574
28436W        W35036  19.663   3.745  23.169 -0.0311  0.1331  0.0426
28437W        W35037  15.255   3.515   9.038  0.0787 -0.4584 -0.0771
28438W        W35038  19.751   0.563  22.437 -0.1988 -0.2702 -0.2208
28439W        W35039   7.249   1.729  42.386  0.2688  0.0105  0.0265
28440W        W35040  18.942   3.516  39.715  0.2452 -0.3813 -0.1670
28441W        W35041   1.896   6.223  13.975  0.1992  0.1602  0.1715
28442W        W35042   9.392   5.836  20.326  0.0487  0.2047 -0.2362
28443W        W35043  21.085   2.112   1.723  0.0432  0.2673  0.2568
28444W        W35044  16.357   0.352  12.277  0.0124 -0.3960 -0.2311
28445W        W35045  11.129   0.714  36.913  0.0142  0.0336  0.3196
28446W        W35046   1.074   3.834  32.252  0.0349  0.0026 -0.0562
28447W        W35047   5.607   6.196  36.265 -0.3771 -0.1075  0.0122
28448W        W35048  19.700   6.203  43.725  0.2506  0.0246 -0.2040
28449W        W35049  10.176   2.909  19.142 -0.1163 -0.2213  0.0912
28450W        W35050   0.255   6.039  31.998 -0.0755  0.1153 -0.2417
28451W        W35051  18.479   0.245   4.022 -0.3526 -0.2414 -0.0816
28452W        W35052   1.672   3.038  42.618  0.3892  0.0527  0.0857
28453W        W35053   4.249   6.524   7.923 -0.0422 -0.0609  0.0178
28454W        W35054  11.826   2.540   7.181 -0.3011  0.0414 -0.1587
28455W        W35055   5.833   2.248  31.270  0.2641  0.0803  0.1685
28456W        W35056   4.184   4.684   6.884  0.0029 -0.1889  0.1297
28457W        W35057  10.899   1.824  39.387  0.0738 -0.0760  0.0353
28458W        W35058   1.758   2.770  25.169  0.1541  0.1502  0.1898
28459W        W35059   5.592   6.284   4.281 -0.0130 -0.0253 -0.0387
28460W        W35060   5.647   0.294  42.861 -0.0288 -0.1657 -0.0537
28461W        W35061  18.627   2.642  43.616 -0.2313  0.1740 -0.0042
28462W        W35062   1.251   4.248   8.598  0.1113 -0.0698  0.1211
28463W        W35063  17.192   1.911  30.228 -0.2767 -0.2544  0.0839
28464W        W35064  13.309   0.187  36.063  0.1922  0.0125 -0.1433
28465W        W35065   7.604   1.485  22.686 -0.0615 -0.0162  0.1190
28466W        W35066  19.043   3.808   6.936  0.3020 -0.0640 -0.3207
28467W        W35067  12.090   6.594   7.512 -0.0420  0.3222  0.2737
28468W        W35068  18.652   1.194  40.973 -0.2171  0.2215 -0.0040
28469W        W35069  17.423   5.765  29.029 -0.1686  0.0040  0.0488
28470W        W35070  13.446   4.731  16.177 -0.0740 -0.0797  0.0541
28471W        W35071   3.415   5.874  12.549  0.0453 -0.0509 -0.1723
28472W        W35072   4.388   2.724  28.641 -0.1464 -0.2308  0.0457
28473W        W35073  17.525   0.416   2.837 -0.1051  0.0200 -0.0015
28474W        W35074   7.821   5.233  43.738 -0.1385  0.0929  0.0686
28475W        W35075  13.245   1.482  41.180  0.2545  0.0535 -0.1296
28476W        W35076   6.884   3.442  42.271  0.1964 -0.0573 -0.1491
28477W        W35077   7.467   0.897  13.439 -0.0489  0.1348 -0.0472
28478W        W35078  15.255   1.119  28.282 -0.1283  0.0525 -0.2433
28479W        W35079  10.388   3.591  43.854  0.0553  0.0903 -0.0055
28480W        W35080   7.582   3.816  12.034  0.3297  0.3794  0.1592
28481W        W35081  10.626   5.570   4.566  0.0022  0.0931  0.0156
28482W        W35082   3.230   4.805  39.777  0.1677  0.0107  0.2983
28483W        W35083   9.712   2.226  18.930  0.4469 -0.1165  0.0439
28484W        W35084   1.501   2.737  39.818  0.1423 -0.1811 -0.3356
28485W        W35085  12.747   3.720  39.119 -0.1407 -0.1170 -0.0488
28486W        W35086   7.607   3.509  42.844  0.0092  0.1543  0.2378
28487W        W35087   8.470   3.515  32.515 -0.0592 -0.1134  0.1686
28488W        W35088  20.581   6.308  32.881  0.3354  0.0772  0.0717
28489W        W35089  17.219   1.728  34.033  0.1782  0.0537  0.0090
28490W        W35090  19.823   5.667  41.734  0.0936  0.0546 -0.1070
28491W        W35091  14.585   4.075  30.815  0.2812 -0.0257 -0.2589
28492W        W35092  13.046   2.735   8.907 -0.0095  0.0434 -0.1112
28493W        W35093   4.890   5.187   9.941 -0.2283  0.5553  0.1150
28494W        W35094   5.370   1.379  13.573  0.3714 -0.0105 -0.3229
28495W        W35095  17.500   6.108  29.432 -0.0130  0.0494  0.2427
28496W        W35096  11.821   0.203   1.034  0.0479 -0.0592 -0.0929
28497W        W35097   4.558   3.814  44.455  0.1293 -0.1682 -0.0354
28498W        W35098   8.510   3.071   5.435  0.1801 -0.0426 -0.0728
28499W        W35099   4.891   5.896  39.601 -0.1846  0.2108 -0.1178
28500W        W35100  11.144   1.816  33.522  0.0477 -0.1557 -0.3031
28501W        W35101  15.431   1.942   5.342  0.0875  0.0844  0.1292
28502W        W35102  15.082   6.392  27.747 -0.0853  0.0678  0.1347
28503W        W35103  10.679   1.857  11.344 -0.0306 -0.1961 -0.1055
28504W        W35104  13.833   4.850  32.918 -0.1084 -0.0004  0.2148
28505W        W35105   1.432   6.077  36.794  0.0402  0.2403 -0.1010
28506W        W35106   9.045   3.117  33.572 -0.1423 -0.0065  0.0212
28507W        W35107   0.226   4.975  22.964 -0.0598 -0.0284  0.0175
28508W        W35108  16.592   6.219  28.303  0.0359 -0.1837 -0.1455
28509W        W35109   8.073   0.745   9.063  0.0696 -0.0673 -0.1606
28510W        W35110  13.389   3.873   3.865  0.1070 -0.0476  0.2067
28511W        W35111   3.755   5.814  36.763  0.1200 -0.1147  0.0764
28512W        W35112  14.228   5.132   9.983  0.1839  0.1404  0.1081
28513W        W35113   8.005   3.255  32.597  0.1616 -0.0731  0.1809
28514W        W35114   4.559   5.475   7.678 -0.0778  0.1122 -0.1494
28515W        W35115   3.391   0.003  39.115  0.0606 -0.2124 -0.3185
28516W        W35116  17.155   0.774  27.329 -0.1425 -0.2123 -0.1859
28517W        W35117  18.691   2.433  13.112  0.1904  0.0195 -0.0557
28518W        W35118  20.879   3.764  38.536 -0.0298  0.0917  0.1730
28519W        W35119  15.616   4.972  11.371 -0.0370 -0.1010  0.2056
28520W        W35120   9.587   2.675  23.384 -0.2409  0.3967 -0.1852
28521W        W35121  11.451   4.921  39.498  0.0225 -0.0382 -0.1327
28522W        W35122  16.337   5.797   2.554  0.0261  0.2124  0.1128
28523W        W35123   2.757   5.493  41.539 -0.0449 -0.0006  0.1334
28524W        W35124  20.263   4.385  42.909 -0.1637 -0.0221 -0.0410
28525W        W35125   3.497   4.802   9.410  0.1721 -0.2426  0.0060
28526W        W35126  10.371   5.892   9.563 -0.1796  0.0514 -0.0001
28527W        W35127  12.993   1.042  11.902  0.2290 -0.0603  0.0342
28528W        W35128   9.098   0.979  34.272  0.1125 -0.1149 -0.0006
28529W        W35129   5.532   2.982  40.468 -0.0251  0.0451 -0.1290
28530W        W35130   0.230   0.303  28.302  0.1751  0.0550 -0.3214
28531W        W35131  12.631   0.923   2.254  0.1050  0.1357  0.2947
28532W        W35132  12.321   0.484  21.728  0.0697  0.0920  0.6243
28533W        W35133  11.306   3.283  15.613 -0.1356  0.0981 -0.0464
28534W        W35134   4.496   1.959  36.323 -0.2836  0.0178 -0.0342
28535W        W35135   4.842   3.018   0.512 -0.0039  0.1916 -0.0297
28536W        W35136  18.772   1.832  22.191  0.2102  0.1915  0.0522
28537W        W35137  18.253   2.532  44.999  0.0505  0.1336 -0.4535
28538W        W35138   2.377   4.361   4.405 -0.0628  0.0925 -0.0504
28539W        W35139  11.516   0.488  13.425  0.0634  0.0282  0.5433
28540W        W35140  18.727   3.231  41.230 -0.1100 -0.1322 -0.3912
28541W        W35141   2.153   5.926   9.335 -0.0835 -0.3286 -0.0477
28542W        W35142   5.149   2.804  45.036  0.0019  0.0839  0.0321
28543W        W35143   0.788   2.206  12.350  0.0605 -0.1048 -0.0341
28544W        W35144  12.461   5.125   2.511  0.1719  0.0243  0.2326
28545W        W35145  15.065   1.366  28.927 -0.1520 -0.1080 -0.1072
28546W        W35146  16.494   3.314   4.560  0.3198 -0.0338 -0.0822
28547W        W35147   0.800   6.412  33.224  0.1720 -0.0589 -0.3067
28548W        W35148   1.478   5.786  42.439  0.0418  0.2373  0.1919
28549W        W35149   7.654   5.800   1.599 -0.1686 -0.2383  0.0969
28550W        W35150  11.950   4.964  38.849 -0.2194 -0.1049 -0.0376
28551W        W35151   2.103   5.653   7.489 -0.1869 -0.0509 -0.2020
28552W        W35152   6.065   1.173  35.754  0.2486 -0.1411  0.0575
28553W        W35153   3.392   2.325   8.872 -0.5037 -0.0836  0.0620
28554W        W35154  18.677   2.916   6.656  0.0693 -0.3111 -0.0333
28555W        W35155   7.454   4.897  42.863  0.0027  0.0947  0.0575
28556W        W35156  13.804   2.861  43.761 -0.1332 -0.2825  0.0888
28557W        W35157  20.489   3.090  36.505 -0.0413  0.0602 -0.0801
28558W        W35158  16.319   6.470   6.744  0.3825  0.0043 -0.2650
28559W        W35159   6.873   2.893  16.516  0.1095 -0.0542 -0.1669
28560W        W35160   0.250   5.781  36.002 -0.3234 -0.1119 -0.1491
28561W        W35161  12.389   1.454  41.168  0.0111 -0.1932  0.1198
28562W        W35162   0.687   3.620  40.721  0.1585 -0.0089  0.0026
28563W        W35163  12.758   0.293  10.691 -0.0332  0.0005  0.0328
28564W        W35164  17.778   0.226  34.291 -0.2654  0.0261 -0.0832
28565W        W35165   9.545   5.646   4.815  0.3122  0.1387  0.1402
28566W        W35166  10.546   2.837   7.097  0.0584  0.0759 -0.0199
28567W        W35167  20.479   0.312   3.048 -0.1530  0.1383  0.3324
28568W        W35168   1.484   0.909  42.061  0.0112 -0.0829 -0.2221
28569W        W35169  10.253   1.316  14.927  0.3374 -0.1139  0.3327
28570W        W35170  18.996   4.683   3.135  0.0727  0.1935  0.1713
28571W        W35171  11.509   6.031  41.467  0.0628  0.1210 -0.1452
28572W        W35172  11.606   1.219   6.070 -0.1199  0.0159 -0.0229
28573W        W35173   8.277   3.322  29.863 -0.2103 -0.0552  0.0571
28574W        W35174   4.632   6.483  34.355 -0.3011  0.1938 -0.0767
28575W        W35175   4.958   2.101   0.170  0.2699  0.3556  0.1772
28576W        W35176   4.861   2.046  18.231  0.2948 -0.2370  0.0589
28577W        W35177   9.334   0.718  24.096 -0.3169 -0.1537 -0.5032
28578W        W35178  16.386   0.576   6.212 -0.2983  0.1723  0.1254
28579W        W35179  13.410   2.611   2.840 -0.2061 -0.1142 -0.2396
28580W        W35180  12.915   5.439  30.845  0.1523  0.2330  0.1718
28581W        W35181   6.993   1.263  19.279 -0.3520  0.0226  0.0131
28582W        W35182  18.431   2.350  30.650  0.0476  0.0816 -0.2040
28583W        W35183  11.140   3.477   0.349 -0.0933 -0.0276  0.1219
28584W        W35184   2.599   0.175  14.392  0.1086 -0.3981  0.0292
28585W        W35185  15.245   1.142  30.801  0.1909 -0.0821  0.2070
28586W        W35186  14.622   0.089  13.668 -0.2328 -0.0877  0.1189
28587W        W35187   0.348   1.592  27.178  0.0386  0.0296  0.3054
28588W        W35188  12.891   6.095  37.908 -0.0396  0.1515 -0.0084
28589W        W35189  15.514   2.050  33.062  0.1562  0.3165  0.0787
28590W        W35190   1.946   5.596   2.383 -0.1331 -0.1805 -0.2236
28591W        W35191   5.572   3.962  15.235  0.1177  0.0468  0.1908
28592W        W35192   5.910   5.083  14.492 -0.0657 -0.3200 -0.0835
28593W        W35193  13.523   2.259   6.796 -0.0792 -0.0521 -0.0737
28594W        W35194  11.484   1.676  43.431 -0.0485 -0.2080  0.2328
28595W        W35195   0.133   1.138  39.406  0.3710 -0.2267  0.0670
28596W        W35196  11.376   4.229  37.796  0.1841 -0.0625  0.0267
28597W        W35197  12.122   2.298  30.866 -0.3237  0.0810  0.1968
28598W        W35198   7.140   4.816   5.270 -0.3943 -0.2502 -0.1970
28599W        W35199  10.384   1.621  33.169 -0.0050 -0.2767 -0.3600
28600W        W35200   8.811   2.236  17.681  0.1155  0.2094 -0.0800
28601W        W35201  14.600   4.231   9.974 -0.1743  0.1803  0.0131
28602W        W35202  17.656   2.432  29.369 -0.0063 -0.0865 -0.0524
28603W        W35203   1.014   2.933  43.737 -0.1006  0.1660 -0.0675
28604W        W35204   9.443   4.847  35.888 -0.0226 -0.0390 -0.1026
28605W        W35205   8.128   3.841   5.595 -0.1734 -0.2113  0.1137
28606W        W35206  10.403   1.259  39.943  0.0337  0.2230  0.0118
28607W        W35207  10.496   5.767  24.222  0.1584 -0.1305 -0.1409
28608W        W35208   4.769   2.946  35.486  0.1773 -0.4205 -0.1405
28609W        W35209  10.326   1.986   8.171  0.1919  0.2446 -0.3146
28610W        W35210   0.496   2.876   6.544 -0.2229 -0.2941 -0.0314
28611W        W35211   3.582   4.350  34.654 -0.1797  0.0915 -0.1711
28612W        W35212   5.052   2.125   4.101  0.0240  0.2990 -0.1875
28613W        W35213  19.493   1.093   3.156  0.1752 -0.0555  0.1967
28614W        W35214  12.607   5.599  11.061  0.0506  0.0876  0.2729
28615W        W35215  18.412   4.899  43.992 -0.0341  0.0673  0.1395
28616W        W35216  19.422   5.691   1.675 -0.0981 -0.1655 -0.0959
28617W        W35217   7.512   2.930  38.241  0.1751 -0.3198 -0.0603
28618W        W35218   3.438   2.559  15.104  0.2240 -0.1388 -0.0300
28619W        W35219   9.091   3.367  14.739  0.2380 -0.0510 -0.1546
28620W        W35220   8.463   4.807  13.359 -0.1807  0.0665  0.0507
28621W        W35221   2.588   0.937   8.797  0.2973  0.0585  0.0491
28622W        W35222   9.100   0.920   8.893 -0.0739  0.1071  0.1819
28623W        W35223  20.907   4.379  26.629 -0.0694 -0.1341 -0.5196
28624W        W35224   0.652   0.873  35.667  0.2016 -0.3380 -0.2099
28625W        W35225   4.628   1.677  18.430  0.4066 -0.1735 -0.2347
28626W        W35226   4.356   2.622  18.521  0.1760  0.1012 -0.1730
28627W        W35227  17.628   0.691  32.576 -0.0363 -0.3103  0.2336
28628W        W35228   6.316   1.541  31.419 -0.0292  0.0151  0.3538
28629W        W35229   7.987   4.416   1.992 -0.0817 -0.0011  0.1513
28630W        W35230   7.067   2.886  33.135  0.2487 -0.0792  0.0255
28631W        W35231   9.210   2.328  18.101 -0.0061 -0.3498  0.0565
28632W        W35232  17.228   6.058  31.304  0.1522  0.0508  0.1699
28633W        W35233  19.922   2.624   1.645 -0.1850 -0.0491  0.0675
28634W        W35234  10.951   2.994  35.717  0.1063 -0.3304 -0.0619
28635W        W35235   7.158   6.448  30.344  0.0062 -0.2461 -0.3124
28636W        W35236  20.441   6.143   1.352 -0.3748  0.0769  0.2232
28637W        W35237  19.386   6.231  22.102  0.2919  0.0140  0.1623
28638W        W35238  20.255   0.873  36.046  0.3178  0.0321  0.2576
28639W        W35239  13.396   5.178  14.842  0.2926 -0.0034  0.3856
28640W        W35240   7.957   1.311  33.441  0.0354 -0.0727  0.0938
28641W        W35241   9.916   3.526  18.812  0.1873  0.1566 -0.1742
28642W        W35242  19.182   6.039  19.038 -0.2156  0.2478 -0.1905
28643W        W35243  17.524   5.926  12.947  0.2129  0.2769 -0.0727
28644W        W35244   4.226   0.446  36.677  0.1651  0.2211 -0.0149
28645W        W35245   9.260   4.406  37.704  0.1308  0.2422 -0.1505
28646W        W35246  11.182   3.123  17.478  0.1811 -0.2189 -0.0750
28647W        W35247   2.930   6.394  10.839  0.0687 -0.1181  0.0216
28648W        W35248  17.619   6.041  24.033  0.2329 -0.1075 -0.3529
28649W        W35249  16.720   2.385  34.489  0.0888  0.3842  0.0116
28650W        W35250   4.036   3.815  15.258  0.1779 -0.1551  0.1044
28651W        W35251   0.864   2.423  42.897 -0.2881 -0.3050  0.0057
28652W        W35252   6.287   5.696   1.207 -0.0421 -0.0700  0.2302
28653W        W35253  10.240   4.462   1.211  0.2448 -0.0612 -0.2808
28654W        W35254   7.711   1.966  10.336 -0.1332 -0.0015  0.3976
28655W        W35255   8.861   1.156  32.997 -0.2843  0.1477 -0.1097
28656W        W35256  18.426   3.270  41.634  0.0589 -0.0439 -0.0432
28657W        W35257   8.312   5.361  43.624  0.0182  0.2748  0.1811
28658W        W35258  13.897   3.249  17.825 -0.1140  0.4929  0.0113
28659W        W35259   3.926   2.733  39.081  0.0881 -0.0798  0.0580
28660W        W35260  13.402   5.432  11.256 -0.0301  0.0765 -0.1622
28661W        W35261   8.388   4.974   4.811  0.1763  0.2566  0.2380
28662W        W35262   0.615   2.718   5.723  0.1999  0.0119  0.2524
28663W        W35263  18.378   6.509  14.897 -0.1813  0.1438 -0.0857
28664W        W35264  10.223   0.015  21.573 -0.0092  0.0216 -0.0698
28665W        W35265  17.098   2.971   2.202 -0.0366 -0.3076  0.0599
28666W        W35266   7.298   2.305  16.719 -0.3529 -0.2002  0.1533
28667W        W35267  13.495   1.510  17.322 -0.0198 -0.0560  0.1026
28668W        W35268   2.294   4.735   4.776 -0.1893  0.2105 -0.5657
28669W        W35269  14.153   0.498  41.506  0.1196 -0.0236 -0.3157
28670W        W35270  10.442   0.996   8.400 -0.1296 -0.1022 -0.1640
28671W        W35271  12.981   0.248   9.384 -0.0035  0.1573  0.1395
28672W        W35272   0.662   1.716  27.988 -0.2245  0.0259  0.0593
28673W        W35273  15.658   0.446   6.398 -0.1379 -0.2559 -0.2257
28674W        W35274  12.318   3.556   5.658  0.0724  0.0976  0.1202
28675W        W35275  11.301   3.518  43.965  0.0432  0.0565  0.0074
28676W        W35276   0.179   6.384   0.689 -0.1517  0.1490 -0.1626
28677W        W35277   2.733   0.147   1.647 -0.1957  0.0651 -0.0956
28678W        W35278  19.572   3.404  13.974  0.2340 -0.3743  0.0338
28679W        W35279  15.049   3.710  36.242  0.1129 -0.0937  0.0609
28680W        W35280   4.131   4.089  40.667 -0.1344  0.0664 -0.0363
28681W        W35281  15.861   3.879   0.888 -0.2622  0.0118 -0.3069
28682W        W35282  15.078   2.784  40.498  0.0542  0.3060 -0.2217
28683W        W35283   9.582   5.623  29.661 -0.2651  0.2967 -0.1227
28684W        W35284  15.216   2.357  38.291  0.3382 -0.2163  0.0144
28685W        W35285   2.712   6.367  34.286 -0.1682 -0.0962  0.0519
28686W        W35286  20.698   5.322  43.072 -0.1189  0.3428  0.0883
28687W        W35287  15.691   3.803  36.510 -0.1438  0.1635  0.1269
28688W        W35288   1.912   2.261   8.751 -0.2511  0.2103  0.0293
28689W        W35289  12.365   1.340   2.361 -0.1620 -0.2156 -0.1762
28690W        W35290   1.059   0.493  26.929 -0.4362  0.0741  0.1261
28691W        W35291  14.485   3.526  14.665 -0.1457  0.0930  0.0561
28692W        W35292  11.876   4.616   6.931  0.0501 -0.1136 -0.0766
28693W        W35293   8.231   2.344  20.724  0.1348 -0.1403 -0.2914
28694W        W35294  20.380   3.474  12.422 -0.0700 -0.0831 -0.2948
28695W        W35295   0.452   5.516  10.030  0.1618 -0.0000  0.0750
28696W        W35296  20.280   0.213  23.018  0.2614 -0.3599  0.1322
28697W        W35297  19.429   5.120  30.811 -0.0050  0.1664  0.0685
28698W        W35298  13.388   3.285  14.582  0.2699  0.1264  0.0585
28699W        W35299  21.080   1.690  21.581 -0.2249 -0.1932  0.0227
28700W        W35300  11.121   0.816  41.895 -0.1141  0.0786  0.1393
28701W        W35301  15.379   6.354  15.221 -0.1793 -0.0695 -0.1828
28702W        W35302  10.736   1.118   4.596 -0.0243 -0.2308  0.3089
28703W        W35303   5.323   0.987   5.253  0.0033 -0.0068  0.0406
28704W        W35304  11.426   6.469   6.667  0.2196 -0.0992 -0.0496
28705W        W35305  19.179   5.662   4.270 -0.1577 -0.0519  0.1982
28706W        W35306   3.689   0.939   5.082 -0.0484  0.4468  0.0397
28707W        W35307   2.678   6.156   0.229 -0.2269  0.0420  0.1262
28708W        W35308  20.640   2.281  40.958 -0.0602  0.2556  0.1988
28709W        W35309  11.943   0.075  13.148  0.0054  0.1716 -0.0725
28710W        W35310   7.637   2.051  17.161  0.1698  0.1948  0.3820
28711W        W35311  10.916   0.174  34.332 -0.0774 -0.1429  0.0218
28712W        W35312  13.575   4.981  26.934 -0.1413  0.1915 -0.1762
28713W        W35313   7.751   5.852  31.565 -0.0658 -0.3078 -0.0009
28714W        W35314   4.568   1.531  42.856 -0.0354 -0.2367 -0.4451
28715W        W35315  17.205   1.402  41.999  0.0208 -0.1003  0.1193
28716W        W35316  15.618   6.560  40.140  0.0418  0.1474 -0.0608
28717W        W35317   1.250   2.283  40.619  0.0412  0.4223 -0.2361
28718W        W35318  11.534   0.147  11.295 -0.1210 -0.1263 -0.0809
28719W        W35319   5.601   1.271  37.535 -0.2263 -0.0933  0.0234
28720W        W35320  21.012   6.225  24.228  0.1890  0.1613 -0.1737
28721W        W35321  17.775   0.160  40.701 -0.3406 -0.2877 -0.0608
28722W        W35322   7.311   5.657  31.480 -0.0313 -0.5504 -0.3315
28723W        W35323  20.304   3.856  35.441 -0.0812  0.0494 -0.1238
28724W        W35324  13.612   6.369  12.088 -0.0200 -0.1177  0.0632
28725W        W35325  13.024   4.522   8.754  0.0332 -0.0775  0.1566
28726W        W35326  12.632   5.789  43.963 -0.2053  0.2471 -0.2821
28727W        W35327  19.268   6.376   3.345 -0.2274 -0.0334  0.0169
28728W        W35328  16.546   2.813  29.457 -0.3014  0.3265 -0.0470
28729W        W35329   6.370   6.021  15.704  0.0903  0.1783 -0.0089
28730W        W35330  10.948   0.636  14.529  0.1396  0.1296 -0.0983
28731W        W35331   6.510   1.955  44.088 -0.2594  0.1663 -0.0885
28732W        W35332   3.164   6.587  27.223  0.0007 -0.2152  0.2165
28733W        W35333   8.522   0.995   6.397 -0.1728 -0.1233 -0.2280
28734W        W35334   1.103   3.742  28.886  0.0628  0.0126 -0.0873
28735W        W35335   9.182   4.460  32.731 -0.0721 -0.1741 -0.1346
28736W        W35336  13.451   2.670   1.484  0.0582  0.0213 -0.3344
28737W        W35337   8.894   0.565   9.641  0.1708  0.0269  0.0625
28738W        W35338   8.316   2.899   8.018  0.1503 -0.0402 -0.0089
28739W        W35339   5.307   3.513  11.185 -0.5366 -0.1818 -0.0661
28740W        W35340   5.089   1.118  37.392 -0.2008  0.0403 -0.0186
28741W        W35341   5.042   1.167  43.774 -0.2182 -0.2683  0.2762
28742W        W35342  14.125   6.460  33.642  0.0540 -0.1704 -0.1382
28743W        W35343   2.014   4.913  28.664  0.0642  0.3125 -0.0344
28744W        W35344   8.201   1.230   8.922 -0.1164  0.1101 -0.1461
28745W        W35345   8.304   2.774  35.101  0.0053  0.3074  0.1850
28746W        W35346   9.814   4.242   1.506 -0.0665 -0.1887  0.2301
28747W        W35347   5.790   2.922   3.834 -0.0180  0.2223  0.0129
28748W        W35348  12.819   0.192   8.204  0.0034 -0.0007 -0.1801
28749W        W35349  15.864   4.892  13.162 -0.1184 -0.1667  0.2695
28750W        W35350  13.774   5.905  32.528 -0.0815 -0.2385  0.1067
28751W        W35351  11.381   2.279  17.990 -0.1881 -0.1986 -0.0889
28752W        W35352   5.050   5.656   9.093  0.1342 -0.1047  0.0461
28753W        W35353   4.994   2.394  43.115  0.0128  0.2969 -0.1410
28754W        W35354   7.495   1.424  34.279  0.0960 -0.1206 -0.0512
28755W        W35355  12.306   5.416   9.923  0.2400  0.0466  0.2188
28756W        W35356   5.347   3.944   4.309 -0.2330  0.2581  0.0145
28757W        W35357  14.420   1.551  26.875 -0.1717  0.1823 -0.1723
28758W        W35358   2.248   1.903  44.608  0.1267  0.0988  0.0748
28759W        W35359  19.398   1.357  20.277 -0.2907 -0.3944 -0.2290
28760W        W35360   1.481   4.578  27.490 -0.0123 -0.1867  0.0616
28761W        W35361  11.047   1.491  30.765  0.0632  0.3798  0.1886
28762W        W35362   6.641   4.068  34.298 -0.0493  0.0399  0.0371
28763W        W35363  19.230   3.096   3.675  0.0750  0.0425  0.0885
28764W        W35364   5.263   2.895  34.869  0.2235  0.0649  0.1554
28765W        W35365  13.904   2.040  29.353  0.0725 -0.0452  0.0801
28766W        W35366   3.426   6.345  40.836  0.0655  0.1051 -0.1978
28767W        W35367   2.924   5.882  16.968  0.0697 -0.0465  0.1415
28768W        W35368  19.455   5.948  11.987  0.0410  0.0604  0.0341
28769W        W35369   9.677   0.320  31.021  0.0664  0.1432  0.3338
28770W        W35370   8.568   2.013  41.720  0.0525  0.2952 -0.1793
28771W        W35371   4.812   2.486  28.351  0.1158  0.2674  0.0260
28772W        W35372   9.928   4.447  32.081  0.2406 -0.2503 -0.2730
28773W        W35373  13.218   4.984   9.135 -0.0614 -0.4248 -0.3041
28774W        W35374  16.369   2.782  16.020  0.0455  0.2740 -0.0796
28775W        W35375   0.225   5.184   0.425  0.0294 -0.1101 -0.0016
28776W        W35376   6.354   1.822  21.617  0.0711  0.3418  0.0643
28777W        W35377  11.917   3.937   1.371 -0.0210 -0.1782 -0.1065
28778W        W35378   7.870   5.524  14.454  0.0551 -0.3184 -0.2563
28779W        W35379   2.751   0.082  44.440  0.1600  0.0937 -0.0287
28780W        W35380  15.270   3.596  43.905  0.1534  0.1858  0.1004
28781W        W35381  19.267   5.251  25.905 -0.1630  0.1075  0.1615
28782W        W35382   1.182   6.444  12.241  0.1478  0.0178  0.0089
28783W        W35383  18.533   3.294   4.923 -0.1036 -0.0835  0.0134
28784W        W35384  15.909   3.238   6.074  0.0187  0.1575  0.1022
28785W        W35385   5.346   1.817  13.306 -0.0596  0.0650 -0.0002
28786W        W35386   8.519   3.445   8.229  0.0482 -0.0461  0.1545
28787W        W35387   3.515   3.022  34.501 -0.2116 -0.1385  0.1553
28788W        W35388  11.088   1.287   1.299  0.0115 -0.0862  0.0406
28789W        W35389  13.994   1.748   1.330 -0.0159  0.1648  0.3132
28790W        W35390  19.388   1.559  35.772  0.0433  0.2813  0.1554
28791W        W35391  13.044   0.166  30.912  0.1838 -0.0724  0.0140
28792W        W35392  12.229   3.565  44.337 -0.0860  0.0849  0.0552
28793W        W35393   2.732   4.795  13.577  0.1117  0.1719  0.2273
28794W        W35394  20.590   5.896  39.049  0.0676 -0.0072  0.1462
28795W        W35395  12.386   0.722  37.511 -0.3178  0.3008 -0.0223
28796W        W35396   1.816   0.014  29.187 -0.0479 -0.1070  0.0184
28797W        W35397  15.814   5.329  25.112 -0.1317 -0.3075 -0.0048
28798W        W35398  13.563   3.903  37.220 -0.0965 -0.2892 -0.2996
28799W        W35399   9.199   5.214   5.775  0.0084 -0.0099  0.2423
28800W        W35400   6.800   3.275  20.393 -0.1822  0.0001  0.3652
28801W        W35401   3.673   0.966  39.034 -0.1395  0.1663  0.1623
28802W        W35402   0.234   0.643  14.056  0.0732 -0.1157  0.0132
28803W        W35403   1.201   6.137  31.302 -0.0382 -0.0851 -0.1638
28804W        W35404  17.358   0.160  43.454 -0.1450  0.0790 -0.1870
28805W        W35405  15.936   3.860  36.079  0.1803 -0.2970 -0.0149
28806W        W35406  20.411   2.591  36.592 -0.1653  0.0033  0.3291
28807W        W35407   5.256   2.510   4.964  0.1701  0.0458 -0.1389
28808W        W35408   7.046   6.381   3.334  0.1570  0.0020  0.1387
28809W        W35409   2.511   0.940   0.329  0.0489  0.1044  0.0421
28810W        W35410   0.952   4.681  23.879  0.1101  0.2097 -0.2256
28811W        W35411  20.340   1.290  10.428  0.1635 -0.3676 -0.0680
28812W        W35412   4.794   1.328  40.821 -0.2718 -0.0966 -0.1935
28813W        W35413  19.488   4.203   8.813  0.0265  0.0722  0.1036
28814W        W35414   6.142   4.217  20.606 -0.0211 -0.0857  0.0739
28815W        W35415  12.108   4.560  40.662  0.0559  0.1100 -0.1319
28816W        W35416   6.981   3.080  12.533 -0.1868  0.2043  0.1024
28817W        W35417   4.182   1.305  11.001 -0.0962  0.0550 -0.2298
28818W        W35418   1.136   6.026  38.376 -0.0290 -0.0639 -0.0987
28819W        W35419   6.359   4.319  40.337  0.1082 -0.0148 -0.1372
28820W        W35420   9.003   1.837  43.035 -0.1165  0.1965  0.1120
28821W        W35421  14.059   6.320  17.472 -0.0297  0.1547  0.3546
28822W        W35422  15.557   1.279   8.492  0.0410 -0.0678 -0.0025
28823W        W35423   3.903   3.841  10.769  0.0594  0.2238  0.1168
28824W        W35424  14.414   4.354  18.599 -0.0952 -0.0032  0.0750
28825W        W35425   1.338   4.347  38.087  0.0440  0.1215 -0.1457
28826W        W35426  18.528   5.054  32.435  0.0883 -0.1829 -0.1299
28827W        W35427   2.926   1.955  24.858  0.2824 -0.1025  0.0701
28828W        W35428  14.157   3.986   7.833 -0.0885 -0.2236  0.0308
28829W        W35429   9.346   0.355  22.747  0.0911  0.0344  0.2571
28830W        W35430  17.232   4.402   8.682  0.0778 -0.1956 -0.1454
28831W        W35431   9.692   3.174  15.889  0.2209  0.4463 -0.3047
28832W        W35432   7.795   0.998   4.263 -0.0219 -0.1795 -0.0437
28833W        W35433   5.055   0.860   1.012  0.0160  0.3566  0.0528
28834W        W35434  12.246   5.834  19.553 -0.2547 -0.3601  0.2128
28835W        W35435   3.274   1.381   5.269  0.0244  0.1464 -0.0426
28836W        W35436  11.797   5.484  16.004  0.2993  0.2409 -0.1317
28837W        W35437  16.518   3.844   1.407  0.1611 -0.1079  0.4465
28838W        W35438   7.620   3.933   1.098  0.2940 -0.0637 -0.1691
28839W        W35439  10.318   1.800  32.271 -0.2587 -0.0895  0.0542
28840W        W35440   3.703   5.278  32.969  0.0037  0.1645 -0.0584
28841W        W35441  11.197   3.486  14.385  0.0485 -0.0535 -0.0507
28842W        W35442   5.485   2.007   0.941 -0.3371  0.0812  0.2635
28843W        W35443   3.744   6.269  16.656 -0.0626 -0.1765 -0.1306
28844W        W35444   5.464   0.297  15.953  0.2112 -0.2679  0.0730
28845W        W35445   0.129   1.503  40.656  0.1368  0.3581  0.2400
28846W        W35446  19.563   0.438   8.472 -0.1861  0.3859 -0.0107
28847W        W35447   7.595   0.637  10.674  0.2822 -0.2358  0.1743
28848W        W35448   9.044   4.559   8.144 -0.1790  0.1315 -0.2335
28849W        W35449  11.495   5.950   4.463  0.0611  0.3372  0.4920
28850W        W35450   6.743   2.229  19.570  0.5266  0.0317  0.2222
28851W        W35451   1.001   1.692  34.659  0.0189 -0.1785 -0.0075
28852W        W35452  15.052   0.001  43.293 -0.1599  0.0882  0.1086
28853W        W35453   5.585   2.746  44.804  0.2156  0.2246 -0.1745
28854W        W35454   0.288   6.093  38.910 -0.0255 -0.1618 -0.1767
28855W        W35455   8.055   4.933   5.616 -0.0305 -0.0427 -0.1310
28856W        W35456  16.030   3.250  26.710 -0.0016  0.0532  0.2018
28857W        W35457  17.289   5.185  25.326  0.3614  0.1124  0.2151
28858W        W35458  12.870   3.166  38.935  0.2831 -0.2974 -0.1135
28859W        W35459  10.787   2.044  13.959  0.0749  0.1330  0.1892
28860W        W35460  10.205   6.350   9.657 -0.1747 -0.1910 -0.1007
28861W        W35461   7.845   6.490   5.954 -0.2119  0.0690  0.2860
28862W        W35462  14.376   2.087  27.680  0.2617 -0.0941  0.1485
28863W        W35463  15.845   2.818  32.206 -0.3246  0.0140 -0.0446
28864W        W35464  11.169   2.552   2.050 -0.1799 -0.1840 -0.0693
28865W        W35465  18.014   0.466  26.047  0.1059 -0.4188  0.0609
28866W        W35466  12.633   2.866  14.304  0.0950  0.0369 -0.3489
28867W        W35467  16.531   2.218   5.567 -0.0726 -0.0589  0.1062
28868W        W35468  15.188   0.919  33.121  0.1783 -0.2013  0.0114
28869W        W35469  11.361   5.392  20.716 -0.0990  0.3270  0.1653
28870W        W35470  16.492   4.158  29.179  0.2989 -0.1823 -0.1159
28871W        W35471   7.719   4.883   0.169 -0.0564 -0.0480  0.0519
28872W        W35472   7.002   4.204  14.277  0.2798  0.2051 -0.2693
28873W        W35473   7.967   6.169   3.331  0.3789  0.1041 -0.2781
28874W        W35474  13.499   6.431  15.362 -0.1392  0.1154  0.0510
28875W        W35475   9.372   1.412  33.179 -0.0618  0.2557  0.1314
28876W        W35476  14.208   4.587  38.967 -0.2946 -0.2664  0.2448
28877W        W35477  19.563   4.108  41.646 -0.1183  0.3037 -0.0020
28878W        W35478  17.685   0.562  12.002 -0.3226  0.3103  0.0935
28879W        W35479   3.931   1.561  28.005 -0.0895  0.2106 -0.0587
28880W        W35480  18.053   2.464   2.034  0.1787  0.0324  0.0773
28881W        W35481  14.569   1.176   4.411  0.2755  0.0174  0.0707
28882W        W35482  14.922   0.701  11.911  0.0934 -0.1341 -0.0311
28883W        W35483  11.258   4.520   2.885 -0.3508  0.2049 -0.3840
28884W        W35484  16.689   2.385  10.271  0.0239  0.0470 -0.2035
28885W        W35485  21.012   6.600  37.071 -0.2602  0.0916  0.0246
28886W        W35486   3.707   0.848   8.845  0.2169  0.0479 -0.0983
28887W        W35487   9.700   3.712   8.103  0.0470  0.1276  0.2194
28888W        W35488  14.308   1.974   6.031 -0.1388 -0.2778  0.0608
28889W        W35489   1.788   5.173  31.422  0.2008  0.3050 -0.2117
28890W        W35490   5.200   5.119  42.769  0.1878  0.2157 -0.0454
28891W        W35491  13.291   6.103  32.684  0.3781  0.0216  0.3239
28892W        W35492  20.656   0.955   0.415  0.0339 -0.0502 -0.0726
28893W        W35493  18.094   6.037  37.848 -0.0079 -0.0842 -0.0759
28894W        W35494  17.703   1.184  28.207 -0.0358 -0.1187 -0.0289
28895W        W35495   4.710   4.571   9.878 -0.3155  0.0002  0.2575
28896W        W35496  16.447   5.981   4.711 -0.0041  0.0614  0.2031
28897W        W35497   1.920   2.251  11.319  0.3510  0.1041  0.0215
28898W        W35498   0.223   6.365  23.823  0.2540  0.1476  0.0877
28899W        W35499   7.414   1.494  35.650  0.5455  0.1217  0.0602
28900W        W35500   5.392   2.532  12.624 -0.0253  0.0511  0.2325
28901W        W35501  17.228   4.288  42.810 -0.0490  0.0395 -0.1384
28902W        W35502   5.886   0.740  33.996 -0.2836  0.0960 -0.0339
28903W        W35503  15.688   6.372  43.444 -0.0019 -0.0216 -0.0648
28904W        W35504  11.425   0.295  31.180  0.1218  0.1610  0.1592
28905W        W35505  11.003   2.347   5.385 -0.1240 -0.0430  0.2306
28906W        W35506  13.974   1.044  44.060  0.0992  0.1154  0.0379
28907W        W35507  18.382   6.166  30.724 -0.0158  0.1846 -0.0691
28908W        W35508   5.512   4.458  18.647  0.1787 -0.0382  0.2633
28909W        W35509  16.487   3.189   1.011 -0.0716  0.1929 -0.0851
28910W        W35510  17.820   3.335  13.779 -0.1841  0.1879 -0.0869
28911W        W35511   3.283   2.269  27.639  0.0839 -0.0292  0.3570
28912W        W35512  14.139   4.293  19.902  0.0511 -0.4065  0.0192
28913W        W35513   7.439   3.322  38.658  0.1756  0.0958 -0.0550
28914W        W35514  16.934   0.355  33.116 -0.1314 -0.0291  0.0472
28915W        W35515   3.846   6.474  30.977 -0.1302  0.1522 -0.1118
28916W        W35516   9.735   4.984  13.957 -0.1884  0.1187  0.1730
28917W        W35517  13.785   0.008  29.298 -0.2330 -0.0472 -0.0258
28918W        W35518  14.741   0.115  14.220 -0.1448 -0.0819 -0.0095
28919W        W35519   9.773   1.269  43.895  0.0450 -0.1083 -0.0573
28920W        W35520  19.331   6.077  10.526 -0.0170  0.1342  0.1096
28921W        W35521  18.900   5.617  26.420 -0.1284 -0.1166 -0.0190
28922W        W35522   4.732   5.360   0.974 -0.2317  0.2170  0.1215
28923W        W35523   8.146   6.538  29.286 -0.0113  0.1375 -0.2668
28924W        W35524  20.393   2.830   7.110 -0.0387 -0.0339  0.0374
28925W        W35525  20.339   4.846  21.488 -0.2855  0.0585  0.1008
28926W        W35526  14.534   5.371  30.221 -0.1971  0.2754  0.3441
28927W        W35527  14.127   1.476  28.831  0.0948 -0.1543  0.1257
28928W        W35528   1.082   5.487  42.813 -0.0630 -0.1124 -0.0554
28929W        W35529   1.128   6.554  37.623  0.0804  0.1918  0.1423
28930W        W35530   4.716   4.019   2.052 -0.0421  0.0104  0.0396
28931W        W35531  20.907   3.437   6.402 -0.0277 -0.2393 -0.0144
28932W        W35532  12.785   2.891  13.829 -0.0201 -0.0277 -0.2355
28933W        W35533   7.942   0.786  10.966 -0.1594 -0.1025  0.2569
28934W        W35534   9.793   3.445  42.612 -0.1826 -0.1422 -0.0835
28935W        W35535  11.229   5.144   2.195  0.0634 -0.1419  0.3100
28936W        W35536   3.448   2.746  29.835  0.1516  0.0250 -0.2291
28937W        W35537  18.206   3.634   4.214  0.1376 -0.0314 -0.0419
28938W        W35538  17.620   2.040  35.744 -0.0458  0.3140 -0.0183
28939W        W35539  11.174   2.200  11.314  0.5657 -0.0201  0.2164
28940W        W35540   5.567   2.698  14.458 -0.1211 -0.0747 -0.0795
28941W        W35541   9.542   0.529  39.671 -0.2105  0.3143  0.2204
28942W        W35542  11.844   2.558  18.678 -0.0696 -0.1050 -0.3106
28943W        W35543   9.976   3.700   7.026  0.1349  0.1059 -0.1506
28944W        W35544  19.818   1.448  35.504 -0.2065 -0.0087  0.1379
28945W        W35545  10.911   4.819  31.978 -0.2373  0.2074  0.3541
28946W        W35546   4.419   0.798   6.421 -0.0727  0.1185 -0.3786
28947W        W35547   0.490   4.888  23.835  0.1824 -0.1303  0.0508
28948W        W35548  20.753   1.386  41.784  0.3429  0.0223 -0.0858
28949W        W35549   6.544   0.045   4.991 -0.0815  0.0228  0.3797
28950W        W35550   7.960   4.270  37.740  0.0800  0.1037 -0.0194
28951W        W35551   0.709   4.295  28.376 -0.2652 -0.0002  0.1503
28952W        W35552  15.113   6.362  14.754 -0.0877  0.3069  0.1168
28953W        W35553   8.942   1.545  33.401  0.0570  0.0026  0.0946
28954W        W35554   5.555   5.190  43.138 -0.3040 -0.2890  0.2473
28955W        W35555   2.261   1.951  15.963 -0.3768  0.1426  0.1993
28956W        W35556  20.465   4.803  29.682 -0.0807 -0.2678 -0.1176
28957W        W35557   0.361   3.142   1.043  0.0499 -0.1628  0.3647
28958W        W35558   7.517   5.635  35.099 -0.2698 -0.2313 -0.0815
28959W        W35559   9.794   3.960  24.141 -0.1980  0.1007  0.0700
28960W        W35560   5.894   1.675   2.520  0.1686 -0.0793 -0.3518
28961W        W35561  21.101   0.867  37.478  0.1682 -0.1032  0.0716
28962W        W35562  10.035   2.100   0.129 -0.3253  0.0094  0.1782
28963W        W35563  19.301   5.453  37.457 -0.2854  0.0066  0.0163
28964W        W35564   7.146   2.986  43.928  0.0931 -0.2016 -0.2086
28965W        W35565  12.019   5.592  29.146 -0.0361  0.0411 -0.1948
28966W        W35566  16.944   5.094  31.134  0.2047 -0.1663 -0.1033
28967W        W35567   5.657   5.306  13.146 -0.0264  0.1671 -0.2754
28968W        W35568   7.203   5.268   9.890  0.1103 -0.1427 -0.0354
28969W        W35569  10.922   0.094  24.710  0.0637 -0.1609 -0.2494
28970W        W35570   7.171   0.679  16.253  0.1933 -0.1875  0.2353
28971W        W35571  10.291   3.333  17.681 -0.1261  0.3049 -0.1534
28972W        W35572   5.421   4.249  39.974  0.0997 -0.0404  0.1997
28973W        W35573   3.974   5.762   6.764 -0.0583 -0.1357 -0.2498
28974W        W35574   8.003   0.072  20.613  0.0007 -0.2825  0.4272
28975W        W35575   6.645   4.283  32.734  0.2079 -0.1183  0.4043
28976W        W35576  19.370   5.582  22.820  0.1593 -0.1483 -0.1723
28977W        W35577  20.478   6.033  36.811 -0.0704  0.0822 -0.0861
28978W        W35578  16.357   2.616  44.882 -0.1748 -0.0297  0.0472
28979W        W35579  14.950   4.200  41.719 -0.1486  0.0512 -0.1837
28980W        W35580   2.775   5.095   7.201  0.1338  0.1355 -0.0736
28981W        W35581  12.401   4.826  43.510  0.0770  0.0882  0.0761
28982W        W35582  20.060   3.640   2.303 -0.0745 -0.0413  0.0468
28983W        W35583   2.113   3.760   2.375  0.1036 -0.0297 -0.1793
28984W        W35584   2.950   1.326  38.234 -0.0716  0.0878 -0.1198
28985W        W35585   2.036   4.279   5.743 -0.1119 -0.2812 -0.0423
28986W        W35586  19.471   3.653  28.459 -0.0509  0.0443 -0.0360
28987W        W35587   8.305   6.002  29.852  0.1700 -0.1439  0.0444
28988W        W35588   8.548   6.474  29.854 -0.3117  0.0504  0.0415
28989W        W35589  17.299   3.863   5.227 -0.0020 -0.0674  0.0168
28990W        W35590  10.323   5.718  12.979  0.2472 -0.2761  0.2036
28991W        W35591  16.991   2.105   1.600 -0.1388  0.1606 -0.1037
28992W        W35592   6.500   4.431  39.859  0.0727 -0.0705 -0.4544
28993W        W35593   8.509   4.268  40.435  0.0674  0.2592  0.0467
28994W        W35594   2.715   4.360  42.263 -0.1431  0.3772 -0.0270
28995W        W35595  13.817   1.239  40.002  0.3547 -0.0305  0.0789
28996W        W35596  17.263   2.989  25.731 -0.2876 -0.3527  0.0761
28997W        W35597  13.602   5.814  42.510 -0.2572  0.3451  0.0018
28998W        W35598   8.085   0.332  37.184 -0.0078  0.1922  0.0691
28999W        W35599  12.046   5.484  42.360 -0.0354 -0.0085 -0.1226
29000W        W35600  15.823   0.852  36.356 -0.1854 -0.4801  0.0451
29001W        W35601   3.453   4.500   0.158  0.0160  0.0865 -0.3370
29002W        W35602   5.426   5.336   2.898  0.0003 -0.1143 -0.1651
29003W        W35603  15.384   3.302  15.786  0.1043  0.0523 -0.1770
29004W        W35604  15.811   3.799  44.520  0.1803 -0.1348 -0.0434
29005W        W35605   2.501   6.057  35.908 -0.0957 -0.2085  0.1826
29006W        W35606  18.687   1.283  25.845 -0.0586 -0.0444 -0.0791
29007W        W35607   0.773   0.925  40.537  0.1126 -0.1984  0.0902
29008W        W35608  18.193   1.799  30.457  0.0011  0.0637  0.0486
29009W        W35609   8.668   5.410  20.430 -0.3075 -0.1409 -0.1176
29010W        W35610   9.363   3.952  37.325 -0.0666  0.2105 -0.2440
29011W        W35611   6.134   5.808  39.019  0.1206 -0.0950 -0.4381
29012W        W35612   9.679   5.731  18.803  0.0496  0.4412 -0.0497
29013W        W35613  17.827   3.879  41.951  0.0479  0.0055 -0.4884
29014W        W35614  11.797   4.529  29.525 -0.0827  0.2786  0.2041
29015W        W35615   8.675   3.472  17.719  0.1050  0.2318  0.0231
29016W        W35616   0.077   4.933   1.801 -0.1144 -0.0627 -0.0195
29017W        W35617  10.194   0.485  33.598 -0.0937 -0.0760  0.1780
29018W        W35618  15.599   1.928  38.586  0.3351 -0.0307 -0.0512
29019W        W35619   8.712   6.101   8.110 -0.0850 -0.2018 -0.0836
29020W        W35620  20.514   4.823   0.335 -0.0474 -0.0992  0.2437
29021W        W35621  15.868   5.117  15.572 -0.0236  0.4198  0.3496
29022W        W35622  10.153   2.095  33.198 -0.1752  0.0371  0.1283
29023W        W35623  14.773   4.983  10.060  0.2015  0.1359 -0.0895
29024W        W35624   2.224   2.223   5.173  0.0210  0.1058  0.0853
29025W        W35625   3.726   0.209  13.342 -0.0810 -0.2392  0.0077
29026W        W35626   4.629   5.194   6.145  0.2301 -0.1737  0.0990
29027W        W35627  16.875   6.097  31.669  0.2576 -0.1277 -0.0752
29028W        W35628  14.079   4.110   5.686 -0.1101 -0.0266  0.0378
29029W        W35629   1.054   5.569  12.782 -0.2093 -0.0550 -0.0669
29030W        W35630   2.146   5.233   1.853 -0.2855 -0.1036 -0.1083
29031W        W35631   5.760   2.285   0.581  0.0035  0.2729  0.1202
29032W        W35632   6.404   5.491  32.989  0.1178  0.2675  0.1165
29033W        W35633   6.915   5.236  12.011 -0.0767 -0.0007 -0.0514
29034W        W35634   1.774   1.608  12.478  0.1927  0.1386  0.0477
29035W        W35635  15.172   6.151   4.011 -0.2189 -0.2446 -0.2108
29036W        W35636  10.267   5.406  41.796 -0.1126  0.1536 -0.1380
29037W        W35637   6.255   0.688  42.031 -0.3773 -0.0575  0.0663
29038W        W35638  12.503   4.343  28.183 -0.2145 -0.0484 -0.1838
29039W        W35639  10.762   3.239  23.931  0.0969  0.1552  0.0255
29040W        W35640   8.115   2.417   2.094  0.0230 -0.1215 -0.2784
29041W        W35641  20.701   2.058  21.916 -0.0677  0.0146 -0.1936
29042W        W35642  21.061   5.029  41.533 -0.0138  0.0246  0.0367
29043W        W35643   6.076   5.372  36.030 -0.0918 -0.0745  0.3739
29044W        W35644  20.265   0.512   4.049 -0.0787 -0.2722 -0.4412
29045W        W35645  10.889   3.961  23.993 -0.0048  0.1655 -0.0617
29046W        W35646   7.325   3.847  41.217  0.0229  0.0869 -0.1756
29047W        W35647   4.995   6.151  37.460  0.1606 -0.2515 -0.2887
29048W        W35648  10.995   0.013  31.854  0.0284  0.2417 -0.1609
29049W        W35649  10.584   2.576  24.279 -0.0719  0.0194 -0.0621
29050W        W35650  14.763   4.467  35.418 -0.3999 -0.0611  0.2088
29051W        W35651   4.496   6.399  28.222 -0.1559  0.1509 -0.2454
29052W        W35652  11.347   6.547  38.285  0.1406  0.0639  0.0057
29053W        W35653   3.835   4.374   9.354 -0.0171 -0.1441  0.1190
29054W        W35654  10.615   3.773   6.607 -0.0356  0.0904  0.2318
29055W        W35655   6.454   0.863  44.240  0.1194  0.1437  0.1463
29056W        W35656  18.496   0.761  44.525  0.1472 -0.4660  0.1252
29057W        W35657  13.759   6.414  20.040  0.0222 -0.0685  0.1337
29058W        W35658  17.824   6.029  31.661  0.4827  0.2191  0.2621
29059W        W35659  19.887   3.196  38.281 -0.3344  0.0035  0.0110
29060W        W35660   9.825   1.970  12.127  0.0387 -0.0152  0.5090
29061W        W35661  11.241   5.501  15.719  0.2370  0.2118  0.0435
29062W        W35662   9.450   2.981  34.277 -0.1796 -0.0290 -0.2022
29063W        W35663  13.397   1.480  34.116  0.0968  0.2570  0.1317
29064W        W35664  16.954   4.317  34.648 -0.2589 -0.0172  0.0767
29065W        W35665   8.500   4.485  34.685  0.1177 -0.0736 -0.1565
29066W        W35666   6.686   2.014  12.755 -0.1001  0.1567 -0.1768
29067W        W35667   9.531   3.013   2.925  0.3756  0.0025  0.2176
29068W        W35668   4.301   2.543   4.634  0.1312  0.1018  0.0182
29069W        W35669   7.045   0.839   6.049  0.0679 -0.0785  0.0483
29070W        W35670  20.015   5.046  34.754 -0.3901  0.2923 -0.4262
29071W        W35671   7.156   1.277  41.162 -0.1391  0.0633  0.3527
29072W        W35672  20.263   2.400  39.879  0.0338 -0.0323 -0.0619
29073W        W35673  12.006   2.447  16.403  0.1171  0.0748 -0.0655
29074W        W35674  19.128   1.143  25.047  0.0698  0.0852  0.1604
29075W        W35675   2.153   3.506  30.247  0.0837  0.0514  0.3003
29076W        W35676   3.577   2.614  26.957  0.1305 -0.5319  0.0653
29077W        W35677  17.039   4.081   1.234 -0.3351 -0.1601 -0.0036
29078W        W35678   2.045   4.759  34.524  0.0590  0.0518 -0.0220
29079W        W35679  11.136   4.975  14.516 -0.0170  0.0414  0.3336
29080W        W35680  19.347   6.432  39.879  0.0710  0.1100  0.1496
29081W        W35681   0.384   5.570   7.533 -0.1653  0.4693 -0.0492
29082W        W35682   4.288   3.264  30.968  0.2089  0.0974  0.1601
29083W        W35683   6.977   4.046   7.011  0.0644 -0.3167 -0.0891
29084W        W35684  20.748   3.583  12.825 -0.1303  0.0459 -0.1007
29085W        W35685   8.581   3.526   1.948  0.0736 -0.4686  0.2088
29086W        W35686  10.039   0.221  13.461 -0.1875  0.0254 -0.1361
29087W        W35687  11.639   5.363   1.241  0.2293  0.0122 -0.0830
29088W        W35688  10.704   1.409  40.315 -0.1390 -0.1273 -0.0764
29089W        W35689  12.483   4.900  18.957 -0.1863  0.0463  0.0614
29090W        W35690  17.956   3.292  44.528  0.0857 -0.0615 -0.1576
29091W        W35691   5.906   2.100  42.250  0.1543  0.1499  0.0647
29092W        W35692   0.612   4.524  36.337  0.1882  0.2287 -0.0321
29093W        W35693   8.571   3.647  18.259  0.4680  0.1455  0.1896
29094W        W35694  18.245   6.325   3.811  0.1245  0.2398  0.1539
29095W        W35695   2.460   5.318  40.130  0.1699  0.3224  0.2027
29096W        W35696  20.149   2.840  11.228  0.2333  0.0370 -0.1087
29097W        W35697   1.359   4.451  41.423 -0.1218 -0.2156  0.0840
29098W        W35698   3.502   3.319  34.893  0.1881 -0.2034 -0.2171
29099W        W35699  10.263   4.951   3.775  0.0971  0.1020  0.0002
29100W        W35700   5.711   3.607  34.672  0.1006 -0.2166 -0.1937
29101W        W35701  13.454   5.901  29.301  0.1801 -0.0730 -0.2137
29102W        W35702   3.435   5.122  30.064  0.0272  0.1501 -0.1118
29103W        W35703  10.248   2.657   1.044  0.3305  0.0913  0.0419
29104W        W35704   5.568   0.835  11.237  0.1090 -0.0525  0.1697
29105W        W35705  21.127   1.633  25.674 -0.1661  0.0168 -0.0815
29106W        W35706  12.465   6.540  42.757 -0.0326  0.0256  0.3672
29107W        W35707  19.333   0.261  11.075 -0.0470  0.0326 -0.0596
29108W        W35708   8.393   3.533   3.169  0.2263  0.1629  0.2685
29109W        W35709   9.573   2.994  23.045 -0.1997  0.3264  0.0965
29110W        W35710   6.712   1.476  20.667 -0.4206  0.0675 -0.1443
29111W        W35711  14.303   1.903  17.513  0.0271  0.1969  0.1701
29112W        W35712  12.306   5.251  31.581 -0.2454  0.1825  0.1957
29113W        W35713   7.055   1.601  36.447  0.2548  0.1546  0.0121
29114W        W35714  20.693   5.864  28.987  0.1529  0.0296  0.0849
29115W        W35715   9.525   1.142  41.098 -0.1765 -0.1821  0.3001
29116W        W35716   4.288   4.365   4.443  0.1135  0.0585  0.0374
29117W        W35717  12.085   5.224  41.323  0.1293  0.1907 -0.1363
29118W        W35718  18.471   1.606  41.862  0.1395 -0.1600 -0.0195
29119W        W35719  15.246   4.420  38.322 -0.0684  0.0936 -0.2198
29120W        W35720  15.484   1.673  44.432 -0.0156 -0.0134  0.2016
29121W        W35721  17.737   3.499   4.306 -0.2001 -0.2936  0.0666
29122W        W35722   6.284   2.488   3.030 -0.1389  0.1821 -0.0982
29123W        W35723  20.299   1.737  30.072  0.1643 -0.2978 -0.0520
29124W        W35724  11.356   3.916  42.814 -0.2113 -0.1103  0.0516
29125W        W35725  13.467   3.925  38.935 -0.2097 -0.1681 -0.1707
29126W        W35726  13.684   1.664  42.279  0.0410  0.0357  0.2249
29127W        W35727   7.891   3.754  16.406 -0.1923 -0.2073 -0.1561
29128W        W35728  10.280   3.800  22.238  0.1706 -0.3780  0.0290
29129W        W35729   2.118   5.678  40.713 -0.0790  0.1518  0.0344
29130W        W35730  15.241   4.749  37.018  0.3603 -0.0415  0.2170
29131W        W35731   8.595   1.524   3.296  0.0700  0.1879 -0.0327
29132W        W35732   8.375   1.193   7.902  0.0323  0.1298 -0.0180
29133W        W35733   0.452   3.441  23.928 -0.0250  0.0729 -0.0018
29134W        W35734   8.143   3.200   8.877 -0.4451 -0.3301  0.1971
29135W        W35735   8.930   0.804   8.425 -0.1573 -0.2322 -0.5144
29136W        W35736   1.122   6.303  31.918  0.0914 -0.0208 -0.4034
29137W        W35737  20.349   5.586  30.783 -0.0033 -0.2696 -0.0098
29138W        W35738  18.183   1.671  32.071  0.1889  0.1666  0.1803
29139W        W35739  10.402   0.687  38.420 -0.0872 -0.0063  0.0091
29140W        W35740  14.362   4.438   0.292 -0.0423  0.0660  0.3498
29141W        W35741  18.946   5.930   3.229 -0.1226 -0.1678  0.0491
29142W        W35742  14.420   1.700  13.192  0.0230 -0.0954  0.0095
29143W        W35743   4.750   1.686   7.539 -0.0264  0.0923  0.2720
29144W        W35744  11.819   5.072  36.750  0.1591 -0.1348 -0.1335
29145W        W35745   7.722   3.290  20.712  0.1984 -0.2764 -0.0289
29146W        W35746   8.341   3.731  16.042  0.0126  0.3738  0.5396
29147W        W35747   5.458   3.353   5.904 -0.0763  0.2666  0.3672
29148W        W35748   0.675   0.612  10.766  0.0507 -0.0370 -0.2986
29149W        W35749   2.528   1.797  36.036  0.1205 -0.0691  0.0478
29150W        W35750  17.847   6.126  13.859  0.0122 -0.1445  0.1459
29151W        W35751  21.050   0.228  38.274  0.0606  0.2792  0.1580
29152W        W35752   5.756   1.162  43.214 -0.0365  0.1337  0.3002
29153W        W35753  10.548   0.955  21.463  0.1631 -0.3124 -0.0939
29154W        W35754   2.436   1.004   5.464  0.3699  0.1473 -0.0845
29155W        W35755   7.103   3.875  13.076 -0.2435  0.1107  0.1841
29156W        W35756   4.011   0.474  35.139  0.3101  0.0878 -0.1789
29157W        W35757   9.795   6.183  44.102  0.1525  0.1012 -0.0322
29158W        W35758   3.584   5.981  31.162  0.4315  0.1154 -0.1413
29159W        W35759   9.796   0.222   5.440  0.0218  0.0394  0.0522
29160W        W35760  18.943   1.176  30.197  0.0643 -0.1623  0.0117
29161W        W35761  20.190   0.794  28.246 -0.0872  0.0797 -0.2560
29162W        W35762   5.441   2.887  30.149 -0.0773 -0.1814 -0.1563
29163W        W35763   2.269   2.354  32.880 -0.0132 -0.1316 -0.1511
29164W        W35764  14.061   4.568  12.148 -0.1214 -0.1254 -0.2338
29165W        W35765   5.868   4.424  11.961 -0.0599  0.0040  0.1467
29166W        W35766   8.745   3.261   2.985  0.0160 -0.0058  0.0526
29167W        W35767   8.590   3.110  40.658  0.0633  0.0778 -0.1679
29168W        W35768   1.140   4.216  36.589 -0.0742  0.1449  0.1507
29169W        W35769   8.589   5.384   9.622 -0.0312  0.0399 -0.1882
29170W        W35770  15.678   3.406   4.914  0.1987  0.4433  0.0061
29171W        W35771   6.734   4.183  13.304  0.1825 -0.0600 -0.0402
29172W        W35772   3.232   2.742  15.532  0.1569  0.1138 -0.0177
29173W        W35773  16.389   4.944  38.804 -0.3316  0.1894  0.0573
29174W        W35774  11.664   5.275   4.396 -0.3036  0.0129 -0.0150
29175W        W35775  17.767   5.344  29.167 -0.3301 -0.1543  0.0795
29176W        W35776   1.737   0.716  24.011 -0.3379 -0.1503 -0.2109
29177W        W35777  15.167   1.701  39.667  0.0588  0.4379 -0.0189
29178W        W35778  13.724   3.753   7.287 -0.0678 -0.1276 -0.0524
29179W        W35779   2.380   2.991  13.992  0.6803 -0.1581 -0.1797
29180W        W35780   0.655   0.553  23.911  0.1570  0.1655  0.0567
29181W        W35781  21.043   3.594  25.653 -0.1057  0.0206 -0.2498
29182W        W35782  11.250   4.581  35.180 -0.1799 -0.2316 -0.1580
29183W        W35783  10.401   4.739  24.337  0.1171  0.0112  0.1157
29184W        W35784  14.919   5.399  29.318  0.1720  0.0342 -0.2563
29185W        W35785  20.256   1.012  15.166  0.3700 -0.2492  0.1858
29186W        W35786   5.130   1.589   6.115  0.0752  0.0238 -0.0413
29187W        W35787   8.741   0.061  30.898 -0.0308 -0.1246  0.0235
29188W        W35788  13.082   6.492  30.458 -0.0559  0.2699 -0.0145
29189W        W35789  20.553   1.984   6.750  0.1432 -0.1775 -0.2276
29190W        W35790  18.187   4.670  27.240 -0.1323  0.0202  0.2088
29191W        W35791  19.595   2.359  37.062 -0.0192  0.1311 -0.1663
29192W        W35792  14.614   3.404  42.864 -0.2857  0.2283 -0.1493
29193W        W35793  20.544   0.491  23.969  0.1639  0.2519 -0.2285
29194W        W35794   4.406   6.171  11.404 -0.0302 -0.3637 -0.2746
29195W        W35795   8.827   1.491  13.512 -0.0810 -0.2478  0.1199
29196W        W35796   0.630   5.119   7.705 -0.1031 -0.1392  0.0909
29197W        W35797  12.297   2.487  28.557  0.1088  0.1678 -0.0936
29198W        W35798  19.578   2.872  33.376 -0.0020  0.0095 -0.0365
29199W        W35799  15.988   2.984  35.175  0.0845  0.0466 -0.0250
29200W        W35800  12.018   4.203  29.165 -0.1659  0.0125 -0.0354
29201W        W35801  19.153   3.985   7.408 -0.1382 -0.0662  0.1342
29202W        W35802  17.147   1.372  28.311  0.1258  0.2632 -0.0798
29203W        W35803  17.911   4.285   9.504  0.2543 -0.1398 -0.0945
29204W        W35804  14.974   5.371  38.721 -0.0754  0.2428  0.0730
29205W        W35805  13.129   3.940  29.294  0.1492 -0.2171 -0.0725
29206W        W35806   1.738   3.016  39.534  0.2500 -0.1935  0.1602
29207W        W35807   8.053   3.200  18.220  0.0326 -0.0328 -0.0103
29208W        W35808  16.387   1.928  29.840 -0.0384  0.2450 -0.1622
29209W        W35809   2.938   5.122  12.660 -0.0612 -0.0489 -0.0528
29210W        W35810  19.401   0.701  30.340 -0.0701  0.2494 -0.0716
29211W        W35811  12.476   6.446   3.448 -0.0280 -0.1221  0.1175
29212W        W35812  18.745   4.821  22.402  0.1819  0.0938 -0.1462
29213W        W35813   3.398   0.367  38.323  0.0445  0.2229  0.3874
29214W        W35814  11.271   1.597   9.544  0.1812 -0.1451 -0.2220
29215W        W35815   0.079   1.211  32.419  0.3133  0.1098  0.1916
29216W        W35816   9.504   4.869  37.313 -0.0167  0.0496 -0.0643
29217W        W35817  11.560   6.272  21.879  0.1113  0.0296  0.1240
29218W        W35818  15.650   4.390   8.018  0.0371 -0.1651  0.1258
29219W        W35819   2.839   4.390  29.713  0.1068 -0.0016 -0.2597
29220W        W35820  18.584   0.850  20.257 -0.1900  0.0847  0.0905
29221W        W35821  15.782   3.140   0.488  0.1801  0.0882  0.2356
29222W        W35822   2.148   4.285  28.892 -0.0319 -0.0961 -0.2154
29223W        W35823  14.751   0.721  43.902 -0.0063  0.6359  0.3126
29224W        W35824  19.253   4.072  37.819  0.0619  0.1106  0.1336
29225W        W35825  16.169   5.740  40.596  0.0413 -0.1242 -0.0922
29226W        W35826  14.618   1.390   6.726  0.0343  0.1523  0.2455
29227W        W35827   5.810   4.393   9.168  0.0753  0.0478  0.1226
29228W        W35828   0.962   0.343  15.125  0.1327  0.0089 -0.2569
29229W        W35829   3.350   2.522  43.902  0.0478  0.0002 -0.2012
29230W        W35830   7.799   5.842  18.438 -0.2890  0.0341 -0.3342
29231W        W35831  21.029   4.986  11.347  0.0478 -0.0288 -0.2099
29232W        W35832  18.236   2.873   4.901  0.4595  0.0309 -0.0636
29233W        W35833   7.950   1.614  21.240  0.1389 -0.0899 -0.3072
29234W        W35834   6.747   4.220  37.246  0.2828 -0.0565 -0.0531
29235W        W35835   7.399   3.514  37.334  0.0910 -0.0088 -0.3637
29236W        W35836   7.980   6.320  38.174 -0.1337 -0.0855  0.1176
29237W        W35837  18.402   1.809  27.280 -0.0034  0.2458  0.3238
29238W        W35838  11.110   1.667  20.837 -0.0348  0.2314 -0.0363
29239W        W35839  16.937   1.556  29.055  0.2481  0.4164 -0.1841
29240W        W35840   5.545   2.047   2.516 -0.1884 -0.2309 -0.0688
29241W        W35841   6.983   1.575  22.268 -0.0077  0.0495  0.0602
29242W        W35842  15.158   5.304  32.164 -0.3589  0.0164 -0.2846
29243W        W35843   9.275   1.913   2.083  0.1150 -0.1303  0.2596
29244W        W35844  13.367   2.294  12.294  0.0301  0.1520  0.0382
29245W        W35845   0.795   4.912  32.168  0.0237 -0.1204  0.0278
29246W        W35846   5.050   0.477   9.276  0.3267 -0.0247 -0.3217
29247W        W35847   6.078   5.180  12.289  0.1374 -0.1819 -0.0296
29248W        W35848  15.872   6.387  36.810  0.0818 -0.0652 -0.0043
29249W        W35849  14.831   3.876  33.006  0.0548  0.0403 -0.2365
29250W        W35850  11.632   4.216  30.628  0.2243  0.0396  0.0311
29251W        W35851  18.475   6.371  27.013 -0.3883 -0.0533  0.2080
29252W        W35852   6.121   5.381   4.874 -0.1612 -0.0614 -0.0658
29253W        W35853   6.569   6.103   8.754 -0.1071  0.1041  0.2044
29254W        W35854   2.176   4.265  34.867 -0.1684 -0.1006 -0.0673
29255W        W35855   3.783   1.931  26.194  0.0105  0.1897  0.1902
29256W        W35856  15.070   1.727  31.880 -0.0106 -0.3487 -0.0546
29257W        W35857   0.519   2.941   0.054  0.3050  0.0712  0.2381
29258W        W35858   5.407   3.924  38.119 -0.1999  0.1465 -0.2053
29259W        W35859  20.749   6.424  25.739  0.2816  0.1099  0.0658
29260W        W35860  12.873   1.005  39.711 -0.0326  0.0405  0.0528
29261W        W35861   8.226   3.434   1.341  0.2279  0.2185  0.2420
29262W        W35862   2.001   3.673  32.535  0.0901 -0.0112 -0.0938
29263W        W35863  18.937   2.568  39.435 -0.0949  0.1008 -0.2055
29264W        W35864   4.974   1.474  11.331  0.0807 -0.2250  0.2303
29265W        W35865  10.741   2.196  35.101 -0.2874 -0.2645 -0.0710
29266W        W35866  17.500   2.672  40.764 -0.0788 -0.3227  0.2030
29267W        W35867  20.066   4.844   5.808  0.0158  0.1849  0.0177
29268W        W35868   3.717   3.313  38.719 -0.4938 -0.2748 -0.2271
29269W        W35869   0.297   2.552  42.609 -0.0543 -0.1377  0.2043
29270W        W35870  17.042   2.313  13.677  0.0548  0.0776  0.0512
29271W        W35871  16.240   5.382  34.756  0.1848 -0.1410 -0.0835
29272W        W35872  18.250   5.440  33.278 -0.1177  0.0405  0.0314
29273W        W35873  17.308   1.523  11.490 -0.1554  0.1879  0.0487
29274W        W35874  17.285   2.804  15.202  0.1193  0.0445 -0.2208
29275W        W35875  16.615   3.657  41.319  0.1998 -0.1556 -0.1690
29276W        W35876   6.518   3.368  37.499 -0.0403  0.0943  0.0467
29277W        W35877   4.163   4.965  41.232  0.2891 -0.2147  0.1783
29278W        W35878  16.341   2.393  35.148 -0.0775 -0.1673 -0.0502
29279W        W35879   7.119   2.126   2.756  0.0445  0.1749  0.4567
29280W        W35880  16.117   6.410   4.796 -0.2237 -0.1650  0.3892
29281W        W35881   2.049   5.510  43.062 -0.1013  0.3836 -0.0910
29282W        W35882   2.164   5.615  37.357 -0.1209  0.0141 -0.2022
29283W        W35883   7.356   2.424  44.992  0.0229 -0.0074 -0.0488
29284W        W35884  18.538   5.293  35.778 -0.3506 -0.4055  0.2575
29285W        W35885  12.755   2.393  42.256  0.1935  0.1770  0.2857
29286W        W35886  14.061   2.686  10.016 -0.1134 -0.1060  0.0033
29287W        W35887  11.649   3.355   6.017 -0.1543  0.2083  0.0711
29288W        W35888   3.494   6.337  43.184 -0.1292 -0.0386  0.0287
29289W        W35889  11.731   4.901  37.790 -0.0387  0.3357 -0.0178
29290W        W35890  11.944   1.012  15.715  0.1789  0.0247 -0.2061
29291W        W35891  12.901   6.434  11.379 -0.1056  0.1756  0.1499
29292W        W35892  12.395   3.728   2.881  0.0181  0.0306 -0.1673
29293W        W35893  18.890   2.411   8.510 -0.1759 -0.1807 -0.0428
29294W        W35894  11.881   1.167  20.728  0.2753 -0.1690  0.2726
29295W        W35895   8.797   2.839   8.804  0.1417 -0.1776  0.0248
29296W        W35896  10.341   2.991  21.810  0.2635 -0.1307 -0.3073
29297W        W35897   9.618   2.023   3.442 -0.0932  0.2303  0.3439
29298W        W35898  13.113   1.390  40.182  0.0052 -0.2043 -0.3399
29299W        W35899  12.293   5.277  39.485 -0.0611  0.0240 -0.1635
29300W        W35900   4.425   0.947  30.090  0.1983  0.2187 -0.1549
29301W        W35901   9.979   5.341   0.650  0.2865 -0.1062 -0.2354
29302W        W35902  20.443   4.241   7.925  0.0051 -0.0611  0.0762
29303W        W35903   9.016   4.966   5.202 -0.0542 -0.2006  0.1506
29304W        W35904  12.826   2.374  15.832 -0.2479  0.1161  0.2160
29305W        W35905  17.654   1.935  39.513 -0.1369  0.0810  0.1074
29306W        W35906  10.090   5.544  40.939  0.3315 -0.2624  0.0065
29307W        W35907   7.176   5.345  37.539  0.1651  0.3321  0.0501
29308W        W35908   6.963   6.081  30.622  0.2026 -0.0114  0.1946
29309W        W35909  17.425   3.718   1.008 -0.1154 -0.1309 -0.0803
29310W        W35910  16.244   1.595  32.631  0.6407 -0.1196  0.4356
29311W        W35911  13.399   2.023  42.021  0.1660 -0.0602  0.0593
29312W        W35912  16.638   3.833   7.450 -0.0136 -0.3860  0.1078
29313W        W35913  10.736   5.358  23.142  0.0447  0.0305 -0.0745
29314W        W35914  19.062   0.379  39.057  0.1595  0.1010  0.0068
29315W        W35915   7.775   6.593  42.360 -0.2149  0.2452 -0.0799
29316W        W35916   0.124   1.953  22.055  0.2703 -0.0417  0.0444
29317W        W35917  12.039   5.305  36.358 -0.1243 -0.1339  0.2638
29318W        W35918  17.454   5.197  15.895 -0.0315 -0.0885 -0.0106
29319W        W35919  14.838   2.861  17.067  0.1673  0.3676  0.1322
29320W        W35920  16.939   3.885  27.952 -0.1107  0.2435  0.4599
29321W        W35921   0.286   1.394  12.398  0.1124  0.1163  0.3810
29322W        W35922   8.331   2.331  35.359  0.0906  0.0114 -0.0549
29323W        W35923  20.213   1.437  24.308 -0.1428 -0.3716  0.3092
29324W        W35924   7.356   0.049  16.867  0.0752  0.0746  0.1123
29325W        W35925  19.005   4.409   1.790  0.0502 -0.1561 -0.0741
29326W        W35926  15.502   1.769  11.980 -0.2932 -0.5465  0.1707
29327W        W35927  12.194   5.673  21.773  0.2220 -0.2892  0.0393
29328W        W35928   5.337   0.073  39.972 -0.2450  0.1799  0.0005
29329W        W35929   0.004   3.382  12.487 -0.0521 -0.0594  0.0075
29330W        W35930   0.164   2.625   2.921  0.0084  0.0471  0.1737
29331W        W35931  12.281   6.225  28.820 -0.0897  0.0166 -0.0609
29332W        W35932  12.390   3.160  13.975 -0.1697  0.1279  0.0462
29333W        W35933   2.857   4.359  44.817 -0.4558 -0.2294 -0.1157
29334W        W35934   0.204   5.877   8.519 -0.2234  0.0046 -0.0581
29335W        W35935   1.745   3.013  44.961  0.0341  0.0658  0.1627
29336W        W35936  21.043   3.619  29.103 -0.2096  0.1593  0.0510
29337W        W35937  16.871   5.661  28.900 -0.0221 -0.1039  0.0047
29338W        W35938  10.478   5.718  10.328 -0.0696  0.1100 -0.1026
29339W        W35939  11.394   4.004  39.651  0.2980  0.0633  0.0157
29340W        W35940  17.733   6.451  25.290  0.4153 -0.2985  0.0175
29341W        W35941  11.930   5.080  13.357  0.0440 -0.1462 -0.0893
29342W        W35942   3.518   0.401  26.254 -0.0432  0.2274 -0.3569
29343W        W35943  15.537   4.146   1.197  0.1740 -0.2491  0.0789
29344W        W35944  11.578   1.029  22.611 -0.1454  0.2750  0.1970
29345W        W35945  20.038   3.148   2.325  0.0341  0.2615 -0.1791
29346W        W35946  18.012   5.629  14.006  0.1365 -0.0890 -0.0440
29347W        W35947  14.793   2.844  13.886  0.0366  0.2669  0.2498
29348W        W35948  11.185   3.050   2.183 -0.0184  0.1201 -0.2601
29349W        W35949  18.322   1.850  21.198  0.2285 -0.0035  0.0930
29350W        W35950  18.493   1.804  10.400 -0.1670 -0.1845  0.1199
29351W        W35951   6.632   4.704  16.903 -0.1795 -0.0861 -0.3881
29352W        W35952   2.178   5.180  34.717  0.1864 -0.0898  0.3476
29353W        W35953  12.115   1.875  19.478 -0.0198  0.0121 -0.1053
29354W        W35954  19.264   1.172  11.142  0.0639  0.0012  0.3943
29355W        W35955  15.465   2.772  30.089  0.1755 -0.1778 -0.0256
29356W        W35956  20.029   6.475  39.304  0.2342 -0.2511 -0.3834
29357W        W35957  14.623   0.324   8.530 -0.2867  0.1447  0.0101
29358W        W35958   7.720   3.232  42.337  0.3125  0.0127 -0.2281
29359W        W35959   8.252   3.684  44.933  0.1084 -0.3321 -0.0381
29360W        W35960  14.609   5.103  14.943  0.4096 -0.0067 -0.2720
29361W        W35961  12.778   2.761   8.024 -0.3571  0.2738  0.0054
29362W        W35962   2.442   4.804   7.566 -0.0419  0.0847 -0.2052
29363W        W35963  19.398   1.426  25.377 -0.1275 -0.0670  0.1476
29364W        W35964   5.895   1.579   9.246 -0.2753  0.0710  0.0065
29365W        W35965  18.236   0.574   2.329  0.0544  0.0416  0.0688
29366W        W35966   5.103   0.914  41.399  0.2316  0.2247  0.0855
29367W        W35967  17.888   0.972  11.834 -0.3258  0.1637 -0.2106
29368W        W35968  13.487   6.220  28.384 -0.0454  0.2151 -0.1594
29369W        W35969  21.137   3.692  14.898 -0.0453  0.0654 -0.0892
29370W        W35970  13.760   6.060   5.598  0.1626  0.0611  0.1123
29371W        W35971   3.026   4.819  29.816 -0.0972 -0.2432 -0.1350
29372W        W35972  17.935   2.475  30.965 -0.1472  0.4222 -0.1039
29373W        W35973  11.730   0.713  32.905  0.0291 -0.2118 -0.1099
29374W        W35974  17.948   0.019   1.839  0.1137  0.3300 -0.0588
29375W        W35975  11.670   4.355  44.022  0.0138 -0.0324 -0.1256
29376W        W35976   9.339   5.351   2.767  0.0722 -0.1008  0.0117
29377W        W35977   1.674   0.497  30.125  0.1718 -0.1348 -0.0382
29378W        W35978  10.543   2.311  12.472  0.0842 -0.0661 -0.0389
29379W        W35979   3.518   5.109   2.045 -0.1696 -0.0429 -0.1219
29380W        W35980  20.748   1.737  24.859  0.0169  0.0913  0.2367
29381W        W35981  14.781   0.225  18.741 -0.1906  0.1021  0.0890
29382W        W35982  20.766   3.332   5.574 -0.0530  0.2389  0.2138
29383W        W35983   4.561   4.497  36.460 -0.0976  0.0410  0.0945
29384W        W35984  20.023   6.476  14.397  0.0196 -0.0014 -0.3548
29385W        W35985   4.575   1.363  38.666 -0.3447 -0.0036  0.2092
29386W        W35986  12.287   5.832  13.414 -0.3511 -0.2823  0.0579
29387W        W35987   9.668   4.883  43.491 -0.0829 -0.0280 -0.2196
29388W        W35988  20.699   6.456  36.735  0.0372  0.0958 -0.1739
29389W        W35989   0.459   5.897   0.594  0.2214  0.0231 -0.1745
29390W        W35990   3.331   0.767  37.055 -0.2303  0.1830  0.0187
29391W        W35991   7.182   4.541  35.301  0.0801 -0.3775  0.1530
29392W        W35992  13.747   2.727  12.241 -0.1265  0.2106 -0.1772
29393W        W35993  21.008   2.569   6.317  0.1567  0.0413 -0.1168
29394W        W35994  12.969   6.367   6.161  0.0443 -0.0476  0.2560
29395W        W35995   6.151   2.898  11.499  0.1122  0.0044  0.1222
29396W        W35996   8.863   2.010  33.628 -0.1169  0.1447  0.0583
29397W        W35997  20.810   5.432  41.695 -0.1079  0.2234  0.0648
29398W        W35998   3.250   0.715  31.299  0.2325 -0.0534 -0.3073
29399W        W35999   4.619   4.021  16.170  0.1573 -0.0560  0.2072
29400W        W36000  13.516   5.745  10.763 -0.0704 -0.0854  0.1685
29401W        W36001  17.729   4.938  39.952  0.1958  0.2545 -0.0943
29402W        W36002   4.302   5.941  10.961  0.3239  0.0697 -0.0978
29403W        W36003  13.051   1.612   9.794  0.2919 -0.1434 -0.0463
29404W        W36004  14.804   3.622  33.443 -0.1627  0.2138 -0.0289
29405W        W36005  19.943   6.557  22.770 -0.2171 -0.0254 -0.2873
29406W        W36006   9.271   1.042  22.885  0.3071  0.1506  0.1091
29407W        W36007   3.027   3.748  13.859  0.1214 -0.1102  0.0514
29408W        W36008  19.642   2.883   7.757  0.0059  0.1663 -0.0142
29409W        W36009  13.701   1.290  18.420  0.1859 -0.1561  0.3004
29410W        W36010   5.530   3.715  18.086 -0.1583  0.1285  0.4889
29411W        W36011  10.288   3.440   0.808 -0.0240 -0.2626  0.1110
29412W        W36012   9.715   6.567  23.628  0.1894  0.2766 -0.0162
29413W        W36013  16.140   3.122   4.974  0.0248 -0.2497 -0.0719
29414W        W36014   9.755   0.531  37.877  0.1091  0.3513 -0.0896
29415W        W36015  10.287   5.991   7.945 -0.0136 -0.1352  0.0501
29416W        W36016  19.574   0.296  11.603 -0.1628 -0.0180 -0.1007
29417W        W36017   2.214   4.038  15.625  0.0604  0.2274 -0.0085
29418W        W36018  13.106   2.854  41.210 -0.2010 -0.2078  0.0738
29419W        W36019  20.336   0.385  42.098 -0.0687  0.3771  0.1462
29420W        W36020  17.268   4.136  12.178  0.0388  0.2720  0.2637
29421W        W36021  14.302   6.274   5.449 -0.0517  0.0195 -0.0218
29422W        W36022  10.093   1.851  15.275 -0.1370  0.0851 -0.1387
29423W        W36023  15.927   5.296  39.800 -0.0555 -0.4362  0.1884
29424W        W36024  21.052   0.195   7.942 -0.0067 -0.0162  0.1085
29425W        W36025   8.934   1.728  30.795  0.2412  0.0233  0.1001
29426W        W36026  16.046   4.400  16.074  0.2055  0.0440  0.0142
29427W        W36027   4.619   0.340   3.229  0.1508  0.0569  0.1608
29428W        W36028   4.281   6.452   0.221 -0.0704  0.2073  0.1606
29429W        W36029   4.075   4.868  35.302 -0.0392 -0.1586  0.2693
29430W        W36030   5.277   1.158  40.989  0.0280  0.1492 -0.0202
29431W        W36031  14.840   1.932  27.422  0.2541 -0.0491  0.1315
29432W        W36032  20.737   4.065  34.449 -0.1534  0.2492  0.0375
29433W        W36033  17.381   4.577  28.321  0.1317  0.0161 -0.0903
29434W        W36034  19.848   2.992  26.971  0.1825  0.1325 -0.0402
29435W        W36035  19.455   2.946  25.199  0.0613  0.1195 -0.0272
29436W        W36036  10.271   6.439  34.921 -0.0547 -0.0190 -0.0503
29437W        W36037   2.024   1.404   1.792  0.0528 -0.1875  0.3267
29438W        W36038   4.798   5.347  16.132 -0.1331 -0.3289 -0.0216
29439W        W36039  13.129   1.549  20.354  0.0648 -0.2689  0.2037
29440W        W36040   5.244   0.005  10.210 -0.3137  0.1137 -0.1946
29441W        W36041  11.561   3.415  34.225  0.0547 -0.1037 -0.1383
29442W        W36042  20.025   3.227  40.327 -0.2381  0.0673 -0.0995
29443W        W36043  19.725   4.596  21.947  0.0652  0.1288 -0.0468
29444W        W36044   4.373   1.575  40.583  0.0633 -0.0264 -0.1955
29445W        W36045   1.895   1.834   7.006 -0.0108 -0.3441  0.0083
29446W        W36046  13.865   3.093  35.929 -0.2641 -0.1756 -0.3150
29447W        W36047   5.753   1.215  33.847 -0.1610  0.0570 -0.0642
29448W        W36048   1.827   4.780   4.516 -0.0932  0.2025  0.2539
29449W        W36049  11.798   2.017  37.804  0.2906 -0.3620 -0.0288
29450W        W36050   9.292   1.752  18.465  0.2000  0.0025  0.0316
29451W        W36051  12.692   4.850  35.214  0.2504 -0.2821  0.0785
29452W        W36052  16.334   4.022   5.182  0.2052  0.2030  0.3972
29453W        W36053   2.793   5.913  15.195 -0.3017 -0.1888 -0.1227
29454W        W36054   4.621   1.353  29.830 -0.2074 -0.0593 -0.3633
29455W        W36055  13.536   3.236  30.007  0.0285  0.0785 -0.1769
29456W        W36056   1.524   6.019   3.246  0.2267  0.0544 -0.0769
29457W        W36057   1.781   1.891  44.422 -0.3892  0.3459 -0.1080
29458W        W36058   2.593   2.546  27.066  0.0861 -0.1539  0.2103
29459W        W36059   7.110   3.788  33.692 -0.4074  0.2310 -0.0823
29460W        W36060   7.421   3.672   0.740 -0.2692 -0.0857 -0.1068
29461W        W36061  10.984   2.859  29.933 -0.2765 -0.3753 -0.3258
29462W        W36062   6.178   1.954  12.342  0.1183 -0.1947 -0.0660
29463W        W36063  14.852   0.689  41.296  0.0149 -0.1072 -0.1161
29464W        W36064  11.005   1.993   9.778 -0.2488  0.2139  0.4281
29465W        W36065  19.547   3.381  41.760 -0.0168  0.3987  0.1849
29466W        W36066   7.142   3.157  20.061 -0.0881 -0.4578  0.0275
29467W        W36067  11.148   2.276  33.732 -0.0644  0.0549 -0.1275
29468W        W36068   8.716   6.492   4.444  0.2029 -0.2103  0.1936
29469W        W36069  10.421   0.983  15.306 -0.0357 -0.3121 -0.0814
29470W        W36070  17.398   0.688  37.607 -0.1893  0.2567 -0.1999
29471W        W36071   2.444   6.303  30.977 -0.1713  0.3233 -0.1519
29472W        W36072  20.679   2.559   4.285 -0.1011  0.0059  0.1667
29473W        W36073   5.859   6.081  41.571 -0.0944  0.0772 -0.1023
29474W        W36074  14.277   3.071   3.548  0.0380 -0.4013  0.0557
29475W        W36075   0.113   6.589   5.526 -0.0734  0.2710  0.2517
29476W        W36076  14.602   5.948  28.568 -0.0394  0.1738 -0.0568
29477W        W36077   2.668   5.043  33.563 -0.4145  0.1925 -0.0556
29478W        W36078  18.940   4.615  14.261  0.1215 -0.0343  0.5176
29479W        W36079  10.240   4.875  18.802  0.3517  0.1434  0.0571
29480W        W36080  12.109   6.230   0.296  0.1858  0.1762  0.0053
29481W        W36081   7.440   3.409  40.968  0.0043  0.2802  0.0419
29482W        W36082   7.815   0.871  16.991  0.1575  0.0642  0.2056
29483W        W36083  15.816   3.967   4.932 -0.0488 -0.2303 -0.1191
29484W        W36084  19.005   0.687  40.018  0.1474 -0.0819 -0.2587
29485W        W36085  10.379   3.390   6.942  0.0553 -0.0038  0.0232
29486W        W36086  20.662   1.541  39.677  0.1268 -0.1328  0.1193
29487W        W36087   4.052   3.552  26.689  0.1875 -0.0881 -0.0947
29488W        W36088  17.348   3.125  33.503  0.0854 -0.1171  0.2358
29489W        W36089  13.159   6.379  33.909 -0.0176  0.0155  0.2738
29490W        W36090  10.346   5.778  42.477 -0.0241  0.2464  0.2271
29491W        W36091   2.496   3.444   4.004 -0.3889  0.2406  0.2762
29492W        W36092   6.033   3.013  16.224  0.1461 -0.0172  0.2928
29493W        W36093  19.774   6.327   3.341  0.0116  0.3165 -0.0565
29494W        W36094   1.188   1.130  30.647 -0.2038  0.1515  0.1594
29495W        W36095   1.863   3.556  36.367 -0.0237 -0.0039 -0.0976
29496W        W36096   6.660   2.015  11.965 -0.0748  0.2441  0.0692
29497W        W36097  19.236   3.065  39.663  0.0900 -0.2005  0.0137
29498W        W36098   8.805   0.934  17.261  0.0642 -0.0242  0.0143
29499W        W36099  20.024   0.729  14.284 -0.1505 -0.4665  0.0669
29500W        W36100  17.103   3.005  36.817 -0.0710  0.3640 -0.0421
29501W        W36101  10.192   0.901   9.491  0.1355 -0.0151  0.1003
29502W        W36102   3.647   6.239   1.699  0.0294  0.1342 -0.2564
29503W        W36103   9.425   2.565   0.613  0.1954 -0.0454  0.1230
29504W        W36104   8.415   2.738  18.921 -0.0131  0.0465  0.1221
29505W        W36105   7.522   1.214   8.076 -0.1004 -0.0410 -0.0207
29506W        W36106  15.081   5.485  17.734 -0.1949  0.0639 -0.0765
29507W        W36107   9.064   5.939  43.829  0.1267  0.0340 -0.1770
29508W        W36108  17.861   4.215   2.993 -0.2515 -0.0709 -0.0796
29509W        W36109   5.466   2.332   1.948  0.0632  0.0473  0.1647
29510W        W36110   3.772   1.108  10.695  0.1025  0.1010 -0.0543
29511W        W36111   4.737   6.500  18.867 -0.1979  0.3183 -0.0836
29512W        W36112   3.745   0.953  42.065  0.0063 -0.0618 -0.0178
29513W        W36113   3.693   3.987  14.811 -0.1523 -0.1598 -0.0551
29514W        W36114   4.919   2.615   9.183 -0.3279 -0.0391  0.0352
29515W        W36115  19.136   3.776  44.474  0.1373 -0.3336 -0.0564
29516W        W36116  19.230   2.264   3.732  0.1142  0.0545  0.1129
29517W        W36117   5.072   3.027  13.813 -0.1146  0.0899  0.0306
29518W        W36118  13.211   6.147  27.892 -0.3231 -0.1063 -0.2108
29519W        W36119  15.815   3.589  34.513  0.2391  0.0378  0.1631
29520W        W36120  16.225   1.035  12.788  0.1286  0.1024 -0.0021
29521W        W36121  11.969   1.922  13.631 -0.1725 -0.2975 -0.0025
29522W        W36122  11.877   4.854  16.372  0.0784 -0.2312 -0.0899
29523W        W36123   3.241   5.930  32.380 -0.2099 -0.1444 -0.1310
29524W        W36124  10.429   3.989   5.218 -0.0170  0.2777  0.3461
29525W        W36125   0.288   4.654  39.278 -0.1948 -0.0028 -0.0347
29526W        W36126   0.191   2.493  38.414  0.0181  0.3216  0.1288
29527W        W36127  11.522   1.329   0.998 -0.0156  0.1124  0.0282
29528W        W36128  16.861   1.152  38.714  0.0115 -0.3904  0.0173
29529W        W36129  11.390   1.640  37.899  0.3580  0.1091 -0.0168
29530W        W36130  17.206   2.974  37.692 -0.0845  0.2872 -0.0027
29531W        W36131   4.136   3.591  17.912  0.0808  0.0362  0.0873
29532W        W36132  19.483   1.454  41.203 -0.2101 -0.1002  0.0782
29533W        W36133  21.134   4.607  43.676  0.0545 -0.1498 -0.1324
29534W        W36134  15.182   4.580  28.353 -0.1655 -0.2247  0.1035
29535W        W36135  19.572   0.424   4.329  0.3218  0.0259  0.0124
29536W        W36136   0.295   0.810   3.671  0.1156 -0.0119  0.0816
29537W        W36137   6.401   5.196  17.589  0.1513  0.0973 -0.0675
29538W        W36138  13.654   0.750  30.509 -0.0144  0.0778  0.1251
29539W        W36139   9.344   3.131  32.985 -0.1373  0.1682  0.2047
29540W        W36140   7.743   4.321   7.511  0.0517 -0.2421  0.0869
29541W        W36141   0.681   5.759  29.587  0.0882 -0.2055 -0.0090
29542W        W36142  15.784   6.571  33.313 -0.4796  0.2110 -0.1070
29543W        W36143   8.116   5.090   9.484 -0.2378  0.0584  0.0911
29544W        W36144  18.275   5.223  14.228 -0.0463  0.2434  0.2313
29545W        W36145   1.811   5.790  32.885 -0.0863 -0.1045 -0.2736
29546W        W36146  19.151   3.680  24.330  0.1898  0.0292 -0.0943
29547W        W36147   0.290   4.100  10.931  0.1709  0.0383  0.0349
29548W        W36148   2.741   0.816  27.831  0.2977  0.2948 -0.1894
29549W        W36149  21.047   2.905   1.197  0.0140 -0.2053 -0.0806
29550W        W36150  18.242   2.353  37.377  0.0242  0.3015 -0.1202
29551W        W36151  17.036   1.145  44.348  0.0100  0.3770 -0.1678
29552W        W36152   1.255   4.962  27.910 -0.2858  0.1249  0.0865
29553W        W36153  18.650   6.449  14.071 -0.2207  0.0901  0.0914
29554W        W36154   4.226   2.405  13.777  0.1188  0.6880  0.0645
29555W        W36155  14.640   5.097  35.234 -0.0104 -0.1887  0.0453
29556W        W36156  21.104   1.053  25.423  0.0587 -0.0528 -0.1737
29557W        W36157  19.652   4.557  28.716  0.2149  0.2842  0.1694
29558W        W36158  18.334   6.333  39.075 -0.2035  0.2304  0.0127
29559W        W36159  12.916   0.265  18.059  0.4069  0.2193  0.1695
29560W        W36160  17.353   5.741  27.748  0.2170 -0.1954  0.2362
29561W        W36161   2.102   4.480  40.486  0.0689  0.1928 -0.3123
29562W        W36162  17.449   5.363  35.409 -0.2287 -0.0305 -0.2977
29563W        W36163  20.120   5.546  35.850  0.0904  0.0430 -0.1345
29564W        W36164   2.981   2.974   3.731  0.2515 -0.3708  0.1432
29565W        W36165   1.495   1.791   3.643  0.1519  0.0205  0.2609
29566W        W36166  20.550   6.431  26.649  0.1314  0.1601  0.2129
29567W        W36167   4.809   2.122   6.987 -0.4217 -0.1882  0.1412
29568W        W36168   1.445   5.633  41.962  0.0116  0.2535  0.1837
29569W        W36169  20.527   5.263  14.766 -0.0934  0.1521  0.1278
29570W        W36170  16.082   1.099  11.624 -0.1711  0.2147  0.3304
29571W        W36171  12.264   2.660  17.794 -0.2073  0.1286 -0.2057
29572W        W36172  14.711   3.017   9.359  0.0748 -0.0488  0.0390
29573W        W36173   8.775   4.712   3.220 -0.0056  0.1226  0.1648
29574W        W36174   4.907   2.132  10.263 -0.0155 -0.1755  0.3316
29575W        W36175  20.334   2.797   0.702 -0.2197 -0.2974 -0.2725
29576W        W36176   7.580   5.747   6.512 -0.2265  0.0108 -0.2104
29577W        W36177   8.507   5.004   7.324 -0.0863 -0.1914 -0.2329
29578W        W36178  18.605   6.184  34.869  0.2033 -0.2704 -0.0766
29579W        W36179   7.023   3.385  37.628 -0.0231 -0.1542 -0.1102
29580W        W36180  17.888   3.278  11.849  0.0628 -0.0560  0.0708
29581W        W36181  15.552   5.084  44.390 -0.0591 -0.1997 -0.0282
29582W        W36182   1.591   6.417  44.753 -0.2403  0.3057  0.0296
29583W        W36183   6.129   1.135   9.015 -0.0958 -0.2407  0.0752
29584W        W36184  18.754   5.845   4.364 -0.0962  0.1596  0.0717
29585W        W36185  10.809   4.749  35.357  0.0251  0.0881  0.2335
29586W        W36186   5.280   3.683  16.726 -0.6133  0.2441 -0.2343
29587W        W36187   6.921   1.086   7.351  0.0720 -0.0962  0.2115
29588W        W36188   6.741   0.947  20.707  0.0442  0.0802 -0.0662
29589W        W36189   0.904   2.449   7.324  0.3453 -0.0170  0.2117
29590W        W36190  17.082   1.504  12.728  0.0185 -0.0831 -0.0130
29591W        W36191  15.592   1.838  39.100  0.0765 -0.0261  0.4230
29592W        W36192  19.768   6.222  42.777 -0.0181  0.0571 -0.1083
29593W        W36193  17.883   6.049  33.116 -0.0735  0.1024 -0.1120
29594W        W36194   8.719   3.121  22.469  0.1236  0.2054 -0.0781
29595W        W36195   0.844   6.428  35.897  0.1329  0.0591 -0.0505
29596W        W36196  13.270   4.941  14.430 -0.2105  0.0504  0.2075
29597W        W36197   3.406   2.119   6.105 -0.1100  0.0239 -0.0257
29598W        W36198   8.972   4.328  17.888  0.1185 -0.2557  0.1257
29599W        W36199  16.695   5.897  27.168 -0.3674 -0.0779  0.3669
29600W        W36200  18.327   2.594  23.593  0.1542 -0.3625 -0.2544
29601W        W36201   8.853   3.323   5.730 -0.3267 -0.0022 -0.0982
29602W        W36202  14.533   1.594  40.757  0.0128  0.2677 -0.0082
29603W        W36203  18.180   5.743   5.400 -0.2020  0.0753  0.0930
29604W        W36204   9.358   0.286   2.442  0.1516  0.0408  0.0774
29605W        W36205   9.827   0.675   0.019 -0.2119 -0.3983 -0.1170
29606W        W36206  11.609   1.111  37.484  0.1772 -0.0487 -0.0953
29607W        W36207  20.728   1.902  33.557  0.1194 -0.0587 -0.1181
29608W        W36208  14.791   5.994   6.431 -0.1396  0.0554  0.4666
29609W        W36209   7.351   6.277  10.469 -0.0429  0.0785 -0.1479
29610W        W36210   3.617   2.780  35.899 -0.0023  0.0290  0.0049
29611W        W36211  13.395   2.299  19.309  0.3385  0.0961  0.0970
29612W        W36212   2.919   4.590  27.061  0.2378  0.0151  0.2389
29613W        W36213  11.766   0.482  12.919  0.1302  0.1035 -0.0376
29614W        W36214   1.506   4.354   1.925 -0.0972 -0.1232  0.1302
29615W        W36215  14.203   1.333  42.014 -0.0380 -0.0250 -0.0509
29616W        W36216  11.044   3.325   6.534  0.3775 -0.0465 -0.1146
29617W        W36217  19.521   4.625  36.033 -0.1597  0.0730  0.0778
29618W        W36218   7.318   4.347  15.566  0.0167  0.3644  0.1321
29619W        W36219  11.944   2.938  35.152 -0.2897  0.0131  0.1168
29620W        W36220   2.057   6.128   8.596  0.1995 -0.1465 -0.0470
29621W        W36221  15.404   5.608  15.818  0.1229  0.5336  0.0158
29622W        W36222   5.263   1.188  33.678  0.1754  0.0670  0.2579
29623W        W36223   4.657   1.968  43.123  0.0565  0.1746  0.0521
29624W        W36224  18.985   2.950  40.942 -0.1409 -0.1534 -0.2469
29625W        W36225  17.172   4.431  39.168 -0.1941 -0.0710  0.3314
29626W        W36226  11.094   2.220  39.113 -0.3031  0.0213 -0.2397
29627W        W36227   9.042   4.205  44.569 -0.1715 -0.0364  0.1988
29628W        W36228  20.329   5.697   9.687  0.0977 -0.0428  0.1817
29629W        W36229  17.975   5.372  44.511  0.3685  0.2112 -0.1073
29630W        W36230   5.312   2.387  43.775  0.0702 -0.3200  0.0108
29631W        W36231  10.775   3.133  15.285  0.1810  0.3310 -0.0124
29632W        W36232  15.978   4.859  44.024 -0.2100 -0.2363 -0.1245
29633W        W36233   4.951   3.827  15.888  0.1500 -0.2661 -0.1561
29634W        W36234   0.500   6.192   7.574 -0.0267 -0.0928  0.1042
29635W        W36235   6.087   6.197  16.073  0.0258  0.0020  0.3419
29636W        W36236  15.598   1.611  31.443  0.2038  0.0339  0.1797
29637W        W36237  11.624   2.855  22.338  0.1137 -0.2464 -0.1765
29638W        W36238   8.376   6.200   1.503  0.2122 -0.3005 -0.1847
29639W        W36239   4.529   5.333  11.953 -0.1406 -0.2655 -0.2331
29640W        W36240  16.373   5.196  30.285  0.1569 -0.0112 -0.1633
29641W        W36241  17.273   5.320   5.581 -0.0106 -0.0715 -0.1367
29642W        W36242  14.112   6.272  44.171 -0.0615  0.0959 -0.1322
29643W        W36243  15.658   3.902   3.585  0.3236 -0.0187  0.0216
29644W        W36244  19.490   4.287   5.373  0.0802  0.0859 -0.1025
29645W        W36245  13.411   2.001  40.994  0.1097  0.1430 -0.1765
29646W        W36246   4.402   1.228  28.041  0.0366 -0.1469  0.0969
29647W        W36247  17.070   1.851  32.969 -0.0757 -0.1188 -0.0862
29648W        W36248  19.937   0.835  33.835 -0.0330  0.2450  0.2873
29649W        W36249   4.696   4.847  38.598 -0.1574 -0.0678  0.1651
29650W        W36250  15.390   6.025  28.044  0.1654  0.0576 -0.1433
29651W        W36251   4.834   0.919  29.747 -0.1545 -0.2689 -0.0720
29652W        W36252   9.890   5.742   8.058  0.0695 -0.1048  0.0647
29653W        W36253  15.748   0.861   6.681  0.1576 -0.0259  0.0665
29654W        W36254  18.183   4.309  15.457  0.1016 -0.0366  0.0183
29655W        W36255  19.019   1.804  35.519 -0.0454 -0.3324 -0.2102
29656W        W36256   8.273   2.681  14.094 -0.2587 -0.0279 -0.0118
29657W        W36257  11.557   5.298   9.503 -0.0405 -0.0273 -0.1193
29658W        W36258   2.807   1.802  30.585 -0.0165  0.2278  0.0193
29659W        W36259  11.793   2.027  18.702  0.0201 -0.4886 -0.0923
29660W        W36260   2.980   4.389   1.715 -0.0635 -0.0863 -0.1846
29661W        W36261  16.833   2.187  31.414 -0.1398 -0.2014  0.3017
29662W        W36262  14.517   1.557  17.158  0.1716 -0.0718  0.0521
29663W        W36263  17.898   6.147  43.179 -0.0030  0.1366 -0.3615
29664W        W36264  16.352   0.740  30.792 -0.1094 -0.0015 -0.3127
29665W        W36265  19.652   4.413   9.267  0.0324 -0.1803  0.0441
29666W        W36266  13.957   2.154  30.881 -0.0825  0.0620 -0.0186
29667W        W36267   5.495   2.168   5.984 -0.2308  0.0151 -0.0049
29668W        W36268   9.523   6.105  10.312 -0.0728 -0.3043 -0.1935
29669W        W36269  13.815   6.462  17.050 -0.0251 -0.2423 -0.0459
29670W        W36270  18.584   5.098  37.033  0.1398  0.0057 -0.0560
29671W        W36271  11.038   1.633  13.781 -0.0145 -0.2196 -0.0947
29672W        W36272  11.546   5.297   8.016 -0.1716  0.1056  0.2579
29673W        W36273   2.646   3.420  11.267 -0.0058  0.1142 -0.0233
29674W        W36274  13.288   1.278  40.747  0.2215  0.0255  0.2060
29675W        W36275   2.205   3.094  34.690  0.0031 -0.3913 -0.0337
29676W        W36276  11.101   5.299   1.212 -0.0568  0.1681  0.2880
29677W        W36277   5.843   0.919  41.828  0.0425  0.0584  0.2205
29678W        W36278   4.252   0.538  18.302  0.2496  0.1524  0.1246
29679W        W36279  20.293   3.140   2.986 -0.1624  0.1015  0.4088
29680W        W36280  11.961   5.215  44.309  0.1640 -0.0367 -0.1906
29681W        W36281   9.397   0.881   9.430  0.2188 -0.1357  0.0430
29682W        W36282   0.365   0.583  24.387  0.0926  0.1397 -0.2625
29683W        W36283  12.204   6.485  12.396  0.1366  0.0413  0.0162
29684W        W36284  11.228   0.288   9.790 -0.1849 -0.2507 -0.1764
29685W        W36285  16.559   2.753   3.749  0.0801  0.0410 -0.2266
29686W        W36286  10.270   4.119  32.266 -0.3197  0.2087  0.1118
29687W        W36287  11.008   2.604  17.922  0.1005  0.1141  0.0271
29688W        W36288  10.637   1.542  40.826  0.0667 -0.0209 -0.0915
29689W        W36289   2.382   5.930  25.674  0.1421 -0.1335  0.0976
29690W        W36290   1.609   6.390   8.239  0.0407  0.2288 -0.1512
29691W        W36291  10.407   0.413  11.074  0.1501 -0.0264  0.1164
29692W        W36292   6.994   3.683   2.721 -0.2069  0.0096  0.0891
29693W        W36293   3.592   5.448  36.116  0.2378 -0.0796  0.4361
29694W        W36294   8.211   4.702  36.411 -0.0465 -0.0865 -0.1444
29695W        W36295  12.654   3.779  35.493  0.1866 -0.2828 -0.2334
29696W        W36296  10.922   0.072  35.310 -0.0166  0.2312 -0.0859
29697W        W36297  13.471   3.244  42.033 -0.1679 -0.1685  0.2196
29698W        W36298  18.367   6.377  28.090  0.2166 -0.4800 -0.1855
29699W        W36299   1.358   0.982  22.212 -0.1040 -0.0120  0.2245
29700W        W36300   8.344   5.956  32.573  0.1146  0.0150  0.0939
29701W        W36301   4.109   2.145  43.227  0.2491  0.0257  0.1088
29702W        W36302  10.644   4.311  24.233 -0.4431  0.1613 -0.2350
29703W        W36303   6.202   2.133  17.135  0.1372 -0.1946  0.1889
29704W        W36304   7.265   1.995  42.848  0.0935  0.0514  0.0802
29705W        W36305  18.446   2.294  28.200 -0.0958  0.1274  0.1647
29706W        W36306  18.021   6.189  21.684  0.0671 -0.2123 -0.2692
29707W        W36307  10.491   0.474  33.169  0.0751 -0.1113 -0.1185
29708W        W36308  12.266   4.656  16.067  0.2365 -0.0540 -0.0240
29709W        W36309   5.071   0.345  29.370  0.1859  0.1261  0.2209
29710W        W36310  18.009   5.636   2.644  0.2447  0.2113  0.0228
29711W        W36311   7.816   5.896  21.081  0.0914 -0.1773  0.0538
29712W        W36312  20.592   6.260  23.894  0.1044 -0.1821  0.0866
29713W        W36313  13.552   6.322  44.177 -0.1244 -0.1217  0.1349
29714W        W36314  12.816   1.811  18.361 -0.0303  0.3617 -0.1022
29715W        W36315  12.535   5.446  10.389 -0.0055  0.1289 -0.0675
29716W        W36316  18.777   1.041  40.208 -0.0474  0.1460 -0.0748
29717W        W36317   2.533   2.329  34.159 -0.3100  0.1140  0.2737
29718W        W36318  18.708   6.567  27.692  0.0749 -0.1767 -0.0554
29719W        W36319   8.874   6.382  33.547  0.5544 -0.0384  0.0453
29720W        W36320   9.986   4.580   8.034 -0.2035 -0.2919  0.0307
29721W        W36321  19.317   5.869   6.014  0.2428  0.1118 -0.1504
29722W        W36322   5.100   6.223  41.916 -0.1112  0.2471  0.0387
29723W        W36323  10.782   5.596  42.227  0.0504  0.2451  0.1358
29724W        W36324   5.908   3.160  20.696 -0.0235 -0.3306 -0.0156
29725W        W36325  15.807   6.197  30.845 -0.1452 -0.1147 -0.2572
29726W        W36326   3.634   3.556  14.994  0.0239 -0.0935 -0.1493
29727W        W36327  20.305   2.179  27.135  0.1802 -0.3585  0.0331
29728W        W36328  18.668   4.682  12.600 -0.0084 -0.1954  0.0791
29729W        W36329  13.875   4.105  40.601  0.0895 -0.0845  0.0921
29730W        W36330   0.799   1.920  41.596  0.0896  0.1407  0.0081
29731W        W36331   6.135   0.937  14.797  0.0178  0.0747  0.2485
29732W        W36332   1.160   1.047   8.473  0.0506 -0.0480  0.3349
29733W        W36333   9.189   2.795   8.308 -0.1932  0.0263 -0.1526
29734W        W36334   6.891   2.722  20.928  0.0979  0.0066 -0.1813
29735W        W36335  16.772   1.825   8.870 -0.2727  0.0949  0.3704
29736W        W36336  11.850   3.177  41.466  0.1834  0.0865  0.1832
29737W        W36337   7.549   0.526  21.586  0.1561 -0.2370  0.1211
29738W        W36338  16.582   1.439  27.139  0.0276  0.2062 -0.2212
29739W        W36339   9.119   5.715  14.299  0.0060  0.3019  0.0100
29740W        W36340   9.197   1.817  23.281  0.0771 -0.2058 -0.2180
29741W        W36341  15.667   4.591  28.602  0.0037 -0.1960  0.2497
29742W        W36342   6.619   1.545   7.208 -0.0730 -0.2502 -0.1019
29743W        W36343   6.994   5.936  34.743  0.2608 -0.3524 -0.2128
29744W        W36344   6.237   4.168  44.617  0.0634 -0.4155 -0.0589
29745W        W36345  11.861   1.583  16.875 -0.2700 -0.1153 -0.0631
29746W        W36346  18.932   2.855  22.301 -0.0751  0.0095  0.0880
29747W        W36347  11.061   4.925  39.085 -0.0158 -0.1636 -0.1001
29748W        W36348   1.857   3.004  12.001 -0.2114 -0.2200 -0.0617
29749W        W36349  17.531   5.639   2.894 -0.0096  0.2776 -0.1306
29750W        W36350  14.125   3.001  11.371  0.0276  0.1515  0.2335
29751W        W36351   0.486   5.796   7.107  0.1386  0.0023 -0.0653
29752W        W36352  16.722   0.694  38.400  0.3031  0.2611  0.1088
29753W        W36353  11.632   1.758  16.474 -0.2796  0.0061 -0.0503
29754W        W36354   6.352   2.742   2.583 -0.1887 -0.0031  0.1142
29755W        W36355   2.019   5.550   4.142 -0.2653  0.2985 -0.2760
29756W        W36356  19.060   6.413   1.121 -0.2234  0.0197 -0.2763
29757W        W36357  12.267   0.826  29.086  0.0142  0.4625 -0.1371
29758W        W36358   7.832   4.235  34.740  0.0785 -0.0969 -0.0149
29759W        W36359   0.186   3.948   6.764  0.1764 -0.4747 -0.1788
29760W        W36360  16.804   2.437  26.272 -0.1619  0.1387  0.0185
29761W        W36361   3.974   4.309  17.274 -0.2311  0.1434 -0.0992
29762W        W36362  14.380   5.533   5.389 -0.0783  0.1351  0.0629
29763W        W36363   5.735   1.717  15.519 -0.0011 -0.2112  0.1582
29764W        W36364  10.940   2.343   8.285  0.1493  0.2922 -0.0086
29765W        W36365   3.782   2.959  42.550 -0.0631 -0.0472  0.1310
29766W        W36366   4.493   2.209  11.178  0.2212  0.0806 -0.2729
29767W        W36367   0.143   2.067  42.511 -0.2024  0.1698  0.1167
29768W        W36368   0.489   4.080  23.042  0.2537  0.2034  0.0642
29769W        W36369   5.466   4.933  17.344  0.3011 -0.0375  0.1980
29770W        W36370   7.744   5.518  15.060 -0.1609 -0.0309  0.0257
29771W        W36371  20.543   4.135  35.770 -0.2384  0.3185 -0.3568
29772W        W36372  17.187   0.857  38.475  0.0611  0.1100 -0.0642
29773W        W36373   1.479   6.579   2.619 -0.2600  0.1211  0.0275
29774W        W36374  15.485   6.214  29.096  0.0350  0.0784 -0.2440
29775W        W36375  19.039   4.730  15.031  0.0185 -0.2272 -0.1484
29776W        W36376  18.811   2.553  23.285 -0.0980  0.7624  0.1271
29777W        W36377  18.186   4.703   4.680 -0.1183 -0.0155  0.3678
29778W        W36378   9.899   0.730  32.083  0.0924  0.2223  0.1982
29779W        W36379   7.965   4.897  41.755 -0.0040 -0.0810  0.0905
29780W        W36380   7.540   6.164  32.111 -0.0189 -0.1713 -0.2503
29781W        W36381   0.609   3.624  32.827 -0.1531 -0.2349 -0.1333
29782W        W36382  18.913   1.063   3.287  0.3865 -0.2783  0.2789
29783W        W36383  11.900   4.541  38.417  0.1422 -0.0085  0.2788
29784W        W36384   2.905   5.567   7.083 -0.1130 -0.0533 -0.0474
29785W        W36385   2.794   1.464  37.481 -0.0796  0.1482  0.0378
29786W        W36386  14.576   1.726   4.694 -0.2824  0.0977 -0.2363
29787W        W36387   4.128   1.844  14.045 -0.1787 -0.0881 -0.1192
29788W        W36388   8.248   5.776  13.077 -0.0479  0.0100  0.0228
29789W        W36389  20.803   0.889  28.749 -0.0104 -0.2734 -0.0824
29790W        W36390  20.553   1.817  35.952  0.0995  0.1387  0.1380
29791W        W36391  13.851   2.189  18.488  0.0499 -0.0678  0.0694
29792W        W36392   4.483   6.365  16.294 -0.1247  0.0106 -0.0844
29793W        W36393  13.555   4.552  32.573  0.0692 -0.4076 -0.3849
29794W        W36394   7.767   4.513  16.878 -0.1963  0.1140 -0.2306
29795W        W36395  12.452   3.267  10.012 -0.1261 -0.0143 -0.2153
29796W        W36396  20.865   0.192   5.740  0.2133 -0.0706  0.2631
29797W        W36397   1.912   0.439   0.931 -0.0067  0.0195 -0.0030
29798W        W36398  13.278   1.145  29.276 -0.0348 -0.0530 -0.0585
29799W        W36399   1.241   6.025  40.705  0.1273  0.0580 -0.2656
29800W        W36400   7.988   3.718  11.235  0.1549  0.0467  0.1448
29801W        W36401   6.195   3.950   9.900  0.0933  0.1511  0.0844
29802W        W36402   7.180   1.221  11.171 -0.0836 -0.3909  0.0792
29803W        W36403   2.298   6.213   5.065 -0.1534 -0.3006  0.0194
29804W        W36404   7.938   4.192  39.039 -0.1880  0.4408  0.1112
29805W        W36405  15.399   1.959  15.683  0.3328  0.3294 -0.4353
29806W        W36406  19.891   1.033  44.687  0.1084 -0.1805 -0.3334
29807W        W36407  14.702   3.691  17.290  0.0602 -0.1184 -0.1524
29808W        W36408   8.367   4.626   8.201  0.0155 -0.0534  0.2143
29809W        W36409   9.861   5.545  17.025 -0.0586 -0.2363 -0.0416
29810W        W36410  20.884   3.135  16.052  0.0073  0.0734 -0.2917
29811W        W36411   8.049   2.004  38.432 -0.1189  0.1370 -0.2301
29812W        W36412  16.371   6.584  17.039  0.0215  0.1301 -0.0577
29813W        W36413   1.213   5.882  35.938  0.1565 -0.0181  0.0021
29814W        W36414  18.167   4.641  14.945 -0.1682  0.3699 -0.1892
29815W        W36415   3.805   5.191  11.109  0.0006 -0.0620  0.0604
29816W        W36416  19.329   1.678   0.600 -0.2097 -0.1159 -0.1811
29817W        W36417   9.203   5.671  18.108 -0.1848 -0.3836 -0.0115
29818W        W36418   0.665   6.580  31.915  0.2228  0.1124 -0.3093
29819W        W36419  16.732   4.700  26.458  0.1159  0.0779  0.0295
29820W        W36420  17.919   3.793  25.021 -0.2839  0.0936 -0.3858
29821W        W36421   8.013   2.700   9.187 -0.0655 -0.0976  0.0965
29822W        W36422  11.495   6.505  22.564 -0.0295 -0.2657  0.0501
29823W        W36423  10.331   0.040  33.462 -0.0963 -0.1930  0.1554
29824W        W36424  16.875   3.913  25.092 -0.1175 -0.0775 -0.0622
29825W        W36425  14.350   3.129  17.914  0.0055  0.1002 -0.1039
29826W        W36426   1.605   3.151  26.480 -0.0824  0.1589 -0.0674
29827W        W36427  14.198   6.087   3.928  0.0514  0.1621  0.2043
29828W        W36428   3.649   2.427  19.007  0.1234  0.0034  0.0337
29829W        W36429   0.946   5.209  31.476  0.0859 -0.2756  0.1798
29830W        W36430  12.246   6.317  27.792 -0.3814 -0.2320  0.2414
29831W        W36431   0.701   1.952  13.513  0.3626  0.2435 -0.0181
29832W        W36432  10.383   3.107  45.044 -0.2758 -0.2911 -0.0319
29833W        W36433   3.090   5.982   7.483 -0.0461 -0.1808  0.0404
29834W        W36434   5.731   2.504  18.540  0.1525 -0.1310  0.1928
29835W        W36435   9.832   3.104  31.666 -0.0616 -0.0315  0.0869
29836W        W36436  12.144   6.464   1.999 -0.0577 -0.3450 -0.0884
29837W        W36437  17.747   4.299  12.209  0.0529  0.0585 -0.2658
29838W        W36438   0.267   0.039  30.381 -0.0961 -0.2312  0.0691
29839W        W36439   8.199   3.091  23.781 -0.2516 -0.1620  0.0146
29840W        W36440  15.614   4.276  28.199 -0.1264 -0.0459  0.0167
29841W        W36441  14.180   0.493  44.698  0.0120 -0.2873  0.4074
29842W        W36442  17.459   0.439   5.758 -0.1351 -0.0674  0.1307
29843W        W36443  17.168   5.498  26.190  0.1579 -0.1456 -0.1135
29844W        W36444  10.397   1.647  17.561  0.0775 -0.1350 -0.4071
29845W        W36445  18.582   0.662   6.004 -0.2020  0.0042  0.2977
29846W        W36446  16.812   5.719  31.232  0.0573 -0.1768  0.2308
29847W        W36447   5.246   2.585  33.209 -0.0499  0.1939  0.3510
29848W        W36448   1.674   0.529  29.372  0.1476  0.1064  0.2232
29849W        W36449  20.141   5.998   4.872 -0.2554  0.1830 -0.1969
29850W        W36450  18.046   1.047  43.549  0.1535  0.2597 -0.1153
29851W        W36451  10.738   2.843   6.589 -0.0947  0.2453  0.2514
29852W        W36452  11.032   2.535  45.050 -0.0221 -0.2301  0.2006
29853W        W36453  17.405   0.364  43.941  0.0724  0.0900  0.2043
29854W        W36454   9.726   2.193   9.601  0.1729 -0.0461 -0.1366
29855W        W36455   9.289   1.931   2.551  0.1007  0.3838  0.4433
29856W        W36456   2.159   2.859   5.725 -0.3482  0.2871 -0.0308
29857W        W36457  14.047   0.416   3.085 -0.2922  0.1454  0.0265
29858W        W36458   9.737   1.371  38.376  0.0280 -0.0835 -0.0129
29859W        W36459  10.162   5.024  38.857 -0.3182 -0.0476  0.1160
29860W        W36460  10.407   2.388  23.787  0.2698 -0.0947  0.0539
29861W        W36461  14.788   5.028   3.348 -0.1486  0.1036  0.1545
29862W        W36462   7.537   5.632  41.979  0.0240 -0.1516 -0.1880
29863W        W36463  14.185   3.335  39.020  0.0310 -0.1941  0.0619
29864W        W36464   4.579   0.901  41.081  0.2506  0.1841 -0.3891
29865W        W36465   8.066   1.738  44.917  0.0424 -0.1801  0.2424
29866W        W36466  17.598   0.873  35.837  0.1035 -0.2675 -0.0493
29867W        W36467   7.954   3.437  34.321 -0.3371 -0.1008 -0.0019
29868W        W36468  12.443   2.190  19.362 -0.2706 -0.0880  0.0556
29869W        W36469  11.255   2.060   5.028  0.1509 -0.0830  0.2607
29870W        W36470  13.343   5.515  35.210 -0.0237  0.2661  0.1389
29871W        W36471   1.319   1.570  38.612  0.2059 -0.2712 -0.1200
29872W        W36472   0.697   2.629  29.631 -0.4588  0.0772 -0.2422
29873W        W36473   2.297   3.543   7.117  0.1590 -0.0131 -0.0113
29874W        W36474   8.505   2.681  17.032  0.1426  0.0538  0.4200
29875W        W36475   1.891   1.808  25.577  0.0363 -0.0565  0.1078
29876W        W36476  13.320   1.590   7.532  0.2836 -0.0357  0.0921
29877W        W36477   4.369   1.768  26.347 -0.0067 -0.1370  0.0112
29878W        W36478  13.062   1.266   4.468 -0.2205  0.2398  0.0050
29879W        W36479   0.459   4.392   4.991 -0.0881 -0.1908  0.1114
29880W        W36480  20.227   1.841  26.225  0.1450  0.1415 -0.3868
29881W        W36481   1.686   3.673  34.169  0.0055  0.2295  0.1966
29882W        W36482  15.166   0.876  16.907  0.0782 -0.1737 -0.3444
29883W        W36483  16.452   5.770  11.696  0.0226 -0.0500 -0.1494
29884W        W36484   0.038   4.723  38.804 -0.1572 -0.0147 -0.0240
29885W        W36485  20.175   0.629  29.634  0.0915  0.1499 -0.1851
29886W        W36486  19.426   3.321   7.720  0.4357  0.1322  0.1056
29887W        W36487  15.681   5.392  44.783 -0.3566  0.3629 -0.0779
29888W        W36488   8.581   4.651  18.127 -0.0085  0.0056  0.4574
29889W        W36489  12.592   4.357  33.134  0.1230 -0.2221  0.1397
29890W        W36490   3.025   6.415  15.388  0.2877  0.0775  0.0934
29891W        W36491  16.296   5.875  39.562 -0.0630  0.0547  0.0209
29892W        W36492   1.191   6.396  32.851 -0.1164 -0.2527 -0.0621
29893W        W36493  15.578   3.040  39.372  0.0576 -0.3621  0.0117
29894W        W36494  11.874   3.754  22.125  0.0505 -0.1093 -0.1507
29895W        W36495   4.658   0.667   2.231 -0.1377 -0.3138 -0.1515
29896W        W36496  16.914   2.872   4.100 -0.2431 -0.0258 -0.2209
29897W        W36497  19.920   3.649  40.582  0.0220 -0.3818  0.0463
29898W        W36498  20.889   5.601  13.118 -0.2979 -0.4333 -0.0850
29899W        W36499   9.029   2.619  31.230 -0.0224  0.1839 -0.0411
29900W        W36500   3.794   0.578  29.698 -0.0067 -0.0256  0.1095
29901W        W36501  20.906   4.751   7.671 -0.0335  0.1717 -0.1823
29902W        W36502  19.895   2.124  29.374 -0.0135 -0.4907  0.2270
29903W        W36503  16.715   5.380   8.634  0.0082 -0.1918 -0.0400
29904W        W36504   3.610   1.764  44.723 -0.4181 -0.2394  0.0496
29905W        W36505  17.856   6.121   4.585  0.2534 -0.1289  0.2159
29906W        W36506  14.452   3.295  43.451 -0.3193  0.0082 -0.1376
29907W        W36507  14.209   1.690  13.996 -0.0717  0.0341 -0.1833
29908W        W36508   2.839   6.464  41.377 -0.0628 -0.1464  0.0961
29909W        W36509   6.377   0.019   1.111  0.0946  0.1365  0.4450
29910W        W36510   2.180   4.866   3.434  0.1782 -0.0042  0.0075
29911W        W36511   4.778   5.824  32.265  0.1089  0.3224 -0.0007
29912W        W36512  10.477   2.512  44.239 -0.1032 -0.2403  0.0857
29913W        W36513  12.037   4.797  41.562  0.2863 -0.2607 -0.0636
29914W        W36514   7.116   1.982  16.380  0.0149  0.1092 -0.1441
29915W        W36515  13.183   6.103  10.167  0.1730 -0.1557  0.2555
29916W        W36516  11.647   6.427  40.261 -0.2219 -0.0198 -0.2335
29917W        W36517   9.121   0.638  15.879 -0.0662 -0.2098 -0.3146
29918W        W36518  16.794   4.802  34.369  0.1203  0.1558  0.0279
29919W        W36519   3.286   6.587  41.708 -0.0094  0.0242 -0.0850
29920W        W36520   5.267   3.860  37.596 -0.2367 -0.2257 -0.2779
29921W        W36521  18.103   3.193  42.477 -0.2164 -0.0030 -0.1226
29922W        W36522   7.088   6.214  33.950  0.0673 -0.3087 -0.2562
29923W        W36523  14.688   2.767  36.057  0.0910 -0.0437 -0.5636
29924W        W36524   8.355   4.067  31.211  0.0053  0.1444  0.0593
29925W        W36525  16.652   1.900  25.549  0.1598 -0.0581  0.0895
29926W        W36526   3.612   4.751  39.401 -0.1366 -0.1789  0.0180
29927W        W36527   1.848   4.126   0.147  0.0729  0.1179  0.2946
29928W        W36528   4.893   3.933  36.323  0.1646 -0.0021  0.2994
29929W        W36529  16.666   4.238  41.483 -0.0451 -0.0815 -0.0014
29930W        W36530   6.168   2.069  31.546  0.4079 -0.1286  0.2066
29931W        W36531   9.086   4.767  13.332  0.2545  0.0677 -0.2623
29932W        W36532   8.836   5.435  16.843  0.0378  0.1109 -0.1988
29933W        W36533  15.700   5.505   8.847 -0.2392  0.0025 -0.3201
29934W        W36534  12.594   3.849  44.238  0.1924 -0.1131 -0.2059
29935W        W36535   1.418   2.732  41.317  0.0808 -0.0632 -0.3787
29936W        W36536   5.024   0.876  39.609 -0.0081 -0.1809 -0.1529
29937W        W36537   4.269   5.676  12.190  0.0800  0.0432  0.1364
29938W        W36538   4.286   1.483   0.151 -0.1351 -0.1101 -0.0136
29939W        W36539   2.012   1.481  31.356  0.0159  0.0443  0.0437
29940W        W36540   1.661   3.519  13.017  0.1094 -0.0869 -0.1421
29941W        W36541   9.165   2.648  24.707  0.1353  0.1162  0.0440
29942W        W36542   7.300   1.156  12.533  0.3152  0.0289  0.1689
29943W        W36543  20.926   5.174  22.732 -0.0647  0.0109  0.0282
29944W        W36544  19.841   2.819  14.352  0.0526  0.0631 -0.3317
29945W        W36545  20.323   4.096   9.178  0.1368  0.4434  0.0076
29946W        W36546   9.158   5.472   3.253 -0.1011  0.3313  0.1568
29947W        W36547   0.660   6.148  25.965  0.1639 -0.0129  0.3834
29948W        W36548   6.760   3.687  36.078  0.0945 -0.0852  0.1039
29949W        W36549  15.874   1.774  15.744  0.1033 -0.2256 -0.3464
29950W        W36550  18.711   0.573  36.188 -0.2337  0.0165  0.2251
29951W        W36551   4.997   4.926  28.587  0.0609  0.1670 -0.0081
29952W        W36552  14.654   1.387   9.437  0.0247 -0.2235 -0.1255
29953W        W36553  16.134   1.765  27.246 -0.6429  0.1867  0.1773
29954W        W36554  19.819   3.650  38.562 -0.1242  0.0255  0.2854
29955W        W36555   8.426   1.212  42.030  0.0980  0.0459 -0.0986
29956W        W36556  18.985   4.116  13.556 -0.1095  0.0675  0.2304
29957W        W36557  14.320   2.321  35.860  0.4374 -0.0416 -0.1648
29958W        W36558   3.185   4.859   9.962 -0.1950 -0.2357 -0.2138
29959W        W36559  19.854   3.462   0.456 -0.0072  0.1956  0.0769
29960W        W36560  18.132   1.791  14.676 -0.1317  0.0510 -0.2087
29961W        W36561   7.379   2.398  10.251 -0.0953  0.0574  0.0384
29962W        W36562  10.803   0.626   1.354 -0.0406 -0.0218 -0.2173
29963W        W36563  13.022   0.953  14.948  0.3167  0.1383  0.1243
29964W        W36564  19.251   3.434  12.399 -0.2531  0.1254  0.0970
29965W        W36565  10.009   6.348   3.672 -0.0579  0.1249  0.1067
29966W        W36566   6.307   5.435  43.322 -0.0849 -0.0058  0.2780
29967W        W36567   1.666   5.449   7.591 -0.2480  0.1200 -0.1506
29968W        W36568   0.999   4.246   3.231  0.2097  0.0820 -0.1818
29969W        W36569  13.167   1.645  18.012 -0.1813  0.1370  0.1202
29970W        W36570  13.609   1.014   9.690  0.3028 -0.4526  0.1672
29971W        W36571  20.276   6.216   6.975 -0.1338 -0.2352  0.0487
29972W        W36572  20.003   1.461   4.238 -0.0167 -0.0545  0.0139
29973W        W36573  10.346   5.528  11.033  0.0553  0.0288 -0.2006
29974W        W36574   5.942   1.390  38.975 -0.1983 -0.1252  0.0024
29975W        W36575  16.548   2.449   2.375 -0.0274 -0.1425  0.0614
29976W        W36576   1.826   3.474  37.621 -0.3856 -0.3893 -0.1184
29977W        W36577  14.462   1.304  30.517 -0.0550  0.1018  0.1245
29978W        W36578  14.504   5.015  28.947  0.1393 -0.1607 -0.0405
29979W        W36579  13.760   1.264  16.879 -0.2193  0.0274 -0.2396
29980W        W36580   7.459   4.801  44.791  0.0383 -0.0273 -0.0753
29981W        W36581  16.436   3.691  43.024  0.3566 -0.3855 -0.0091
29982W        W36582  16.347   1.907  41.893 -0.0630  0.2482  0.1459
29983W        W36583   0.195   1.873  14.388  0.1273 -0.0280 -0.3064
29984W        W36584  20.934   5.509   3.882 -0.0372  0.1061  0.4003
29985W        W36585  17.251   5.508  11.243  0.0845  0.0097  0.1917
29986W        W36586  15.166   3.627   7.551 -0.0909  0.3193  0.1290
29987W        W36587   3.398   3.682  12.064  0.1809  0.1903  0.0114
29988W        W36588   7.319   4.116   1.479  0.3246  0.0139  0.0151
29989W        W36589  10.360   5.891  40.534 -0.2298  0.1485 -0.1667
29990W        W36590   5.856   5.853  31.162  0.0736 -0.1692 -0.2952
29991W        W36591  12.262   5.986  32.421  0.2071 -0.1061 -0.3666
29992W        W36592   6.971   6.508  31.527 -0.0613 -0.1288  0.0710
29993W        W36593  19.826   2.603  31.796  0.1767 -0.1756 -0.1124
29994W        W36594   7.000   2.807  20.380 -0.3137 -0.0373  0.1049
29995W        W36595   4.923   4.757  29.854  0.0932  0.0714  0.1656
29996W        W36596   7.633   5.935  14.583 -0.2009  0.0482 -0.0829
29997W        W36597  12.112   2.533  14.431 -0.1666  0.0727  0.0786
29998W        W36598   6.542   3.143  18.707  0.0448  0.1207 -0.0805
29999W        W36599  18.705   6.223  39.515  0.1557  0.2134  0.0398
30000W        W36600   6.029   4.938   2.383 -0.2913 -0.2533 -0.1903
30001W        W36601  14.385   4.147   6.087 -0.2678 -0.0266  0.3853
30002W        W36602  20.183   2.714  24.251 -0.2645  0.0983  0.1272
30003W        W36603   7.858   3.476  18.772 -0.1689  0.0099  0.0897
30004W        W36604   7.416   5.197  16.800 -0.0882 -0.1652  0.2485
30005W        W36605   4.408   4.938   6.487 -0.1682 -0.0140 -0.0160
30006W        W36606   1.030   6.048   1.510  0.1263 -0.0462 -0.2365
30007W        W36607   8.148   3.653  10.132 -0.2254 -0.1029  0.0372
30008W        W36608  10.723   6.425  16.488  0.0369 -0.1409  0.1974
30009W        W36609   0.457   3.404  10.663  0.1220 -0.0435 -0.0579
30010W        W36610  15.134   0.300  31.220  0.1838 -0.1352  0.0886
30011W        W36611  20.384   3.091   5.992 -0.1492 -0.0425  0.0656
30012W        W36612  12.217   0.362   0.222  0.1409  0.1214 -0.0733
30013W        W36613   8.737   1.754  40.735 -0.4266 -0.0760 -0.0535
30014W        W36614  11.254   4.788   1.416  0.0384  0.1278 -0.0662
30015W        W36615  18.485   6.302   6.358  0.0650 -0.1014 -0.0885
30016W        W36616  19.082   1.543  30.611 -0.3844 -0.0782  0.1466
30017W        W36617  10.120   4.889  40.118  0.0306 -0.0381 -0.1674
30018W        W36618   7.795   0.211  16.992  0.0416 -0.1342  0.2650
30019W        W36619   0.478   5.186  23.316  0.1252  0.5416 -0.0941
30020W        W36620  20.078   5.049  24.440  0.1516  0.0115 -0.0534
30021W        W36621   0.503   2.914  36.260 -0.0596 -0.0390  0.0630
30022W        W36622  12.130   1.891   3.869 -0.2727  0.0024 -0.1047
30023W        W36623   3.271   4.155  43.076  0.0632 -0.1379 -0.1197
30024W        W36624  17.170   5.538   2.198 -0.2234  0.0264  0.1193
30025W        W36625   1.961   2.227   7.358 -0.1641  0.1238 -0.3577
30026W        W36626   2.326   6.595   6.312 -0.0528  0.1543 -0.1034
30027W        W36627  10.822   1.667  42.685  0.1712 -0.0596 -0.0031
30028W        W36628  11.991   1.485   0.611  0.1716  0.2030 -0.0382
30029W        W36629   2.926   1.396  44.512  0.0264 -0.1198 -0.0737
30030W        W36630   8.176   4.695  17.739 -0.0236 -0.3156  0.0991
30031W        W36631  16.846   2.725  12.456 -0.1886  0.0528  0.0503
30032W        W36632  15.978   3.937  16.262  0.3501  0.0935 -0.3527
30033W        W36633   2.149   3.562   8.349 -0.0282 -0.0804  0.0952
30034W        W36634  20.252   1.483  14.196  0.2284 -0.1616 -0.0041
30035W        W36635  20.240   1.311   1.460 -0.2790 -0.0348  0.0931
30036W        W36636  20.908   5.627  23.461  0.0102 -0.0455 -0.0136
30037W        W36637  20.558   2.845   2.174 -0.0761  0.0705  0.0876
30038W        W36638  14.504   5.484   9.381 -0.0445  0.2075 -0.2713
30039W        W36639  13.496   3.109  39.686 -0.1395  0.0663  0.1363
30040W        W36640  20.349   2.067  37.797 -0.0233 -0.3196  0.1443
30041W        W36641  20.573   6.306  30.221 -0.0715  0.2404  0.1694
30042W        W36642   4.101   4.858   2.551 -0.1885  0.0078 -0.2616
30043W        W36643  16.064   2.271   5.816  0.0089 -0.1440 -0.0577
30044W        W36644  10.841   1.502  41.244  0.0030  0.2051  0.1517
30045W        W36645  11.645   2.520   2.914  0.0170 -0.2831  0.0298
30046W        W36646  15.295   4.153   2.408  0.1044  0.3580 -0.3024
30047W        W36647   0.929   2.086  27.808  0.1588  0.0805 -0.0004
30048W        W36648   8.964   1.214   3.305  0.0095  0.1606  0.0906
30049W        W36649   2.511   4.185   1.850 -0.0481  0.0799  0.2230
30050W        W36650   6.870   6.351  42.568  0.2184 -0.0196  0.1978
30051W        W36651  13.291   2.033  43.264 -0.1763 -0.1940  0.3805
30052W        W36652  14.495   5.393  18.877 -0.2246  0.0231  0.0894
30053W        W36653  17.587   0.724  15.184  0.0652  0.0754 -0.2001
30054W        W36654   5.380   6.278  31.891 -0.3019  0.1605 -0.2977
30055W        W36655  15.570   0.449  33.011  0.1663  0.0381 -0.0685
30056W        W36656   1.354   1.747  30.732 -0.0778 -0.1778  0.2435
30057W        W36657   6.152   0.825  19.340  0.2463 -0.1843 -0.1115
30058W        W36658   1.364   0.552  38.855 -0.0626 -0.0865  0.1728
30059W        W36659   1.156   6.087  26.772  0.0561  0.2466 -0.1580
30060W        W36660  16.679   4.160   4.689  0.1362  0.0234  0.1243
30061W        W36661   8.971   2.148   1.363  0.3414  0.3213 -0.0499
30062W        W36662  10.982   4.172  14.677  0.1703  0.1840  0.2817
30063W        W36663  10.272   2.537  35.875  0.1146 -0.0838 -0.0646
30064W        W36664  20.616   0.769  13.075 -0.0012  0.3635  0.3078
30065W        W36665   6.836   0.753  43.855 -0.1722  0.1084  0.0734
30066W        W36666   1.851   1.958   5.290 -0.0295 -0.0891 -0.1028
30067W        W36667   8.278   5.846   8.235 -0.1145 -0.4107 -0.1089
30068W        W36668   7.896   2.542   6.563  0.3176  0.3271  0.1990
30069W        W36669  15.622   2.228  11.114  0.3655 -0.2423  0.0927
30070W        W36670   1.024   1.087  10.909 -0.1906  0.1281  0.1469
30071W        W36671  13.423   4.192  15.466 -0.0260  0.0428 -0.5709
30072W        W36672  10.971   0.587  40.948  0.0133 -0.3941 -0.1836
30073W        W36673  19.358   2.503  30.754 -0.0398  0.5943 -0.4545
30074W        W36674   9.302   0.192  28.666  0.0075 -0.1031 -0.0535
30075W        W36675  14.032   0.271  32.775 -0.0536 -0.0639  0.1201
30076W        W36676   5.810   1.286  39.453  0.0458 -0.1393 -0.2331
30077W        W36677  18.500   3.487  32.879  0.1270 -0.1993 -0.0640
30078W        W36678   1.621   4.289  35.904 -0.1502  0.1304  0.0982
30079W        W36679  18.292   2.286  27.200 -0.0123 -0.1729  0.0202
30080W        W36680  20.166   2.996   1.851  0.1728 -0.0654 -0.0184
30081W        W36681  10.602   1.429  18.446  0.2310 -0.3220  0.1195
30082W        W36682  18.092   2.139  35.721  0.0251  0.2454 -0.0097
30083W        W36683   5.211   1.183  28.738 -0.5159  0.0101 -0.3405
30084W        W36684  11.061   0.309  37.270 -0.2907 -0.0072  0.0614
30085W        W36685  14.749   5.902  11.256 -0.1770 -0.2144  0.2154
30086W        W36686   0.608   5.431  43.103  0.4620 -0.1967  0.0582
30087W        W36687   9.167   3.693  10.170 -0.3008 -0.2266  0.0118
30088W        W36688   4.623   2.985   4.856 -0.1176  0.0733  0.0358
30089W        W36689  13.908   4.619   9.138  0.2041  0.0627 -0.1380
30090W        W36690   3.383   1.978  42.862 -0.1026 -0.0313 -0.2169
30091W        W36691   9.746   2.575  18.172 -0.1936 -0.1813 -0.0591
30092W        W36692  10.551   2.359   6.631 -0.0461  0.0700 -0.0490
30093W        W36693   6.042   1.235  13.638 -0.1147 -0.2817  0.3652
30094W        W36694  11.947   2.893  41.008 -0.1431 -0.0496  0.5075
30095W        W36695   5.179   0.974  32.508 -0.0447  0.0840  0.0850
30096W        W36696  13.308   3.968   9.715  0.1441  0.0053 -0.0503
30097W        W36697  11.730   5.841  21.581 -0.0648 -0.1670 -0.0793
30098W        W36698   1.996   5.254   6.826 -0.0421 -0.1151 -0.0137
30099W        W36699  18.537   3.715  25.947  0.1578  0.2141 -0.0837
30100W        W36700   1.208   4.715  37.316  0.0485 -0.0372 -0.0212
30101W        W36701   8.902   2.154  37.192  0.0083 -0.2756  0.2968
30102W        W36702  16.508   2.670  14.444  0.0741  0.0860  0.0267
30103W        W36703   1.829   3.527  10.359  0.0758  0.1219 -0.0021
30104W        W36704  20.457   1.888  33.998 -0.0922  0.1622  0.2445
30105W        W36705  17.808   6.293   7.947  0.1448  0.0410 -0.3432
30106W        W36706   4.607   3.084  12.376  0.1243 -0.0880 -0.0322
30107W        W36707   3.623   2.519  11.052  0.0466 -0.0203  0.0709
30108W        W36708   8.716   1.070   3.875 -0.1276 -0.1060  0.0804
30109W        W36709   4.858   5.878   4.582  0.2899 -0.1611  0.2438
30110W        W36710  10.131   4.846  10.422 -0.0465  0.2194 -0.1762
30111W        W36711   2.071   2.997  29.523  0.0402  0.0937  0.2559
30112W        W36712  19.682   4.690   8.842  0.0951 -0.4531 -0.3998
30113W        W36713   8.246   0.790  42.472 -0.2735 -0.1024  0.0157
30114W        W36714   4.752   6.581  35.605  0.0289 -0.1115  0.0666
30115W        W36715   5.280   0.337   3.663  0.2152  0.1401  0.2503
30116W        W36716  12.143   5.371  38.677 -0.0065 -0.1652  0.0067
30117W        W36717   4.007   4.891   8.612 -0.2639 -0.1411 -0.0097
30118W        W36718  18.148   4.944  42.706 -0.0716  0.0766  0.1379
30119W        W36719  10.746   1.439  42.115 -0.0479 -0.0293  0.1704
30120W        W36720  16.998   5.367  42.613  0.1077  0.0365  0.0307
30121W        W36721  17.280   1.792   0.944 -0.2723  0.1452 -0.1447
30122W        W36722   0.360   3.718  24.879 -0.0823 -0.1566  0.2155
30123W        W36723  18.837   4.941  30.077 -0.0139  0.0300  0.2548
30124W        W36724   3.015   4.028  42.095 -0.0648  0.1825 -0.3570
30125W        W36725  14.600   4.131   9.072  0.2721 -0.1041  0.1403
30126W        W36726  14.217   6.360   4.457  0.0391  0.1565  0.1017
30127W        W36727   1.980   1.511   9.877 -0.0085 -0.0661  0.1593
30128W        W36728  16.266   2.144  12.968 -0.1144  0.3169  0.0852
30129W        W36729   2.923   3.748  27.116  0.3363 -0.2916  0.1886
30130W        W36730   0.943   5.503  30.429 -0.1272 -0.1611 -0.0915
30131W        W36731  19.655   4.532  39.890  0.0925 -0.2422  0.2484
30132W        W36732  10.794   5.351   7.063 -0.0345  0.0759 -0.2142
30133W        W36733  20.377   0.752  44.644  0.2282  0.0023  0.1627
30134W        W36734  19.435   1.163  20.773  0.3075 -0.3310  0.0425
30135W        W36735   0.620   3.034  35.811  0.3186 -0.0652 -0.1452
30136W        W36736   4.562   5.423  13.868 -0.0019 -0.2295  0.0328
30137W        W36737  15.459   4.389  14.821 -0.0603 -0.1277 -0.3024
30138W        W36738  11.409   2.609  11.311  0.0919 -0.1029 -0.1318
30139W        W36739   3.667   2.230  40.787  0.0616 -0.2955  0.1201
30140W        W36740  16.097   6.477  42.510 -0.3094 -0.1699 -0.2537
30141W        W36741   5.794   0.763   9.849  0.1873 -0.2221 -0.0163
30142W        W36742   4.920   5.693  30.999  0.0434 -0.1427 -0.1299
30143W        W36743   6.927   6.512  17.602  0.3187 -0.1085  0.2834
30144W        W36744  20.803   2.179   0.245 -0.0433 -0.1955 -0.1100
30145W        W36745   6.966   6.456  35.079  0.1345  0.0829  0.1106
30146W        W36746  19.260   1.427  21.175  0.0113 -0.2750  0.0591
30147W        W36747   4.141   5.427  27.565  0.2644 -0.0548  0.0086
30148W        W36748   2.332   1.405   5.814 -0.1317 -0.2021  0.0137
30149W        W36749   0.027   1.935  40.391  0.1912  0.1598  0.1870
30150W        W36750   6.616   5.979  36.712  0.3344  0.0435 -0.1638
30151W        W36751   2.408   0.817   6.314  0.0380  0.3391 -0.0949
30152W        W36752  11.138   3.669   8.822 -0.0598  0.0333  0.3002
30153W        W36753  14.885   0.130  33.516 -0.0383  0.1722 -0.0964
30154W        W36754   4.748   5.149  33.521 -0.0819 -0.3152 -0.0972
30155W        W36755  19.281   3.196  28.443  0.0650 -0.1266  0.0006
30156W        W36756  13.835   3.910  13.604 -0.2981 -0.0938  0.1245
30157W        W36757   0.193   4.961  14.737 -0.0667  0.0167  0.0731
30158W        W36758  18.614   0.017  38.223 -0.0366 -0.0701  0.1826
30159W        W36759  11.103   6.414   2.898  0.2601  0.0159  0.0518
30160W        W36760   9.681   3.545  32.489 -0.1093  0.0815  0.1067
30161W        W36761   1.399   2.452  37.726 -0.2950 -0.1913 -0.1975
30162W        W36762  18.508   0.573  23.811 -0.1283 -0.1151  0.3286
30163W        W36763  13.290   1.058   2.855 -0.0683 -0.3204  0.0459
30164W        W36764  11.869   1.902  20.430  0.0022 -0.3015 -0.3443
30165W        W36765  19.945   1.715  23.264 -0.1123 -0.4191  0.2176
30166W        W36766  13.128   0.133  13.860  0.4150 -0.3221 -0.2749
30167W        W36767   6.865   0.531   8.665  0.0375  0.1579  0.0060
30168W        W36768   0.196   3.049   1.624 -0.1001 -0.1819 -0.0569
30169W        W36769   7.255   6.587  10.925  0.1209 -0.3095 -0.1530
30170W        W36770   5.190   4.667   6.792  0.2793 -0.1955 -0.0337
30171W        W36771   2.139   2.447  12.389 -0.1877  0.1062  0.1366
30172W        W36772   4.830   4.507  29.421 -0.0084 -0.0648  0.0463
30173W        W36773   9.216   5.180  24.805 -0.0892 -0.1011  0.1574
30174W        W36774   5.168   0.345  35.668 -0.2394  0.0229  0.0773
30175W        W36775  12.619   5.909  14.204 -0.0763 -0.1847  0.1125
30176W        W36776   1.618   6.083   8.808  0.4435 -0.1949 -0.1788
30177W        W36777  13.743   0.607  44.185  0.1930  0.1600 -0.0460
30178W        W36778   5.553   4.804  12.751 -0.2627  0.0881 -0.1072
30179W        W36779  17.914   1.532  32.515  0.0155 -0.0116 -0.1516
30180W        W36780  15.274   1.390  37.373  0.1173  0.0002  0.2057
30181W        W36781  13.472   1.523  43.179  0.1241 -0.2151  0.0291
30182W        W36782  16.231   5.651  37.864  0.2307  0.0350  0.1441
30183W        W36783  10.059   0.398   9.275  0.1445 -0.0764 -0.2083
30184W        W36784  17.621   3.095  40.978  0.1982 -0.1334  0.0055
30185W        W36785   1.404   4.385  11.912 -0.1108 -0.1430 -0.0736
30186W        W36786   8.657   2.589  16.363 -0.0741  0.1427  0.3485
30187W        W36787  12.098   0.588   1.224 -0.2309  0.0474 -0.0661
30188W        W36788  15.994   5.353  35.324 -0.4796  0.1698 -0.1032
30189W        W36789  12.435   2.098  40.859 -0.3529 -0.0711  0.0499
30190W        W36790  18.224   4.662   8.577  0.1476  0.0458  0.1185
30191W        W36791   1.173   3.554  25.061 -0.3369 -0.1905 -0.1396
30192W        W36792   2.756   0.633  35.479  0.1782  0.0609  0.1964
30193W        W36793  19.159   2.776  40.065 -0.0760 -0.0469  0.1423
30194W        W36794  15.457   1.032  37.644  0.0928 -0.4387  0.1199
30195W        W36795   9.262   4.777  29.636  0.4397  0.3038  0.3496
30196W        W36796  11.654   4.331   4.454 -0.1591  0.1771 -0.2861
30197W        W36797   6.002   0.878   7.353  0.2639 -0.1491 -0.1321
30198W        W36798  16.266   6.057  25.280 -0.1088  0.0237 -0.1116
30199W        W36799   3.973   3.565  30.122  0.1329  0.1302  0.1578
30200W        W36800  10.340   1.505  22.944  0.0013  0.2953 -0.0561
30201W        W36801   4.333   3.057   4.359  0.1833  0.0621 -0.2435
30202W        W36802  16.842   2.471  32.164  0.1185  0.1393  0.0107
30203W        W36803  15.157   5.244   8.010 -0.1163  0.2100 -0.3088
30204W        W36804   6.926   3.065  44.945 -0.1938  0.1131  0.2980
30205W        W36805  12.185   3.856  35.103 -0.1171 -0.2260 -0.2182
30206W        W36806   1.410   6.151  25.718 -0.1210  0.0487  0.1595
30207W        W36807  20.749   1.763  31.481  0.1144  0.2509  0.1840
30208W        W36808   9.203   6.505   0.156  0.2575  0.0763 -0.1720
30209W        W36809  13.219   4.352  19.934  0.0611  0.3746 -0.0273
30210W        W36810   3.113   0.341  39.367 -0.1137 -0.1023 -0.0194
30211W        W36811  19.981   5.321  20.799  0.4662  0.0563 -0.4977
30212W        W36812   4.755   1.033  17.434  0.0412  0.3375 -0.0106
30213W        W36813   8.806   1.453   6.325 -0.1805 -0.0195  0.0235
30214W        W36814  18.943   2.126   6.339 -0.0783 -0.0685  0.0263
30215W        W36815   0.039   1.944  29.717 -0.0219 -0.0418  0.1487
30216W        W36816  20.946   5.634  26.830  0.2701 -0.2758  0.5201
30217W        W36817   3.353   4.447  11.142  0.0325  0.2069  0.1785
30218W        W36818   2.757   5.897   3.607 -0.2034 -0.1467 -0.0528
30219W        W36819  17.408   4.887   0.971  0.1442  0.3734  0.0915
30220W        W36820  16.404   5.219  12.483  0.0642 -0.0804  0.1076
30221W        W36821   6.245   3.654  11.576  0.0694  0.1439  0.0679
30222W        W36822   7.578   0.512  37.355 -0.2029  0.1203 -0.0246
30223W        W36823   6.559   0.370  44.109  0.0058 -0.1969  0.1475
30224W        W36824  18.602   5.565  27.603  0.2891  0.0286  0.0568
30225W        W36825   5.137   3.836  35.378  0.0695 -0.0268  0.5089
30226W        W36826  10.873   6.533  43.560 -0.1893 -0.1228  0.0934
30227W        W36827   3.045   2.313  33.284 -0.0053  0.2574  0.0078
30228W        W36828  15.450   4.879   0.302  0.1382 -0.1157 -0.0050
30229W        W36829  20.497   4.932  12.753  0.0841 -0.1580  0.0111
30230W        W36830  19.276   4.980   7.063 -0.5220  0.0154 -0.0595
30231W        W36831  11.133   0.759  15.048 -0.3631  0.1457 -0.1179
30232W        W36832  10.953   0.232  42.586  0.1570  0.3166 -0.1216
30233W        W36833  12.889   4.716  20.071  0.2350  0.2214  0.0245
30234W        W36834   4.635   4.308  14.815 -0.1628  0.1485 -0.0322
30235W        W36835   2.018   3.768  44.805 -0.3701 -0.1163  0.1745
30236W        W36836  19.222   0.269  43.429  0.1305 -0.0817  0.2197
30237W        W36837   1.134   0.754  33.873 -0.0396 -0.0790 -0.1123
30238W        W36838   7.024   0.816   1.608 -0.4503 -0.1142  0.1131
30239W        W36839   1.443   1.759  12.944 -0.0605 -0.2885 -0.3105
30240W        W36840  14.899   4.314  10.433  0.3825  0.3531  0.2503
30241W        W36841  15.445   2.203  34.260 -0.1963 -0.1360  0.1498
30242W        W36842   4.747   6.587  44.005  0.2131  0.2720  0.0196
30243W        W36843   3.787   1.999  27.447  0.0954 -0.1218 -0.1635
30244W        W36844  16.494   2.129  44.720 -0.0401  0.0051 -0.0615
30245W        W36845  17.337   0.953   2.072 -0.2230  0.4303  0.0710
30246W        W36846   9.135   6.163  35.455  0.0899 -0.1490  0.3417
30247W        W36847   1.527   4.885  13.200 -0.2098  0.0838 -0.1922
30248W        W36848   1.629   0.220  25.131 -0.1776  0.1167  0.0942
30249W        W36849   3.316   4.435  29.954  0.0631  0.2035  0.0871
30250W        W36850   5.817   1.913  14.380  0.4402  0.2923 -0.1197
30251W        W36851  12.879   1.966  28.791 -0.2691  0.0648 -0.2826
30252W        W36852   1.540   1.285  12.869 -0.4454 -0.0120 -0.0509
30253W        W36853  15.978   0.945  34.266  0.0570  0.2447 -0.0465
30254W        W36854  12.639   4.153  13.230  0.2154 -0.1718 -0.0025
30255W        W36855   3.211   2.253  44.844  0.1406  0.2120  0.0718
30256W        W36856  16.938   0.608  38.829 -0.0561 -0.0048  0.1788
30257W        W36857   5.759   1.654  30.441  0.2702  0.2350 -0.0585
30258W        W36858   7.030   1.273  30.224  0.0939 -0.2143  0.3409
30259W        W36859   4.147   3.347  41.366  0.0280 -0.0091  0.2185
30260W        W36860  13.152   0.975  31.744  0.0625 -0.0421  0.1789
30261W        W36861  19.993   2.405   8.850  0.3640 -0.1035  0.0712
30262W        W36862   0.591   3.047  34.028 -0.2644 -0.0287 -0.0146
30263W        W36863  16.222   1.436  33.343  0.0510 -0.1702  0.1110
30264W        W36864   6.841   6.542   7.911 -0.0608 -0.1424 -0.1553
30265W        W36865  19.428   4.704  20.828  0.1056 -0.1359  0.2728
30266W        W36866   6.448   6.291  28.653  0.3172 -0.0221  0.1331
30267W        W36867  17.304   4.134  37.310 -0.0957 -0.0627  0.2238
30268W        W36868  19.309   1.975   2.414  0.0585  0.2908 -0.2734
30269W        W36869   8.784   2.112   8.871  0.1122  0.3672  0.3482
30270W        W36870  15.119   3.087  33.134  0.1644 -0.2961 -0.0938
30271W        W36871   3.375   3.304  31.026 -0.1768  0.0282 -0.0449
30272W        W36872  18.751   5.249  43.918 -0.2697 -0.0640 -0.2757
30273W        W36873  16.381   5.842  26.755 -0.0873  0.0180 -0.0177
30274W        W36874   0.487   4.093  33.695 -0.0921  0.1124  0.2167
30275W        W36875   2.838   0.445  16.201 -0.0518 -0.1048  0.1904
30276W        W36876   3.563   3.850   3.230  0.0624 -0.3591 -0.0618
30277W        W36877  11.097   1.562  34.397  0.0785 -0.0028 -0.5443
30278W        W36878  16.917   6.360   2.747 -0.0873 -0.2208  0.3228
30279W        W36879  16.768   0.640  26.951  0.1837 -0.0579  0.1161
30280W        W36880  19.745   0.566  19.644 -0.1587  0.0085 -0.1648
30281W        W36881   8.864   4.875  34.872 -0.0154 -0.2267  0.0419
30282W        W36882   6.829   1.026  38.857  0.2975 -0.1865  0.3100
30283W        W36883  10.055   4.999   6.194  0.0857  0.3111  0.3511
30284W        W36884  19.306   4.840  41.526 -0.1188  0.1178  0.1483
30285W        W36885  17.377   0.641  30.883  0.0056  0.1151 -0.0246
30286W        W36886  20.575   3.845  21.966 -0.2650  0.0198  0.0609
30287W        W36887   4.668   3.116   3.186  0.2270 -0.0802  0.1590
30288W        W36888  19.983   6.197  13.427 -0.0079  0.2017  0.2136
30289W        W36889  19.524   0.528  21.638  0.3514 -0.0645  0.0317
30290W        W36890  15.286   0.773   6.154  0.2030  0.1577 -0.1368
30291W        W36891   2.065   4.053  30.621  0.0776  0.1648 -0.0947
30292W        W36892  10.088   3.038  18.686  0.6909  0.2826 -0.0472
30293W        W36893  17.193   5.702  40.333  0.1331  0.0023 -0.4132
30294W        W36894  13.554   2.395  10.160 -0.1253 -0.0870 -0.0683
30295W        W36895  14.783   1.986  40.924  0.1746  0.0016 -0.0754
30296W        W36896  10.589   1.204   9.810  0.0502 -0.0974  0.1390
30297W        W36897  15.308   2.149  10.529  0.1952 -0.2322 -0.0017
30298W        W36898  12.814   2.070  33.050  0.1335  0.2303  0.0498
30299W        W36899   6.319   2.558  19.898  0.0805 -0.0452 -0.4198
30300W        W36900  10.372   6.088  30.083 -0.1635 -0.0628 -0.0481
30301W        W36901  11.712   4.242  18.319 -0.1465 -0.0915 -0.0231
30302W        W36902  15.221   6.575  36.768 -0.0151  0.3173 -0.0787
30303W        W36903   8.279   2.288  29.886  0.0770  0.2623  0.2824
30304W        W36904  18.987   1.567   8.261 -0.1862 -0.0548  0.0793
30305W        W36905   5.866   6.420  44.595 -0.1009  0.0938 -0.2385
30306W        W36906  17.327   4.390  35.890  0.0030 -0.0417 -0.2581
30307W        W36907   4.572   3.948  32.332  0.0419 -0.0683  0.1812
30308W        W36908  17.819   1.420   2.391 -0.0090 -0.2240 -0.0771
30309W        W36909  19.080   2.977  21.000 -0.1686 -0.1508  0.2848
30310W        W36910  19.554   6.225  27.907  0.2935 -0.0653 -0.0177
30311W        W36911  14.117   3.847   1.821  0.2057  0.1486  0.0274
30312W        W36912  14.778   5.433  11.387  0.0304 -0.0680  0.0609
30313W        W36913   9.604   1.853  43.070  0.0879  0.3086  0.1282
30314W        W36914   5.138   0.182  28.930  0.1289  0.0143  0.1294
30315W        W36915  10.481   4.876  36.171 -0.0316  0.1538 -0.1336
30316W        W36916  10.337   4.693  31.899  0.0680  0.1168 -0.2915
30317W        W36917  13.975   6.122  28.309 -0.1495 -0.1836  0.0025
30318W        W36918   9.485   0.539  11.176 -0.0343 -0.0734 -0.0787
30319W        W36919  12.982   4.434  34.669 -0.0499  0.1364 -0.2020
30320W        W36920   6.229   6.250  13.399 -0.0062  0.3730 -0.0987
30321W        W36921  18.630   3.810  33.219  0.1099 -0.1544  0.0691
30322W        W36922  12.141   0.726   7.288  0.1584 -0.0908  0.0871
30323W        W36923  14.605   0.250  37.467 -0.1114 -0.0481  0.0438
30324W        W36924   3.977   3.578  32.866 -0.2556 -0.2358  0.5106
30325W        W36925   2.835   5.298  10.751 -0.2711 -0.0682  0.0254
30326W        W36926   5.706   0.892  17.626 -0.1442  0.0511 -0.0895
30327W        W36927   4.480   6.012   2.895  0.1214 -0.1214 -0.1685
30328W        W36928  11.942   3.311  30.800 -0.3279  0.1513 -0.2957
30329W        W36929   3.424   3.605  28.682 -0.0748 -0.0542  0.0648
30330W        W36930  10.244   0.377  18.996 -0.3199  0.1354  0.0520
30331W        W36931  19.183   3.165  24.329  0.1740  0.1311  0.1178
30332W        W36932  13.779   4.896   0.773 -0.1571  0.1240  0.1800
30333W        W36933   0.530   5.166  31.770 -0.0201 -0.0019 -0.1027
30334W        W36934  13.421   3.713  39.522 -0.2255 -0.1474  0.1573
30335W        W36935   3.082   6.144   8.466 -0.1409  0.1412  0.1026
30336W        W36936   2.219   1.420  25.022  0.0283 -0.0388 -0.1564
30337W        W36937   3.471   1.687   7.953 -0.1926  0.0201  0.0061
30338W        W36938  17.474   1.668  43.979 -0.0092  0.1400 -0.0965
30339W        W36939  20.124   6.502  43.569  0.0118 -0.1669 -0.3025
30340W        W36940  14.823   6.198  38.427  0.0084  0.0322  0.0352
30341W        W36941   3.270   1.530  12.297 -0.0109 -0.1764 -0.1096
30342W        W36942   6.631   0.913   4.947 -0.2597  0.0150  0.0223
30343W        W36943   6.002   6.093  30.199 -0.0024  0.1325 -0.0639
30344W        W36944   0.067   5.691  36.485 -0.0432 -0.1803  0.1564
30345W        W36945  12.953   4.259  42.942  0.0275  0.0821 -0.1793
30346W        W36946   7.845   0.824   8.217  0.2195  0.2557 -0.0120
30347W        W36947  14.455   0.328  34.548 -0.0093 -0.1729  0.3188
30348W        W36948   8.150   5.183  44.123 -0.1253 -0.2601  0.1908
30349W        W36949  20.681   2.115   6.195 -0.1322 -0.1725 -0.0954
30350W        W36950   8.611   0.999  17.710 -0.0900  0.0199 -0.1019
30351W        W36951   3.370   6.042  35.971 -0.0014 -0.1643  0.0260
30352W        W36952   7.193   4.895  29.378  0.1006  0.1335 -0.0311
30353W        W36953   4.841   2.232  40.877  0.2394 -0.0413  0.0358
30354W        W36954   1.809   5.636   9.537 -0.1685  0.0651 -0.0258
30355W        W36955  13.647   4.915  41.507 -0.1609 -0.0922 -0.3318
30356W        W36956  21.017   2.751  10.207  0.1400 -0.0169 -0.0288
30357W        W36957  17.594   2.857  27.220  0.0142  0.3082  0.2074
30358W        W36958  21.003   0.082  41.754 -0.1590 -0.0771 -0.0156
30359W        W36959   8.865   5.361  40.721  0.0490  0.0518  0.0401
30360W        W36960   3.881   5.330  32.504 -0.0664 -0.0129  0.1018
30361W        W36961  11.105   2.034  21.209  0.1123  0.0815  0.2316
30362W        W36962  16.646   2.447   4.217 -0.0281 -0.0372 -0.1135
30363W        W36963  14.367   4.671   9.961 -0.4810  0.1193  0.3976
30364W        W36964  11.773   3.805  28.744 -0.0317  0.3682 -0.2788
30365W        W36965  19.884   5.587  32.877 -0.1132 -0.2007 -0.1745
30366W        W36966   8.033   0.699  21.456 -0.1558  0.2040 -0.3860
30367W        W36967  19.730   4.586  15.917 -0.0629 -0.0930 -0.0229
30368W        W36968  14.513   6.470  42.036 -0.0817 -0.0245  0.2714
30369W        W36969  10.028   6.165  12.115  0.1462  0.4818 -0.0912
30370W        W36970   1.343   2.171   5.216  0.2642  0.0890  0.1286
30371W        W36971   5.688   2.060  43.533 -0.3650  0.0984  0.0130
30372W        W36972   2.930   0.835  13.079 -0.0658  0.1392 -0.0315
30373W        W36973   0.346   1.628  12.837 -0.0959 -0.0533 -0.1194
30374W        W36974   9.120   6.184  43.402  0.1330 -0.0886 -0.3794
30375W        W36975  10.787   3.589  17.547 -0.1225 -0.1489 -0.1867
30376W        W36976   3.246   0.913   7.112  0.0966  0.1988 -0.0656
30377W        W36977  10.437   4.745  40.458 -0.0411  0.0620  0.1252
30378W        W36978   9.070   4.822  43.236 -0.3021 -0.0286  0.3754
30379W        W36979   2.074   3.412  34.345 -0.3186  0.1116 -0.1803
30380W        W36980   7.034   2.037  11.616  0.0249 -0.2952 -0.0568
30381W        W36981   8.287   1.591  40.911  0.1817 -0.0970 -0.2570
30382W        W36982  12.923   5.762  43.518 -0.1329  0.2236  0.1803
30383W        W36983  18.441   2.139   2.259  0.1054  0.1152 -0.0336
30384W        W36984   0.971   2.886  15.922  0.0571  0.0089 -0.3192
30385W        W36985   3.269   1.841   7.075  0.1256  0.2044  0.1934
30386W        W36986   3.171   0.339  30.903  0.0681 -0.0592 -0.0315
30387W        W36987  10.277   4.334  17.555  0.0027 -0.1791 -0.0450
30388W        W36988  11.396   4.647  36.986  0.1643  0.0012  0.1117
30389W        W36989   4.092   1.743  30.261 -0.1749 -0.2971  0.0146
30390W        W36990  19.178   2.634   4.045 -0.2138 -0.0351 -0.1225
30391W        W36991   5.543   5.710  19.130 -0.0070 -0.0093  0.0633
30392W        W36992  16.727   5.754  12.997 -0.5838 -0.1296 -0.0726
30393W        W36993  13.723   2.735  16.627 -0.4128  0.2485  0.1169
30394W        W36994  17.786   2.283  37.609 -0.2258  0.1914 -0.3470
30395W        W36995   4.138   5.977  19.192 -0.1087 -0.3982 -0.5875
30396W        W36996  10.939   0.087  11.799  0.2023 -0.0880  0.1708
30397W        W36997  14.294   1.803  29.594  0.0989 -0.1202  0.0457
30398W        W36998  11.462   2.262  22.763 -0.1562 -0.0927  0.0290
30399W        W36999  14.463   6.180  15.138  0.1511 -0.2050  0.1821
30400W        W37000  13.368   5.540  15.143  0.2913  0.1520  0.1243
30401W        W37001   2.849   1.829  13.921  0.0719 -0.2675  0.2014
30402W        W37002   5.708   4.780  13.232 -0.5878 -0.0355 -0.0641
30403W        W37003   8.955   0.275  31.794 -0.0065  0.0615 -0.1712
30404W        W37004   1.121   1.857  27.264 -0.0330  0.3225  0.0302
30405W        W37005  14.832   2.925  17.924  0.0627 -0.1255 -0.3851
30406W        W37006  21.022   2.993  28.466  0.1339  0.0639 -0.0775
30407W        W37007   6.150   3.523   6.663 -0.2324 -0.1726 -0.2372
30408W        W37008  16.117   4.382  25.389  0.1480 -0.1552 -0.0980
30409W        W37009  15.849   1.311  10.217  0.0156 -0.0823  0.0916
30410W        W37010  10.893   2.588  17.419  0.2602 -0.0942  0.0144
30411W        W37011  17.538   5.121  44.523  0.0744  0.3491 -0.3371
30412W        W37012   1.642   0.730  45.042 -0.1960 -0.0877  0.2602
30413W        W37013  16.602   3.499  28.326 -0.2683  0.3792  0.0777
30414W        W37014  10.616   2.831  13.978  0.0278 -0.0205  0.2810
30415W        W37015  17.232   2.927   7.521 -0.2203  0.2277  0.1211
30416W        W37016  11.789   3.585   7.117 -0.0168 -0.0482 -0.1273
30417W        W37017  16.850   5.955  36.930 -0.1169 -0.1327 -0.1005
30418W        W37018  18.192   0.513  39.628  0.1092  0.1058 -0.2112
30419W        W37019  17.093   4.107   0.105  0.3985 -0.2090 -0.0881
30420W        W37020  13.728   5.525  42.111  0.1660  0.0730 -0.1227
30421W        W37021  18.658   4.002  23.879 -0.2116  0.0586  0.0372
30422W        W37022  11.174   1.462  40.797  0.0905 -0.1296  0.2565
30423W        W37023   4.751   2.858  36.798 -0.1523 -0.0873  0.0456
30424W        W37024   9.822   6.581  29.872 -0.2059  0.1345 -0.1334
30425W        W37025   9.602   3.264  25.074  0.3687  0.0966 -0.1245
30426W        W37026  11.233   3.724  22.683 -0.0199  0.0014  0.0204
30427W        W37027  10.698   1.873  44.495 -0.2071  0.0301 -0.1127
30428W        W37028   3.674   5.942  16.263  0.1315 -0.0181  0.2264
30429W        W37029   6.818   2.475  40.856 -0.1737  0.2888 -0.2917
30430W        W37030  21.068   1.731  15.328 -0.0247  0.0434  0.1729
30431W        W37031  11.101   1.020  36.206  0.1379 -0.0828  0.0029
30432W        W37032  11.897   2.746  35.657  0.0584  0.0102 -0.1519
30433W        W37033   8.894   3.908   6.036  0.0210  0.1401 -0.1544
30434W        W37034  16.061   1.028   8.413  0.0013  0.0032  0.0071
30435W        W37035  17.449   2.135  33.923 -0.0928  0.0580  0.2320
30436W        W37036   0.434   3.698  41.572  0.2685 -0.0067  0.0137
30437W        W37037  17.244   3.227   5.688 -0.1464  0.0727 -0.1596
30438W        W37038   2.708   1.522  11.437  0.3436 -0.1095 -0.1899
30439W        W37039  11.578   1.890  35.099 -0.1761 -0.1324  0.4648
30440W        W37040   8.673   1.190  29.170 -0.1418 -0.2314  0.1449
30441W        W37041   6.703   0.483  20.893 -0.1360 -0.2485 -0.4408
30442W        W37042  20.413   1.263   3.384 -0.3782 -0.2502 -0.0241
30443W        W37043   5.094   5.937  33.655  0.0133  0.2231 -0.1882
30444W        W37044   4.327   0.376   3.662  0.0975  0.0240 -0.0035
30445W        W37045  10.625   1.698   9.812  0.2036  0.0593 -0.1466
30446W        W37046   7.537   6.101   5.792  0.2116 -0.1545 -0.3952
30447W        W37047  12.161   6.047  20.541 -0.0422  0.0210 -0.0078
30448W        W37048   1.028   3.171  28.898 -0.3869  0.0754 -0.0650
30449W        W37049   4.430   0.789   0.918  0.1053 -0.0315 -0.2298
30450W        W37050  16.862   4.389   6.644  0.0912  0.4266 -0.2269
30451W        W37051  20.473   1.317   1.000  0.2659 -0.0351  0.3406
30452W        W37052   5.219   4.276   9.961  0.0719  0.0296  0.0508
30453W        W37053   3.482   1.783  29.421 -0.1464  0.2346  0.1239
30454W        W37054   0.902   2.621  38.301 -0.2490  0.0789  0.0566
30455W        W37055  15.914   1.851  13.329  0.0792 -0.1197  0.2056
30456W        W37056   3.053   2.553   0.823 -0.2180  0.0160 -0.2686
30457W        W37057  15.883   3.832  15.757  0.2211 -0.0065  0.0674
30458W        W37058   4.499   0.603  32.941 -0.1230  0.1044  0.5368
30459W        W37059  19.360   6.169  29.332 -0.0035  0.1940  0.0994
30460W        W37060  19.059   0.957  13.884  0.2825 -0.2269  0.0478
30461W        W37061   2.729   1.989  33.686  0.0334  0.1170 -0.0822
30462W        W37062   5.351   4.887  18.414 -0.3483 -0.0532 -0.1513
30463W        W37063  10.906   2.594  31.222  0.0488 -0.0871  0.0627
30464W        W37064   0.539   4.991  11.652 -0.0712 -0.0073  0.2960
30465W        W37065  18.922   6.052  13.789 -0.0962 -0.1260 -0.2293
30466W        W37066   4.740   2.097  18.751  0.2809  0.0962 -0.2074
30467W        W37067   3.648   5.511  13.510 -0.0671  0.1774 -0.0608
30468W        W37068   0.730   0.665  13.751 -0.3607 -0.2537 -0.2001
30469W        W37069   4.845   4.312  15.790  0.0083  0.4719 -0.0883
30470W        W37070  15.422   5.717   9.188  0.2235 -0.2189 -0.0817
30471W        W37071  19.093   2.069  30.757 -0.0771  0.1022  0.2075
30472W        W37072   8.989   5.467   7.519  0.0280 -0.1348 -0.0205
30473W        W37073   3.672   4.529  38.273 -0.3661  0.2451  0.1364
30474W        W37074   9.701   6.118  30.506 -0.0094  0.1081 -0.0364
30475W        W37075  14.738   0.906   9.182  0.2482 -0.2692 -0.1398
30476W        W37076   0.746   1.062   1.151 -0.1402 -0.0226 -0.0955
30477W        W37077   8.393   0.935  24.515 -0.0953 -0.0977 -0.0020
30478W        W37078  11.382   0.502  14.714  0.0348  0.1697 -0.1278
30479W        W37079  14.930   2.593  44.183 -0.1324  0.0920  0.2749
30480W        W37080  15.978   3.768   4.471  0.0507  0.0788 -0.0722
30481W        W37081  13.295   0.426  38.656 -0.0446  0.2083 -0.1691
30482W        W37082   2.122   5.154   4.439  0.2005 -0.1422  0.0815
30483W        W37083   9.068   3.082  31.554 -0.1842 -0.0953 -0.1037
30484W        W37084   4.306   6.435  28.707 -0.1035 -0.4715 -0.0855
30485W        W37085  11.769   2.200  19.984  0.0822  0.1744  0.2820
30486W        W37086   1.791   5.292  37.610 -0.1500  0.1529  0.1058
30487W        W37087  11.810   2.903  18.351  0.0594  0.0776 -0.3216
30488W        W37088  17.906   6.101  27.784 -0.2456 -0.3876 -0.0169
30489W        W37089   1.485   5.166   6.690  0.0734 -0.0041  0.2053
30490W        W37090  14.088   2.157  30.372 -0.2396 -0.0092  0.0499
30491W        W37091  18.977   5.079  26.273  0.5445 -0.0514  0.1222
30492W        W37092   3.649   1.052  33.026  0.0446 -0.0540 -0.0832
30493W        W37093  10.960   2.514   8.956  0.2202  0.0522 -0.1431
30494W        W37094  14.707   0.013   2.122  0.0663 -0.2150  0.1446
30495W        W37095  17.322   0.874  43.029 -0.0203  0.0921 -0.0293
30496W        W37096   9.529   2.686  18.987  0.1500  0.0261 -0.2279
30497W        W37097   6.616   5.889  43.210  0.1161 -0.0890  0.0339
30498W        W37098  13.279   4.197   5.795  0.0231  0.0818 -0.2903
30499W        W37099  18.388   2.173  30.132  0.0326  0.0021  0.1913
30500W        W37100   1.249   4.044   9.079  0.0433  0.0833 -0.2937
30501W        W37101   9.597   3.650  36.740  0.0487 -0.0317  0.0708
30502W        W37102   2.413   5.054   5.217  0.1624 -0.2459 -0.0291
30503W        W37103  12.779   5.188   2.890  0.0059  0.1304  0.0487
30504W        W37104  18.052   2.542  26.769  0.0825  0.1172  0.1124
30505W        W37105  15.799   4.012   7.067  0.5505  0.1478  0.0511
30506W        W37106   1.519   3.298  31.143  0.0584 -0.5592 -0.0593
30507W        W37107  20.000   5.919   9.259  0.0039  0.0336  0.0263
30508W        W37108  12.713   1.448  14.010 -0.0391  0.1620  0.0828
30509W        W37109  17.707   4.277  33.447  0.1420 -0.3176  0.1068
30510W        W37110  20.098   5.247  15.647 -0.3089  0.1084 -0.0903
30511W        W37111   6.310   3.813  13.739  0.1224  0.2048  0.0968
30512W        W37112  20.363   5.638  38.151  0.2959 -0.0604 -0.1278
30513W        W37113  16.389   4.808  37.512  0.0085 -0.0224  0.2285
30514W        W37114  14.339   0.011  44.851  0.0597 -0.3376  0.1725
30515W        W37115  12.872   1.095  14.294 -0.0876  0.1263  0.0618
30516W        W37116   5.502   2.856  43.722  0.3347 -0.0237 -0.0835
30517W        W37117   3.220   3.346  28.270  0.1918  0.2539 -0.2614
30518W        W37118  14.180   5.089   4.123 -0.0515 -0.0778  0.0415
30519W        W37119   9.420   0.877   8.292  0.0210 -0.0253  0.0844
30520W        W37120   7.638   1.252  23.413 -0.2680  0.2559  0.1647
30521W        W37121  19.897   5.289   0.682 -0.3088 -0.1733  0.2907
30522W        W37122  16.383   0.636  31.999  0.0805 -0.0169 -0.1742
30523W        W37123   3.491   3.000   5.716 -0.0608  0.1275 -0.0910
30524W        W37124   0.663   0.035  43.599 -0.2737  0.2061 -0.0262
30525W        W37125   0.685   6.362  23.709 -0.0788 -0.3499  0.2344
30526W        W37126  12.403   4.331  28.878  0.6568 -0.1088  0.2877
30527W        W37127   6.718   4.138  33.239 -0.0248  0.0194 -0.0935
30528W        W37128  11.166   4.732   0.513  0.0011  0.1025 -0.2778
30529W        W37129   8.981   3.962  37.668 -0.1368 -0.1592  0.0369
30530W        W37130  16.332   2.828  12.585  0.0549  0.1287  0.3625
30531W        W37131  17.138   5.591  28.470  0.3381  0.0055 -0.2444
30532W        W37132  17.961   1.936  26.894 -0.3833  0.0118  0.2521
30533W        W37133  19.161   3.067  29.244 -0.0294  0.1738  0.1656
30534W        W37134   0.524   0.413  24.890 -0.2437 -0.1539 -0.3964
30535W        W37135  17.111   6.351  15.255  0.0582 -0.1361  0.2855
30536W        W37136   2.057   3.390  26.908  0.1868 -0.1167  0.0492
30537W        W37137  19.100   0.005  33.095  0.0478 -0.4336 -0.3596
30538W        W37138  14.898   3.890   2.225  0.1201 -0.1074 -0.0157
30539W        W37139  12.822   0.690  33.002  0.0220  0.0304  0.0853
30540W        W37140   6.073   0.612  29.559 -0.0324 -0.2113  0.2615
30541W        W37141  18.357   6.576  38.637  0.0555  0.3118 -0.1173
30542W        W37142  20.989   4.928  43.293 -0.1725  0.0549 -0.2569
30543W        W37143  11.593   4.709  17.262  0.0538 -0.0210 -0.1126
30544W        W37144   3.912   3.364   8.430 -0.4746  0.1035 -0.1297
30545W        W37145  11.951   6.144  37.423 -0.1392  0.2359  0.1742
30546W        W37146   1.153   5.389  24.979 -0.0072 -0.0904 -0.0889
30547W        W37147   5.939   2.429  40.224 -0.0952  0.0778  0.5171
30548W        W37148   6.139   4.792  12.715 -0.2933  0.0473  0.2606
30549W        W37149   7.541   4.114  42.135 -0.0635 -0.0102  0.0326
30550W        W37150   0.875   6.194  38.936 -0.2080 -0.1346  0.1247
30551W        W37151   0.149   3.106  35.957  0.0532  0.1257  0.0455
30552W        W37152  18.935   5.395   0.279  0.1473 -0.0139 -0.1289
30553W        W37153  14.316   3.638  38.066  0.3151  0.1155  0.1568
30554W        W37154  14.096   4.230   5.128 -0.1011  0.0821  0.1683
30555W        W37155  18.594   0.296  15.209 -0.2079 -0.1920 -0.3078
30556W        W37156  10.793   0.871  23.646 -0.0008 -0.0631 -0.0513
30557W        W37157  14.751   0.565  13.880  0.1207 -0.1816  0.1194
30558W        W37158  16.925   0.780  37.690  0.0172  0.0587 -0.2835
30559W        W37159  14.669   5.157   8.008 -0.0513  0.1328  0.1278
30560W        W37160  17.115   4.604  40.348 -0.0971  0.2280 -0.0404
30561W        W37161  10.896   1.801   8.104  0.1959 -0.1366 -0.0969
30562W        W37162   5.835   4.424  14.905  0.0227  0.0733 -0.0383
30563W        W37163  18.786   1.342  12.154 -0.1421  0.0177  0.1444
30564W        W37164   9.965   4.031   9.706 -0.0790 -0.2570 -0.0918
30565W        W37165   4.461   2.790  35.809 -0.1348  0.2845 -0.0272
30566W        W37166   6.808   0.765  42.488  0.2124  0.0129  0.2600
30567W        W37167   2.237   1.070   5.014  0.2099 -0.0176 -0.1023
30568W        W37168  10.560   3.271   9.435  0.4655  0.0046  0.3400
30569W        W37169  14.000   4.879  32.428  0.3073  0.1289 -0.1998
30570W        W37170   1.017   0.676  30.495 -0.0796 -0.0923 -0.0404
30571W        W37171  16.711   4.844  40.037  0.0662  0.1875  0.0171
30572W        W37172   9.531   1.315  11.779 -0.3028  0.2355  0.1317
30573W        W37173   9.985   0.389  26.427 -0.1099 -0.2056 -0.0925
30574W        W37174  18.947   0.144  10.752 -0.2318  0.0566 -0.0587
30575W        W37175   4.339   3.123  18.244 -0.1640 -0.0045 -0.0855
30576W        W37176   1.672   1.314   9.154 -0.1541  0.2356  0.2009
30577W        W37177   5.341   5.854   8.361  0.4378 -0.1574  0.1681
30578W        W37178   2.929   5.602  32.744 -0.2924 -0.0386  0.0491
30579W        W37179  19.914   1.897  20.992  0.0867  0.2232  0.1790
30580W        W37180  10.944   5.499  33.651  0.0938  0.0850  0.0715
30581W        W37181   6.047   2.777  44.496  0.0170  0.1069  0.0780
30582W        W37182   5.643   3.679  31.896  0.0959  0.1359 -0.2547
30583W        W37183  19.165   2.969   2.709  0.0242  0.1295  0.0282
30584W        W37184   4.979   4.950   6.450  0.3170  0.1029  0.2732
30585W        W37185  10.356   2.985  32.840  0.2352  0.0413  0.2779
30586W        W37186   1.469   3.688  14.512 -0.3207 -0.0941 -0.0999
30587W        W37187  17.399   1.504   4.909  0.2149 -0.0971 -0.1325
30588W        W37188   5.580   0.821  39.541  0.0514  0.2623 -0.1583
30589W        W37189  13.775   6.468  38.337  0.1500  0.0969  0.0585
30590W        W37190   1.057   5.261  26.309 -0.1864 -0.2817 -0.1623
30591W        W37191  10.770   5.985   0.579  0.0778  0.3695 -0.0269
30592W        W37192   6.383   1.508   1.036  0.1115 -0.1337  0.1525
30593W        W37193   0.484   2.180  23.752 -0.1496  0.0520 -0.4605
30594W        W37194  13.825   4.360  34.563 -0.0125  0.0121  0.0497
30595W        W37195   6.552   4.111   0.965 -0.0644  0.0707  0.2974
30596W        W37196  17.649   4.689   9.127 -0.1055  0.2178  0.0275
30597W        W37197  18.076   3.398   5.098 -0.1620  0.0750 -0.0148
30598W        W37198   9.666   2.418  31.954  0.2544 -0.2397 -0.0309
30599W        W37199   5.527   4.024  34.882  0.1890 -0.0219 -0.0177
30600W        W37200   2.741   6.223   1.557 -0.3690  0.0115  0.1544
30601W        W37201   7.924   6.379  34.075 -0.1531 -0.1037  0.0221
30602W        W37202  10.552   4.288  16.384 -0.0086 -0.1340  0.0509
30603W        W37203  18.182   2.464  42.288  0.3552  0.2966 -0.1056
30604W        W37204  12.784   2.427   9.777 -0.0011  0.2626 -0.1008
30605W        W37205  16.865   4.402  31.959  0.4833  0.0373 -0.1276
30606W        W37206   6.563   5.611   0.774 -0.0449 -0.2218  0.1443
30607W        W37207   1.447   5.530  14.017 -0.0479 -0.3906 -0.3084
30608W        W37208  14.579   3.551  40.263 -0.0490  0.3183 -0.1308
30609W        W37209   7.097   1.210  14.468  0.0929  0.0396  0.1858
30610W        W37210  10.815   5.790   7.298  0.3888 -0.2350  0.2264
30611W        W37211   0.090   0.536  30.474  0.2550  0.0010  0.2904
30612W        W37212  15.628   6.547  32.792 -0.1528  0.0391  0.0795
30613W        W37213   1.304   5.184  25.798 -0.2592 -0.1246  0.1328
30614W        W37214  20.690   4.949  33.169 -0.0134  0.1022  0.0449
30615W        W37215  19.130   4.653  34.164 -0.0561 -0.2928 -0.2249
30616W        W37216  16.358   0.185   1.028 -0.0852 -0.2057  0.5426
30617W        W37217   3.606   3.320  32.053 -0.0619 -0.1075  0.0035
30618W        W37218  16.780   0.169  12.086 -0.1607  0.0449  0.2072
30619W        W37219   0.777   5.574   5.226 -0.0966  0.0640  0.1683
30620W        W37220   8.892   3.920  10.516  0.2063 -0.0911  0.0735
30621W        W37221  15.089   0.673  30.574  0.3564 -0.3296 -0.0185
30622W        W37222  18.411   4.542  40.727 -0.1197  0.1130  0.1440
30623W        W37223  14.657   6.453   2.616  0.1675  0.0563 -0.1773
30624W        W37224  16.938   5.972  41.662  0.1624  0.0775 -0.1803
30625W        W37225   0.044   2.529   1.999  0.0378  0.1208  0.0695
30626W        W37226  10.426   4.324  24.958  0.0622 -0.0027  0.1625
30627W        W37227  18.350   1.607  10.850  0.1272 -0.2387 -0.0540
30628W        W37228  11.582   1.830   0.802 -0.2944 -0.1495  0.1976
30629W        W37229   0.359   3.446  25.272 -0.0957 -0.3762  0.2452
30630W        W37230  15.476   1.596  37.794  0.1178 -0.2492 -0.0680
30631W        W37231  16.169   2.869  29.032  0.3491  0.1920 -0.0678
30632W        W37232   8.971   5.776   9.569  0.2227  0.1306 -0.0841
30633W        W37233  12.135   4.571  20.829  0.2530  0.1209  0.0708
30634W        W37234   5.040   5.603   1.318  0.1884  0.1983  0.2200
30635W        W37235  18.357   4.665  30.894  0.1386  0.2491 -0.1585
30636W        W37236  17.196   1.174   3.044  0.2490 -0.1425  0.1522
30637W        W37237   5.655   4.166   0.639 -0.1266  0.1096  0.1915
30638W        W37238  20.426   6.301  36.347 -0.0061 -0.0112 -0.1537
30639W        W37239   2.200   0.651  29.406  0.0802 -0.1323  0.0008
30640W        W37240  18.301   4.426  28.872  0.1549  0.0758 -0.1591
30641W        W37241  20.304   2.203   4.315  0.1577  0.0951 -0.0487
30642W        W37242   1.119   0.437  22.771  0.0330 -0.0686  0.1330
30643W        W37243  16.606   3.653  39.372 -0.0651  0.0949 -0.0254
30644W        W37244  11.013   5.252  29.501 -0.2226  0.1166 -0.1906
30645W        W37245   8.188   2.047   1.189 -0.1637 -0.1030 -0.0404
30646W        W37246   7.342   6.026  35.828  0.1147  0.1453  0.1055
30647W        W37247  16.859   1.335   6.648 -0.2091 -0.1177  0.2406
30648W        W37248  11.839   3.466  30.312  0.0647  0.2265  0.1858
30649W        W37249   6.997   2.573  32.772  0.1439 -0.1953 -0.2188
30650W        W37250  11.717   6.025   6.871  0.1729 -0.2670  0.1865
30651W        W37251   1.623   3.057   3.554 -0.0434 -0.0060 -0.0898
30652W        W37252   1.409   0.529   2.126 -0.0720 -0.4040 -0.0862
30653W        W37253  13.283   4.896   2.939  0.0466 -0.2535  0.0135
30654W        W37254   1.299   6.572  10.974 -0.3014 -0.0590  0.1215
30655W        W37255  14.066   5.897   4.676 -0.0222 -0.0856  0.0175
30656W        W37256  11.682   6.325  41.073 -0.0512 -0.1110  0.0530
30657W        W37257  12.415   0.407  44.839  0.0729 -0.1543 -0.1609
30658W        W37258   4.116   1.067  15.572  0.1794  0.0154 -0.0559
30659W        W37259  14.011   3.446  39.801  0.3539  0.1779 -0.0303
30660W        W37260  12.223   5.101   3.076  0.0136 -0.3461  0.2262
30661W        W37261  10.790   6.160  43.913 -0.1776 -0.1233  0.3389
30662W        W37262   5.232   2.469  10.495 -0.1067  0.0540  0.0839
30663W        W37263  12.888   2.042  12.218 -0.1874 -0.3239  0.0853
30664W        W37264   9.981   5.362  14.938  0.0714 -0.2380  0.0824
30665W        W37265  10.758   2.493   1.737  0.1455 -0.4183  0.1496
30666W        W37266  15.593   5.263  30.743  0.2097  0.0604  0.0413
30667W        W37267   9.570   1.134  20.949  0.1407 -0.2831  0.0540
30668W        W37268  12.241   1.570  20.293 -0.2954  0.2670  0.0851
30669W        W37269   4.979   2.978  31.716  0.2068 -0.3561  0.0133
30670W        W37270   0.515   4.534  40.794 -0.0496  0.1560 -0.2677
30671W        W37271   1.903   1.233  34.354  0.1437  0.1932 -0.1124
30672W        W37272  17.413   1.064   9.505  0.0884  0.1289 -0.1880
30673W        W37273   8.276   1.564  14.683  0.2431  0.3478 -0.3599
30674W        W37274  12.489   5.379  43.603  0.0370  0.1134 -0.1608
30675W        W37275  14.538   5.533  13.714  0.4272 -0.3838 -0.1599
30676W        W37276   2.690   4.768  43.084 -0.2701  0.1263 -0.3143
30677W        W37277  12.068   5.089  33.162 -0.1771  0.2686  0.0152
30678W        W37278   4.049   2.512   8.261  0.0884 -0.1463  0.2290
30679W        W37279  14.683   4.466  34.268  0.3914 -0.3422 -0.0045
30680W        W37280   2.416   5.093  42.485  0.1351 -0.1111 -0.4507
30681W        W37281   6.409   0.395  19.143 -0.0486 -0.0680 -0.3110
30682W        W37282  11.128   4.702  36.278 -0.0466  0.3308 -0.0213
30683W        W37283  11.301   1.698  31.146  0.0378 -0.0575 -0.0959
30684W        W37284   6.402   5.864  32.631 -0.0077 -0.0930  0.0249
30685W        W37285  11.067   3.414  37.766 -0.1045  0.0562  0.0524
30686W        W37286  12.979   6.030  39.113  0.2819 -0.1549  0.2346
30687W        W37287   5.380   1.144  44.604 -0.2134 -0.2456 -0.1272
30688W        W37288  10.413   3.900   8.284 -0.1286 -0.4790  0.2939
30689W        W37289  13.943   0.927  18.786 -0.0100  0.1066 -0.3738
30690W        W37290   1.623   6.251  23.841 -0.0309 -0.2298 -0.0179
30691W        W37291   4.293   0.186   8.588 -0.2317 -0.1524  0.0810
30692W        W37292  20.589   0.256  27.050 -0.1532 -0.4550 -0.1023
30693W        W37293  15.585   2.398  41.668  0.1037  0.0055 -0.0500
30694W        W37294  10.787   1.521  36.979  0.1763  0.4032  0.2914
30695W        W37295   6.318   4.279   6.111 -0.0898 -0.0437  0.2581
30696W        W37296  15.623   0.400  27.885  0.0389 -0.0631  0.1175
30697W        W37297  12.961   4.235  13.575  0.1213  0.0485 -0.4311
30698W        W37298  15.055   0.767  11.469  0.1756 -0.0116 -0.2072
30699W        W37299  11.470   3.250  36.741 -0.4164 -0.0262  0.2076
30700W        W37300  19.565   1.167  24.074  0.2550  0.1774 -0.2427
30701W        W37301  17.384   2.359  14.940  0.0453 -0.1852  0.0313
30702W        W37302  11.427   6.415  20.483  0.0584  0.1068 -0.0469
30703W        W37303   7.682   3.287  21.549  0.4954 -0.3359  0.1846
30704W        W37304  10.520   4.850   3.239 -0.2157 -0.0328 -0.0860
30705W        W37305  18.612   4.926  38.753  0.3128  0.1363  0.2325
30706W        W37306  17.453   2.327  30.244 -0.1681 -0.0491 -0.1951
30707W        W37307  13.895   1.619   9.021  0.0789 -0.0953 -0.0425
30708W        W37308   8.766   2.783  10.510 -0.1173 -0.2351 -0.1016
30709W        W37309   1.185   3.828  34.261 -0.0600  0.0162 -0.2909
30710W        W37310  15.809   3.803  14.212 -0.1067  0.3136  0.3247
30711W        W37311   4.484   1.734  16.833  0.2232  0.0896  0.3178
30712W        W37312   7.939   3.525  30.213  0.0536  0.0109 -0.1729
30713W        W37313   2.618   4.357   8.011 -0.1784  0.3262  0.3114
30714W        W37314   4.481   4.998   9.671  0.3176 -0.2042 -0.0286
30715W        W37315  19.549   3.227  23.077 -0.0379  0.0444 -0.2311
30716W        W37316  20.664   3.043   3.435  0.0323  0.2438  0.0065
30717W        W37317  16.474   4.031  40.598  0.0998 -0.1180  0.1846
30718W        W37318   8.788   1.699   9.240  0.1802 -0.2270  0.0347
30719W        W37319   3.832   2.057  31.019 -0.1797 -0.0995 -0.0845
30720W        W37320  11.135   4.772  42.242 -0.2124 -0.0625  0.0873
30721W        W37321   5.645   2.150  35.314  0.0285  0.3019 -0.2386
30722W        W37322   1.137   4.334   5.506 -0.1519  0.0129 -0.0583
30723W        W37323   1.777   1.027   3.339  0.2212 -0.1441  0.2422
30724W        W37324  10.546   6.449  44.408 -0.1951 -0.0735 -0.1424
30725W        W37325  12.452   4.618  38.730  0.0392 -0.0549 -0.1826
30726W        W37326  16.179   1.562  17.491  0.2652 -0.1813  0.1150
30727W        W37327   0.820   6.449  12.921 -0.0347 -0.0649  0.1828
30728W        W37328   0.214   5.779  40.244  0.0628  0.1504  0.2190
30729W        W37329  19.189   0.707   8.608  0.1012 -0.2296  0.2708
30730W        W37330   9.084   4.233   3.950 -0.1079  0.3041  0.2094
30731W        W37331  17.844   3.463  15.730 -0.0711  0.3152 -0.0675
30732W        W37332   6.638   2.058  37.677 -0.2569 -0.1007 -0.1216
30733W        W37333   7.549   2.165  19.877 -0.2481  0.0812  0.0804
30734W        W37334   5.399   2.764  31.757 -0.1669 -0.1289 -0.0700
30735W        W37335  18.106   6.120   9.675 -0.3658  0.1590 -0.0380
30736W        W37336  19.881   2.714  34.139  0.0960  0.0657  0.0163
30737W        W37337   3.763   5.196   3.284  0.0851 -0.2801  0.2647
30738W        W37338   5.343   5.905   7.328 -0.0452  0.1017 -0.1853
30739W        W37339  18.289   2.545  27.829  0.0982 -0.0445 -0.3149
30740W        W37340   5.531   2.307  32.935  0.2357  0.1250  0.0096
30741W        W37341   3.594   0.925   9.348  0.2227 -0.1078 -0.3143
30742W        W37342   6.207   1.849  39.001  0.4443  0.0771 -0.0553
30743W        W37343   5.221   6.416  17.989  0.1011 -0.0761 -0.2889
30744W        W37344  18.333   2.875  22.162  0.1024 -0.2001 -0.4299
30745W        W37345  18.502   3.793   7.620  0.1207 -0.4885  0.1178
30746W        W37346  12.928   1.944  34.080 -0.0489  0.0944 -0.2007
30747W        W37347   8.056   0.941  20.381 -0.2834 -0.1595  0.0530
30748W        W37348  17.924   4.999  41.837  0.3239  0.0311 -0.0605
30749W        W37349  18.555   5.628  42.862  0.0825 -0.1875  0.2485
30750W        W37350   2.482   5.468   0.515 -0.1725  0.2396 -0.1844
30751W        W37351  17.066   0.862  16.303 -0.1334  0.0627 -0.1281
30752W        W37352   9.865   5.669   6.973 -0.0010 -0.0118  0.0934
30753W        W37353  18.302   1.832  32.496  0.1362 -0.0597  0.0660
30754W        W37354  16.684   4.281  27.157  0.1282  0.2288 -0.0595
30755W        W37355  14.265   3.756  10.012 -0.0529 -0.0556  0.0548
30756W        W37356  16.041   0.598  11.792 -0.0253  0.0766  0.1959
30757W        W37357  11.494   3.981  30.231 -0.0129 -0.0463  0.1511
30758W        W37358  11.816   5.417  10.011 -0.1075  0.0362 -0.1513
30759W        W37359   7.485   4.710   8.372 -0.0283  0.3442 -0.1973
30760W        W37360  15.983   2.850  15.115  0.0510  0.0145 -0.0180
30761W        W37361   8.231   3.756  43.982 -0.4702  0.1080 -0.0782
30762W        W37362  20.922   3.761   2.658  0.0424 -0.1567  0.2431
30763W        W37363  11.003   4.247  39.899 -0.3358  0.0849 -0.0156
30764W        W37364   7.949   1.501  22.325 -0.1647  0.0661 -0.3355
30765W        W37365  10.501   3.866  22.746 -0.0987 -0.0387 -0.0681
30766W        W37366  20.635   2.344  28.706  0.3460  0.3929  0.1700
30767W        W37367  11.904   5.978  16.187 -0.1104  0.3727  0.1768
30768W        W37368  18.437   4.039  24.974  0.2647  0.0375 -0.2136
30769W        W37369  17.850   5.587  36.939  0.0746 -0.0239 -0.0598
30770W        W37370   2.032   2.015  14.538  0.2151 -0.0235  0.2395
30771W        W37371  16.781   1.134  38.228  0.0289 -0.4223 -0.1219
30772W        W37372  11.269   3.862   0.575  0.1274  0.4978  0.0267
30773W        W37373   2.147   0.047  33.966  0.0793  0.2278 -0.0847
30774W        W37374  16.982   2.919  36.268 -0.2124 -0.0585 -0.0191
30775W        W37375   8.631   1.825  36.128  0.2341  0.0064  0.1147
30776W        W37376  16.102   0.338  27.902  0.2979 -0.1269 -0.0128
30777W        W37377   5.441   3.608  39.973 -0.0170 -0.1752 -0.0293
30778W        W37378  19.982   1.147  38.495 -0.0614 -0.0184 -0.2676
30779W        W37379   0.070   0.743  42.955 -0.0779  0.0504 -0.0072
30780W        W37380   5.214   1.476  10.773  0.1236  0.3662  0.0292
30781W        W37381  10.972   3.887  18.164  0.1294 -0.0627  0.0398
30782W        W37382   7.077   1.363   3.116 -0.1957 -0.1321 -0.3878
30783W        W37383  10.218   0.824  20.044 -0.0838  0.5290 -0.0062
30784W        W37384   5.909   5.206  17.538  0.0153 -0.0986  0.0248
30785W        W37385  10.690   0.887   6.958  0.2275 -0.0451  0.1459
30786W        W37386   0.792   3.813  45.021  0.3035  0.4264 -0.2480
30787W        W37387  19.595   0.701  10.434 -0.0358 -0.1099  0.0238
30788W        W37388  16.802   6.543  14.890  0.0901  0.0559 -0.2313
30789W        W37389   2.454   5.405  38.195 -0.1277  0.1589  0.0248
30790W        W37390  18.219   4.004  27.846  0.0932  0.0747  0.1624
30791W        W37391   8.455   0.351  38.414  0.0640  0.0218  0.1528
30792W        W37392   3.546   0.290  40.140 -0.2448  0.2558 -0.0322
30793W        W37393   3.173   4.545  16.830  0.2659  0.1567 -0.1438
30794W        W37394  19.652   4.886  22.384 -0.4191  0.1783 -0.2782
30795W        W37395   1.736   1.833  42.125 -0.0875  0.4434 -0.3272
30796W        W37396   9.631   0.699  10.516  0.0235 -0.1638 -0.1771
30797W        W37397   2.406   3.683   1.418  0.1239 -0.2368  0.0523
30798W        W37398  17.981   1.672  44.936 -0.0627 -0.0023 -0.0348
30799W        W37399   6.008   5.258  16.500  0.3459 -0.4182  0.0378
30800W        W37400  17.570   1.148  26.771 -0.0065  0.1669 -0.0019
30801W        W37401  10.738   0.771  37.917 -0.1847 -0.2947 -0.1082
30802W        W37402  15.672   4.624  13.559  0.0718  0.0543  0.0242
30803W        W37403   0.138   3.786  43.015  0.0958 -0.2864 -0.0162
30804W        W37404  20.628   3.311   7.311 -0.0983 -0.2434 -0.1166
30805W        W37405  17.620   3.175   3.752 -0.0137 -0.2197  0.0521
30806W        W37406   9.165   5.867  11.277  0.1462  0.0681 -0.0173
30807W        W37407   5.928   5.566  40.302 -0.1568 -0.1233 -0.0422
30808W        W37408   1.762   2.824  33.754  0.1720 -0.1581 -0.2173
30809W        W37409  16.708   2.907   3.200  0.2474  0.0744 -0.1311
30810W        W37410  11.617   0.341  38.567  0.2815  0.0195 -0.0909
30811W        W37411   1.482   5.089  13.753 -0.0677  0.0298  0.2834
30812W        W37412   0.417   2.731  12.242 -0.2291 -0.2530 -0.3444
30813W        W37413  19.211   3.638   2.871  0.2093  0.1572 -0.1080
30814W        W37414   9.266   6.117  38.925 -0.2500  0.2546 -0.0079
30815W        W37415  19.437   5.443  42.706 -0.1052 -0.1830 -0.0030
30816W        W37416   3.685   3.880  17.136 -0.4199 -0.2349 -0.0253
30817W        W37417  19.790   2.559  39.968  0.0188  0.0582  0.0153
30818W        W37418  19.814   4.902   4.029 -0.0181 -0.2521 -0.0603
30819W        W37419  10.497   2.484   8.587  0.1280  0.3131 -0.1574
30820W        W37420   8.037   3.789  10.619  0.2599 -0.0368 -0.0251
30821W        W37421   4.340   1.740  11.996  0.1105  0.0245  0.0429
30822W        W37422   3.195   6.137  39.179  0.1580  0.0898  0.0353
30823W        W37423  12.838   3.122   1.979  0.0456  0.1196  0.1401
30824W        W37424  18.067   6.272  31.110 -0.2054  0.3302 -0.2753
30825W        W37425   6.741   0.173  15.803 -0.0634  0.1524  0.2993
30826W        W37426  11.098   1.998  19.447 -0.1141  0.3201  0.2401
30827W        W37427   3.775   5.553   0.969  0.0324 -0.0663  0.0618
30828W        W37428  20.143   4.406  34.152 -0.0142 -0.0256 -0.2210
30829W        W37429  10.475   3.245  10.852 -0.0290  0.2597  0.0849
30830W        W37430   9.828   2.116   0.572  0.0258  0.2124 -0.7203
30831W        W37431   9.072   3.320  44.281 -0.0553  0.0168 -0.1323
30832W        W37432   3.430   1.802  40.989 -0.1126  0.2418  0.2197
30833W        W37433   3.078   3.162  11.095 -0.2360 -0.3200 -0.1299
30834W        W37434   2.340   2.074  13.182 -0.0010 -0.0706  0.0233
30835W        W37435   1.122   5.494  27.957 -0.0407  0.1231 -0.0020
30836W        W37436   1.702   6.267  16.532  0.1578 -0.2701 -0.2209
30837W        W37437   6.060   0.159   3.706  0.2144  0.0375 -0.2540
30838W        W37438  13.444   2.967  14.171 -0.3180  0.0417 -0.1753
30839W        W37439   5.873   1.516  29.469  0.1770 -0.1806  0.0497
30840W        W37440   3.877   1.555  30.776 -0.0476 -0.1154  0.0961
30841W        W37441  16.324   2.190   7.834  0.1677 -0.0086 -0.1458
30842W        W37442  14.626   2.273  30.824  0.0254  0.3453  0.2020
30843W        W37443   1.688   6.387  41.111  0.1121  0.1583 -0.3457
30844W        W37444   6.450   0.910   2.414  0.1529  0.2639 -0.0136
30845W        W37445  18.884   4.346   0.575  0.0648 -0.0991  0.2545
30846W        W37446   8.218   2.489  15.442 -0.1275  0.1344  0.2803
30847W        W37447   6.910   5.788  32.688 -0.1235  0.2442  0.0641
30848W        W37448   5.248   1.607  37.547 -0.0635  0.0096  0.0903
30849W        W37449   2.573   6.501   2.973 -0.0095  0.1524 -0.2652
30850W        W37450  10.568   2.847   9.105  0.0686  0.3392 -0.2203
30851W        W37451   7.982   3.335  16.033 -0.0278  0.1643  0.1930
30852W        W37452  10.170   2.413   0.478 -0.1562 -0.3170  0.0727
30853W        W37453   8.006   1.765   6.002  0.1107 -0.2321 -0.0952
30854W        W37454   7.608   5.088  13.127  0.4187  0.3615 -0.1567
30855W        W37455  18.843   3.924  41.218 -0.0052 -0.0270  0.1210
30856W        W37456  11.266   4.537  28.743 -0.1624 -0.3824 -0.0309
30857W        W37457  17.593   5.367  32.379  0.1100 -0.1504  0.2606
30858W        W37458   4.667   3.609  12.398 -0.0204  0.2643 -0.1163
30859W        W37459  18.100   2.590   9.753  0.2865  0.1410 -0.3145
30860W        W37460   8.317   5.279  42.433  0.1769  0.0521 -0.0120
30861W        W37461  20.573   2.456  44.649 -0.1561 -0.0172  0.0410
30862W        W37462  21.021   3.898  39.482  0.0572 -0.1537 -0.1663
30863W        W37463  15.416   5.119  28.533  0.0043 -0.0535 -0.2164
30864W        W37464  12.758   3.077  34.312 -0.1445 -0.3755  0.2484
30865W        W37465   0.489   2.397  26.510  0.0020 -0.0153  0.0628
30866W        W37466   9.414   4.641  26.313  0.1066 -0.2112 -0.1025
30867W        W37467  19.478   1.611  37.772  0.2228  0.1137 -0.1543
30868W        W37468  13.758   2.819  31.281  0.1208 -0.0202  0.1044
30869W        W37469   3.771   2.414   6.458  0.1132  0.4084 -0.1438
30870W        W37470   5.972   3.524  41.243  0.1679 -0.0226 -0.1425
30871W        W37471   5.094   2.670  30.480 -0.1943  0.1922  0.0763
30872W        W37472  17.015   3.178  34.246  0.1645  0.0199 -0.0624
30873W        W37473   5.295   3.508   8.782 -0.1780 -0.0600  0.2507
30874W        W37474  11.359   2.137  16.258  0.0662 -0.0458  0.0440
30875W        W37475  10.508   4.511  21.673  0.0960 -0.0303 -0.2288
30876W        W37476   9.002   6.395  38.026 -0.0969 -0.0218 -0.2974
30877W        W37477  14.012   4.853  10.462 -0.0915  0.0354 -0.1538
30878W        W37478   8.974   1.691   2.891  0.0897  0.0039  0.3085
30879W        W37479  18.488   0.204   5.648  0.1405  0.0890 -0.1711
30880W        W37480  11.113   1.970  17.265  0.2708 -0.0963  0.2182
30881W        W37481   7.478   0.022   6.971 -0.0879 -0.0310  0.1907
30882W        W37482  10.863   5.394  14.382 -0.0386 -0.0199  0.5637
30883W        W37483   0.140   2.290   3.305 -0.0528 -0.3066  0.1907
30884W        W37484   8.114   3.741  42.637  0.2461 -0.1806 -0.1430
30885W        W37485   7.387   3.179   8.502 -0.1772 -0.1225  0.2897
30886W        W37486  15.042   3.273   7.039 -0.0474 -0.1619  0.0449
30887W        W37487  18.896   1.454  35.913  0.3037  0.1286 -0.0960
30888W        W37488   9.145   3.809  40.821  0.0993 -0.1744 -0.0514
30889W        W37489   2.931   5.368  35.917 -0.1666  0.0645 -0.1195
30890W        W37490   2.979   2.926  15.127  0.1949 -0.1221 -0.1707
30891W        W37491  15.815   2.657   9.811 -0.0979 -0.2375 -0.2753
30892W        W37492  11.064   3.622  31.833 -0.3555  0.2793 -0.1888
30893W        W37493  12.668   5.264  21.085 -0.1520 -0.0872  0.0020
30894W        W37494  13.590   2.502  41.170  0.0283  0.0058 -0.0243
30895W        W37495   9.494   2.213  11.030  0.1768  0.0279  0.2103
30896W        W37496  11.586   2.247  34.013  0.0276  0.1414 -0.0482
30897W        W37497  11.325   4.201   3.268  0.1457  0.1057  0.1040
30898W        W37498  12.113   1.449  10.236 -0.1876 -0.0737 -0.2370
30899W        W37499  10.039   0.519  18.148 -0.2844  0.3011 -0.2110
30900W        W37500  17.163   0.795  43.897 -0.2855 -0.0574 -0.2547
30901W        W37501   2.573   3.553  13.814 -0.0820  0.1481 -0.1176
30902W        W37502  14.661   5.247  44.829  0.3177  0.2619 -0.0572
30903W        W37503   2.549   4.164  32.291 -0.0486 -0.3396 -0.1110
30904W        W37504   4.117   6.463  29.181 -0.1769  0.2190  0.2963
30905W        W37505   9.143   5.950  11.979 -0.1024 -0.1773 -0.2927
30906W        W37506   1.971   0.679  28.558 -0.5028  0.1199 -0.1089
30907W        W37507  20.828   2.952  32.886 -0.0638  0.1343  0.4724
30908W        W37508   3.026   6.238   0.787  0.1649 -0.0410  0.0738
30909W        W37509   8.951   0.420  29.503 -0.2528  0.1029  0.0443
30910W        W37510  18.701   5.549  25.097  0.0147  0.0683  0.0590
30911W        W37511  11.151   0.125   5.474  0.0533 -0.0813  0.2367
30912W        W37512   2.217   1.889   0.067 -0.2049  0.0262  0.1446
30913W        W37513  19.833   3.663  20.173 -0.1918 -0.2763 -0.0735
30914W        W37514  18.690   3.761   0.905  0.0229  0.2984 -0.3612
30915W        W37515  15.119   0.226  34.405  0.3776  0.4103  0.2817
30916W        W37516   4.771   4.774  36.105 -0.1244 -0.0250 -0.1089
30917W        W37517  10.104   3.020   9.804 -0.1754  0.0503 -0.0304
30918W        W37518  15.447   3.467   3.831 -0.1720  0.0667 -0.1859
30919W        W37519  17.060   1.966  34.474  0.0048  0.2147 -0.1197
30920W        W37520  17.596   3.041  15.590  0.1469  0.0547  0.0649
30921W        W37521   7.447   6.035  16.483  0.0827  0.3338  0.2566
30922W        W37522  20.641   1.212  13.951  0.0582  0.3592 -0.0650
30923W        W37523  20.318   6.279  34.193 -0.1729  0.2491 -0.3745
30924W        W37524   3.078   4.552   2.460 -0.3723  0.0377  0.0065
30925W        W37525  10.896   1.384   5.775  0.1600  0.2654 -0.0731
30926W        W37526  13.081   0.385  12.281  0.1059  0.0403 -0.2293
30927W        W37527  19.469   2.899  41.714  0.1530 -0.1259 -0.0837
30928W        W37528  19.567   4.624  19.818 -0.1014 -0.2962 -0.0803
30929W        W37529   9.077   0.413  44.974 -0.3014 -0.0780  0.3802
30930W        W37530  10.745   0.453  33.620 -0.0572  0.1401 -0.2341
30931W        W37531   5.932   2.768   2.816  0.2753  0.0750 -0.0667
30932W        W37532  15.243   3.787  26.289  0.0758  0.0322  0.0729
30933W        W37533  19.863   4.242  34.953  0.1888  0.1685 -0.0785
30934W        W37534  18.476   1.169  26.884 -0.0917 -0.0917 -0.0797
30935W        W37535   1.229   4.375  34.177 -0.1880 -0.1258 -0.0907
30936W        W37536   0.966   1.520  43.366 -0.0236  0.3571  0.1554
30937W        W37537   8.178   3.034  12.231  0.2922  0.1185  0.1519
30938W        W37538  17.499   6.580   2.548 -0.2192  0.3170 -0.2074
30939W        W37539  20.590   2.250  13.488 -0.2712  0.0140 -0.6460
30940W        W37540   6.861   1.526   0.440  0.3691 -0.4316  0.2302
30941W        W37541   2.379   0.123   9.688 -0.0144  0.2951  0.3627
30942W        W37542  20.504   3.660   1.056 -0.1566  0.0225  0.4097
30943W        W37543  18.397   2.676  30.985 -0.1772  0.0516  0.0614
30944W        W37544   0.373   0.696  36.034 -0.0314 -0.0817  0.0363
30945W        W37545  19.754   1.734  24.033 -0.0659  0.2067 -0.0540
30946W        W37546   8.145   1.725  34.783 -0.0223  0.3032 -0.0392
30947W        W37547  18.845   3.110   0.500  0.2411  0.1555 -0.1519
30948W        W37548  17.886   2.508   8.553 -0.0187 -0.2157 -0.4410
30949W        W37549  15.319   0.515  10.674  0.1563 -0.3095 -0.1856
30950W        W37550  15.397   6.404  44.942  0.0078  0.1011 -0.0658
30951W        W37551   2.371   6.167  14.940  0.0370  0.0727 -0.0846
30952W        W37552  17.403   4.529  14.005 -0.1838 -0.1565  0.1528
30953W        W37553   9.119   1.371   9.358  0.2279  0.2130 -0.1196
30954W        W37554   8.934   0.323  21.634 -0.1110  0.1310  0.0609
30955W        W37555   4.247   6.582  35.780  0.0814  0.1477 -0.1593
30956W        W37556   1.020   6.106  44.043 -0.0941 -0.0473 -0.1500
30957W        W37557  11.561   0.673  20.674  0.3119  0.1720 -0.1684
30958W        W37558   0.387   2.078  26.937  0.0258 -0.2762 -0.1085
30959W        W37559  15.342   2.860  16.044  0.0034  0.0403 -0.1284
30960W        W37560   0.672   1.437  35.071  0.2307 -0.1046  0.0662
30961W        W37561   2.853   5.671  40.263 -0.1439 -0.0993  0.2127
30962W        W37562  18.908   4.113  14.986  0.0972 -0.1387 -0.0782
30963W        W37563  15.508   5.135  36.833  0.2927  0.0685 -0.1222
30964W        W37564   3.857   5.127  29.705  0.0874 -0.0582 -0.2331
30965W        W37565  17.090   6.470  44.081 -0.0627 -0.2243  0.2427
30966W        W37566   7.198   0.683  36.663 -0.0248  0.1104 -0.3085
30967W        W37567  18.106   2.104  44.622  0.1929 -0.0081  0.0409
30968W        W37568   7.093   5.634  42.879  0.4292 -0.0071 -0.2429
30969W        W37569   4.320   2.488  15.197  0.1344  0.2421 -0.2093
30970W        W37570  18.453   6.390  30.303  0.1263  0.2445  0.0108
30971W        W37571  13.105   4.324  28.911  0.1613 -0.3609  0.0434
30972W        W37572  13.209   1.787  33.705 -0.0906  0.3091  0.0307
30973W        W37573  18.648   0.495   3.265  0.1299 -0.1709 -0.0402
30974W        W37574  13.390   3.007  16.447 -0.0700 -0.1128 -0.2550
30975W        W37575   4.747   3.058  18.532  0.1556 -0.1954  0.0978
30976W        W37576  16.370   1.023  40.631  0.0434 -0.0208  0.0638
30977W        W37577   5.394   4.557   8.375 -0.0552  0.1467 -0.0479
30978W        W37578  20.470   1.459   6.870  0.1356  0.1730  0.2744
30979W        W37579  17.847   4.143   5.787 -0.0109  0.1061  0.0700
30980W        W37580  20.759   2.193  29.554  0.1636  0.0773 -0.1895
30981W        W37581   3.056   2.425  16.837  0.0490 -0.1098  0.1619
30982W        W37582   5.486   3.243  36.657  0.0166 -0.1751  0.2091
30983W        W37583   8.984   4.071   5.544  0.0875  0.2338  0.0111
30984W        W37584  20.419   4.975   9.398 -0.2336 -0.1078 -0.2321
30985W        W37585   1.391   4.392  31.765 -0.1887 -0.0380  0.0168
30986W        W37586   5.400   2.277  34.903  0.3102 -0.2378 -0.3587
30987W        W37587  19.803   5.966  22.925  0.0942 -0.0793 -0.0350
30988W        W37588  12.348   0.969  40.509  0.1347  0.2289  0.1065
30989W        W37589  19.538   4.449  36.468 -0.0373  0.0138  0.3969
30990W        W37590   9.185   5.601  33.855 -0.2689  0.0539  0.0572
30991W        W37591  11.195   6.004  32.959  0.1348  0.2231  0.3867
30992W        W37592   8.334   4.591   3.919  0.0479  0.0956 -0.2637
30993W        W37593  16.598   2.660  34.063  0.2370  0.0642 -0.2973
30994W        W37594   2.017   6.380  30.737  0.1439  0.1395  0.0854
30995W        W37595   9.938   2.577  30.558  0.0480 -0.3585 -0.0788
30996W        W37596  10.043   0.949  15.715  0.0702  0.1284  0.1479
30997W        W37597  10.393   2.098  10.931 -0.1680  0.1288 -0.1561
30998W        W37598   3.011   3.779  18.223 -0.1367 -0.0444  0.0814
30999W        W37599   9.523   4.887   2.695 -0.1426  0.1706  0.2567
31000W        W37600   4.566   4.126   2.976 -0.2694  0.1644 -0.1208
31001W        W37601  20.360   5.451   9.251  0.1220 -0.1784  0.2518
31002W        W37602   5.248   5.000   9.399  0.1839 -0.1271  0.1447
31003W        W37603  17.159   2.494   1.953  0.0219 -0.0068  0.1595
31004W        W37604   3.469   5.714   0.301 -0.2432 -0.0004 -0.1622
31005W        W37605   8.287   2.386  42.846  0.1886  0.2256  0.3655
31006W        W37606  15.850   3.709  31.081  0.1955  0.0355 -0.1595
31007W        W37607  10.663   2.783   0.266  0.0530 -0.3031 -0.3123
31008W        W37608   8.182   3.944  35.892 -0.1792  0.0114 -0.2360
31009W        W37609  19.155   1.549  36.523 -0.1285  0.0353 -0.1825
31010W        W37610   0.991   2.031  37.622  0.0346  0.1918  0.3748
31011W        W37611   6.708   4.809  44.099  0.1022 -0.2030  0.0203
31012W        W37612   8.582   3.470  36.474 -0.1973 -0.2298  0.0078
31013W        W37613   7.024   4.143  21.099  0.0597 -0.1619 -0.2293
31014W        W37614  12.428   3.715  36.161 -0.2804 -0.2453 -0.0901
31015W        W37615  19.511   0.327  39.946 -0.1485  0.0440 -0.1457
31016W        W37616   8.645   0.868  39.576  0.2053 -0.0971 -0.1642
31017W        W37617   4.897   6.416  35.101 -0.0373 -0.0059  0.2246
31018W        W37618  17.737   5.330  30.975  0.0840 -0.1971  0.1300
31019W        W37619   1.801   4.610   3.207 -0.3362 -0.0291 -0.0541
31020W        W37620   7.235   3.373  13.759  0.1135  0.1861  0.0156
31021W        W37621   8.259   4.330  43.696  0.0048  0.2487  0.0060
31022W        W37622   7.650   6.190  32.615 -0.1990 -0.3137  0.1818
31023W        W37623  20.326   1.255   2.825 -0.0009  0.2428  0.0551
31024W        W37624  14.073   5.634  10.679  0.2358 -0.1958 -0.0861
31025W        W37625  16.043   6.162   2.336 -0.1344  0.3619 -0.4438
31026W        W37626   4.560   0.204  27.909  0.0806 -0.1106  0.0256
31027W        W37627  16.213   3.261  37.200  0.1043 -0.0651 -0.0259
31028W        W37628  17.202   0.276   4.404  0.2365 -0.1550 -0.2330
31029W        W37629  15.283   5.088  29.569  0.3489  0.0512 -0.1752
31030W        W37630   9.554   6.575  39.649 -0.3683 -0.0603 -0.0171
31031W        W37631   2.792   3.148  31.742 -0.0419  0.0125 -0.6019
31032W        W37632   0.992   1.497  39.711  0.2898 -0.1083 -0.0458
31033W        W37633  19.179   1.428   3.447  0.1569  0.0840 -0.1073
31034W        W37634   2.837   0.791   4.576  0.3942  0.1062  0.3922
31035W        W37635   7.301   4.307  14.664 -0.2856  0.3234 -0.0654
31036W        W37636   7.963   5.284  42.021  0.0376 -0.1129 -0.2129
31037W        W37637   0.524   6.432   2.102  0.1327 -0.0584  0.2813
31038W        W37638   4.324   3.826  35.859  0.1170 -0.0561 -0.2021
31039W        W37639   2.034   2.181  28.446 -0.0456 -0.0899  0.2347
31040W        W37640   0.577   2.345  22.346  0.0173  0.0143  0.2675
31041W        W37641  19.183   0.864  16.023 -0.0146  0.0844  0.2313
31042W        W37642   4.206   4.062  13.439  0.0376 -0.1772  0.1648
31043W        W37643   3.470   0.151   0.962  0.1150  0.1068  0.0250
31044W        W37644   3.703   4.377  36.218 -0.3051  0.0604  0.2776
31045W        W37645  10.132   6.117  35.699 -0.3018 -0.1226  0.2797
31046W        W37646  20.501   5.422   2.024  0.2564 -0.1315 -0.1197
31047W        W37647  17.650   4.743  26.131  0.2210  0.2227 -0.1761
31048W        W37648   0.874   6.053  10.550 -0.0409  0.1626 -0.1598
31049W        W37649  16.952   2.447  36.064  0.3141  0.2998  0.1396
31050W        W37650  12.776   2.129  30.996  0.1437  0.0740  0.1087
31051W        W37651  17.283   3.588  27.624 -0.0560  0.0690 -0.1177
31052W        W37652  17.094   3.458  24.125 -0.2920 -0.2780  0.0241
31053W        W37653  10.355   6.049  33.119  0.2306  0.0541  0.0798
31054W        W37654   0.499   1.542  45.024 -0.0204 -0.0764  0.0282
31055W        W37655   5.528   6.529   5.492  0.3355  0.4410 -0.0086
31056W        W37656   9.491   4.491  39.693  0.1699 -0.0803 -0.0469
31057W        W37657  15.571   3.481   0.760  0.1332  0.0975 -0.2214
31058W        W37658   9.002   5.568   1.217 -0.0957  0.3406 -0.0817
31059W        W37659  10.535   5.555  19.582 -0.2360 -0.1195 -0.0491
31060W        W37660   0.378   4.691  41.739  0.1865  0.2835  0.2017
31061W        W37661  10.123   6.212  15.705 -0.0983  0.2475  0.0444
31062W        W37662  10.684   6.341  38.713  0.2169 -0.0194 -0.1588
31063W        W37663   5.438   0.448   5.360  0.0431 -0.2906  0.3099
31064W        W37664   8.145   2.386   6.936  0.1210 -0.0402  0.2285
31065W        W37665   5.461   4.609  10.268 -0.0516  0.2987  0.1074
31066W        W37666  12.989   2.307   8.509  0.1563 -0.0129  0.0366
31067W        W37667   9.493   4.860   0.192  0.1649  0.3842  0.0366
31068W        W37668  10.260   0.841   9.956  0.0389  0.2014 -0.2926
31069W        W37669  20.280   5.732   6.263  0.0141 -0.0776  0.1734
31070W        W37670  11.854   1.846   8.729 -0.1699  0.1500 -0.0051
31071W        W37671  11.493   3.089  35.475  0.1843  0.2776  0.0590
31072W        W37672   4.441   4.020  12.215 -0.2216  0.4663  0.3143
31073W        W37673   0.782   0.118  36.744  0.0873 -0.2361 -0.1978
31074W        W37674   9.842   1.008  40.237 -0.0305 -0.2643  0.0792
31075W        W37675   8.488   1.808   2.895  0.1835  0.0286 -0.2891
31076W        W37676   3.014   0.401   5.093  0.3239  0.0963  0.0316
31077W        W37677  12.327   3.360  15.450  0.2277  0.0361 -0.1557
31078W        W37678   8.354   3.808  40.647 -0.0895  0.0734 -0.1684
31079W        W37679   1.317   5.016  29.773 -0.0580  0.0405 -0.2175
31080W        W37680   9.861   1.479  31.920  0.2221 -0.0140 -0.0363
31081W        W37681   7.939   4.787   1.625 -0.1823  0.0519 -0.1093
31082W        W37682  13.751   5.598  16.508 -0.2424  0.2913 -0.0655
31083W        W37683  19.254   0.348  23.244  0.0435  0.4489 -0.2368
31084W        W37684   3.632   1.220  15.572 -0.1654  0.2073 -0.1656
31085W        W37685   7.945   5.111   0.510  0.2966  0.0608 -0.0930
31086W        W37686  15.569   5.728  36.729  0.0447  0.1176  0.1057
31087W        W37687  15.731   4.096  38.571  0.2893 -0.0992 -0.3246
31088W        W37688  11.303   1.349  22.804 -0.1429  0.0061  0.2746
31089W        W37689   5.363   0.397  36.634 -0.0510 -0.1886 -0.0302
31090W        W37690   6.366   2.385   1.764  0.0572 -0.1147 -0.0513
31091W        W37691   3.202   3.804  39.261 -0.0094  0.1837  0.1017
31092W        W37692   6.686   4.809  14.984  0.1153  0.0505  0.1829
31093W        W37693  19.208   6.218  41.018  0.0613  0.2110 -0.0758
31094W        W37694  18.566   3.779   8.313 -0.1290 -0.1820  0.0192
31095W        W37695  14.287   4.637  16.428  0.0966 -0.1081  0.2842
31096W        W37696   3.576   6.061  33.330  0.0158 -0.1983  0.0998
31097W        W37697   2.548   6.178  43.593 -0.2825  0.1358 -0.0130
31098W        W37698  16.640   6.318  36.086  0.1393 -0.3711  0.0270
31099W        W37699   7.415   2.807   4.010 -0.0529  0.1494 -0.0372
31100W        W37700  19.682   2.814  44.645  0.0306  0.2265  0.0887
31101W        W37701  10.741   6.312   9.570 -0.0268 -0.0542  0.4178
31102W        W37702  18.546   1.313  14.409 -0.3224 -0.1549 -0.0212
31103W        W37703  14.209   1.881  15.903 -0.0566  0.0646 -0.0932
31104W        W37704   7.460   5.769  40.666 -0.2728 -0.0728  0.1799
31105W        W37705  11.658   2.660  33.026 -0.0046  0.2748  0.0314
31106W        W37706  19.325   3.802  31.107  0.0913  0.4179  0.0850
31107W        W37707   6.544   2.782  13.505 -0.1268  0.0434 -0.0176
31108W        W37708   5.267   1.131  43.293 -0.1478  0.0748  0.3034
31109W        W37709   8.289   5.877   5.194  0.1708 -0.0191  0.0268
31110W        W37710  14.251   2.646   6.032 -0.0494 -0.2446 -0.0024
31111W        W37711   7.068   5.048  33.277  0.1120  0.0866 -0.0273
31112W        W37712  18.142   1.422   1.889 -0.1938  0.0209 -0.2307
31113W        W37713   6.145   4.223  42.918  0.1845 -0.0652 -0.1546
31114W        W37714  18.944   1.933  33.546 -0.1087 -0.0436  0.0605
31115W        W37715  19.907   4.661   2.479 -0.0456 -0.0189  0.2575
31116W        W37716  18.880   0.841  40.701 -0.0845  0.2843 -0.0742
31117W        W37717  16.912   1.503  15.762  0.0767 -0.0442  0.1370
31118W        W37718   0.384   3.237  22.387 -0.3940  0.0274 -0.0784
31119W        W37719   0.849   3.040   4.238 -0.1445  0.0605  0.0389
31120W        W37720  10.078   3.464  24.039  0.0352  0.0998  0.2194
31121W        W37721  11.682   2.375  35.950  0.3217 -0.0186  0.0586
31122W        W37722   3.215   5.501   1.980  0.1235 -0.5741  0.0279
31123W        W37723  15.501   5.789   0.928  0.0888 -0.2124 -0.1074
31124W        W37724   1.073   0.070  27.861 -0.2984  0.2070 -0.1704
31125W        W37725   0.189   6.376  42.027 -0.0506  0.2417 -0.0517
31126W        W37726  16.215   1.058  13.897  0.2494 -0.0020  0.1105
31127W        W37727  10.431   0.203  38.632 -0.2185  0.0934 -0.1510
31128W        W37728   1.656   4.470  26.517 -0.1093 -0.4462 -0.1744
31129W        W37729   1.356   5.644   9.275  0.0883 -0.1670  0.2386
31130W        W37730  20.634   1.533  34.840 -0.0275  0.0503  0.2086
31131W        W37731  18.293   6.084   4.359  0.0748  0.2280 -0.1706
31132W        W37732   4.773   6.122  38.019 -0.3506  0.0520 -0.0815
31133W        W37733   1.714   4.641  12.748 -0.0441 -0.2051 -0.0920
31134W        W37734   3.689   3.132   0.054 -0.1742  0.0219 -0.0519
31135W        W37735  11.493   5.439  32.101  0.0618 -0.0157 -0.0459
31136W        W37736   3.892   2.663  33.625 -0.1001 -0.2664 -0.1097
31137W        W37737   1.051   2.308  30.816  0.1248  0.1358 -0.1004
31138W        W37738   2.020   6.504  26.333  0.1436  0.0349  0.2454
31139W        W37739   8.782   5.669   0.285  0.0447 -0.2518  0.0069
31140W        W37740   9.888   5.563  42.340 -0.3178  0.0925  0.2734
31141W        W37741   3.139   1.624  12.811  0.0809  0.0497  0.2430
31142W        W37742  14.868   5.323  17.148  0.1397  0.2036  0.1489
31143W        W37743   8.300   4.020   3.186  0.0178 -0.0696  0.1963
31144W        W37744  11.426   4.891   9.767  0.0222 -0.0234 -0.2544
31145W        W37745   9.449   6.020   5.904 -0.0416 -0.1099 -0.0237
31146W        W37746   8.724   5.308   4.969 -0.0272 -0.0424 -0.2111
31147W        W37747  14.467   4.951  44.111 -0.0006  0.0719 -0.0475
31148W        W37748  18.795   6.055  28.263 -0.0949  0.1666  0.0181
31149W        W37749   4.534   1.013  35.108  0.1608  0.0864 -0.2076
31150W        W37750   1.662   3.438  42.360 -0.3511  0.0565 -0.3827
31151W        W37751  17.245   4.918   6.540 -0.0732  0.3400  0.0526
31152W        W37752  17.301   5.132  11.632  0.1712  0.1080  0.1056
31153W        W37753  14.993   2.126  34.604 -0.0153 -0.0620  0.1371
31154W        W37754  13.869   1.124  16.250  0.1613  0.0025 -0.1833
31155W        W37755   6.751   1.065  21.748 -0.0737 -0.2971 -0.0545
31156W        W37756  13.546   5.239   1.008 -0.2691  0.3003 -0.1206
31157W        W37757   1.491   2.294  36.359  0.2839  0.0873 -0.0143
31158W        W37758  21.029   2.685  11.505 -0.2132  0.0636  0.0524
31159W        W37759  13.052   2.605  39.317 -0.1006  0.2583  0.0186
31160W        W37760   3.024   0.948  40.065 -0.0167  0.1902  0.0091
31161W        W37761  19.637   0.791  38.272  0.0123  0.0132  0.0086
31162W        W37762  14.577   2.426   5.771 -0.3682  0.1526 -0.0790
31163W        W37763   5.077   1.930   5.711  0.0256  0.0012  0.1416
31164W        W37764   7.502   4.958   2.692  0.1082 -0.1267  0.0799
31165W        W37765   0.288   5.590  38.957  0.4991 -0.0316  0.0848
31166W        W37766   7.459   3.568  39.301 -0.0291  0.0678  0.0150
31167W        W37767   4.148   2.824  16.741  0.0176 -0.0446  0.0327
31168W        W37768  11.279   2.197  21.626  0.2396  0.1469  0.0850
31169W        W37769   7.984   6.378   6.996 -0.1352 -0.3786 -0.0175
31170W        W37770  20.540   0.901  40.820  0.0302  0.0423  0.2117
31171W        W37771  15.437   0.184  18.026 -0.0976  0.1758  0.3538
31172W        W37772  18.404   4.690   0.221  0.2026  0.1614  0.2107
31173W        W37773   9.498   5.503  15.767 -0.1140 -0.3691  0.2378
31174W        W37774  12.125   5.419  10.871 -0.1683 -0.0461 -0.1625
31175W        W37775  20.730   3.721  13.875  0.2205  0.0397 -0.1025
31176W        W37776  10.888   2.170  18.105 -0.0638  0.1569  0.0437
31177W        W37777   8.423   5.127  18.416 -0.0642 -0.1370  0.0062
31178W        W37778   1.603   4.721  34.323 -0.1342  0.0159  0.1406
31179W        W37779  21.001   4.754  42.811  0.0657  0.0835  0.2086
31180W        W37780   3.733   2.861  15.366 -0.1432 -0.3808  0.2271
31181W        W37781   7.892   2.759  37.881  0.0795  0.0176 -0.2517
31182W        W37782   1.040   4.642  11.579 -0.1866  0.0266  0.0570
31183W        W37783  19.257   6.462  28.917  0.0620 -0.2355 -0.2773
31184W        W37784   9.691   4.748   6.613 -0.0311 -0.3027  0.0077
31185W        W37785   9.389   2.794  43.973 -0.0380  0.0173 -0.2441
31186W        W37786  14.040   1.725  37.141  0.1193 -0.0507 -0.0110
31187W        W37787   0.753   1.622   0.375  0.1130  0.0555  0.0006
31188W        W37788   0.723   2.630  34.870  0.0542  0.3547  0.2445
31189W        W37789  10.435   4.016   6.985  0.1310 -0.0150  0.1842
31190W        W37790  20.518   4.497   8.948  0.1338  0.0625 -0.1804
31191W        W37791   0.585   5.307  27.697  0.1407 -0.1023 -0.1541
31192W        W37792  20.562   1.763  14.008  0.1435  0.1793  0.2487
31193W        W37793   5.932   5.493   0.933  0.2387  0.1723 -0.1013
31194W        W37794  16.843   2.300   4.678  0.1057 -0.1934  0.0618
31195W        W37795   6.028   5.447  16.991  0.1275 -0.1329 -0.1017
31196W        W37796   4.386   5.728  14.968 -0.0181  0.1803 -0.0236
31197W        W37797  19.203   1.159  28.201 -0.0244  0.2124 -0.0886
31198W        W37798  17.788   6.023  41.420 -0.1491 -0.0177  0.1425
31199W        W37799  17.351   0.304   3.892 -0.1516  0.0773  0.0512
31200W        W37800   5.294   3.329  43.689  0.0053  0.1164  0.0503
31201W        W37801  10.677   6.450  32.248 -0.1156  0.1790  0.0117
31202W        W37802  12.828   4.955  16.842 -0.1442 -0.1832  0.1070
31203W        W37803  12.804   1.302  41.007 -0.2624  0.2855  0.3704
31204W        W37804  18.772   2.686  32.454 -0.0531  0.0106 -0.1508
31205W        W37805  10.409   5.093   0.703  0.0726 -0.1137 -0.5301
31206W        W37806  11.865   4.791  17.707  0.4403  0.2822  0.2211
31207W        W37807   7.552   3.993   3.659  0.3162  0.1254  0.0052
31208W        W37808  11.238   1.562   2.238 -0.3095 -0.3499  0.3331
31209W        W37809  17.790   4.488  29.019 -0.1571 -0.1138 -0.1132
31210W        W37810  16.809   5.502  13.491 -0.1362  0.4491 -0.0661
31211W        W37811   1.323   4.228  32.424  0.1874  0.0355 -0.2127
31212W        W37812  15.302   4.130  38.851 -0.2025 -0.2176  0.2286
31213W        W37813  17.265   1.461  34.546 -0.0100  0.0710  0.1501
31214W        W37814  20.116   5.544  31.637 -0.1006  0.1689  0.0546
31215W        W37815   3.032   3.109  15.874 -0.1626  0.0711 -0.1184
31216W        W37816   6.116   1.440  34.780 -0.1743 -0.1678 -0.2302
31217W        W37817   3.935   3.668  37.377 -0.2971 -0.5103 -0.1863
31218W        W37818   9.725   5.781  25.164 -0.0312  0.0689 -0.1632
31219W        W37819  20.466   0.903  29.180  0.2972 -0.0711  0.2416
31220W        W37820   4.741   3.088   9.403  0.0876 -0.2910 -0.2327
31221W        W37821  20.481   4.565  25.120  0.1069  0.0210  0.0018
31222W        W37822  15.101   4.452   9.171 -0.0443 -0.1564 -0.1750
31223W        W37823   4.510   1.891  44.295 -0.0931 -0.1362 -0.1876
31224W        W37824  10.583   1.429  21.670 -0.2752  0.1070  0.3379
31225W        W37825   3.087   3.349  38.904 -0.1730 -0.2121 -0.1407
31226W        W37826  19.148   5.327  26.806 -0.1251  0.2508 -0.0225
31227W        W37827   5.814   3.116  33.552 -0.2944  0.3104 -0.0311
31228W        W37828  16.763   2.470  36.837  0.1887  0.0466  0.0260
31229W        W37829  18.503   0.991  24.966 -0.0059 -0.3002  0.0223
31230W        W37830   0.009   0.478  30.966 -0.0339  0.1029 -0.2647
31231W        W37831   8.942   6.294  12.340 -0.0206  0.0448 -0.0485
31232W        W37832   7.424   3.278  21.963 -0.3209 -0.4288  0.0320
31233W        W37833  11.791   0.341   2.761 -0.4044 -0.1375 -0.0197
31234W        W37834   5.732   2.919  34.664 -0.3088 -0.2148 -0.1343
31235W        W37835  19.397   6.518  31.902  0.1710  0.1531  0.2677
31236W        W37836   2.747   1.347  12.514 -0.1144 -0.1301  0.0613
31237W        W37837  15.533   4.886  14.733  0.1495  0.2974 -0.1203
31238W        W37838  16.621   3.096   5.023  0.0342  0.4913  0.0243
31239W        W37839  16.922   2.761  37.256  0.0819  0.0249  0.0393
31240W        W37840   5.141   3.337  42.301 -0.0023 -0.1710 -0.3063
31241W        W37841  10.146   0.153  16.414  0.1815  0.0227  0.0265
31242W        W37842  18.883   4.964   8.618 -0.0157 -0.2811 -0.0852
31243W        W37843  11.597   1.609  20.817 -0.1757  0.0208  0.0097
31244W        W37844   8.865   3.187  44.754 -0.1669  0.2219  0.1395
31245W        W37845  14.500   5.895  30.246  0.0265  0.2616  0.0287
31246W        W37846   3.353   4.766  26.757  0.1290  0.2613 -0.2434
31247W        W37847  20.338   3.763  44.300 -0.1981 -0.1980  0.1443
31248W        W37848   7.647   4.349  44.915 -0.1389  0.1776 -0.2591
31249W        W37849  17.111   6.455   4.922  0.0625 -0.1092 -0.0764
31250W        W37850   3.182   0.406  28.495  0.2423 -0.0788 -0.0354
31251W        W37851  12.661   2.523  32.116  0.2177 -0.2634 -0.0044
31252W        W37852   4.350   3.677  39.068  0.0498 -0.3807 -0.1044
31253W        W37853   0.293   2.570  10.416 -0.0345  0.1923  0.2430
31254W        W37854   0.967   1.067   1.718  0.2593  0.2267  0.0836
31255W        W37855   0.230   2.091  39.929  0.0660  0.5356 -0.0311
31256W        W37856   7.036   5.367  18.253 -0.0028 -0.1838 -0.3034
31257W        W37857  15.497   1.289   7.754  0.2099 -0.0573 -0.0462
31258W        W37858   7.087   4.484  31.320 -0.0952  0.4093  0.1553
31259W        W37859  20.560   0.334  26.458 -0.0449  0.0357 -0.2370
31260W        W37860  10.422   0.114   3.619 -0.0100 -0.1723  0.1033
31261W        W37861   6.401   2.389  42.431 -0.0913  0.1551  0.0311
31262W        W37862   7.823   4.380  10.584 -0.2586  0.0312  0.4368
31263W        W37863   3.589   2.895  39.970  0.1502  0.1151 -0.1313
31264W        W37864  20.661   5.411  44.961  0.0164  0.1811 -0.0721
31265W        W37865  14.702   0.151  13.126 -0.0937  0.2038  0.3309
31266W        W37866   2.485   6.181  41.577 -0.0222 -0.4776 -0.2346
31267W        W37867  11.790   5.353   0.624 -0.3724 -0.1529  0.0059
31268W        W37868   1.049   0.141  25.181 -0.0642 -0.1277  0.2138
31269W        W37869   1.568   3.190  41.115  0.1990 -0.2760  0.0011
31270W        W37870   7.644   3.163   7.152 -0.0585 -0.4362 -0.1276
31271W        W37871  16.122   1.179   5.346 -0.2826 -0.3657  0.0015
31272W        W37872   1.504   1.151  35.770  0.4696 -0.0266  0.0269
31273W        W37873  15.697   2.142  27.972  0.1542  0.0906 -0.0544
31274W        W37874   7.703   5.128  12.104 -0.1881  0.2473  0.1690
31275W        W37875  11.975   1.969  10.972  0.0985  0.1532 -0.0482
31276W        W37876   6.000   4.687  36.732 -0.1976  0.2721  0.1034
31277W        W37877  16.984   2.121  16.296  0.1546 -0.1636  0.0837
31278W        W37878   3.113   6.340  17.173  0.2393 -0.0303 -0.1017
31279W        W37879  13.212   2.048  13.398  0.1069  0.0397  0.1156
31280W        W37880   9.746   6.577  40.194 -0.0982  0.0983 -0.0639
31281W        W37881  18.753   5.528   5.541 -0.1451 -0.1080 -0.1844
31282W        W37882   1.913   0.776   8.048  0.0607  0.1078 -0.2575
31283W        W37883  13.160   3.973  41.560  0.0478 -0.0742 -0.0421
31284W        W37884  15.444   6.592  34.762 -0.0269 -0.1259 -0.0445
31285W        W37885   3.430   0.872  36.568  0.1056 -0.1416 -0.1333
31286W        W37886  20.354   2.351  34.884 -0.1786  0.1398 -0.1092
31287W        W37887   4.559   5.843  29.686 -0.1777 -0.1196 -0.2416
31288W        W37888   3.255   6.542  26.204 -0.3322  0.1287 -0.0025
31289W        W37889  11.953   3.070  32.941  0.0847  0.0242 -0.1622
31290W        W37890  15.377   6.297  42.986 -0.1178 -0.2072 -0.0628
31291W        W37891  11.692   4.995   2.244 -0.1197  0.0499  0.1981
31292W        W37892  15.678   4.019  32.429 -0.4445  0.2920  0.0754
31293W        W37893  18.190   0.740  42.040  0.1657  0.0066 -0.0646
31294W        W37894  20.583   6.465  43.326  0.2177  0.2625  0.4414
31295W        W37895   2.878   1.992   3.056  0.0227  0.0653  0.0523
31296W        W37896  20.173   6.057  14.739 -0.2224  0.0514 -0.1219
31297W        W37897  11.761   1.113  35.600  0.0492  0.1417 -0.4767
31298W        W37898   9.330   3.195  41.728  0.1644  0.2147 -0.0507
31299W        W37899   1.871   6.018   4.911 -0.2771  0.0203 -0.0305
31300W        W37900   5.001   3.371  36.782 -0.2582 -0.0392  0.0477
31301W        W37901   8.965   4.696  42.422 -0.3043 -0.3075  0.1981
31302W        W37902  13.218   0.444  15.050  0.0491 -0.2291 -0.0145
31303W        W37903   0.296   3.836  44.997 -0.3154 -0.1260 -0.1376
31304W        W37904   3.725   6.462  37.517  0.2648  0.1596 -0.1987
31305W        W37905   4.309   5.015  30.058  0.2832  0.0557 -0.1419
31306W        W37906  17.401   0.933  10.688  0.1112  0.1909  0.1677
31307W        W37907   4.211   3.058  33.889 -0.1168  0.3088  0.0434
31308W        W37908   0.124   5.021  31.406  0.0003 -0.1474  0.1374
31309W        W37909  12.613   2.495  40.608 -0.3261  0.0165  0.1054
31310W        W37910   9.649   2.553  38.506  0.0794  0.0110  0.2656
31311W        W37911  18.722   2.566  41.050  0.0636 -0.0687 -0.3558
31312W        W37912   8.956   2.957   9.290 -0.0694 -0.1332 -0.1871
31313W        W37913   3.615   4.859  10.763  0.2230  0.0635  0.1076
31314W        W37914  18.037   1.474   2.893  0.0683  0.0191 -0.1186
31315W        W37915  17.862   5.938  25.166 -0.1627 -0.1269  0.2406
31316W        W37916  17.548   5.870   8.127  0.2452  0.0478  0.2676
31317W        W37917   8.066   3.856  31.600  0.0800  0.0944  0.1938
31318W        W37918   9.779   1.417  36.191  0.3665  0.2124  0.0790
31319W        W37919  14.601   1.991  42.679 -0.0122  0.1117 -0.0732
31320W        W37920  16.612   5.531   4.580 -0.1617  0.0674 -0.0849
31321W        W37921  11.388   5.020  14.987 -0.2472 -0.0648  0.3544
31322W        W37922  10.199   0.644  11.899 -0.1822 -0.1397  0.1747
31323W        W37923   3.659   5.016  38.581  0.4123  0.0793 -0.0441
31324W        W37924  11.956   6.551  32.666 -0.0956 -0.2008 -0.1936
31325W        W37925  11.893   4.472  11.144  0.1611 -0.1177 -0.1200
31326W        W37926  13.616   1.292  18.944  0.0265 -0.1779  0.1275
31327W        W37927  18.126   0.128  15.245  0.1343 -0.2313  0.1974
31328W        W37928  20.077   2.040   3.348  0.0604  0.0752 -0.3315
31329W        W37929   2.047   5.800  27.101 -0.1572  0.2952  0.0552
31330W        W37930  17.714   5.277   0.063  0.1542 -0.1047 -0.4414
31331W        W37931  19.837   2.400  35.444 -0.0019  0.1273  0.0478
31332W        W37932   8.810   5.006  39.271 -0.0579 -0.2128  0.5250
31333W        W37933  15.015   4.275  39.967 -0.0604  0.0333 -0.0424
31334W        W37934   6.324   6.458  40.115  0.1602 -0.3084 -0.1520
31335W        W37935   9.750   4.141  12.447  0.0570 -0.2446 -0.0113
31336W        W37936  11.050   4.370   7.724 -0.0377 -0.1252 -0.1221
31337W        W37937   6.579   6.566  30.281  0.0110 -0.1850  0.1235
31338W        W37938  15.214   0.729  10.226  0.3553  0.1002 -0.1105
31339W        W37939  12.364   6.431  11.949  0.1462  0.1815  0.2318
31340W        W37940   6.132   4.016   3.852  0.1355  0.1606 -0.1773
31341W        W37941  11.501   1.299  16.636 -0.1680 -0.0166 -0.3397
31342W        W37942  18.489   5.107   4.813  0.1266  0.0374 -0.0852
31343W        W37943   0.211   0.136   3.269  0.1994  0.1508  0.2935
31344W        W37944   5.177   6.255  15.461 -0.1455 -0.1738  0.1531
31345W        W37945  21.058   0.675  35.842  0.1417  0.0466 -0.0328
31346W        W37946  12.958   2.724   7.548  0.1258  0.2718 -0.1888
31347W        W37947  10.613   2.479  29.823  0.1137  0.2742  0.1184
31348W        W37948   7.236   1.822  21.856  0.1264 -0.2063 -0.1708
31349W        W37949  19.345   4.807   5.353 -0.0773  0.3156 -0.1816
31350W        W37950   6.383   3.282  44.871  0.2268 -0.1100 -0.0126
31351W        W37951   5.787   6.244  41.071  0.2050 -0.2059 -0.1185
31352W        W37952   6.496   5.379  37.781 -0.0568  0.1277  0.2706
31353W        W37953  11.160   4.677  45.066 -0.0407  0.0381  0.2017
31354W        W37954  17.663   4.752   2.879  0.0926 -0.0629 -0.0141
31355W        W37955  15.035   0.799  31.150  0.0406  0.0013  0.1038
31356W        W37956  11.141   0.086  29.613  0.1972  0.0688  0.1667
31357W        W37957   6.427   2.312  35.058  0.1113  0.3280  0.1992
31358W        W37958  15.485   0.676  44.980  0.2261  0.3249  0.1810
31359W        W37959  14.290   4.780  31.962  0.1735 -0.0554 -0.2678
31360W        W37960  20.192   3.878   6.137 -0.1530  0.3256 -0.0088
31361W        W37961   1.489   3.929  13.345  0.0758 -0.1800 -0.0282
31362W        W37962  13.692   0.056  37.699 -0.0782 -0.0593 -0.3951
31363W        W37963   2.340   3.786   4.374 -0.2008  0.2535 -0.0827
31364W        W37964  16.588   5.356   5.925 -0.0827 -0.0721 -0.0528
31365W        W37965   0.840   3.964  14.032  0.0273 -0.2049  0.0010
31366W        W37966   6.311   1.691  13.605  0.0003  0.2110 -0.1243
31367W        W37967  20.133   0.527  24.251 -0.1913  0.0532  0.1801
31368W        W37968  12.606   0.763  18.238 -0.2077  0.2851  0.1157
31369W        W37969  20.546   5.303  40.773 -0.2249 -0.1293  0.0241
31370W        W37970   3.200   0.469  43.652 -0.0917  0.3478 -0.3243
31371W        W37971  18.209   6.101   8.382  0.1028 -0.4478 -0.2261
31372W        W37972  12.494   1.097   8.265 -0.2940 -0.1703  0.1847
31373W        W37973  16.596   1.087  26.067 -0.1907  0.0983  0.1848
31374W        W37974   3.141   6.121  29.010 -0.3212  0.3086 -0.1382
31375W        W37975   1.736   5.784   3.698  0.0518 -0.2759  0.1215
31376W        W37976   9.205   3.702  12.907  0.1061 -0.0302 -0.2799
31377W        W37977  10.315   5.581  34.526 -0.0199 -0.0566  0.2890
31378W        W37978  20.703   5.070   2.498 -0.1054 -0.0814 -0.0174
31379W        W37979  13.187   4.636  15.584 -0.0507 -0.2011  0.0368
31380W        W37980  10.772   0.369  19.324  0.1241 -0.3781  0.2495
31381W        W37981   3.790   5.406   0.500  0.2239  0.1602  0.0760
31382W        W37982  12.677   0.402   1.193 -0.2382 -0.1126  0.3657
31383W        W37983   0.937   3.372  37.817  0.1143 -0.3323  0.0455
31384W        W37984  18.909   3.491  26.952  0.2705 -0.3150  0.2240
31385W        W37985   8.953   0.666  23.080  0.0550 -0.2400 -0.2270
31386W        W37986  17.647   1.249   5.330  0.1340 -0.2718 -0.0838
31387W        W37987  16.738   5.527  30.682 -0.0971  0.2137 -0.1740
31388W        W37988  16.503   2.734   4.646 -0.0945 -0.2497  0.2120
31389W        W37989   8.688   0.412  30.551  0.1735 -0.0580 -0.2159
31390W        W37990  12.361   0.734  11.136  0.1618 -0.0786  0.0629
31391W        W37991   0.029   6.233  23.337 -0.1686 -0.3046 -0.0281
31392W        W37992   1.024   0.588   1.756  0.1123 -0.3291 -0.0061
31393W        W37993  14.018   1.826  33.525 -0.0832 -0.0372 -0.0846
31394W        W37994  16.256   2.753   6.085  0.2626  0.1664 -0.2630
31395W        W37995   1.859   0.676  37.555  0.0679  0.3586  0.0178
31396W        W37996   8.467   4.918  29.923 -0.1099  0.1584  0.1703
31397W        W37997   8.830   3.821  20.198  0.0038  0.0971 -0.1044
31398W        W37998  18.578   4.422   2.749  0.2428  0.0088 -0.1480
31399W        W37999  12.376   2.960  40.681 -0.1105  0.1477  0.0053
31400W        W38000  14.342   5.794  40.327  0.2121 -0.1294 -0.3118
31401W        W38001  11.098   3.020  38.008  0.2105  0.2028  0.0258
31402W        W38002  14.271   2.831  43.593 -0.1634 -0.0932  0.0190
31403W        W38003   5.489   5.424   9.538 -0.1926  0.0366 -0.0263
31404W        W38004   1.611   2.834  14.736  0.1236 -0.2962 -0.0814
31405W        W38005  19.949   3.392  32.858  0.1113 -0.0753 -0.0169
31406W        W38006   8.393   1.811  30.579 -0.3251 -0.0993  0.1996
31407W        W38007  20.552   5.081  44.190 -0.3176 -0.1517  0.0047
31408W        W38008   6.517   3.287  10.679 -0.3051  0.0315  0.0893
31409W        W38009   0.905   0.574  32.474  0.0409  0.0552 -0.2349
31410W        W38010   5.325   3.717   7.747 -0.0421  0.1592 -0.2625
31411W        W38011  13.758   2.894  34.587  0.0591 -0.0620  0.0391
31412W        W38012   7.692   3.495  31.065 -0.3206 -0.0971  0.1203
31413W        W38013  12.722   1.022  39.130 -0.2009 -0.1533 -0.0443
31414W        W38014  19.404   0.719  11.812  0.1069 -0.2202  0.0517
31415W        W38015  15.496   0.513   9.790  0.1031  0.0444 -0.2894
31416W        W38016  11.558   4.973   3.838 -0.1457 -0.0026 -0.1588
31417W        W38017  17.938   0.861  10.575  0.1641 -0.1084  0.1263
31418W        W38018   5.630   1.764  17.695  0.0804 -0.1886 -0.1211
31419W        W38019  18.148   4.344  37.287  0.0430  0.0731 -0.1562
31420W        W38020  16.597   3.868   5.972  0.1410  0.2515  0.1259
31421W        W38021  11.745   0.717   7.662 -0.1223  0.0058  0.0693
31422W        W38022  15.131   4.320   0.959  0.1003 -0.1389  0.1729
31423W        W38023  18.833   2.483  27.875 -0.1150 -0.0905  0.1867
31424W        W38024  19.107   3.574  27.611 -0.1373 -0.1597 -0.0585
31425W        W38025  19.326   2.059  15.279  0.0427 -0.3531  0.1517
31426W        W38026  16.419   4.071  24.996  0.0633 -0.2134 -0.2774
31427W        W38027   1.698   2.546  13.386  0.0511 -0.1509 -0.4645
31428W        W38028   9.152   0.100  16.566  0.2767  0.0065 -0.1561
31429W        W38029  20.666   6.180  12.950  0.0462  0.0077 -0.1005
31430W        W38030  16.126   4.125   8.115  0.2825  0.4486  0.1530
31431W        W38031   4.094   5.064  44.821 -0.2615 -0.2857 -0.1263
31432W        W38032  13.685   5.347  42.598 -0.0306  0.0880 -0.1275
31433W        W38033   6.218   4.385  36.112  0.1287  0.2127 -0.1493
31434W        W38034  15.620   6.502  41.124  0.1502 -0.3921  0.1658
31435W        W38035  20.014   0.264  15.896  0.0714  0.2526  0.2479
31436W        W38036   4.816   3.988  10.211 -0.0410 -0.2193 -0.1646
31437W        W38037  21.057   0.787  35.278 -0.2493 -0.0849  0.0757
31438W        W38038  18.380   4.479   5.456 -0.3778  0.0987  0.2283
31439W        W38039   7.445   2.630  33.403  0.1722  0.1010 -0.3109
31440W        W38040   4.530   4.511   5.002 -0.0149  0.2425 -0.1219
31441W        W38041  20.951   3.859  26.321  0.1146 -0.2877  0.4017
31442W        W38042  10.543   0.717   2.664  0.0050 -0.2200 -0.1056
31443W        W38043  19.791   6.217  15.172 -0.0097  0.1689 -0.0452
31444W        W38044  14.657   2.800  42.584 -0.0754  0.1252 -0.2483
31445W        W38045  20.150   5.660   2.344  0.1349  0.3274 -0.1101
31446W        W38046  12.736   3.668  20.399 -0.1333  0.0919  0.3394
31447W        W38047   3.723   4.264  29.383  0.1634 -0.1135 -0.2601
31448W        W38048   7.551   2.670   2.674  0.0949  0.1737  0.0712
31449W        W38049   3.219   5.809   9.287  0.1949  0.1157 -0.1526
31450W        W38050   1.393   3.323  26.020 -0.2191 -0.0363 -0.0271
31451W        W38051  17.749   0.309   7.375 -0.1389  0.0892 -0.1908
31452W        W38052  15.931   0.734   6.120  0.0964  0.0133 -0.3118
31453W        W38053  18.889   1.574  39.727 -0.2441  0.1269 -0.0705
31454W        W38054   6.384   4.116   5.273  0.0429 -0.0436 -0.1547
31455W        W38055  16.649   5.886  10.763  0.0007 -0.0511  0.0380
31456W        W38056  18.937   2.282  38.234  0.0203  0.4532  0.2030
31457W        W38057  15.777   2.644  41.288  0.1167 -0.0813 -0.0493
31458W        W38058   5.500   1.399  16.156 -0.1232 -0.0612  0.0546
31459W        W38059  20.753   0.446  44.490  0.0664  0.0906  0.0760
31460W        W38060  13.882   6.540  30.781 -0.0519  0.1063 -0.1120
31461W        W38061  18.325   5.161  39.106 -0.0227  0.2802  0.2440
31462W        W38062  20.765   2.831   5.589  0.1440 -0.0296 -0.0812
31463W        W38063  13.990   1.757  44.423 -0.1113 -0.0040 -0.0158
31464W        W38064   6.047   6.500  14.359 -0.1759 -0.1637 -0.2849
31465W        W38065   2.558   2.716  39.250 -0.1734 -0.0377  0.3201
31466W        W38066  10.239   6.137  30.725 -0.0496 -0.0236  0.1532
31467W        W38067  20.897   1.664  29.281  0.1831 -0.1902  0.2777
31468W        W38068  10.866   3.754  43.815 -0.0045  0.0404 -0.2716
31469W        W38069  18.161   3.266  14.161  0.2188  0.0654  0.3030
31470W        W38070  20.930   4.895  34.465  0.1352  0.4486  0.1251
31471W        W38071  11.925   0.525   5.515  0.1236 -0.1639  0.1505
31472W        W38072   4.239   5.530   5.998  0.1587 -0.1523 -0.0608
31473W        W38073  10.335   3.592  42.924 -0.5065  0.0462  0.0562
31474W        W38074  16.860   0.646  30.807 -0.2123 -0.0968 -0.0685
31475W        W38075   8.117   5.764  14.836  0.1944  0.0958 -0.3948
31476W        W38076  20.296   4.388  26.236  0.0190  0.1472  0.2793
31477W        W38077   8.925   0.918  32.572 -0.3991 -0.1711  0.3822
31478W        W38078   9.451   3.527   0.554 -0.2872 -0.1976  0.2572
31479W        W38079  13.473   3.326   8.264  0.1053  0.0567 -0.1889
31480W        W38080   5.780   1.336  20.453 -0.1321  0.0836 -0.0568
31481W        W38081  16.916   4.553  44.121  0.1520  0.0753 -0.2114
31482W        W38082   3.571   2.519  12.052 -0.0685 -0.0620  0.2538
31483W        W38083   1.903   4.493  24.290  0.1236 -0.0512  0.2877
31484W        W38084   8.332   6.052   7.328  0.1675  0.1856 -0.2155
31485W        W38085  20.732   0.294  22.642 -0.2671 -0.0802  0.0585
31486W        W38086   6.148   2.537  20.847  0.1133 -0.0419  0.1479
31487W        W38087   3.068   5.545  15.417  0.0724 -0.1640  0.0825
31488W        W38088  19.307   2.627  21.927  0.4056 -0.0585 -0.0589
31489W        W38089   6.699   4.266  29.117 -0.0638 -0.0073 -0.0407
31490W        W38090   2.901   5.752   8.824  0.2240  0.2055  0.1757
31491W        W38091  20.286   4.999  25.436  0.2375 -0.2582  0.2572
31492W        W38092  20.328   4.312  35.091 -0.3723 -0.2689  0.0469
31493W        W38093  17.251   5.899   1.441  0.1185 -0.2433 -0.1603
31494W        W38094  18.596   2.544   1.906 -0.1809 -0.1447  0.2034
31495W        W38095   0.934   4.984  30.214 -0.4338 -0.0417 -0.0151
31496W        W38096  15.168   4.429   6.487  0.3305 -0.0200  0.0324
31497W        W38097  14.227   1.749  41.090  0.1624 -0.1161 -0.0219
31498W        W38098   5.748   1.282  41.077 -0.2012 -0.0331 -0.1646
31499W        W38099   0.977   2.343  10.798 -0.0433 -0.1652  0.0788
31500W        W38100  18.586   2.366  15.683 -0.0155  0.1692 -0.1741
31501W        W38101  20.943   1.616   1.769  0.1192  0.1889  0.0418
31502W        W38102  17.947   0.982  33.247  0.1227  0.1208 -0.4123
31503W        W38103  13.779   4.422  15.840  0.2114  0.0204 -0.1569
31504W        W38104   7.847   5.030  15.112 -0.0804 -0.0801  0.2455
31505W        W38105   3.569   3.683  36.987 -0.1482 -0.1474  0.0262
31506W        W38106  20.076   3.451  29.833 -0.2399 -0.4145  0.0585
31507W        W38107  12.790   4.308   9.275  0.0826  0.0600  0.1549
31508W        W38108  11.438   4.679  33.271  0.0824 -0.2898  0.2664
31509W        W38109   1.238   6.549  39.777  0.0473  0.3687  0.0958
31510W        W38110  10.057   3.436  32.839  0.1869  0.1982  0.2635
31511W        W38111   6.191   4.009  42.476  0.0959 -0.0261 -0.0367
31512W        W38112   4.490   2.905  44.411 -0.1323  0.2213 -0.3706
31513W        W38113  16.439   6.419  41.664  0.0154  0.2240  0.2197
31514W        W38114   0.333   6.261  41.054  0.2538 -0.2808  0.2053
31515W        W38115   0.309   1.666  34.755  0.4159  0.0590  0.0431
31516W        W38116   1.313   3.361  28.528 -0.1759 -0.0717  0.0046
31517W        W38117   4.040   1.493  10.536  0.2459 -0.3572  0.2345
31518W        W38118  19.754   3.975  31.915  0.2065  0.2740 -0.1146
31519W        W38119  19.527   3.170   9.637 -0.2000 -0.1670  0.0940
31520W        W38120  18.009   2.865   0.282  0.0742 -0.1674 -0.0545
31521W        W38121  12.053   6.401  14.722  0.0953  0.0316  0.1720
31522W        W38122  14.370   0.413  31.497  0.0501  0.0894 -0.0702
31523W        W38123   3.487   1.396  40.274  0.2332  0.0808  0.0673
31524W        W38124  11.864   2.628  13.494  0.2911  0.2008  0.0469
31525W        W38125  12.012   1.396  16.400  0.1571 -0.0105  0.0309
31526W        W38126   5.100   0.126   1.716  0.3106 -0.3917  0.0070
31527W        W38127   2.413   1.897  39.754  0.1478  0.2262 -0.2003
31528W        W38128   4.158   3.448  10.033  0.0802 -0.2007 -0.0203
31529W        W38129   7.819   2.215  11.215  0.0229 -0.0356 -0.0809
31530W        W38130  13.845   1.976  13.994  0.0141  0.1050  0.1150
31531W        W38131  14.542   4.939  26.785 -0.2607 -0.0035  0.1294
31532W        W38132  10.214   0.204  31.230 -0.1718  0.0402  0.0494
31533W        W38133  20.532   1.754  32.319  0.0206 -0.0521  0.2541
31534W        W38134   5.769   4.041  11.496  0.1120 -0.2273  0.0725
31535W        W38135  12.644   2.067  35.226 -0.2457  0.1756 -0.2936
31536W        W38136  20.620   2.116   1.628 -0.2060 -0.2912 -0.1712
31537W        W38137  13.799   1.434  34.427 -0.0528 -0.0491  0.0456
31538W        W38138   6.171   6.077  33.950  0.0708 -0.1798  0.0143
31539W        W38139   2.270   5.508  25.880  0.1423  0.0421  0.0349
31540W        W38140  17.311   1.627  29.418  0.0433  0.3534  0.0722
31541W        W38141   8.010   1.502   2.146  0.0268 -0.2112  0.0504
31542W        W38142  14.478   3.923   0.276  0.1745 -0.0209 -0.3540
31543W        W38143   6.647   0.254   7.402 -0.3859  0.1178 -0.2883
31544W        W38144  18.537   2.066   5.523 -0.0595  0.2562 -0.0625
31545W        W38145  14.554   5.043  42.346 -0.2121 -0.3038  0.1160
31546W        W38146  18.143   1.468  41.021 -0.0856 -0.0854  0.1528
31547W        W38147   7.384   3.106  11.456 -0.1168 -0.1367  0.0231
31548W        W38148  12.201   1.173   5.897 -0.2424  0.0780  0.0353
31549W        W38149   4.119   3.060  34.340  0.2190  0.0982 -0.0204
31550W        W38150  12.337   5.206  35.108 -0.1951 -0.1622  0.0619
31551W        W38151   3.090   5.574  35.033  0.1928  0.2257 -0.0867
31552W        W38152  16.502   0.739   2.120 -0.1474  0.0964 -0.2841
31553W        W38153   4.078   4.553  44.190 -0.2469 -0.1479 -0.0291
31554W        W38154  15.817   6.038   9.819  0.2802 -0.0288 -0.0365
31555W        W38155   9.124   0.902   7.234 -0.1552 -0.5257  0.3541
31556W        W38156  17.083   2.864  27.326 -0.0521  0.0743  0.2257
31557W        W38157   0.604   1.605  31.288  0.1665 -0.0718 -0.2346
31558W        W38158   1.615   4.077  12.893 -0.0415  0.1337 -0.2905
31559W        W38159   5.428   0.644  14.588  0.2799 -0.0864 -0.1763
31560W        W38160  19.670   2.155  20.591 -0.1194 -0.0008  0.0109
31561W        W38161   2.045   4.202  33.603 -0.1087 -0.0300  0.1063
31562W        W38162  14.387   2.285  18.257  0.1463 -0.1413 -0.3045
31563W        W38163   2.873   1.372  15.841 -0.1751 -0.0275 -0.0997
31564W        W38164   8.179   3.740  19.417  0.2588  0.2319  0.1176
31565W        W38165   0.427   4.340  34.098 -0.3022  0.1984  0.3596
31566W        W38166  16.358   3.805  26.064 -0.0857 -0.2415  0.1226
31567W        W38167   9.485   2.691   2.405  0.0597 -0.1065  0.3179
31568W        W38168   4.400   3.266  32.960 -0.1207 -0.1233 -0.0955
31569W        W38169   0.418   3.132  38.916 -0.0299 -0.2203  0.1683
31570W        W38170   4.329   2.975  35.268  0.2401 -0.0776 -0.1219
31571W        W38171   1.921   2.080  35.258 -0.0383  0.2078  0.0247
31572W        W38172   4.652   2.100  15.002 -0.0793  0.2385  0.1399
31573W        W38173   9.537   1.844  38.276  0.0412 -0.0280  0.1181
31574W        W38174  10.282   4.045   6.326 -0.2204  0.0992 -0.1694
31575W        W38175  19.231   5.148   2.410 -0.0825  0.2365 -0.1114
31576W        W38176  11.029   3.169  10.785 -0.2882  0.0738  0.1802
31577W        W38177   8.997   2.156  30.533  0.3254 -0.0683 -0.0172
31578W        W38178  20.792   5.295  32.840 -0.0627 -0.2279  0.0748
31579W        W38179  14.200   5.188  43.800 -0.0622  0.1951  0.0711
31580W        W38180  10.493   3.702  41.270  0.3347 -0.1471  0.3394
31581W        W38181   8.033   1.546   1.017 -0.2758 -0.2231  0.0163
31582W        W38182  18.781   5.982  37.070  0.3393 -0.1498  0.2067
31583W        W38183  16.327   1.369  10.364  0.0581  0.0311 -0.1408
31584W        W38184  16.662   1.162  35.669  0.2194  0.1419 -0.4230
31585W        W38185  10.042   6.480  42.008 -0.1284 -0.1047 -0.0191
31586W        W38186   7.842   3.748  29.791 -0.0404  0.0701 -0.0852
31587W        W38187  17.640   6.021   9.333  0.3731  0.0301 -0.0191
31588W        W38188   4.032   6.517  11.630  0.3396 -0.2761 -0.0459
31589W        W38189   4.399   6.186  43.204 -0.1329 -0.0056  0.1408
31590W        W38190  12.479   0.529  13.668 -0.1325 -0.0709  0.1917
31591W        W38191   4.820   2.685  18.174 -0.0771 -0.0487 -0.3316
31592W        W38192  16.444   5.899  38.632 -0.2519  0.2710  0.3559
31593W        W38193   8.420   0.271  21.575  0.0604 -0.0756 -0.2401
31594W        W38194  20.102   1.016  21.063 -0.3545  0.0895  0.1667
31595W        W38195  13.580   3.884   9.226 -0.0662  0.1307 -0.2067
31596W        W38196  20.452   2.975  33.213 -0.0862  0.2656 -0.2888
31597W        W38197   9.600   0.150  41.399 -0.1148  0.0349 -0.1628
31598W        W38198   2.014   5.827  29.864  0.1241 -0.0401 -0.0694
31599W        W38199   7.256   3.482  19.285 -0.1929 -0.1893  0.0929
31600W        W38200  19.458   5.343  26.397  0.0667 -0.2099  0.2759
31601W        W38201   8.086   3.375  38.694  0.0132 -0.1837  0.1292
31602W        W38202  14.559   4.498  39.943  0.0783  0.0979  0.1315
31603W        W38203  18.178   0.870  27.432 -0.1943  0.0509  0.0142
31604W        W38204  20.155   0.464  13.091  0.1376  0.2366  0.1487
31605W        W38205  18.158   6.115  22.748 -0.0592  0.2073  0.0652
31606W        W38206  13.894   3.052   6.761  0.0018  0.2204  0.3122
31607W        W38207  15.249   2.066  41.448 -0.2689  0.0281  0.0904
31608W        W38208  20.467   5.929  22.592  0.0513  0.2112 -0.0428
31609W        W38209  19.581   2.870   2.409  0.1677  0.0544 -0.2897
31610W        W38210   1.959   4.087  27.206  0.0775 -0.0147  0.2963
31611W        W38211   6.653   0.701  38.499 -0.1264 -0.0557 -0.0688
31612W        W38212  15.588   0.532   4.959  0.1078 -0.2156 -0.1763
31613W        W38213  16.309   3.983  42.249 -0.1979 -0.1688  0.0106
31614W        W38214  11.163   5.797  28.912 -0.1203  0.0461  0.1025
31615W        W38215   7.198   3.184  18.101 -0.0872 -0.1214 -0.2444
31616W        W38216  11.395   0.185  32.226 -0.0173 -0.2861 -0.0920
31617W        W38217  14.579   1.062  38.084  0.0734  0.0576  0.0169
31618W        W38218  10.446   5.148  23.610 -0.0431  0.2203  0.3219
31619W        W38219  10.083   4.880   5.255 -0.3250  0.2806  0.0211
31620W        W38220   5.657   0.997  13.309 -0.0116  0.0397 -0.1470
31621W        W38221   9.097   2.864   4.238  0.0490  0.1827  0.3147
31622W        W38222   2.444   5.782  12.816  0.3192 -0.0245 -0.1783
31623W        W38223   9.354   4.523   5.480 -0.0817 -0.1599 -0.0931
31624W        W38224  15.731   0.501  26.927  0.0126 -0.0001 -0.1063
31625W        W38225  12.517   1.143   6.267 -0.1295  0.0990 -0.2539
31626W        W38226  13.893   2.504  13.897  0.2490 -0.1759 -0.0245
31627W        W38227  21.040   1.781  11.328  0.2390  0.0401 -0.3051
31628W        W38228  10.598   4.016   9.030  0.2854 -0.3495  0.0491
31629W        W38229   2.918   4.625   2.937 -0.2275  0.3975 -0.1272
31630W        W38230   9.874   3.892   4.433 -0.1136 -0.0494 -0.2225
31631W        W38231  19.208   0.371  29.785 -0.2036  0.0961  0.0535
31632W        W38232   0.320   3.609  41.086  0.0624  0.2690 -0.1329
31633W        W38233  17.643   1.268  42.824 -0.0737 -0.1686 -0.1207
31634W        W38234  16.460   5.991  32.844  0.3522  0.0573  0.1620
31635W        W38235   3.504   3.971  11.559 -0.0042 -0.0133 -0.1173
31636W        W38236   2.495   5.900  27.419 -0.0638  0.1125  0.0407
31637W        W38237  14.956   4.466  41.161  0.2505  0.3687  0.0202
31638W        W38238   5.555   0.302  34.573 -0.0211  0.0573  0.0857
31639W        W38239   0.020   4.440  23.081 -0.4633 -0.0211  0.0019
31640W        W38240   6.733   3.688  11.748 -0.2352 -0.2323  0.0329
31641W        W38241   1.816   1.709  34.323  0.2270 -0.2479 -0.1792
31642W        W38242  10.688   0.467  15.227  0.2121  0.1606 -0.0422
31643W        W38243  10.040   2.390  11.065  0.0629  0.2481 -0.2972
31644W        W38244   5.810   4.224  15.592  0.1565  0.0567  0.3104
31645W        W38245  14.586   3.057  29.855  0.2476  0.0553 -0.1135
31646W        W38246  16.910   1.873  29.670 -0.2882  0.1362  0.0192
31647W        W38247  15.892   5.424   9.399 -0.2122 -0.4646 -0.0943
31648W        W38248  17.286   2.232   7.944 -0.3043 -0.0620  0.1647
31649W        W38249  16.588   2.128  15.968  0.1257 -0.1190 -0.2819
31650W        W38250   8.729   1.927  10.081 -0.0151 -0.2090 -0.0366
31651W        W38251   7.923   4.975  37.268 -0.3690 -0.1586 -0.1529
31652W        W38252  20.066   1.349  34.047 -0.1941 -0.1268  0.3349
31653W        W38253  10.793   0.683   0.259 -0.2922  0.2833  0.1692
31654W        W38254   2.517   3.606  43.545  0.0536  0.1089 -0.2480
31655W        W38255   6.927   0.872  31.810 -0.1676  0.2067 -0.0156
31656W        W38256  12.004   1.942  17.215  0.0244  0.3359 -0.0921
31657W        W38257  10.679   4.182  12.536  0.0931  0.1481  0.3488
31658W        W38258   6.795   5.316  16.287 -0.0032 -0.0506  0.2713
31659W        W38259  16.608   3.716  29.273 -0.1112 -0.0581 -0.0054
31660W        W38260  15.070   6.525  29.070 -0.0980  0.1146 -0.0323
31661W        W38261   6.750   4.576  14.164 -0.0123  0.1343  0.2417
31662W        W38262   5.407   6.274   8.034  0.1440 -0.0806  0.0742
31663W        W38263  13.387   1.184  32.166 -0.0462 -0.0803 -0.1508
31664W        W38264   4.676   6.535  37.693  0.0815  0.0499  0.3423
31665W        W38265   1.386   3.588  26.498 -0.0448  0.0537  0.1645
31666W        W38266  15.031   0.288  27.744  0.0772 -0.0707  0.0015
31667W        W38267  15.447   2.391  16.235 -0.2157 -0.2107 -0.0869
31668W        W38268   6.852   4.991  18.499 -0.2420 -0.0649  0.0317
31669W        W38269   4.460   5.284  32.472 -0.1221 -0.0450  0.0731
31670W        W38270  17.801   4.111  23.963  0.0184  0.0742 -0.2417
31671W        W38271   4.456   6.578  34.825  0.1963 -0.3514 -0.1166
31672W        W38272   9.773   4.160  42.809  0.0107 -0.0234 -0.3258
31673W        W38273  18.316   3.045  28.047 -0.0380 -0.0657  0.1352
31674W        W38274   6.326   1.213  20.584 -0.0097 -0.2064 -0.0205
31675W        W38275   0.933   2.201  37.119 -0.0462 -0.0503  0.1919
31676W        W38276  16.277   1.363  38.195 -0.1789  0.0686 -0.0883
31677W        W38277  12.330   6.452  43.586  0.2114 -0.0845  0.2444
31678W        W38278  19.208   3.010  32.538 -0.0790  0.0819  0.3297
31679W        W38279  17.942   6.317  32.627 -0.2974 -0.0065 -0.0402
31680W        W38280  15.618   3.225  36.838 -0.1119 -0.0763 -0.0286
31681W        W38281  13.443   4.606   4.637 -0.0975 -0.2006 -0.0569
31682W        W38282  18.945   0.874  24.645  0.1971  0.0041 -0.0522
31683W        W38283  16.055   2.087  28.827 -0.0442 -0.0866 -0.1368
31684W        W38284   6.399   0.185  12.520  0.2781  0.2427 -0.2354
31685W        W38285  20.583   5.531   2.727 -0.0599  0.3311  0.0367
31686W        W38286   7.163   0.997  12.965 -0.1193  0.2021 -0.4615
31687W        W38287  13.500   1.136   4.630 -0.1615  0.1340 -0.0511
31688W        W38288   7.516   5.690   5.456  0.0162 -0.0669 -0.4153
31689W        W38289   6.196   3.017  29.978  0.0505  0.1156  0.1872
31690W        W38290   6.947   1.251  31.392  0.0699  0.2704 -0.2368
31691W        W38291  17.999   4.917  43.452 -0.0126  0.0646 -0.0788
31692W        W38292  18.829   5.534  41.633  0.0520  0.2030 -0.1218
31693W        W38293   9.865   0.527   1.800  0.0768  0.0533 -0.0986
31694W        W38294  11.964   0.159   9.333  0.0541 -0.0639  0.1546
31695W        W38295  16.239   5.938   3.280 -0.2644  0.0702  0.1482
31696W        W38296   1.716   0.156  14.560 -0.2391 -0.1064 -0.2825
31697W        W38297   0.268   5.483   8.075  0.3626  0.0429  0.2385
31698W        W38298  11.356   0.078   4.835  0.0770  0.0772  0.0976
31699W        W38299   6.082   4.343   9.632  0.0302 -0.0865 -0.0850
31700W        W38300   5.334   6.336   6.430 -0.0192  0.0131 -0.2937
31701W        W38301   3.162   2.347  41.909  0.1726  0.1677  0.0278
31702W        W38302   0.265   1.322  28.103 -0.1320  0.2510 -0.0598
31703W        W38303   9.387   3.013  36.021  0.2125 -0.2062 -0.0827
31704W        W38304   0.596   2.050  31.681  0.1424  0.1820 -0.2054
31705W        W38305  19.265   5.603  14.108 -0.0755 -0.2638 -0.4397
31706W        W38306  10.622   4.055  15.452 -0.0681  0.2990 -0.1427
31707W        W38307  13.651   4.073  13.023  0.0113  0.0338 -0.2316
31708W        W38308   7.853   1.838  24.202  0.1630  0.3373  0.1543
31709W        W38309  19.340   6.085   0.709  0.2241 -0.1010  0.0641
31710W        W38310  11.329   6.437  13.595  0.0099 -0.0338  0.1204
31711W        W38311  20.894   4.035   5.052 -0.2880  0.0484  0.0954
31712W        W38312   8.903   1.126   6.747 -0.0991 -0.2768 -0.1275
31713W        W38313   3.338   3.493  44.962 -0.2296  0.0848 -0.2150
31714W        W38314  16.247   4.581  27.660 -0.0596  0.1235 -0.1169
31715W        W38315   1.022   3.256  40.103 -0.0401 -0.1756  0.0222
31716W        W38316  16.236   2.799  38.220  0.1015  0.1865  0.1315
31717W        W38317  19.197   1.551   9.393  0.1226  0.2733 -0.2204
31718W        W38318  11.298   4.503  19.640 -0.0690  0.3682 -0.3576
31719W        W38319  18.144   0.910   4.802  0.0276  0.3182  0.1122
31720W        W38320   1.461   1.279   5.435  0.2153  0.1260 -0.1509
31721W        W38321  17.509   5.050  29.767 -0.1467  0.3026 -0.2174
31722W        W38322  13.276   6.040  43.875  0.2249 -0.0518 -0.1393
31723W        W38323  13.654   3.855  38.500  0.1394  0.0210 -0.1502
31724W        W38324   4.390   6.106   4.643  0.2817  0.0104  0.0657
31725W        W38325  19.301   1.833   6.160  0.0427 -0.0518 -0.3412
31726W        W38326  20.936   4.171  42.944 -0.0022 -0.3794 -0.0904
31727W        W38327  19.827   1.537  20.592  0.2026  0.1362  0.0865
31728W        W38328   0.225   3.725   1.147 -0.2341 -0.0754  0.0965
31729W        W38329  12.580   3.158  13.270  0.5887 -0.0789 -0.0131
31730W        W38330   0.069   5.871   5.299  0.0340 -0.1499  0.1581
31731W        W38331  10.306   4.632  41.656  0.1170 -0.0631  0.0793
31732W        W38332  17.160   4.656   4.292 -0.3940 -0.0536  0.0073
31733W        W38333   3.562   3.580  16.801 -0.2653  0.0094 -0.1759
31734W        W38334  19.167   2.697  38.140  0.0226 -0.1656 -0.2899
31735W        W38335   7.857   2.446  11.717  0.0276 -0.0064  0.1605
31736W        W38336  17.545   5.869  28.386 -0.1729 -0.1804  0.0057
31737W        W38337  20.385   5.836  40.924  0.2927  0.0095 -0.2153
31738W        W38338   3.448   0.890   1.730  0.0972  0.1575 -0.1197
31739W        W38339  12.271   3.719  43.658 -0.0001  0.0133 -0.3978
31740W        W38340   1.921   5.358  41.668  0.1669 -0.5159  0.1602
31741W        W38341  10.164   1.061  22.769 -0.0530  0.2784 -0.1492
31742W        W38342   5.999   5.567  30.227 -0.0943 -0.0417  0.0312
31743W        W38343   0.369   4.180  33.226  0.2571 -0.0363  0.5242
31744W        W38344   2.952   0.609  38.153 -0.1767  0.1065  0.1543
31745W        W38345  17.449   1.986  29.773  0.1077  0.0937  0.0004
31746W        W38346   9.341   5.519  35.885 -0.1954  0.0543  0.0778
31747W        W38347   6.417   0.002   6.995  0.1120 -0.0766  0.2233
31748W        W38348  10.242   1.232  40.773 -0.0088 -0.1474  0.0843
31749W        W38349  10.740   0.213   1.038 -0.0089 -0.1353  0.0139
31750W        W38350  17.057   4.373  26.572  0.2630  0.1209 -0.2701
31751W        W38351   4.322   5.883  10.069  0.2069 -0.0942 -0.0804
31752W        W38352   5.704   1.374   5.271 -0.0529 -0.1226  0.0684
31753W        W38353  14.301   0.280   3.539 -0.0255 -0.0861  0.3892
31754W        W38354  16.956   4.610  30.928 -0.0317  0.2414 -0.0425
31755W        W38355   5.895   5.873  42.105 -0.1163  0.1630 -0.2311
31756W        W38356   8.138   5.351  11.613 -0.0472 -0.1953 -0.2578
31757W        W38357  19.689   4.635  41.274 -0.0546 -0.0114 -0.1102
31758W        W38358  18.237   6.185  14.512  0.0879 -0.0383 -0.0886
31759W        W38359  18.583   5.781  34.481  0.1046 -0.0020 -0.1082
31760W        W38360   2.774   3.232   2.794 -0.0967  0.0441  0.0187
31761W        W38361  14.705   6.020   0.003  0.1304  0.0122 -0.0918
31762W        W38362   3.155   0.446   6.971 -0.1569 -0.1878  0.2835
31763W        W38363  14.626   6.548  38.137 -0.1225 -0.1453 -0.1603
31764W        W38364   4.055   1.140   8.385 -0.0406  0.1765  0.0461
31765W        W38365   2.717   2.749   5.434  0.2370 -0.0176 -0.1548
31766W        W38366  15.488   0.939   3.570  0.1136  0.1490  0.1223
31767W        W38367  20.810   3.177  15.554 -0.0396  0.2913  0.1435
31768W        W38368   3.489   2.202   5.612 -0.2417  0.2056 -0.0795
31769W        W38369  14.147   5.720  42.459 -0.0657  0.0240  0.0433
31770W        W38370  15.091   4.919  38.583  0.0414 -0.1155  0.1497
31771W        W38371  17.865   6.570   8.788  0.0325 -0.0262 -0.0691
31772W        W38372  15.519   1.424  16.599  0.1239  0.1892 -0.0720
31773W        W38373  13.890   5.339  29.415 -0.2498  0.1345  0.1456
31774W        W38374   9.297   4.824  34.171  0.1558 -0.0030 -0.0148
31775W        W38375   2.771   1.929  36.544 -0.0514 -0.0269  0.2931
31776W        W38376  11.982   0.133  40.511 -0.0566 -0.0177 -0.0019
31777W        W38377   8.382   5.560  34.954  0.0203 -0.4718  0.1954
31778W        W38378  21.123   5.131  26.941 -0.1938  0.0451 -0.0101
31779W        W38379   4.454   2.868  39.914  0.0739 -0.0495  0.0892
31780W        W38380  14.753   0.714   1.624 -0.2273  0.1070 -0.0154
31781W        W38381   2.163   3.779  41.056  0.3183 -0.1241 -0.0024
31782W        W38382  12.300   5.526  14.240  0.1719  0.0123 -0.3189
31783W        W38383   1.197   4.516   3.861 -0.1620  0.2784  0.0029
31784W        W38384   7.994   4.314   6.057 -0.1391  0.2874 -0.2199
31785W        W38385   5.097   2.323  13.746  0.0172  0.0464  0.1328
31786W        W38386  12.112   2.060   8.277 -0.1078 -0.0116  0.1402
31787W        W38387  16.927   5.769   6.176  0.0487 -0.0429 -0.0514
31788W        W38388  14.459   0.786   6.283 -0.3320 -0.3358 -0.1643
31789W        W38389  11.330   2.940   4.394 -0.0196  0.0737  0.0859
31790W        W38390  13.957   1.153   4.338  0.1158  0.2258  0.0017
31791W        W38391   3.374   4.759   3.233 -0.0048  0.1239  0.0555
31792W        W38392   5.707   4.445  44.055 -0.1026 -0.2119 -0.0604
31793W        W38393  18.367   4.179  36.421  0.1883  0.1727  0.0754
31794W        W38394   0.581   1.299  35.999 -0.0234 -0.0875  0.0004
31795W        W38395   3.891   1.329  43.474  0.0269  0.0759 -0.0166
31796W        W38396  11.771   1.494   3.730 -0.2521  0.2006 -0.1299
31797W        W38397  17.811   1.981   6.391 -0.4836 -0.1286  0.1173
31798W        W38398   8.849   3.077  21.900 -0.2592 -0.1543  0.0150
31799W        W38399   0.182   0.723  41.317 -0.0798 -0.0614  0.2118
31800W        W38400   6.417   4.716  14.510 -0.0017  0.0109  0.0301
31801W        W38401  12.306   1.164  10.797 -0.0832 -0.4581  0.0124
31802W        W38402   9.952   0.041  37.204 -0.0949  0.0384 -0.0313
31803W        W38403   4.169   3.048  12.077 -0.0034  0.0732  0.1987
31804W        W38404  20.406   1.713   3.101  0.0287  0.1281 -0.3015
31805W        W38405   9.680   4.636   5.059  0.1011 -0.1410 -0.1107
31806W        W38406   5.357   0.687   7.952  0.0772 -0.1735  0.1558
31807W        W38407   5.421   2.803   2.944  0.0022  0.0249  0.1518
31808W        W38408   1.529   4.913   1.125  0.0405  0.3915 -0.0214
31809W        W38409   4.825   4.915  29.088  0.1678 -0.1946 -0.1332
31810W        W38410  20.902   2.984  43.632 -0.1960  0.4517  0.3342
31811W        W38411  13.635   3.320  16.030 -0.3305  0.1019  0.0799
31812W        W38412   3.391   2.751   6.974 -0.1122 -0.5023  0.1023
31813W        W38413   8.095   5.879   7.720  0.0918  0.1238  0.1945
31814W        W38414   4.512   2.479  32.531 -0.0187  0.4132 -0.0223
31815W        W38415   1.990   0.255  25.735  0.1348  0.1483 -0.0766
31816W        W38416  18.158   4.974  34.364 -0.0287 -0.2504 -0.0787
31817W        W38417   1.482   1.094   6.867 -0.1048 -0.1404 -0.1103
31818W        W38418  19.907   1.744  31.723 -0.1527  0.1587  0.1498
31819W        W38419  14.056   3.441  13.545  0.0392 -0.0503 -0.1170
31820W        W38420  10.963   1.224   0.223 -0.0223  0.2272 -0.2687
31821W        W38421   6.005   3.067   9.944  0.0418 -0.0342 -0.0006
31822W        W38422   6.336   3.065  14.917 -0.2166 -0.2824 -0.0130
31823W        W38423  20.893   2.819   7.257 -0.1857  0.0411 -0.1726
31824W        W38424  19.908   5.921  34.126 -0.1221 -0.0386 -0.2589
31825W        W38425  10.934   5.000   6.652  0.0445 -0.1041 -0.1800
31826W        W38426  15.813   2.769   7.377  0.1123 -0.1149  0.3742
31827W        W38427  18.472   2.411   4.002 -0.3557 -0.1055 -0.0328
31828W        W38428  18.296   2.394   3.506 -0.0992 -0.1367 -0.0790
31829W        W38429   3.177   5.492  30.292  0.3657  0.0129  0.0007
31830W        W38430   6.075   0.555  37.996  0.2622 -0.3226 -0.1624
31831W        W38431  15.855   2.935  33.151 -0.0539  0.0264  0.0130
31832W        W38432  14.805   6.199  14.237 -0.0708 -0.0535 -0.1894
31833W        W38433   0.974   3.054   5.697  0.1004  0.2223 -0.2199
31834W        W38434  20.845   4.661   2.782  0.0640  0.1218  0.0187
31835W        W38435  12.443   3.166  18.426 -0.1460 -0.1886  0.0934
31836W        W38436  10.040   1.082  39.417 -0.4052 -0.0472 -0.3527
31837W        W38437  10.752   2.003  25.933 -0.0021 -0.0633  0.0936
31838W        W38438   9.499   0.035  18.700  0.0222  0.0946  0.0988
31839W        W38439  13.162   0.585  11.824  0.1841 -0.0861  0.2544
31840W        W38440  17.505   1.726  28.292  0.1626  0.0730  0.2459
31841W        W38441  21.028   5.992  42.426  0.1814 -0.0418  0.0799
31842W        W38442  11.485   2.398  14.835 -0.0018  0.4870  0.1639
31843W        W38443  20.217   1.541  39.999  0.0285  0.1317  0.0509
31844W        W38444  19.243   6.440   9.883  0.0446  0.0729  0.2893
31845W        W38445  20.500   4.655  14.425  0.0700  0.3875 -0.2479
31846W        W38446   2.923   3.762  42.789 -0.3061  0.0927  0.1361
31847W        W38447   9.678   0.633  15.526  0.1462  0.2636  0.0754
31848W        W38448   5.092   2.858  34.359  0.1925 -0.1234 -0.1621
31849W        W38449   5.041   3.183  30.749  0.3759 -0.2849  0.1445
31850W        W38450  11.110   2.852  22.146 -0.1645 -0.1637 -0.2835
31851W        W38451  11.242   6.489  17.290 -0.2156 -0.1575  0.0363
31852W        W38452   2.417   4.451  36.937 -0.0265 -0.1374  0.1570
31853W        W38453   0.306   5.082  37.961 -0.1348  0.1097  0.0262
31854W        W38454   9.758   6.556  20.162  0.3215 -0.0231  0.2865
31855W        W38455   9.998   0.150   3.277  0.0187  0.0966 -0.2686
31856W        W38456   9.751   1.714  18.444 -0.0166  0.2043 -0.0304
31857W        W38457  11.684   0.835  38.473 -0.2254  0.1080  0.2550
31858W        W38458   9.050   3.909   1.355  0.2192 -0.4175 -0.2251
31859W        W38459   9.357   5.148   9.673 -0.0217 -0.1283 -0.0467
31860W        W38460   9.498   3.628  31.731  0.0069 -0.0208 -0.1269
31861W        W38461   8.231   1.262  34.967 -0.1716  0.3416  0.0257
31862W        W38462   6.053   2.685  16.822  0.1344  0.1833  0.0243
31863W        W38463  14.083   3.538  11.322  0.1209  0.2664 -0.1434
31864W        W38464   6.641   4.096   7.452 -0.0957 -0.1009  0.0323
31865W        W38465   0.260   2.612  32.137 -0.1003  0.1487 -0.0468
31866W        W38466   7.444   5.111  42.176  0.0853  0.0185  0.0070
31867W        W38467  15.480   0.327  35.133  0.0145  0.1642 -0.2304
31868W        W38468   5.094   2.768  14.654 -0.2199 -0.2389 -0.2181
31869W        W38469  17.317   3.334  16.534 -0.0187 -0.4130 -0.1232
31870W        W38470  11.022   6.262  14.936  0.1632  0.1756 -0.0071
31871W        W38471  12.056   6.059  29.341 -0.0672 -0.0293 -0.0725
31872W        W38472  11.316   1.118  21.936  0.0877 -0.0541  0.2200
31873W        W38473  19.192   4.923  38.813 -0.0714 -0.0689  0.3286
31874W        W38474   5.723   2.747  38.290  0.2797  0.0645 -0.2636
31875W        W38475   5.426   2.654  15.081 -0.2527 -0.2306  0.2022
31876W        W38476  12.012   3.673   2.078 -0.1430 -0.0937 -0.0194
31877W        W38477   0.288   1.878  41.744 -0.2978 -0.4465 -0.4247
31878W        W38478  19.004   0.637  41.117 -0.1594 -0.5814  0.0179
31879W        W38479   7.839   6.341  40.525 -0.0175  0.4093  0.2498
31880W        W38480  11.181   1.341  43.678  0.1913 -0.1373  0.2913
31881W        W38481   7.790   4.091  30.450  0.0640  0.4931 -0.1411
31882W        W38482  18.900   4.551  40.501 -0.2828  0.2145 -0.1363
31883W        W38483  14.067   4.077   2.507  0.1088 -0.1267 -0.2741
31884W        W38484   6.286   3.218  33.436 -0.1315  0.1066 -0.0328
31885W        W38485  19.239   5.903  39.199 -0.2235 -0.0941 -0.1984
31886W        W38486  10.202   2.028   2.308 -0.0015  0.1715 -0.0033
31887W        W38487  16.289   0.351  25.377  0.4060  0.1898 -0.0466
31888W        W38488   9.993   6.200  40.687  0.1851  0.1170 -0.2034
31889W        W38489   8.985   6.154  32.337 -0.2838  0.2353  0.3051
31890W        W38490  17.556   1.897  31.687  0.0301 -0.2000  0.1068
31891W        W38491  19.675   5.570   1.201  0.0471  0.3067 -0.0175
31892W        W38492   4.070   2.960  38.342  0.1420  0.1900 -0.1988
31893W        W38493  12.105   3.195  35.738  0.0016  0.2319  0.2896
31894W        W38494  10.644   5.463   9.390  0.0915 -0.0562  0.0473
31895W        W38495   3.804   5.998  43.402  0.0698 -0.0735  0.1648
31896W        W38496  11.945   2.127  15.283 -0.0510  0.2235  0.1207
31897W        W38497   7.850   2.277   6.128  0.1465  0.0158  0.0525
31898W        W38498   0.732   3.781   9.000  0.2179 -0.0513  0.3508
31899W        W38499  20.723   3.454  39.520  0.1827  0.0227 -0.0528
31900W        W38500   3.410   6.055  28.103  0.0339  0.3178 -0.0105
31901W        W38501  20.434   5.645   3.198  0.1489  0.1114  0.0911
31902W        W38502   9.520   5.704   7.722  0.2288 -0.1174  0.0560
31903W        W38503  12.721   6.452   1.880  0.0522  0.0618  0.0426
31904W        W38504  13.820   1.684  18.705 -0.0638 -0.0016 -0.2250
31905W        W38505  17.492   0.063  31.831  0.0588 -0.2466 -0.0475
31906W        W38506  18.377   3.710  41.385  0.0982  0.0282  0.1984
31907W        W38507   3.567   2.361   0.506 -0.1661 -0.1964 -0.0596
31908W        W38508  13.948   5.134  39.942 -0.1564 -0.1181  0.1487
31909W        W38509  17.307   5.690   5.215  0.0506 -0.3804 -0.1225
31910W        W38510   4.940   1.524  39.038  0.0006  0.1074  0.0692
31911W        W38511  11.082   0.094  14.538 -0.0897 -0.3289  0.3479
31912W        W38512   5.801   4.582   1.105  0.2308 -0.0141 -0.0408
31913W        W38513  13.688   3.398  31.510  0.5224  0.1239  0.2772
31914W        W38514  14.382   0.014  18.535  0.1639  0.1011 -0.2242
31915W        W38515  19.287   4.549  13.302 -0.3217 -0.0669 -0.1992
31916W        W38516   8.916   3.885   4.387  0.1385 -0.1237 -0.0416
31917W        W38517  17.678   5.840   6.519  0.1101  0.0028 -0.0638
31918W        W38518   2.820   2.824  34.251 -0.0142 -0.1030  0.1947
31919W        W38519  14.103   4.186  41.232 -0.0363  0.3066 -0.0236
31920W        W38520  11.079   4.482  33.587 -0.1563 -0.0443  0.0344
31921W        W38521   0.636   3.794  37.852 -0.1797  0.1893 -0.2514
31922W        W38522   4.041   5.252  31.463 -0.0719 -0.1176  0.0632
31923W        W38523   9.619   3.521   4.753 -0.0098  0.0597  0.1506
31924W        W38524  16.266   0.672   8.761  0.0241 -0.1728 -0.1502
31925W        W38525   3.667   6.401   2.361  0.0170 -0.1432  0.2393
31926W        W38526   4.715   3.351  38.826  0.1189  0.1567 -0.1088
31927W        W38527   9.906   3.857  29.163  0.1420 -0.3753  0.1267
31928W        W38528   9.327   1.051  20.517  0.0679  0.0368 -0.1758
31929W        W38529  19.734   0.290  38.142 -0.2475  0.1587 -0.0789
31930W        W38530   4.384   6.538  32.718 -0.3534  0.0663 -0.1355
31931W        W38531  17.335   5.695  42.359 -0.2341  0.2770  0.0506
31932W        W38532   4.827   3.746  35.811 -0.1577  0.0916  0.1039
31933W        W38533   7.473   4.742  34.095  0.1461  0.2153  0.4523
31934W        W38534  15.078   3.666  15.536  0.2470 -0.3192  0.2568
31935W        W38535   4.500   3.830  14.286 -0.1242 -0.0531  0.0789
31936W        W38536   7.836   2.989  21.959 -0.0125  0.0106 -0.3399
31937W        W38537   0.351   0.335   5.086 -0.1041 -0.0100  0.1108
31938W        W38538  17.922   4.385   2.010 -0.0855 -0.2154 -0.0306
31939W        W38539  12.216   1.673  29.491 -0.0828 -0.4512 -0.3612
31940W        W38540  11.089   1.051  22.359 -0.3020 -0.1342  0.0888
31941W        W38541  21.057   0.197   1.469  0.2620  0.0414  0.2170
31942W        W38542  20.248   0.130   7.280 -0.1560 -0.2753 -0.2872
31943W        W38543  18.911   1.492  13.133  0.0257  0.0221  0.1377
31944W        W38544   5.743   3.460  37.632 -0.1326  0.1282  0.1612
31945W        W38545  18.235   2.760   7.824  0.2767  0.1315 -0.0019
31946W        W38546   5.974   5.410   4.001 -0.0502  0.0931  0.0192
31947W        W38547  14.860   5.374  41.568 -0.1152 -0.0890  0.0041
31948W        W38548   9.826   5.277  30.073  0.0420  0.1974 -0.0582
31949W        W38549   1.402   2.682  38.232  0.0938  0.2003  0.2247
31950W        W38550  11.004   6.087  14.442 -0.0786  0.0368 -0.0040
31951W        W38551   9.094   3.589   1.782  0.1763  0.1987  0.0126
31952W        W38552   9.209   6.437   2.118 -0.0790  0.2819  0.0702
31953W        W38553  10.384   2.029  11.969  0.1019 -0.0348  0.0337
31954W        W38554  13.704   5.089   5.501  0.2498  0.0469 -0.1900
31955W        W38555  20.201   4.524  20.584 -0.4135 -0.1340 -0.2094
31956W        W38556  17.711   5.511   7.848  0.0161 -0.1486  0.0774
31957W        W38557  14.604   6.138   7.833 -0.1667  0.1454  0.0785
31958W        W38558  11.795   2.841  43.656 -0.0453  0.0317  0.0644
31959W        W38559  17.819   0.365  10.587 -0.2016  0.0355 -0.1224
31960W        W38560   6.693   1.973  29.201  0.0717 -0.2166  0.0678
31961W        W38561  21.104   6.550   7.466  0.0582  0.0960 -0.3262
31962W        W38562   2.799   5.498  14.254  0.2207  0.0745 -0.0311
31963W        W38563  12.357   2.563  42.533  0.0717 -0.1798  0.0558
31964W        W38564  10.539   6.589  10.026  0.0744 -0.2063  0.0970
31965W        W38565  17.379   5.020  33.228 -0.0112  0.4140  0.0743
31966W        W38566  11.239   2.676  22.613 -0.0234 -0.3319  0.0888
31967W        W38567   8.208   1.015   1.727 -0.0328  0.1934  0.0541
31968W        W38568  14.403   2.053   1.383  0.1826 -0.2464 -0.1989
31969W        W38569  18.041   1.675  28.141  0.4241  0.0797 -0.2544
31970W        W38570  10.369   2.542  42.457 -0.0338  0.0484 -0.1154
31971W        W38571   0.772   6.600   5.004 -0.3278  0.0247  0.2640
31972W        W38572   9.947   1.404  22.421  0.1043 -0.1119 -0.4144
31973W        W38573   7.764   0.000  37.383 -0.1764  0.1198  0.3785
31974W        W38574   6.590   6.156  39.789 -0.0353  0.1027  0.0559
31975W        W38575  12.552   0.547   5.144  0.0960  0.1643  0.0065
31976W        W38576   3.894   3.950  39.170  0.2547  0.0164 -0.3543
31977W        W38577   6.141   3.010  19.167 -0.1674  0.0388 -0.2611
31978W        W38578   1.050   0.525  40.712 -0.0775  0.1718 -0.2758
31979W        W38579   8.633   3.968  11.830  0.1169  0.1299  0.0157
31980W        W38580   2.771   6.403  27.470 -0.0275  0.0761 -0.0181
31981W        W38581   8.698   2.336  24.957  0.0619 -0.1064 -0.0403
31982W        W38582   8.627   3.834  31.634 -0.1503  0.0031 -0.1548
31983W        W38583  19.183   1.231  23.467  0.1233 -0.0113 -0.1034
31984W        W38584   2.646   2.209  26.718 -0.0816 -0.0361 -0.2208
31985W        W38585  14.128   1.779   5.027  0.3120 -0.1135 -0.0419
31986W        W38586   8.421   5.744  38.897  0.5568 -0.0008 -0.6018
31987W        W38587   0.924   1.922  38.535  0.2453 -0.0394 -0.4253
31988W        W38588  13.452   0.194  30.500 -0.0616  0.0842 -0.3110
31989W        W38589   7.059   5.907  33.522  0.1257 -0.0018 -0.0515
31990W        W38590  17.474   5.676  13.911  0.1786  0.0251 -0.1244
31991W        W38591  18.258   5.596  12.667  0.0142 -0.2454 -0.0040
31992W        W38592  19.483   3.700   8.783 -0.0837 -0.0203  0.3128
31993W        W38593  10.040   4.777  36.380 -0.0666 -0.0785 -0.3519
31994W        W38594  10.703   4.317  32.603  0.0693  0.1081  0.1977
31995W        W38595   9.033   5.079  25.329 -0.3264  0.0294  0.1201
31996W        W38596   2.134   2.371  44.924 -0.0627 -0.0455  0.0288
31997W        W38597   0.295   5.188  24.229  0.0670  0.0113  0.0941
31998W        W38598  19.555   4.735   2.842  0.2620 -0.0150  0.0014
31999W        W38599   9.285   2.583  22.895  0.3402  0.1310 -0.1894
32000W        W38600   4.573   4.939  16.364  0.2340 -0.1576  0.0525
32001W        W38601   7.710   4.034  44.495 -0.1544  0.2289  0.1883
32002W        W38602  14.028   4.876  13.683 -0.3245 -0.1385 -0.2195
32003W        W38603   4.763   4.195  10.661 -0.0802  0.0907  0.0214
32004W        W38604   2.953   0.270   3.611  0.2969 -0.1595 -0.0953
32005W        W38605  20.055   3.147   9.322  0.1555  0.1057  0.0886
32006W        W38606  14.183   1.592  16.315  0.1391  0.2012  0.2295
32007W        W38607  15.945   6.306  28.883 -0.0563 -0.0483 -0.0190
32008W        W38608  20.714   2.685  26.820 -0.1597  0.0867 -0.0496
32009W        W38609  20.237   5.917  13.054  0.0764 -0.0633  0.1021
32010W        W38610  13.366   0.463  43.869 -0.2505 -0.2696 -0.2344
32011W        W38611  11.023   4.914  19.860 -0.3268  0.1122 -0.4784
32012W        W38612   9.962   3.401  19.855  0.1261  0.0277  0.1013
32013W        W38613  17.373   3.108  17.013  0.2479  0.1205  0.0443
32014W        W38614  14.165   3.969  41.831  0.0312 -0.0355  0.1149
32015W        W38615   6.983   3.732  13.544  0.0265 -0.1669  0.2564
32016W        W38616   1.527   3.894  38.801  0.0512 -0.0253  0.3132
32017W        W38617   1.145   2.718  32.906  0.3141 -0.0325  0.0955
32018W        W38618  15.978   1.357  16.884 -0.2302 -0.1808 -0.3533
32019W        W38619   4.164   0.962  12.318  0.0294 -0.0943 -0.0139
32020W        W38620   8.345   4.986  35.076  0.2381  0.1179 -0.0190
32021W        W38621  20.718   0.736  30.654  0.1449  0.2706 -0.0448
32022W        W38622   6.062   3.610  35.481 -0.2438 -0.3999  0.4276
32023W        W38623   0.300   4.415  28.822 -0.1918 -0.3692  0.1943
32024W        W38624   7.219   0.793  30.254 -0.3100  0.1234 -0.2079
32025W        W38625   1.288   0.873  31.355 -0.0840  0.0930  0.0764
32026W        W38626   1.338   3.084  25.122  0.0032 -0.0646  0.1941
32027W        W38627   8.790   0.611   4.881  0.1121  0.1748 -0.3020
32028W        W38628  11.554   1.154   0.506  0.0692 -0.2194 -0.0826
32029W        W38629  11.334   2.099   9.408 -0.2229  0.0809  0.3125
32030W        W38630  18.491   0.768  41.589 -0.2978  0.1410 -0.0164
32031W        W38631  10.888   0.463  18.477  0.2235 -0.1632  0.1885
32032W        W38632  20.485   5.815  21.228  0.0103 -0.0520  0.0984
32033W        W38633   4.738   4.988  30.418  0.0216  0.3364 -0.1965
32034W        W38634  17.780   3.175  30.352  0.0263  0.0080 -0.1246
32035W        W38635  14.774   0.317   9.335 -0.0408  0.0644  0.0991
32036W        W38636  18.832   4.174  31.774 -0.1048 -0.1402 -0.1059
32037W        W38637  12.654   4.914  12.869  0.1037 -0.0048 -0.0857
32038W        W38638  20.477   6.070  37.716  0.0794  0.1189 -0.4159
32039W        W38639   0.465   5.561   2.542  0.2554  0.2578 -0.0731
32040W        W38640   2.898   3.847   1.367 -0.2542  0.1711  0.0790
32041W        W38641  11.679   3.404   3.472  0.1984 -0.3309  0.2574
32042W        W38642  15.975   5.368  40.286 -0.6318  0.2246  0.3261
32043W        W38643   6.307   1.880   2.797 -0.0376 -0.0311  0.0628
32044W        W38644   5.215   1.800  39.239  0.0725 -0.1583  0.0523
32045W        W38645  17.759   0.218  44.590  0.0301  0.0321  0.0026
32046W        W38646  20.184   3.932  38.082 -0.1669 -0.3283  0.0022
32047W        W38647  12.691   6.161   7.942  0.1744  0.0614 -0.0913
32048W        W38648  10.032   1.564   5.768  0.1539 -0.1557  0.3670
32049W        W38649   0.019   0.568  40.426  0.1695 -0.1914 -0.0673
32050W        W38650  10.833   0.189   4.239 -0.0011  0.2780 -0.0750
32051W        W38651  18.500   3.557  25.106  0.0951  0.1889 -0.2133
32052W        W38652   9.917   4.065  25.740 -0.2454 -0.1657 -0.2249
32053W        W38653   2.623   3.411   2.282  0.0969  0.4523 -0.1336
32054W        W38654   6.919   5.076  17.794  0.0740  0.1254  0.2331
32055W        W38655   2.650   5.246   6.688  0.0082  0.0683  0.2549
32056W        W38656  12.477   6.546  38.226  0.2054  0.3432  0.0106
32057W        W38657  20.893   4.150  21.546  0.0169  0.1573  0.0301
32058W        W38658  19.062   3.553  33.600  0.2965 -0.0175  0.2201
32059W        W38659   2.576   6.413  31.992 -0.0593  0.2945  0.1202
32060W        W38660   7.061   4.785   9.287 -0.1097 -0.2288 -0.1034
32061W        W38661  12.097   4.027  20.920  0.2076 -0.1871 -0.0681
32062W        W38662   0.502   5.908  15.117  0.2170 -0.0449  0.0303
32063W        W38663  18.435   4.527  26.795 -0.1927 -0.0509  0.0270
32064W        W38664  19.602   2.816   8.274 -0.2415  0.0918  0.2770
32065W        W38665   5.806   0.293  39.762  0.0046  0.0478  0.3786
32066W        W38666   7.026   5.939  43.644 -0.1674 -0.1384 -0.0656
32067W        W38667   9.441   2.616  39.306  0.1360  0.0017 -0.0624
32068W        W38668  18.601   0.650   1.203  0.3882 -0.3209  0.0113
32069W        W38669  13.981   5.766  12.246 -0.1089  0.0625  0.0367
32070W        W38670  20.520   3.839   4.749 -0.1567 -0.2783  0.1148
32071W        W38671   8.443   3.271  15.856 -0.1457 -0.5316  0.1160
32072W        W38672  13.172   2.718  43.718  0.2005  0.2810  0.0209
32073W        W38673   8.726   0.276  33.660 -0.2854  0.3372 -0.3092
32074W        W38674   9.689   4.700  12.375 -0.3742 -0.0715  0.3547
32075W        W38675  17.428   2.741  11.189 -0.0420 -0.2458  0.1552
32076W        W38676  13.452   6.514  36.459 -0.0873 -0.2337  0.0102
32077W        W38677  13.696   3.051   9.946 -0.1450 -0.0355  0.4050
32078W        W38678   3.004   1.775  43.657 -0.1350  0.1124  0.0522
32079W        W38679  11.533   6.598  21.083 -0.0159  0.2032  0.3223
32080W        W38680   7.648   2.712   5.979 -0.0045  0.1580 -0.1573
32081W        W38681   9.531   2.267  29.720 -0.1745  0.1415 -0.2378
32082W        W38682   0.643   2.029  33.862  0.0276 -0.1830  0.3052
32083W        W38683   3.896   6.320  27.417 -0.1564 -0.1221 -0.0868
32084W        W38684   7.705   1.812  11.993  0.1328 -0.0571  0.1098
32085W        W38685   0.780   5.298  25.865  0.1201  0.1738 -0.0580
32086W        W38686   8.995   0.693  20.416 -0.0477  0.1315 -0.0730
32087W        W38687   3.957   2.385  18.620  0.3285 -0.1149 -0.0284
32088W        W38688  14.736   2.161  12.429 -0.3520  0.0585  0.0513
32089W        W38689   4.564   4.408  12.511  0.1008 -0.1195 -0.1743
32090W        W38690  19.103   6.232  41.988 -0.3139  0.0715  0.1199
32091W        W38691   7.743   0.205  33.783  0.1656 -0.2580 -0.1125
32092W        W38692  13.707   2.314  39.225 -0.1196 -0.0465  0.0524
32093W        W38693   7.612   4.143  18.250  0.1632 -0.1171  0.0039
32094W        W38694   2.344   1.302  15.946 -0.1051  0.0448 -0.1931
32095W        W38695  16.333   3.302  44.724 -0.0905 -0.1188  0.3036
32096W        W38696   2.621   5.538  30.457  0.1047 -0.0634  0.1219
32097W        W38697   1.249   4.439  24.510 -0.4504  0.1230  0.1309
32098W        W38698   2.745   5.482   6.219 -0.1367  0.1663 -0.1240
32099W        W38699   2.138   1.165  27.676 -0.0357  0.2068 -0.1929
32100W        W38700  10.796   4.261  28.559 -0.0340  0.0520 -0.1140
32101W        W38701   4.949   6.412  33.448 -0.0283 -0.1322 -0.1381
32102W        W38702  19.083   3.182  30.767 -0.0775 -0.0194 -0.1782
32103W        W38703  18.861   0.578  27.085  0.0426 -0.1851  0.2672
32104W        W38704  16.917   2.554  11.274  0.1163  0.1102  0.1413
32105W        W38705  12.530   4.726   0.373 -0.1821 -0.1969 -0.1195
32106W        W38706  11.312   2.777  10.800 -0.2890  0.0534  0.0833
32107W        W38707   5.303   1.312  36.546  0.0165 -0.0162 -0.2334
32108W        W38708  15.224   2.023  13.833 -0.0261  0.1442 -0.0715
32109W        W38709   2.477   6.584  30.584  0.1845  0.2049 -0.1929
32110W        W38710  11.729   1.787   0.281 -0.2064  0.1025  0.1864
32111W        W38711   7.486   1.732   0.941 -0.0897  0.1984 -0.2182
32112W        W38712   5.785   0.944   5.449  0.0398  0.2126 -0.2335
32113W        W38713   4.244   3.465  35.327  0.0307 -0.2190  0.1088
32114W        W38714  15.573   4.761   6.437 -0.0501 -0.0995 -0.1868
32115W        W38715  20.123   2.261   1.907 -0.1018 -0.0397  0.4527
32116W        W38716   1.898   6.115   5.400  0.3180  0.2674  0.0642
32117W        W38717   9.250   3.494  16.149  0.0159  0.2327  0.0470
32118W        W38718  12.588   3.038   7.119 -0.3202 -0.1614  0.0957
32119W        W38719  19.988   4.900  28.399  0.3035  0.1665  0.1777
32120W        W38720   8.876   3.837   2.271 -0.2070  0.0374  0.1704
32121W        W38721  12.229   5.515  34.658 -0.1863 -0.0368  0.3043
32122W        W38722  17.554   1.410  23.510 -0.0691  0.0265 -0.0319
32123W        W38723   6.372   4.266  17.124 -0.1180 -0.1519 -0.2313
32124W        W38724   7.569   5.717   3.054  0.2566 -0.4483  0.0931
32125W        W38725  16.094   3.361  25.217 -0.0853  0.3342 -0.2311
32126W        W38726  18.501   2.570  44.103 -0.1307  0.0733 -0.0108
32127W        W38727  19.978   4.643   4.519  0.0585  0.0377 -0.3284
32128W        W38728   4.709   2.681  13.734 -0.0541  0.0060 -0.1663
32129W        W38729   0.052   6.536  39.209 -0.1589 -0.1033  0.2010
32130W        W38730   4.617   4.020   9.131 -0.2647  0.2033 -0.1063
32131W        W38731   7.748   4.029  12.463 -0.1047  0.1877 -0.1709
32132W        W38732   5.631   0.229   6.339 -0.0736  0.0471  0.3368
32133W        W38733  15.860   1.958   1.217  0.2511 -0.1699  0.0729
32134W        W38734   2.759   6.510   1.151 -0.1688  0.0953 -0.1739
32135W        W38735  18.082   6.138  12.653 -0.0466  0.4540  0.0888
32136W        W38736  13.938   4.523  18.585 -0.0679 -0.0016  0.0652
32137W        W38737   2.122   0.789  35.948 -0.1310 -0.2131 -0.1395
32138W        W38738  10.782   2.849  42.795  0.0689 -0.0281  0.4513
32139W        W38739   0.869   6.527   7.458 -0.0612  0.0667  0.0580
32140W        W38740   2.888   6.197  11.802 -0.1585  0.1580 -0.1066
32141W        W38741  13.885   6.054  41.448 -0.1897 -0.0360  0.0781
32142W        W38742  19.841   0.281  21.390  0.0285  0.4216  0.0015
32143W        W38743   3.844   0.986  40.743  0.0495  0.0439 -0.1142
32144W        W38744  14.840   6.373  37.000 -0.3031 -0.2921 -0.1015
32145W        W38745  12.963   0.529  43.200 -0.0072  0.1350  0.1697
32146W        W38746  20.568   3.604  25.435  0.0132 -0.3262 -0.3350
32147W        W38747   7.830   0.448  34.443  0.0282 -0.1346  0.0815
32148W        W38748   8.680   4.817   0.281  0.3936 -0.1684  0.2051
32149W        W38749  19.226   6.060  31.684  0.2748  0.0443  0.1048
32150W        W38750   3.143   1.968  39.704  0.1433 -0.0084  0.2779
32151W        W38751  10.051   3.127   8.254  0.3536 -0.3390 -0.0703
32152W        W38752   0.422   6.177  12.570  0.3751  0.2354  0.2517
32153W        W38753   5.887   4.479   3.966 -0.0285  0.0009  0.0336
32154W        W38754  18.138   5.159  28.763 -0.3059 -0.2236  0.2960
32155W        W38755  13.789   3.573   8.691 -0.1849 -0.0760 -0.1863
32156W        W38756  10.821   0.558  21.362 -0.0138  0.0722  0.0422
32157W        W38757   2.171   1.771   6.221  0.4579 -0.1011  0.0030
32158W        W38758  14.710   1.265   7.750  0.1460  0.0132  0.1026
32159W        W38759  19.952   4.192  19.756  0.1435  0.0114  0.0523
32160W        W38760   3.364   0.577  12.733 -0.1984  0.0188 -0.0790
32161W        W38761   0.786   0.089  24.134  0.0888  0.1554 -0.1879
32162W        W38762  10.866   0.705  38.637  0.0197 -0.2168  0.2130
32163W        W38763   5.805   4.345   6.339  0.0963 -0.0669 -0.1701
32164W        W38764  10.021   3.085   0.973 -0.0630  0.2310 -0.1491
32165W        W38765  18.677   3.043   5.841 -0.0344 -0.0394  0.1068
32166W        W38766   5.653   1.498  38.515 -0.3950 -0.2164  0.0687
32167W        W38767   7.856   5.898  13.492 -0.5735 -0.1533  0.0801
32168W        W38768   6.467   4.924  34.916 -0.1183  0.1411  0.1718
32169W        W38769  19.281   3.030  36.952  0.1218 -0.2436  0.2032
32170W        W38770   4.659   4.704  14.266  0.3017  0.0376  0.1303
32171W        W38771   9.289   6.495  12.643 -0.1818 -0.1301 -0.1849
32172W        W38772   7.314   4.406  29.950 -0.1340 -0.0268 -0.0768
32173W        W38773  12.569   0.085  30.542 -0.2118  0.0004  0.3375
32174W        W38774  20.436   6.583   1.579 -0.1316  0.0512 -0.2870
32175W        W38775   5.314   0.094   9.382 -0.2933  0.3265  0.2128
32176W        W38776   0.157   4.238  16.104  0.3360 -0.1586  0.2034
32177W        W38777   6.264   4.663  44.095  0.0248 -0.1914 -0.0275
32178W        W38778  17.895   1.693  10.613  0.0894 -0.0523 -0.2185
32179W        W38779  17.674   5.671  43.004 -0.0994 -0.0141 -0.0240
32180W        W38780   1.328   5.821  30.190  0.0729  0.0829 -0.1230
32181W        W38781  19.894   0.827  20.612  0.0021 -0.1589 -0.2233
32182W        W38782   4.781   1.290  34.400  0.0147  0.1600 -0.1006
32183W        W38783   5.868   4.797  16.815 -0.0556  0.3520 -0.1376
32184W        W38784  17.187   6.221  38.559 -0.0452 -0.2602  0.1152
32185W        W38785   4.751   0.122  42.792  0.1724 -0.0079  0.0115
32186W        W38786   7.267   3.068   7.429  0.0314 -0.0144 -0.1938
32187W        W38787  12.607   1.509   9.988  0.0437 -0.0604 -0.2967
32188W        W38788  13.766   1.459  38.508 -0.2241 -0.0520 -0.1207
32189W        W38789   8.659   0.924  40.417 -0.2203 -0.3649  0.0957
32190W        W38790  11.797   1.948  12.945  0.0020 -0.1032 -0.3797
32191W        W38791   5.342   3.547  13.389 -0.0258 -0.0888  0.1757
32192W        W38792  19.107   3.414  22.864  0.0180 -0.0936  0.1307
32193W        W38793  18.090   3.671  24.109 -0.0793  0.0613 -0.1949
32194W        W38794  16.407   5.557   5.082 -0.1379 -0.0416 -0.1310
32195W        W38795  14.464   3.955  29.418  0.0752 -0.0234  0.0805
32196W        W38796  11.143   1.439  13.299 -0.0000  0.1009 -0.0736
32197W        W38797   5.931   4.732  15.313  0.1582 -0.0676 -0.2725
32198W        W38798  14.292   2.652  37.173  0.1106  0.2548 -0.2985
32199W        W38799  13.480   2.015  40.429  0.1477  0.0604 -0.1252
32200W        W38800   6.941   5.724  30.294 -0.1924 -0.0837  0.2115
32201W        W38801  14.983   5.236   5.836  0.2660 -0.0585 -0.1005
32202W        W38802   2.028   4.388   9.370  0.0552 -0.0157  0.2990
32203W        W38803   3.635   5.453   5.678 -0.0704  0.0295  0.0325
32204W        W38804   8.233   3.578  14.917  0.0393 -0.2000 -0.4908
32205W        W38805   5.162   3.639   6.718 -0.2170 -0.1002  0.0558
32206W        W38806   5.303   5.064   8.584 -0.0702  0.3539 -0.0074
32207W        W38807   7.361   5.270  36.496 -0.2076 -0.0835 -0.0473
32208W        W38808   7.231   3.926  15.004  0.0721 -0.3805 -0.1220
32209W        W38809  20.571   1.428  40.728 -0.2126  0.2417 -0.3316
32210W        W38810   3.432   4.353  44.782 -0.1634 -0.1585 -0.0744
32211W        W38811  17.902   4.170  26.933  0.2874 -0.0190 -0.1549
32212W        W38812   6.821   2.003   5.760 -0.1825 -0.1441 -0.2348
32213W        W38813   0.554   2.049  15.048 -0.0282 -0.1654  0.3479
32214W        W38814  16.219   2.452   9.073  0.6405 -0.2879  0.0290
32215W        W38815   5.266   4.327  18.140 -0.3549  0.0896  0.1202
32216W        W38816  11.204   1.438  17.384  0.0943 -0.2501 -0.0619
32217W        W38817   2.775   5.996  32.147  0.0446  0.0379 -0.2817
32218W        W38818  16.101   1.364  15.430  0.0390 -0.1811  0.3385
32219W        W38819  17.084   5.860  30.252  0.0315  0.3807  0.2217
32220W        W38820   2.912   0.037  38.363 -0.1734 -0.0087 -0.1674
32221W        W38821  13.772   5.520  41.552 -0.0132 -0.1304 -0.0220
32222W        W38822  10.284   1.901  19.461  0.0845  0.1479 -0.1985
32223W        W38823  14.541   2.727  41.421 -0.2324  0.1809  0.1398
32224W        W38824   1.732   1.456  10.343 -0.3990 -0.0829 -0.0451
32225W        W38825   8.392   5.634  22.894 -0.1101  0.1763  0.0882
32226W        W38826   3.954   0.397  43.279 -0.3155 -0.0427 -0.1141
32227W        W38827  11.270   6.135   1.540  0.0541 -0.3529 -0.1284
32228W        W38828  19.670   6.007  20.788  0.1092 -0.0484  0.1448
32229W        W38829  16.033   1.107  10.639 -0.0883  0.2967  0.1879
32230W        W38830   8.440   6.151  29.424  0.1315  0.1357 -0.0550
32231W        W38831  12.903   5.481  15.043 -0.0407  0.0562  0.4172
32232W        W38832   7.444   2.287  21.728  0.2813 -0.2101  0.1275
32233W        W38833  15.189   5.031  44.901  0.2473  0.2905  0.3719
32234W        W38834   5.488   4.210  35.367 -0.1490  0.0180  0.2122
32235W        W38835   3.492   4.036  31.909  0.2056 -0.1191 -0.0101
32236W        W38836  21.037   3.343   0.735 -0.1893  0.1220  0.1851
32237W        W38837  16.761   6.205  16.214  0.0313  0.1639 -0.0399
32238W        W38838   4.759   5.926  12.519  0.0748 -0.0784 -0.1501
32239W        W38839  16.395   6.217  39.047 -0.0191  0.0778  0.2955
32240W        W38840   0.153   3.403  34.280  0.2445 -0.0952 -0.0949
32241W        W38841  13.676   3.562  29.188 -0.2520 -0.3906 -0.1322
32242W        W38842  16.840   6.545  31.901  0.1092  0.4122  0.1095
32243W        W38843  18.504   1.774  11.303 -0.0550  0.1647  0.0166
32244W        W38844   3.531   4.996  35.430 -0.0699 -0.0704 -0.2030
32245W        W38845   2.264   5.877   0.326  0.2415  0.3826  0.3152
32246W        W38846   1.190   3.428   3.744 -0.3547  0.3334  0.2720
32247W        W38847  20.808   1.359  29.785  0.1642 -0.1313  0.2263
32248W        W38848   7.465   4.368  13.960 -0.3807  0.2642  0.2362
32249W        W38849  12.543   6.429  10.936 -0.1615  0.2318 -0.0155
32250W        W38850   7.062   4.533  43.793 -0.1537 -0.1683 -0.0490
32251W        W38851   8.845   2.871   7.925  0.0692 -0.0344  0.2680
32252W        W38852  13.595   5.342  43.157 -0.0605  0.0984 -0.0964
32253W        W38853  11.609   4.341  33.585  0.0204  0.0405  0.0656
32254W        W38854  20.540   0.689  36.474  0.1653  0.2396 -0.0847
32255W        W38855  19.390   2.956  20.005  0.2592  0.2517  0.0103
32256W        W38856  10.513   0.279  32.457  0.0978  0.0974 -0.1519
32257W        W38857  21.022   5.235  26.071  0.1302 -0.0956  0.0908
32258W        W38858  14.969   0.002   8.834  0.1206 -0.0098  0.2280
32259W        W38859  13.017   6.600  12.639 -0.3671 -0.0617 -0.2802
32260W        W38860  12.474   6.476   6.924 -0.1352  0.0534 -0.1653
32261W        W38861   8.208   4.263  35.089  0.1371  0.1720  0.0795
32262W        W38862   8.156   3.172  35.688  0.1995  0.0603  0.1456
32263W        W38863   2.274   0.917  15.487 -0.0881 -0.1497  0.0990
32264W        W38864  16.678   2.222  12.417 -0.3167  0.1581  0.1127
32265W        W38865  18.650   0.928  34.348 -0.1739  0.1756 -0.0455
32266W        W38866  15.208   3.197  29.178 -0.2175 -0.0351  0.2940
32267W        W38867  18.128   1.340  26.152 -0.0647  0.2689  0.1765
32268W        W38868  20.802   0.699  12.259 -0.0595  0.0398  0.1283
32269W        W38869  12.650   0.692  11.966 -0.2948  0.0086  0.1267
32270W        W38870   1.719   5.448  15.478  0.1058  0.2624 -0.1314
32271W        W38871  14.861   4.969  44.466  0.4608  0.0521 -0.0665
32272W        W38872   7.552   1.551  19.919 -0.2118  0.0883  0.1226
32273W        W38873  14.857   3.671  27.127 -0.0952  0.1189  0.1267
32274W        W38874  17.485   1.232   9.059  0.0805  0.2044 -0.0710
32275W        W38875   6.038   4.083   6.823 -0.1488 -0.3151  0.1713
32276W        W38876   6.492   1.895  38.569 -0.0639 -0.0229  0.1570
32277W        W38877  17.069   4.133  14.076 -0.4583 -0.0599 -0.0220
32278W        W38878  16.145   3.979  13.371 -0.1116 -0.2225 -0.3194
32279W        W38879  16.630   4.238   2.185 -0.1408 -0.0553  0.0157
32280W        W38880   2.953   1.541   0.922 -0.0962  0.1375  0.0068
32281W        W38881   6.211   0.248  31.776  0.2019  0.2167  0.1426
32282W        W38882  11.569   4.958  36.263 -0.1281 -0.1905  0.2594
32283W        W38883   0.888   3.396  13.248 -0.2877  0.4371 -0.3348
32284W        W38884  14.375   5.355  11.075 -0.2099 -0.3525  0.1656
32285W        W38885  10.634   4.306  23.209 -0.0775 -0.2323  0.1421
32286W        W38886   5.522   0.770  34.552  0.0623  0.0599  0.1091
32287W        W38887  20.598   1.665  36.441 -0.1560  0.0588  0.0284
32288W        W38888  12.510   5.267  44.108 -0.2356 -0.0997 -0.1026
32289W        W38889   9.813   1.233   6.150  0.1258 -0.1300 -0.1215
32290W        W38890   0.370   4.357  30.916  0.1341  0.0544 -0.0276
32291W        W38891  16.235   4.833  16.623  0.0049 -0.2285  0.1224
32292W        W38892  20.444   2.732  24.669 -0.1097 -0.1912 -0.1339
32293W        W38893   1.940   6.516  11.772 -0.2603 -0.3631  0.4397
32294W        W38894  21.123   3.081  40.978 -0.1175  0.3154 -0.0444
32295W        W38895   9.435   1.184  12.667  0.0848 -0.2277  0.0812
32296W        W38896  12.097   4.676  14.150  0.0272 -0.0231 -0.1146
32297W        W38897  10.448   3.715  32.030 -0.0138 -0.1479 -0.2785
32298W        W38898  14.986   1.525   5.494 -0.2452  0.1302  0.3302
32299W        W38899   9.609   3.169  10.775  0.0142 -0.0673  0.0453
32300W        W38900  13.668   5.299  12.091 -0.1697  0.1055  0.3440
32301W        W38901   3.386   6.171   3.421  0.2101  0.0632  0.0768
32302W        W38902   5.895   0.016  16.239 -0.0349  0.0666 -0.0247
32303W        W38903  20.474   4.787   8.066 -0.0204  0.1567  0.0015
32304W        W38904   9.325   0.247  41.022  0.3808  0.2609 -0.3245
32305W        W38905  15.063   3.350  44.739  0.2560 -0.1443  0.1331
32306W        W38906   8.853   2.489   9.267  0.0647 -0.2105  0.3184
32307W        W38907  17.738   5.977  24.579 -0.0495 -0.2582  0.3517
32308W        W38908   0.146   4.233   2.875  0.0081 -0.0781 -0.0486
32309W        W38909  19.812   0.676  39.512 -0.0855  0.0803  0.0947
32310W        W38910   1.641   5.764  41.549  0.0477  0.2359  0.0495
32311W        W38911   2.784   2.578  38.502 -0.1024  0.4000 -0.1525
32312W        W38912   6.892   3.271  14.261 -0.0232  0.0133  0.0369
32313W        W38913   5.421   4.586   7.246 -0.2912  0.1833  0.1294
32314W        W38914   8.728   5.299   5.531  0.1542  0.0047  0.0248
32315W        W38915   6.752   0.825  32.659 -0.2199  0.2177  0.0111
32316W        W38916  19.115   6.339  42.480  0.2014 -0.1208 -0.1940
32317W        W38917  16.804   1.665  41.760  0.0799 -0.1331  0.0370
32318W        W38918  11.544   1.062  36.420 -0.0635 -0.1971 -0.0683
32319W        W38919  13.364   6.455   3.861  0.1086  0.1605  0.3967
32320W        W38920  17.258   0.287  29.606  0.0274 -0.1731 -0.0394
32321W        W38921   9.558   2.716  34.722 -0.1517  0.1328 -0.2470
32322W        W38922   6.111   3.074  40.517 -0.2046 -0.0603  0.2168
32323W        W38923  14.275   1.334   1.437  0.0557  0.0526 -0.2050
32324W        W38924  14.571   2.204   2.402 -0.0267  0.0505 -0.0021
32325W        W38925   7.489   1.243  37.519 -0.3772  0.1462 -0.0281
32326W        W38926   0.284   4.283   8.575 -0.2981 -0.0989  0.0773
32327W        W38927   3.250   5.990  10.107 -0.0201 -0.0949 -0.0602
32328W        W38928   6.844   5.087  17.267 -0.0052  0.0091 -0.0789
32329W        W38929  10.786   2.732  18.415  0.0261 -0.2844  0.2424
32330W        W38930   0.951   4.224  37.138  0.0819  0.0549 -0.1252
32331W        W38931   8.269   0.132  15.768  0.2964  0.1944 -0.0502
32332W        W38932  16.051   2.420  12.567 -0.3044 -0.0103  0.1904
32333W        W38933  10.972   2.633  36.307 -0.0352 -0.1114 -0.0654
32334W        W38934  14.277   3.108  33.241 -0.1339 -0.1606  0.1018
32335W        W38935  15.421   5.768  33.639  0.3271  0.0213 -0.3153
32336W        W38936   8.499   4.811  20.928 -0.1694 -0.0680 -0.1815
32337W        W38937   1.506   1.822  13.445 -0.2137 -0.0714  0.1688
32338W        W38938  13.003   1.400   2.734  0.1642  0.2429 -0.0779
32339W        W38939   5.282   5.331  17.620  0.2100  0.2364 -0.2951
32340W        W38940   5.885   0.336  18.028 -0.1068  0.2746  0.0111
32341W        W38941   1.388   3.261   7.188  0.0096  0.0063 -0.0929
32342W        W38942   3.799   0.617   4.309 -0.1051  0.0482 -0.0654
32343W        W38943  14.903   4.406  32.949  0.0715  0.0593  0.3789
32344W        W38944  14.617   0.715  40.576 -0.0807 -0.2082  0.0062
32345W        W38945  20.876   1.646   4.032 -0.2169  0.0991  0.0963
32346W        W38946   3.926   0.192   5.714 -0.0155 -0.1514 -0.1521
32347W        W38947   6.143   2.157  39.844  0.1104  0.1469  0.1471
32348W        W38948   3.426   0.814  41.110 -0.0221 -0.3438  0.1662
32349W        W38949   0.531   3.171   5.444 -0.3348  0.0665 -0.4349
32350W        W38950   7.329   4.431  10.397 -0.0126 -0.0687  0.0794
32351W        W38951   0.584   6.429   5.447  0.0644  0.1469 -0.0847
32352W        W38952   5.035   6.394   7.585  0.2523 -0.0796 -0.0391
32353W        W38953   4.207   3.814  30.931  0.0945  0.1395  0.2464
32354W        W38954  20.201   3.616  23.233 -0.3892 -0.1586 -0.0045
32355W        W38955  18.624   6.253   0.795  0.0219  0.1717 -0.0587
32356W        W38956  16.310   1.722  15.990 -0.0047 -0.0052 -0.2699
32357W        W38957  20.352   0.837  33.549  0.0911 -0.2398 -0.0232
32358W        W38958  12.203   1.775   9.855  0.4646 -0.1179  0.0956
32359W        W38959  17.123   0.747  29.597  0.4216  0.1526 -0.2290
32360W        W38960   1.927   1.675  37.344 -0.2018 -0.0560  0.2468
32361W        W38961  11.902   2.159  14.796 -0.1767  0.3078  0.0804
32362W        W38962  14.120   5.274  18.600  0.2010 -0.1706  0.2689
32363W        W38963   3.030   1.167  43.344  0.0994  0.0417  0.0544
32364W        W38964  16.563   1.199  15.502  0.1869 -0.0534 -0.1261
32365W        W38965  19.096   3.998   0.941  0.0444 -0.0611 -0.0388
32366W        W38966   6.532   4.754  16.391 -0.1057 -0.1230 -0.1531
32367W        W38967   0.486   1.163  28.913 -0.3282  0.1048  0.3058
32368W        W38968  16.796   5.195   6.560  0.0293 -0.3066  0.1940
32369W        W38969  10.128   5.237  24.993  0.1110  0.1069 -0.0587
32370W        W38970  20.130   2.928  44.356  0.2625 -0.3897 -0.0964
32371W        W38971   0.940   4.996   7.331 -0.0109 -0.2520 -0.3080
32372W        W38972   3.298   0.040  28.774  0.0976  0.3476  0.0164
32373W        W38973  11.398   3.589  10.980 -0.2941 -0.2739  0.0548
32374W        W38974  14.166   4.620  30.658  0.0694 -0.1594 -0.0529
32375W        W38975  13.062   3.229  37.007  0.1164 -0.2269  0.0938
32376W        W38976  15.912   6.516   0.655 -0.0289  0.2829  0.0334
32377W        W38977  11.373   1.871  17.685  0.1543 -0.4018  0.0805
32378W        W38978  19.378   1.877  42.730 -0.0816  0.0876  0.0420
32379W        W38979  15.185   0.449  15.657 -0.2923 -0.0541 -0.1932
32380W        W38980   4.497   5.242  18.649  0.0728  0.0381 -0.0963
32381W        W38981   6.534   0.584  33.576  0.1038  0.1682  0.2599
32382W        W38982  15.451   4.394   5.457  0.0622 -0.1000  0.0754
32383W        W38983  11.899   4.661  13.155  0.2809 -0.1373  0.4179
32384W        W38984  14.237   5.988  31.061 -0.0791 -0.2277 -0.1249
32385W        W38985  17.535   1.938   9.781  0.3283 -0.0526  0.0015
32386W        W38986   2.386   4.727  42.116 -0.0984  0.0849 -0.0491
32387W        W38987  13.208   6.465  13.448 -0.1425 -0.3559 -0.1463
32388W        W38988   4.275   0.318   9.761  0.2565 -0.0805  0.2723
32389W        W38989   3.491   1.528  13.273  0.0021 -0.3566  0.1579
32390W        W38990  15.930   5.707  32.942  0.0631 -0.0810 -0.0991
32391W        W38991   9.751   2.947  30.285  0.3728  0.1056  0.1910
32392W        W38992  11.207   1.342   9.089 -0.1330  0.3970  0.1931
32393W        W38993  14.056   4.117   9.197 -0.2794 -0.0640  0.1515
32394W        W38994  16.859   0.540  26.152  0.0385  0.0452 -0.1844
32395W        W38995  16.438   5.796  10.207  0.0716  0.0429 -0.0499
32396W        W38996   4.622   2.091  11.699  0.4353 -0.1405 -0.3482
32397W        W38997  18.173   2.932   8.569 -0.1892 -0.2332  0.0834
32398W        W38998  14.555   5.597  28.970  0.1342 -0.3525 -0.1126
32399W        W38999   5.586   2.668  16.759  0.1291  0.3412 -0.1886
32400W        W39000   1.554   5.400  32.737  0.1042 -0.0558  0.0798
32401W        W39001  19.272   3.225  44.534 -0.1091 -0.1141  0.2482
32402W        W39002   1.578   0.568  40.130  0.0139 -0.4626  0.0228
32403W        W39003   5.341   0.173  15.506 -0.0025 -0.2226 -0.4133
32404W        W39004  13.135   4.326  37.163  0.0321 -0.0662  0.1056
32405W        W39005  11.482   1.179  41.870 -0.0736  0.0628  0.0175
32406W        W39006   7.533   2.218  43.245 -0.0404  0.0566  0.0808
32407W        W39007   1.238   5.955   3.763 -0.0137  0.2889  0.2500
32408W        W39008  20.561   2.951  43.271 -0.0491 -0.3670 -0.0213
32409W        W39009  12.336   0.169   6.572 -0.0102 -0.2738  0.3433
32410W        W39010  15.775   3.664   9.954  0.1127 -0.1604  0.0019
32411W        W39011   7.118   1.899  19.900 -0.1514  0.0405 -0.0037
32412W        W39012   7.921   5.709  34.791  0.0554  0.1565 -0.0653
32413W        W39013   6.776   6.150   2.208  0.1791 -0.2821 -0.1087
32414W        W39014  16.967   2.195  37.504  0.1468 -0.1563  0.3420
32415W        W39015  11.561   3.777  36.017  0.2654  0.2149 -0.2305
32416W        W39016   1.393   2.350   8.193  0.0181 -0.0153 -0.2613
32417W        W39017   7.143   5.358   0.806 -0.0549  0.1471 -0.0981
32418W        W39018   0.551   4.039  32.568  0.2776  0.4720 -0.0289
32419W        W39019   9.760   3.199  43.101  0.3455 -0.4537 -0.0404
32420W        W39020  10.205   3.438   3.268  0.1473  0.4389 -0.2174
32421W        W39021  17.915   0.338   0.034  0.0067  0.1594  0.0392
32422W        W39022   9.551   3.728  12.494 -0.0102 -0.1901 -0.3876
32423W        W39023   5.866   1.126  12.813 -0.0298 -0.4778 -0.1935
32424W        W39024  17.328   4.314  43.576 -0.0295  0.1292 -0.1366
32425W        W39025   1.029   1.232   5.187 -0.1436 -0.0311  0.2264
32426W        W39026   5.038   5.447   7.476  0.1350  0.1208  0.1461
32427W        W39027  10.344   0.005   2.390  0.0327 -0.3156 -0.2283
32428W        W39028   5.351   2.936  33.970  0.0298 -0.0660 -0.1103
32429W        W39029  10.985   2.149   4.487  0.0495 -0.3294  0.1948
32430W        W39030   2.345   3.166  28.685 -0.1698 -0.1364  0.1280
32431W        W39031  15.752   1.975  31.137  0.1149 -0.0426  0.0969
32432W        W39032   6.755   6.328  19.688  0.0484  0.2957 -0.0293
32433W        W39033   5.950   0.802  31.036 -0.2863  0.1358 -0.2411
32434W        W39034   5.299   5.511  38.714 -0.1842  0.3430 -0.1029
32435W        W39035  10.484   0.103  43.369  0.0100  0.1800 -0.0777
32436W        W39036   6.726   2.877  41.686  0.2135 -0.0552 -0.0821
32437W        W39037   5.273   5.780  31.342  0.2305  0.4296  0.4388
32438W        W39038  18.065   2.005   1.158 -0.2243 -0.0164  0.2573
32439W        W39039  14.575   2.372  41.746 -0.2673 -0.0349  0.3854
32440W        W39040  14.707   1.267   7.228  0.3398 -0.1386  0.0434
32441W        W39041  18.492   5.691  41.982  0.1270 -0.0685  0.0971
32442W        W39042   7.433   3.317  22.823  0.1475 -0.1977 -0.0313
32443W        W39043  17.376   4.156  27.976  0.2304  0.2327 -0.0164
32444W        W39044  20.920   6.273   1.589  0.1316 -0.0491 -0.1551
32445W        W39045   6.171   2.900  34.311  0.1379  0.2040 -0.0608
32446W        W39046   1.067   5.467  42.337  0.0997  0.4603 -0.0651
32447W        W39047  20.261   4.954   4.946  0.1849  0.2228 -0.0882
32448W        W39048  11.061   3.350   7.463 -0.0496 -0.5277 -0.2081
32449W        W39049  17.769   4.010  37.337  0.0794 -0.0802  0.0486
32450W        W39050  19.059   1.739   2.033 -0.0037 -0.2922 -0.0390
32451W        W39051  18.366   1.036  11.940  0.0792  0.4788 -0.0234
32452W        W39052  15.392   1.872  11.459 -0.2256  0.2729 -0.1548
32453W        W39053  13.430   2.817   7.577 -0.0406  0.4660 -0.0220
32454W        W39054  20.480   5.641   6.759  0.1047  0.1305 -0.0137
32455W        W39055  18.421   0.670   9.040  0.0098  0.0042  0.2472
32456W        W39056   2.888   1.825  37.882 -0.1085  0.1067 -0.0707
32457W        W39057  17.365   1.756  43.501  0.0816  0.0039 -0.2491
32458W        W39058   5.605   5.360  29.962  0.0204  0.0373 -0.0255
32459W        W39059   1.507   4.721  43.558  0.0446  0.0016 -0.3128
32460W        W39060  10.646   1.007  10.354 -0.0090 -0.0287 -0.0261
32461W        W39061  14.931   5.811   0.389  0.1432  0.1464 -0.0506
32462W        W39062  11.311   4.422  41.038  0.1921 -0.1892 -0.0566
32463W        W39063   6.606   6.364   5.724  0.0963 -0.1326  0.1370
32464W        W39064   2.912   0.851  44.216 -0.0064 -0.0876 -0.0105
32465W        W39065  19.469   2.693   1.547 -0.2560  0.2194  0.0367
32466W        W39066   0.741   4.376  33.442  0.1844  0.3911 -0.1100
32467W        W39067  19.028   1.312  12.568  0.0398 -0.0023 -0.0588
32468W        W39068   1.244   0.020  42.673 -0.0970 -0.1520  0.0252
32469W        W39069   1.685   6.385  38.912  0.1355 -0.1074 -0.1397
32470W        W39070  13.037   5.699  14.004 -0.0444  0.1332 -0.2678
32471W        W39071  20.633   3.160   0.961 -0.0192 -0.0001 -0.0118
32472W        W39072   7.600   5.448  38.402  0.0757 -0.1381 -0.0701
32473W        W39073  11.921   3.160   1.932 -0.1587  0.0659  0.3293
32474W        W39074  19.554   2.323  42.587 -0.0997 -0.0511  0.2099
32475W        W39075  16.953   3.296   1.802 -0.0406 -0.0607  0.0555
32476W        W39076  14.191   6.036  19.174 -0.1974 -0.0326 -0.0248
32477W        W39077  20.800   0.214  39.127 -0.2037 -0.1625  0.0839
32478W        W39078  13.505   3.336  30.558  0.1374 -0.1433 -0.1235
32479W        W39079  19.495   0.134  38.932  0.0725  0.2836 -0.1781
32480W        W39080  18.464   5.150  29.845 -0.0118 -0.0389  0.2078
32481W        W39081   0.037   2.501  40.985  0.1871  0.0609  0.0032
32482W        W39082   0.961   3.790  27.851  0.4204 -0.1557  0.0395
32483W        W39083   1.967   3.928   1.488  0.0691  0.0902  0.1332
32484W        W39084  20.032   1.273  33.552  0.0805 -0.2993 -0.0761
32485W        W39085  18.148   4.367  41.914  0.0870  0.1283 -0.0771
32486W        W39086  18.235   0.258  34.859 -0.3967  0.1004 -0.0147
32487W        W39087   6.506   5.479  30.319  0.0179 -0.1884 -0.1398
32488W        W39088   9.587   0.918  21.669 -0.3423  0.2315  0.2765
32489W        W39089   2.784   4.178  15.530  0.0487 -0.0121  0.0470
32490W        W39090  14.079   0.327  16.758  0.3218  0.1224  0.0672
32491W        W39091  19.186   5.234  34.412  0.2178  0.0893  0.1096
32492W        W39092   6.375   6.063   4.850  0.0076  0.0493  0.1815
32493W        W39093   4.602   0.468  29.821 -0.0614 -0.0985 -0.0349
32494W        W39094   1.311   4.722  32.162  0.0146 -0.3166 -0.0851
32495W        W39095   7.208   3.170  44.400 -0.1229  0.1062  0.0574
32496W        W39096  18.551   5.169  42.586  0.0672  0.0548  0.0224
32497W        W39097  12.519   0.185  37.335  0.0006  0.1413  0.1204
32498W        W39098   6.763   3.206   1.894  0.0344  0.0214 -0.0548
32499W        W39099  11.302   2.934  21.491 -0.0250  0.0595 -0.1519
32500W        W39100  12.702   5.139   6.332 -0.0700 -0.2552 -0.1751
32501W        W39101  18.949   6.171  44.221  0.2706  0.2247  0.0044
32502W        W39102  18.499   1.941  21.771 -0.1292  0.0098 -0.1034
32503W        W39103   1.680   3.293  27.752 -0.0421  0.3357  0.0573
32504W        W39104   3.218   2.012  32.573  0.0095 -0.2395 -0.2109
32505W        W39105  11.079   6.392  44.446 -0.2733  0.0342 -0.1546
32506W        W39106  13.752   5.191   8.635 -0.0583 -0.1431  0.0145
32507W        W39107  16.330   5.880   7.537 -0.1788 -0.0928 -0.1290
32508W        W39108   5.423   4.754  39.938 -0.0141 -0.0792 -0.0105
32509W        W39109  13.899   0.421  35.891 -0.4696  0.4189 -0.2723
32510W        W39110  19.484   4.486  37.952 -0.1642 -0.0223 -0.0998
32511W        W39111   1.230   4.324  28.482  0.2813  0.1640  0.2088
32512W        W39112  11.273   3.733  44.761 -0.1037  0.3052  0.1618
32513W        W39113  13.369   3.811  14.409  0.2702  0.2569  0.2429
32514W        W39114   2.505   0.393   2.842  0.1266 -0.1373  0.0074
32515W        W39115   5.375   5.994  35.174  0.2473 -0.0711 -0.1919
32516W        W39116   5.950   3.610   5.824 -0.3117 -0.0405 -0.0816
32517W        W39117  20.613   3.347  20.655  0.0916 -0.1894  0.3670
32518W        W39118  14.000   2.814  38.187  0.1148 -0.1295  0.0106
32519W        W39119  18.578   3.258   8.729 -0.0431 -0.0554  0.0639
32520W        W39120   5.321   5.603  42.867 -0.2827  0.0071  0.0123
32521W        W39121   3.551   2.152  41.460  0.1070 -0.0490  0.0934
32522W        W39122   3.210   3.727  14.618 -0.2595 -0.3860 -0.2382
32523W        W39123   9.000   1.143   5.516 -0.1533 -0.0347  0.0850
32524W        W39124   7.441   2.056  15.438  0.1651 -0.0311  0.1875
32525W        W39125   7.795   3.239  11.221 -0.0788  0.2491  0.0719
32526W        W39126  16.911   2.766  38.053 -0.3054  0.3969  0.0505
32527W        W39127   9.846   4.836  19.825 -0.1157  0.1667 -0.0302
32528W        W39128   5.858   0.969  38.363 -0.0634  0.2472  0.3586
32529W        W39129  14.543   4.183  18.055 -0.0768  0.1159 -0.1804
32530W        W39130  15.537   6.132   6.279 -0.1713 -0.1518 -0.0991
32531W        W39131  13.693   1.174  29.568  0.1120  0.0831 -0.2252
32532W        W39132  19.373   0.253  10.155 -0.1339 -0.0425  0.0462
32533W        W39133   3.250   1.751  38.276 -0.1634  0.1971 -0.1395
32534W        W39134   4.587   6.130   0.010  0.2671  0.0127 -0.2606
32535W        W39135  15.102   0.563   7.062  0.1422  0.0678 -0.0496
32536W        W39136   8.902   2.696   3.813 -0.0460 -0.0151 -0.2125
32537W        W39137  15.654   4.863   5.412 -0.4208 -0.0396 -0.2702
32538W        W39138   5.619   2.629   5.867 -0.0121  0.4943  0.1043
32539W        W39139   2.865   4.272  14.333  0.0463 -0.0978  0.0959
32540W        W39140  10.349   5.505  37.414 -0.2118 -0.0280  0.0405
32541W        W39141  13.325   2.340  28.171 -0.2425  0.0329  0.0794
32542W        W39142  11.450   0.147  11.761  0.0937  0.0148  0.1797
32543W        W39143  18.788   2.405  41.525 -0.4102 -0.0963  0.1865
32544W        W39144  19.413   3.578  30.656 -0.1079  0.1320 -0.0370
32545W        W39145  19.462   0.876   4.738  0.1254  0.2221 -0.3726
32546W        W39146   1.669   1.883   9.009 -0.1093 -0.0838 -0.0577
32547W        W39147   5.067   5.382   5.331  0.1476  0.2279 -0.0600
32548W        W39148   2.186   2.552   3.826 -0.0118  0.0773 -0.3035
32549W        W39149  14.323   2.841   8.321  0.0301  0.0598 -0.0841
32550W        W39150   9.434   2.186  24.674  0.1485 -0.2109 -0.0617
32551W        W39151  14.605   3.541  15.675 -0.2092 -0.1309  0.3079
32552W        W39152  16.897   6.362  13.901  0.3003 -0.0911  0.1990
32553W        W39153  10.860   0.991  33.742 -0.1786  0.2893 -0.1225
32554W        W39154   3.976   5.767  28.023  0.0750  0.1814 -0.1997
32555W        W39155  13.933   2.721  31.784 -0.0338 -0.1809 -0.0832
32556W        W39156   0.470   1.125  30.983  0.2797  0.1541  0.1474
32557W        W39157  10.195   4.187   7.768 -0.2860  0.0852 -0.3346
32558W        W39158  11.956   2.443  44.417 -0.0816  0.1323  0.0012
32559W        W39159   8.672   0.755  15.468  0.0597 -0.0804 -0.3101
32560W        W39160   2.505   0.549  13.242 -0.0361  0.1159 -0.2648
32561W        W39161   4.812   3.478  32.159 -0.0444  0.2072 -0.0712
32562W        W39162   2.881   2.037  25.354 -0.2824  0.0550 -0.2662
32563W        W39163   3.442   5.631   7.087 -0.1907  0.2632 -0.2457
32564W        W39164   8.679   4.281   7.973  0.3554 -0.2713  0.0926
32565W        W39165  18.615   5.120  32.990 -0.2910  0.4718  0.0755
32566W        W39166   9.201   0.973  23.366  0.0115  0.2599 -0.1167
32567W        W39167   6.059   6.157  16.613 -0.0741 -0.0596 -0.0211
32568W        W39168   1.171   1.280   9.012 -0.3766 -0.1829  0.0908
32569W        W39169  13.705   2.691  18.561 -0.0792  0.0585 -0.1098
32570W        W39170  11.555   5.091  35.191 -0.0084 -0.1180  0.1621
32571W        W39171  16.599   5.550   0.765 -0.1328  0.0248 -0.3126
32572W        W39172  20.704   2.367   2.170 -0.0809 -0.0217 -0.2411
32573W        W39173  19.755   3.078  33.794 -0.0710 -0.0982  0.0950
32574W        W39174   2.485   6.227   9.757 -0.0032 -0.0817  0.2849
32575W        W39175  18.543   1.928  11.767  0.2548 -0.1459  0.0409
32576W        W39176   9.827   1.385  23.712 -0.1272  0.1033  0.2134
32577W        W39177   4.246   3.999  32.699  0.1137  0.0219 -0.4370
32578W        W39178  18.904   2.585  37.756 -0.1519 -0.1640  0.0995
32579W        W39179   8.491   5.452  21.622 -0.0015  0.0275  0.2652
32580W        W39180  19.826   5.793  40.841  0.3738 -0.1346  0.2804
32581W        W39181  13.749   2.429   5.460  0.0375  0.2187  0.2028
32582W        W39182  10.091   0.228  38.263  0.0696  0.3570 -0.0478
32583W        W39183   0.210   0.611  11.686  0.1991 -0.3086 -0.1195
32584W        W39184  15.319   4.398   9.582  0.0350 -0.1838  0.3088
32585W        W39185  13.214   1.860  32.888 -0.2333  0.0552  0.0797
32586W        W39186   7.320   3.614  20.294  0.1303  0.0169  0.1297
32587W        W39187   7.889   5.868  33.376  0.0469 -0.0581 -0.2019
32588W        W39188   8.543   6.149  30.982 -0.0173 -0.4639  0.3428
32589W        W39189  11.798   3.204  20.161  0.0698 -0.1414  0.0914
32590W        W39190  20.136   1.489  13.236  0.2756  0.3383  0.1486
32591W        W39191   5.494   1.790  41.899  0.1010 -0.1535 -0.1360
32592W        W39192   5.550   1.511  19.293 -0.1597  0.1305 -0.1129
32593W        W39193   5.648   5.603  39.131  0.2344  0.2711  0.0320
32594W        W39194   1.489   0.867  14.743  0.4255  0.1161 -0.2415
32595W        W39195   3.558   0.730  27.780 -0.3116  0.0003 -0.0502
32596W        W39196   9.132   6.498   2.674  0.0423 -0.4076 -0.0046
32597W        W39197  16.557   6.064  28.857  0.3879  0.0156  0.0915
32598W        W39198   1.444   4.474  43.019 -0.2014  0.0468 -0.1935
32599W        W39199  16.204   6.165  15.179  0.2978 -0.1113 -0.1272
32600W        W39200  13.677   5.242  13.647 -0.0282 -0.2825 -0.1002
32601W        W39201   7.101   5.490  30.870 -0.2570 -0.1947  0.1940
32602W        W39202  19.058   3.166  41.851 -0.2032  0.4899  0.2189
32603W        W39203   8.517   3.582  13.724 -0.1858  0.0801 -0.0591
32604W        W39204  16.936   5.953  14.156 -0.1390  0.4301  0.4909
32605W        W39205   6.987   1.688  32.890  0.1564  0.1719 -0.2119
32606W        W39206   1.141   0.996  26.623 -0.3583  0.1379  0.0220
32607W        W39207   9.596   0.423  30.100 -0.2090 -0.2287 -0.1218
32608W        W39208   6.782   5.918   3.492 -0.0003  0.0602  0.1253
32609W        W39209  17.778   5.234  11.205  0.0935 -0.0806  0.1633
32610W        W39210  15.594   4.373  34.136 -0.0016  0.3576 -0.1263
32611W        W39211  10.402   4.155  37.894 -0.1122  0.2989 -0.0869
32612W        W39212  20.828   0.944  32.076  0.3842 -0.1868  0.1194
32613W        W39213  16.212   4.232   4.681  0.6742 -0.3192 -0.2004
32614W        W39214   0.049   4.377  40.969  0.1522 -0.2282  0.0945
32615W        W39215  12.011   5.400  21.294 -0.0843  0.2076 -0.1030
32616W        W39216  17.409   6.404  16.132 -0.2178  0.0116  0.0086
32617W        W39217  13.328   4.014  11.453  0.0809 -0.3964  0.1192
32618W        W39218   8.391   1.029  40.011 -0.0163  0.0165  0.1337
32619W        W39219  19.266   2.901  29.682 -0.0058 -0.0936 -0.2693
32620W        W39220   0.217   5.435   1.671  0.0141  0.2692  0.0707
32621W        W39221   0.704   2.970   2.375  0.0574 -0.1066  0.0431
32622W        W39222   6.402   4.373  13.854 -0.5994 -0.2110  0.2473
32623W        W39223   0.151   4.113   4.626  0.0374 -0.0729 -0.4014
32624W        W39224  15.218   2.371  37.213  0.1661  0.0463 -0.2354
32625W        W39225  17.990   4.910  36.506 -0.2688 -0.1532  0.0391
32626W        W39226  14.916   2.602   7.574 -0.0413  0.1523 -0.1120
32627W        W39227  19.149   4.945   6.415 -0.1634 -0.2443 -0.0357
32628W        W39228  10.788   4.525  35.931  0.3293 -0.1424 -0.0487
32629W        W39229  20.996   0.018  13.802  0.2290  0.0788 -0.0022
32630W        W39230   9.304   4.771  31.391  0.0213  0.0258 -0.2703
32631W        W39231   7.834   1.125   9.317 -0.0147  0.0164 -0.1478
32632W        W39232  18.938   6.200   7.987 -0.2593  0.2622 -0.1631
32633W        W39233  11.067   2.562   4.089 -0.1326  0.0531  0.0566
32634W        W39234  18.129   0.925  14.250  0.0193 -0.1594  0.0679
32635W        W39235  15.833   0.128  12.010  0.1347  0.3824  0.2503
32636W        W39236  20.757   2.735  34.031  0.1754 -0.2735  0.1643
32637W        W39237   6.872   3.216  20.909  0.0077 -0.1909  0.0244
32638W        W39238   0.871   4.412  25.747 -0.1002 -0.0629 -0.0248
32639W        W39239  21.094   3.756  11.369 -0.0177 -0.1583  0.1299
32640W        W39240   3.363   4.309  39.582 -0.1421 -0.0265  0.2675
32641W        W39241  14.398   1.387  40.217  0.2417 -0.0262  0.3417
32642W        W39242   2.081   4.244  14.377  0.2333  0.2841 -0.1466
32643W        W39243  10.649   2.573  30.798  0.0512  0.0864 -0.0778
32644W        W39244   6.073   0.362  34.437 -0.1486 -0.1431 -0.0467
32645W        W39245  10.702   2.239   4.979  0.2058 -0.0455 -0.2795
32646W        W39246  16.501   6.518  29.119  0.0468 -0.2340 -0.1172
32647W        W39247   9.791   2.990  14.316 -0.2274  0.1108 -0.0497
32648W        W39248   3.199   0.388   0.364 -0.1799 -0.1307  0.3307
32649W        W39249   8.396   6.349   2.714 -0.2285 -0.1871  0.0868
32650W        W39250  13.654   0.574  15.348  0.1830 -0.0859 -0.2765
32651W        W39251   3.664   2.452  41.888 -0.1024 -0.0564 -0.1109
32652W        W39252  15.012   4.828  14.836 -0.2483  0.0225  0.2785
32653W        W39253   0.477   1.721  10.739 -0.1411  0.2467 -0.1053
32654W        W39254  19.411   0.427  20.222 -0.0205  0.1342  0.0992
32655W        W39255   5.018   2.759  16.145  0.0783  0.1187 -0.1914
32656W        W39256   8.939   0.109  33.155  0.1815  0.0248  0.3350
32657W        W39257   7.455   6.303  39.453  0.1088  0.1263  0.2066
32658W        W39258  14.614   1.856  38.864 -0.1804  0.0772  0.2955
32659W        W39259  19.751   4.387  13.232  0.3679  0.0720  0.2828
32660W        W39260   5.582   4.812  19.005  0.0605 -0.1056  0.3140
32661W        W39261  11.717   2.103   7.976 -0.2187  0.3327 -0.0097
32662W        W39262   9.338   1.170  41.565 -0.0438  0.3568  0.1801
32663W        W39263  18.948   1.022  32.924 -0.0931  0.0455  0.0832
32664W        W39264  13.615   2.249  32.361  0.1411 -0.0624  0.2513
32665W        W39265  10.195   3.296  33.744 -0.0823  0.0685 -0.1312
32666W        W39266   3.371   5.683   4.806 -0.3036 -0.0674 -0.4247
32667W        W39267  12.719   1.806  20.170  0.1064 -0.0895 -0.1606
32668W        W39268   3.588   5.434   8.631 -0.2510 -0.0328  0.3001
32669W        W39269  20.694   4.379   1.183  0.0185 -0.1688 -0.0169
32670W        W39270  10.510   1.674   5.864 -0.2551  0.0961  0.4623
32671W        W39271   9.594   6.529   5.768  0.0743  0.0570  0.2050
32672W        W39272  19.616   6.291   9.026 -0.3372  0.1667 -0.1044
32673W        W39273   9.239   5.372  20.424 -0.2924  0.0392  0.0536
32674W        W39274  10.091   3.558  40.322  0.0214 -0.0142  0.0867
32675W        W39275  18.074   5.850   7.997  0.2379 -0.2167  0.2458
32676W        W39276  10.452   1.276  19.789  0.1266 -0.1480 -0.1805
32677W        W39277  19.752   3.643  19.663 -0.1360 -0.0875 -0.3214
32678W        W39278   9.154   4.334  21.307 -0.2522 -0.0995 -0.2675
32679W        W39279  13.533   1.827  13.090 -0.3439  0.1146  0.0444
32680W        W39280  12.998   3.524  32.631 -0.2659  0.0052  0.1813
32681W        W39281   5.066   0.424  13.230 -0.0428  0.0010  0.0630
32682W        W39282  14.030   2.374  43.925 -0.1535 -0.1193  0.0412
32683W        W39283   7.471   3.678  43.679 -0.0767  0.1125  0.2673
32684W        W39284  13.727   1.376   0.660 -0.0813  0.0040  0.1408
32685W        W39285  20.622   4.372   4.036  0.0130 -0.0408  0.2318
32686W        W39286   7.182   0.951   2.133  0.0913 -0.2179  0.0420
32687W        W39287   9.932   1.127   6.645 -0.0955 -0.3350 -0.1531
32688W        W39288  17.532   2.903  13.959  0.2102  0.1383  0.1956
32689W        W39289   4.496   5.747   6.800  0.0754 -0.2369 -0.1765
32690W        W39290  19.805   6.075   5.234  0.1143 -0.2680 -0.1166
32691W        W39291  10.857   5.339  10.888  0.1676  0.3256 -0.0979
32692W        W39292   0.269   1.860   6.947  0.2884 -0.1639  0.0152
32693W        W39293  14.379   2.093  31.201  0.0584 -0.3616 -0.1657
32694W        W39294  17.130   4.267   4.858 -0.1942 -0.2223 -0.1023
32695W        W39295   8.187   0.592  22.198  0.3849 -0.1635 -0.0803
32696W        W39296   8.681   6.588   8.083 -0.0615 -0.2868  0.1036
32697W        W39297  11.489   6.018  35.563  0.1546  0.4891  0.1787
32698W        W39298   7.654   5.434  13.456  0.0513 -0.1832  0.1140
32699W        W39299  21.007   4.667   6.184  0.1608  0.0284 -0.0318
32700W        W39300   1.692   0.088  12.175 -0.0675 -0.0487  0.1066
32701W        W39301  11.141   0.559   5.116 -0.0419 -0.0996 -0.1772
32702W        W39302   8.030   4.248  32.978  0.0436  0.1222  0.0108
32703W        W39303   7.048   3.941  10.192  0.2954  0.1908  0.0502
32704W        W39304  13.793   2.800  17.528 -0.0580 -0.0629  0.0792
32705W        W39305  20.231   4.824  15.514  0.1411 -0.1986  0.0048
32706W        W39306   9.559   0.259  12.915 -0.1607  0.0185  0.0292
32707W        W39307  14.322   2.270   9.823  0.0731 -0.1726 -0.0507
32708W        W39308  15.085   0.083   8.351 -0.0734 -0.0675  0.3091
32709W        W39309  21.094   0.889  10.436 -0.3594 -0.0380  0.0292
32710W        W39310  11.507   1.609  34.679 -0.0545  0.2695 -0.1759
32711W        W39311  15.308   2.264   7.446  0.3220  0.0414  0.1156
32712W        W39312  16.442   4.381  38.821 -0.1195  0.0152 -0.0935
32713W        W39313   4.531   0.785  13.207 -0.1418  0.0917 -0.0288
32714W        W39314   5.323   4.208   2.471 -0.0274  0.0625 -0.0126
32715W        W39315   0.087   2.881  37.840  0.4544  0.1319 -0.0569
32716W        W39316  11.049   3.150  36.169 -0.1035 -0.0139 -0.3211
32717W        W39317   5.668   6.412  10.471 -0.2049 -0.0174 -0.0109
32718W        W39318   3.407   0.097   4.588 -0.0339 -0.0830 -0.3305
32719W        W39319  16.768   1.185  24.468  0.2794  0.3103 -0.1421
32720W        W39320   7.274   2.465   1.848  0.2906  0.0145 -0.1702
32721W        W39321   0.566   6.079  35.402 -0.4303  0.1847  0.0258
32722W        W39322  17.172   6.099  27.073 -0.3595 -0.2766  0.1237
32723W        W39323  11.369   6.376  35.211 -0.0839 -0.1057 -0.0653
32724W        W39324   7.268   0.671  20.882 -0.2273  0.0040  0.1962
32725W        W39325  10.748   0.381  20.855 -0.4427 -0.1274 -0.0350
32726W        W39326  19.823   0.547  28.565  0.1818 -0.1139  0.1593
32727W        W39327  20.289   5.939  39.541 -0.0093  0.0044  0.0890
32728W        W39328  12.332   6.341  40.921  0.2223 -0.0526 -0.1346
32729W        W39329   6.544   5.470   5.659  0.4197 -0.0468 -0.0801
32730W        W39330  17.380   6.094  43.321  0.1457 -0.1101  0.4225
32731W        W39331  16.627   2.046  25.020 -0.2540  0.0314  0.2072
32732W        W39332  14.106   2.774  15.361  0.3617 -0.1217  0.0051
32733W        W39333  10.908   3.768   2.855 -0.1920 -0.2034  0.3020
32734W        W39334  11.565   0.322   5.252  0.0893 -0.2865  0.0583
32735W        W39335   5.072   0.058  44.400  0.3080  0.1118 -0.1607
32736W        W39336  19.012   1.796  38.994  0.2385 -0.2086  0.0004
32737W        W39337  16.742   5.982  25.313 -0.4714 -0.1927 -0.0400
32738W        W39338  19.063   0.046  28.424 -0.1086  0.0475  0.0519
32739W        W39339   0.878   3.728  37.243  0.1440 -0.1070 -0.1150
32740W        W39340   0.465   6.378  34.534  0.2250 -0.1406  0.0490
32741W        W39341  15.623   2.524  10.700 -0.0551 -0.0424  0.1606
32742W        W39342  17.218   4.715  13.526  0.1237  0.1024 -0.2727
32743W        W39343   2.664   6.463  36.096  0.0240 -0.1072 -0.3574
32744W        W39344   2.045   1.185  12.882  0.2641  0.3425  0.1188
32745W        W39345   9.584   6.551  36.055 -0.4127 -0.1423 -0.0258
32746W        W39346  13.142   2.695  33.647  0.0124  0.0403  0.0283
32747W        W39347  14.975   3.363  17.041  0.0452  0.0036  0.0344
32748W        W39348  10.006   3.905   5.473 -0.2018 -0.0246  0.2958
32749W        W39349   6.016   4.161  34.651 -0.2597 -0.3188  0.0503
32750W        W39350   7.407   4.885  37.445 -0.1613 -0.1911  0.3090
32751W        W39351   1.961   4.811   9.613  0.0722 -0.2920 -0.5589
32752W        W39352   5.325   5.515  10.065  0.2279 -0.0804  0.3784
32753W        W39353  19.991   1.401  22.865  0.0269  0.4200 -0.0847
32754W        W39354  19.476   3.788  27.327  0.0867  0.0970 -0.3344
32755W        W39355   8.681   0.096  21.137  0.0782 -0.5464  0.0849
32756W        W39356  14.642   1.475  27.533  0.0258  0.2755  0.0757
32757W        W39357   8.864   4.585  11.891  0.1686 -0.1072  0.0631
32758W        W39358  17.348   5.518  25.753 -0.1964 -0.2074  0.3109
32759W        W39359   3.187   2.908  35.741 -0.1278 -0.1373  0.1392
32760W        W39360   8.903   6.303  44.109  0.2024 -0.1550 -0.0770
32761W        W39361   7.557   4.460  22.050  0.2187  0.1544  0.1664
32762W        W39362  12.844   4.081  18.450  0.1485 -0.2928 -0.0450
32763W        W39363   1.883   3.005  10.416 -0.3996 -0.1795  0.1607
32764W        W39364   8.331   0.648  18.109 -0.2355  0.4097  0.1301
32765W        W39365   5.381   5.645  43.356  0.1070 -0.1322  0.2260
32766W        W39366   3.170   0.199   7.782  0.1423 -0.1966  0.1070
32767W        W39367  14.624   5.864  26.596  0.1748  0.1921  0.0167
32768W        W39368   0.018   1.913  33.278 -0.0943 -0.2720 -0.1079
32769W        W39369   9.275   0.118  15.624  0.2255  0.0760  0.0172
32770W        W39370  10.091   5.768  30.396  0.0278 -0.1372  0.0262
32771W        W39371   8.642   5.435  23.737 -0.0762 -0.1303  0.1502
32772W        W39372  14.190   0.556   4.842 -0.2107 -0.1917 -0.1069
32773W        W39373   8.482   3.206  42.619  0.1564  0.2151  0.2195
32774W        W39374  20.544   2.473  33.118  0.2715  0.1051  0.3790
32775W        W39375  13.892   3.908  36.741  0.0427  0.0876  0.0475
32776W        W39376   6.983   6.568  15.173  0.3324  0.3296  0.1383
32777W        W39377   4.665   0.618   0.007 -0.3518  0.2111 -0.0301
32778W        W39378   9.865   5.116  20.724  0.1600  0.0622 -0.0213
32779W        W39379   4.534   5.570  18.204  0.2730 -0.0470 -0.0101
32780W        W39380   6.477   3.943  36.379  0.1930 -0.1859  0.1303
32781W        W39381   9.315   1.702  21.738  0.0803 -0.2110 -0.1492
32782W        W39382  11.904   1.604  34.967  0.0184 -0.3106  0.0706
32783W        W39383  20.916   3.992  32.565 -0.0053  0.2705  0.1540
32784W        W39384  12.356   1.339   9.252 -0.0954 -0.2319  0.2546
32785W        W39385   1.578   4.237  16.103 -0.1943 -0.0113  0.1597
32786W        W39386   4.434   2.551  39.368 -0.1517  0.1207 -0.0139
32787W        W39387   1.733   3.472  38.610  0.1315 -0.0956  0.1311
32788W        W39388  17.945   3.609  41.598  0.0148  0.1682  0.2399
32789W        W39389   5.400   3.639  42.632  0.0474  0.1662 -0.1520
32790W        W39390  15.909   5.275  16.499 -0.1362  0.1181 -0.1733
32791W        W39391   0.434   0.595  37.597  0.3590 -0.2310 -0.0296
32792W        W39392   9.901   4.893  38.368 -0.0238 -0.0293 -0.0325
32793W        W39393  12.025   5.650  39.760 -0.0462 -0.3148  0.1000
32794W        W39394   9.651   1.187  13.726  0.2603  0.0368  0.0945
32795W        W39395   2.301   6.037   2.447  0.1788 -0.2588 -0.2271
32796W        W39396   6.899   4.681  44.775  0.1271  0.1118  0.0400
32797W        W39397   7.812   4.452  40.954  0.3939 -0.0641 -0.0810
32798W        W39398   9.022   6.317   5.935  0.0844 -0.2251  0.3863
32799W        W39399  15.225   0.574  28.268 -0.5705  0.0916 -0.2133
32800W        W39400   3.570   2.437  38.113 -0.0197 -0.3485  0.1604
32801W        W39401   4.226   3.406  38.641 -0.0062 -0.1936  0.1593
32802W        W39402  11.776   3.994  42.496  0.1455  0.1194  0.0604
32803W        W39403  16.786   3.501  39.814 -0.5321 -0.0193  0.2141
32804W        W39404   7.072   4.724   0.621  0.0122 -0.0292 -0.1283
32805W        W39405   9.614   4.232  33.081  0.0983 -0.4583  0.2830
32806W        W39406  20.116   4.076  24.027 -0.0825  0.1093  0.1012
32807W        W39407   1.016   4.002  39.430 -0.0630 -0.1890  0.0185
32808W        W39408   8.595   1.366  44.682  0.1093 -0.3665  0.1034
32809W        W39409  18.544   1.699  33.270  0.2177 -0.1303  0.2328
32810W        W39410  15.307   2.935  34.457 -0.3737  0.2508 -0.2873
32811W        W39411   7.961   1.626   9.743 -0.0903  0.1100 -0.1007
32812W        W39412   8.366   4.500   6.328  0.0518 -0.0959  0.1182
32813W        W39413   9.204   0.527  41.435 -0.0038 -0.0763 -0.1406
32814W        W39414  19.276   5.661  41.138  0.1039 -0.0159 -0.0768
32815W        W39415   3.775   5.632  33.408 -0.0655  0.0772  0.2069
32816W        W39416  11.166   2.434  14.484 -0.1332 -0.0609 -0.1042
32817W        W39417  12.789   2.408  14.599  0.0842 -0.0594  0.2212
32818W        W39418   7.479   0.055  40.319  0.3244 -0.2544 -0.1861
32819W        W39419   7.425   2.124  37.252 -0.2428  0.0834  0.0995
32820W        W39420   7.872   1.388   1.714  0.3464 -0.1709 -0.1432
32821W        W39421   2.636   0.298  27.616 -0.0536 -0.2419  0.0748
32822W        W39422   3.276   5.042  41.622  0.1609  0.1171 -0.1000
32823W        W39423  15.724   3.915  11.302 -0.1734  0.0544  0.2221
32824W        W39424   0.279   1.211  31.445  0.1645 -0.0797  0.0114
32825W        W39425  19.184   2.395  42.949 -0.0261  0.0578  0.2969
32826W        W39426   1.960   1.845  32.184 -0.5562 -0.2731  0.1361
32827W        W39427   6.241   3.418   8.616 -0.2389 -0.4222  0.0984
32828W        W39428  15.923   5.597  13.356  0.0808 -0.4333 -0.4147
32829W        W39429  18.402   5.723  38.253 -0.2798  0.1114 -0.1064
32830W        W39430   1.758   6.471   7.712  0.0822  0.0687  0.2640
32831W        W39431   6.687   0.894   1.973 -0.2731 -0.0358 -0.1338
32832W        W39432  10.212   6.329  31.233 -0.0005 -0.0186 -0.0523
32833W        W39433  10.910   0.230  33.240  0.0301  0.0328 -0.6517
32834W        W39434   3.558   0.410   6.009 -0.0007 -0.1478  0.1892
32835W        W39435   8.100   1.939  31.411 -0.2691  0.2247 -0.1701
32836W        W39436  20.346   5.597  41.369 -0.1235  0.0206 -0.1426
32837W        W39437   7.911   0.655   3.368 -0.0881 -0.2160  0.1212
32838W        W39438  17.964   4.388  36.684  0.1090 -0.0495 -0.1112
32839W        W39439  17.368   3.253  10.517  0.2225 -0.1722  0.1519
32840W        W39440   1.669   4.224   6.326 -0.0192 -0.2174  0.1602
32841W        W39441   5.178   5.262  30.868  0.0321 -0.2623 -0.0725
32842W        W39442  20.492   5.613  37.552  0.2643 -0.0674  0.1210
32843W        W39443  14.088   2.573  20.365 -0.0128  0.0278  0.1238
32844W        W39444  17.274   2.587  26.520  0.0716  0.0265 -0.1645
32845W        W39445   2.445   3.193  30.496 -0.0969 -0.3763 -0.3106
32846W        W39446  10.836   0.054  23.324 -0.0024  0.3762 -0.1676
32847W        W39447  10.203   0.672  11.437 -0.0639  0.0155 -0.0013
32848W        W39448   8.888   2.568   9.790  0.2350  0.5138 -0.3836
32849W        W39449   2.923   4.807   6.659  0.0151 -0.0223  0.2308
32850W        W39450  18.166   2.359   6.300  0.3680 -0.2051 -0.4059
32851W        W39451  13.865   2.641  28.810  0.0742 -0.1920  0.0881
32852W        W39452  10.056   5.141  37.179  0.0002 -0.1228 -0.2356
32853W        W39453   5.818   4.434  19.383 -0.1180  0.1984  0.1640
32854W        W39454   7.278   4.335  44.581  0.0164  0.0214 -0.1783
32855W        W39455   5.384   6.327  15.993  0.2017 -0.1445  0.2248
32856W        W39456  20.329   3.842   3.700 -0.2388  0.2421 -0.0393
32857W        W39457  19.561   1.189  23.106  0.0862 -0.0609  0.0487
32858W        W39458   9.610   1.557  34.836 -0.0311 -0.0066 -0.0456
32859W        W39459   3.435   5.334   9.281  0.3449 -0.0364 -0.1437
32860W        W39460   9.043   6.145  20.530 -0.1481 -0.1225 -0.1668
32861W        W39461   1.768   2.014  29.324  0.0003 -0.2147 -0.2670
32862W        W39462   9.493   1.520  15.246  0.0677  0.1101 -0.2094
32863W        W39463  12.399   1.380   1.253 -0.0179 -0.1947  0.0662
32864W        W39464  15.496   0.915   2.144 -0.1368  0.0520  0.1574
32865W        W39465  19.431   4.627   6.694  0.0728 -0.2554 -0.0814
32866W        W39466   9.589   2.631   4.682  0.0863  0.1498  0.0638
32867W        W39467  15.955   4.088  25.906 -0.2153 -0.0536  0.1145
32868W        W39468   5.192   5.751  15.491 -0.2105 -0.3195 -0.1064
32869W        W39469  19.204   0.707  25.900  0.0540  0.1871 -0.1485
32870W        W39470  19.046   0.800  12.155 -0.0884 -0.1119  0.1753
32871W        W39471  11.792   4.500   2.215  0.0902  0.1016  0.4383
32872W        W39472  10.880   3.578  34.918 -0.0477 -0.0705 -0.2090
32873W        W39473   2.246   4.127  38.945 -0.2203 -0.0360 -0.2907
32874W        W39474   6.161   1.805   8.127 -0.2507  0.0202 -0.1215
32875W        W39475  10.398   4.816  34.169  0.1427 -0.2711  0.1238
32876W        W39476  16.888   3.410   3.176  0.3066  0.1063  0.0350
32877W        W39477  16.510   5.941  30.856 -0.0874  0.0461 -0.1826
32878W        W39478  19.641   1.405  29.665  0.0880  0.2477  0.2278
32879W        W39479   5.612   3.702  41.543  0.2472  0.0523  0.0234
32880W        W39480  14.790   3.392   8.852 -0.1203 -0.2140  0.3612
32881W        W39481   7.552   0.732  35.243 -0.0541  0.0578  0.1693
32882W        W39482   3.152   6.455  35.215  0.0950 -0.0301  0.0046
32883W        W39483   3.546   1.589  28.938  0.1887 -0.2191 -0.0664
32884W        W39484  18.542   1.774  15.338 -0.0538  0.2176  0.0385
32885W        W39485  16.931   2.229  34.006  0.1049  0.0610  0.0170
32886W        W39486  12.429   2.159   4.168  0.5563 -0.0663  0.1394
32887W        W39487  16.022   2.239  32.035  0.0151  0.0169 -0.2585
32888W        W39488  11.731   5.404  37.793  0.0501  0.2172 -0.3152
32889W        W39489   1.985   4.641  30.098  0.1361  0.0283  0.3755
32890W        W39490  13.284   3.506  41.600  0.0592  0.2309  0.1616
32891W        W39491  11.351   0.919  11.632  0.0239 -0.2772 -0.4401
32892W        W39492   3.956   0.686  16.060  0.0599 -0.1404  0.1409
32893W        W39493  12.118   4.312  31.538  0.0492 -0.0337  0.0878
32894W        W39494  17.690   1.841   2.695 -0.2773  0.3640 -0.0862
32895W        W39495  10.178   4.765  24.863  0.0895  0.0194  0.1043
32896W        W39496   9.690   6.185   7.980  0.2329  0.2409 -0.0596
32897W        W39497  14.242   4.600  36.360  0.0497  0.2126 -0.1572
32898W        W39498  14.429   0.895  13.716  0.0158  0.1455 -0.2437
32899W        W39499  12.063   0.536  39.376  0.0279  0.1392 -0.0457
32900W        W39500  20.075   3.124  15.743  0.0344  0.1456  0.1235
32901W        W39501  14.814   2.154  36.550 -0.0815  0.3153 -0.1325
32902W        W39502  16.635   4.135  26.560 -0.0262  0.1712  0.1498
32903W        W39503  17.598   1.158  43.319 -0.0848  0.0370 -0.2549
32904W        W39504   6.349   6.581  18.902  0.1125  0.2253  0.1123
32905W        W39505  14.775   2.908  43.700  0.0648 -0.2236  0.1647
32906W        W39506   6.054   4.285   1.755 -0.1390 -0.2012  0.1165
32907W        W39507  19.973   5.460  40.135  0.0267 -0.0434 -0.1338
32908W        W39508   4.726   3.785  41.836 -0.0183 -0.1499  0.1763
32909W        W39509  17.554   0.424   8.883 -0.0766  0.1281 -0.0492
32910W        W39510   5.085   1.132  13.936 -0.4388  0.0992  0.0930
32911W        W39511  19.277   2.962  22.671  0.0192 -0.1211  0.2766
32912W        W39512  12.147   5.966  43.167  0.2476 -0.2090  0.0667
32913W        W39513  12.019   1.418  32.677  0.2770  0.0792 -0.0044
32914W        W39514   2.801   3.376  44.205  0.1931  0.1282  0.4742
32915W        W39515   6.197   5.491  11.492 -0.1524  0.1006  0.1642
32916W        W39516  18.173   4.230  12.017  0.1502  0.1857  0.0074
32917W        W39517  17.293   3.315   7.819 -0.0353 -0.0647  0.0985
32918W        W39518  16.168   2.942  42.357  0.0042  0.0608 -0.0175
32919W        W39519   3.980   3.194  14.580  0.0966  0.1133  0.1099
32920W        W39520  18.207   1.706  22.104  0.0922 -0.2142 -0.4643
32921W        W39521  20.685   3.630  24.387  0.0631  0.1013 -0.1265
32922W        W39522  18.362   6.015  28.536  0.0359  0.1052 -0.2053
32923W        W39523   9.931   1.707  37.957 -0.3156  0.1898  0.1213
32924W        W39524   1.558   3.323   1.969 -0.3040  0.0851 -0.0198
32925W        W39525  10.008   2.353  30.962  0.0215 -0.2341 -0.0795
32926W        W39526  15.734   3.327  14.920 -0.2523 -0.0750 -0.2487
32927W        W39527   7.621   5.526   9.779  0.0537 -0.2936 -0.3327
32928W        W39528   5.205   0.690  14.099  0.3022 -0.0520  0.1927
32929W        W39529   1.531   1.726  37.013 -0.0838  0.2756 -0.0844
32930W        W39530   6.303   3.949  32.888  0.0852  0.0709 -0.1281
32931W        W39531  10.674   3.400  42.092 -0.0472 -0.0428  0.0055
32932W        W39532   3.572   0.200  33.900 -0.0932  0.0076  0.0115
32933W        W39533  20.351   6.582  37.791  0.3336  0.0259 -0.0172
32934W        W39534   8.437   4.445  15.402 -0.0247  0.0020  0.0452
32935W        W39535   7.586   4.035  14.351 -0.0691  0.0620  0.1038
32936W        W39536   9.813   3.218  20.881 -0.0894  0.1273 -0.1416
32937W        W39537   7.889   1.025  10.499 -0.2790 -0.0964  0.1532
32938W        W39538  15.848   2.836  37.131 -0.1060 -0.1841  0.0199
32939W        W39539  16.374   3.489  27.035  0.1945  0.0043 -0.0968
32940W        W39540  15.850   4.884   6.923 -0.2886 -0.1676  0.0545
32941W        W39541   2.564   3.588  31.801 -0.0717  0.3408 -0.0171
32942W        W39542  19.949   3.218  12.468  0.1993 -0.0076 -0.0733
32943W        W39543  13.071   6.188  33.442  0.2660 -0.1581  0.0516
32944W        W39544  11.679   4.565  45.048 -0.2487  0.0105  0.0167
32945W        W39545  17.327   0.712  14.326 -0.0606 -0.1354 -0.2607
32946W        W39546   4.612   2.847  16.983  0.2007 -0.3937  0.1825
32947W        W39547  12.543   5.545  44.648 -0.1624 -0.3453 -0.1445
32948W        W39548  12.199   5.919   5.815 -0.1205  0.2027  0.3846
32949W        W39549  19.066   3.564  40.960 -0.2256 -0.1836  0.2510
32950W        W39550  20.739   0.283   2.557 -0.0712 -0.2934 -0.0970
32951W        W39551  20.896   6.355  26.282  0.0770  0.1273 -0.0393
32952W        W39552  19.230   0.484  37.450 -0.2199  0.1762 -0.1705
32953W        W39553  19.285   3.129  23.765  0.2445  0.0055 -0.5506
32954W        W39554  11.362   5.455   5.259 -0.0204 -0.2839 -0.1400
32955W        W39555   6.421   3.830   9.380  0.0927  0.2195 -0.0049
32956W        W39556   7.266   5.898  38.310 -0.1072  0.3736 -0.1265
32957W        W39557  10.041   2.794  23.616 -0.1327  0.0519 -0.1257
32958W        W39558   9.653   4.340  11.023 -0.0097  0.2071 -0.3673
32959W        W39559  20.450   5.785  24.702  0.0136 -0.1977 -0.3381
32960W        W39560  13.611   3.393   3.059  0.0665  0.1528 -0.1829
32961W        W39561  16.840   5.659  35.994 -0.0033 -0.2548  0.0963
32962W        W39562  12.258   1.051  39.509 -0.3217 -0.0121 -0.0770
32963W        W39563   8.309   6.523  31.200 -0.1671 -0.1364  0.1669
32964W        W39564  20.319   5.810  35.460 -0.0674  0.0927  0.1475
32965W        W39565   4.158   0.110  27.552  0.1699 -0.1737 -0.2975
32966W        W39566  12.535   1.219   4.618 -0.2151 -0.0808  0.0574
32967W        W39567   1.352   6.179  39.202  0.1048  0.3670  0.0663
32968W        W39568   5.901   4.814  14.061  0.2377 -0.0815 -0.0328
32969W        W39569   4.509   6.210  41.810  0.1243 -0.0780  0.2445
32970W        W39570   8.293   0.513  20.522 -0.4219  0.0131 -0.1422
32971W        W39571  15.910   3.953  30.619 -0.1514  0.2143  0.3328
32972W        W39572   9.436   5.239  30.361  0.0767  0.0549  0.1111
32973W        W39573   9.050   5.068   7.200  0.1013  0.3998 -0.1405
32974W        W39574  12.455   0.243   1.605 -0.5475  0.1868 -0.1902
32975W        W39575  10.178   2.253   3.841 -0.1454 -0.2823  0.2347
32976W        W39576   5.783   6.027  43.409  0.1336 -0.1872  0.1141
32977W        W39577   0.986   1.586   9.368  0.3326 -0.0141 -0.0194
32978W        W39578   0.877   0.190  29.824 -0.2471 -0.0964 -0.3695
32979W        W39579   5.548   5.339  41.949  0.0014 -0.1322 -0.1513
32980W        W39580  11.387   0.908  33.181  0.3274 -0.0051 -0.5235
32981W        W39581  19.494   5.012  11.373  0.1163 -0.1402 -0.2241
32982W        W39582  19.778   0.631   3.943  0.1539  0.1753  0.1373
32983W        W39583   1.181   1.099  40.782 -0.2225  0.2416  0.1945
32984W        W39584   3.725   5.373  10.600  0.2023  0.0087 -0.3328
32985W        W39585  15.623   3.928  32.967  0.3682 -0.1519 -0.0716
32986W        W39586  11.966   4.038  14.377 -0.1266 -0.3086 -0.1113
32987W        W39587  16.491   2.732  37.676 -0.0546 -0.1014  0.1396
32988W        W39588   5.360   4.792   1.942  0.0779  0.1121 -0.0578
32989W        W39589  16.239   4.028   9.865 -0.0394 -0.1052  0.0490
32990W        W39590  10.438   2.279  34.623 -0.0770  0.0334 -0.2454
32991W        W39591   6.441   1.573  40.762  0.1012 -0.2134 -0.3188
32992W        W39592  14.078   1.493  40.605  0.0246  0.2761  0.0940
32993W        W39593   2.099   3.074   7.085  0.1522 -0.2479  0.0575
32994W        W39594  15.656   4.802  34.532  0.2299  0.2521 -0.1443
32995W        W39595  18.917   1.431  41.303 -0.1593  0.1389  0.0659
32996W        W39596   5.742   2.780  12.985  0.1649 -0.0553 -0.3140
32997W        W39597  10.180   4.279  11.284 -0.0995 -0.0280  0.2329
32998W        W39598   3.454   0.611  14.326 -0.1344  0.4384  0.0643
32999W        W39599   3.393   4.166   1.724 -0.1512  0.3162  0.1320
33000W        W39600  19.414   3.581  13.534  0.0989  0.0150  0.5701
33001W        W39601  11.114   1.936  41.264 -0.0934 -0.0419 -0.1519
33002W        W39602  17.948   2.633  36.177  0.0507  0.0400 -0.1536
33003W        W39603   0.372   2.936  34.965  0.2768 -0.1783 -0.0114
33004W        W39604   7.741   0.861  21.910 -0.1032 -0.0469  0.0289
33005W        W39605   9.779   3.632   3.115 -0.0884 -0.2038  0.4447
33006W        W39606   9.694   3.495   0.948 -0.0436  0.1714  0.0463
33007W        W39607   4.948   1.060  38.657  0.0671 -0.2701 -0.2178
33008W        W39608  13.574   1.038  13.566 -0.1212 -0.2630 -0.2483
33009W        W39609   3.533   2.773  34.909 -0.2514 -0.4125 -0.2194
33010W        W39610   3.863   0.107   9.951  0.0161 -0.1831 -0.0045
33011W        W39611   1.321   5.187  10.118  0.0187 -0.0608  0.0585
33012W        W39612  17.343   2.763   3.830 -0.1274 -0.0798  0.2790
33013W        W39613  17.430   2.656  44.861 -0.0058  0.0534 -0.1659
33014W        W39614   8.650   3.409  29.546 -0.0331  0.1078  0.1581
33015W        W39615   1.369   4.847   1.660  0.2791  0.0354  0.3389
33016W        W39616  16.764   0.624  10.656  0.1764 -0.0534  0.2343
33017W        W39617   9.149   4.859  17.399 -0.2324 -0.2995  0.0186
33018W        W39618  12.948   1.131   1.851  0.0641 -0.0976 -0.1536
33019W        W39619  18.601   2.319  24.271  0.1525  0.0191 -0.0021
33020W        W39620  11.928   2.655  14.935  0.0377 -0.3802  0.2166
33021W        W39621  12.591   3.519   1.471 -0.0280 -0.0944  0.0993
33022W        W39622   2.906   1.278  30.440  0.1908  0.1996 -0.2026
33023W        W39623  17.254   3.777  27.180  0.2968 -0.2143 -0.3023
33024W        W39624  14.740   4.593  38.308 -0.0564  0.3922  0.0605
33025W        W39625  16.450   4.966  44.381 -0.0139 -0.1286 -0.5145
33026W        W39626  11.764   5.272   8.506 -0.4917 -0.1028  0.2413
33027W        W39627  12.783   3.843   5.697  0.1059  0.2870  0.1499
33028W        W39628  14.919   5.202   3.815 -0.0574  0.0348  0.1685
33029W        W39629   4.351   4.445  15.662  0.1278  0.2408 -0.2324
33030W        W39630   4.583   0.497  30.311  0.3311  0.0197  0.2094
33031W        W39631  12.602   2.423   7.736  0.2200  0.0305 -0.2416
33032W        W39632   9.334   2.688  21.970 -0.0137 -0.1295 -0.1832
33033W        W39633   3.523   5.112  14.708  0.0253  0.4714 -0.0815
33034W        W39634   5.713   0.870  29.311  0.0948  0.2636  0.2926
33035W        W39635  17.908   0.829  28.456  0.1250 -0.4160  0.0986
33036W        W39636   0.369   6.476   4.438 -0.3743 -0.1179  0.3394
33037W        W39637  10.473   0.907   9.068  0.1705  0.0252 -0.0494
33038W        W39638  15.456   0.570  32.156  0.1580 -0.1253 -0.2431
33039W        W39639   3.310   3.071  41.505 -0.0240  0.0602  0.0308
33040W        W39640  11.468   3.437   2.811 -0.2274 -0.0883 -0.1548
33041W        W39641   2.934   0.279   4.521 -0.3336 -0.2759 -0.2381
33042W        W39642  14.035   3.461   3.890 -0.1748  0.0477  0.0186
33043W        W39643   2.084   1.958  10.154 -0.1683  0.2945  0.2155
33044W        W39644  14.254   2.069  44.235  0.0460 -0.0603  0.0109
33045W        W39645   7.124   6.342  33.379  0.0796  0.2226  0.0330
33046W        W39646   7.573   3.969  31.695  0.3607 -0.1065  0.0922
33047W        W39647  13.409   5.588  37.380  0.0265 -0.0798  0.3995
33048W        W39648  13.735   3.607  38.073 -0.1901  0.2804  0.0590
33049W        W39649   2.919   3.242  42.674 -0.3474 -0.1166 -0.2180
33050W        W39650  11.239   6.187  40.074 -0.0410  0.0837  0.2567
33051W        W39651  13.707   3.314  16.691  0.1637 -0.0398 -0.0195
33052W        W39652  16.013   4.880   2.393 -0.1718 -0.0806 -0.2080
33053W        W39653   7.563   2.122   6.728 -0.1835 -0.3341 -0.1735
33054W        W39654  17.812   5.927  14.539  0.0091 -0.0850  0.0934
33055W        W39655  10.706   4.414  41.948 -0.0643 -0.0095  0.0307
33056W        W39656  12.126   4.688  32.364 -0.2152  0.0274  0.2380
33057W        W39657   5.099   0.044   0.612 -0.0785 -0.0063 -0.1158
33058W        W39658  11.832   5.341   9.060 -0.0873  0.0463 -0.0254
33059W        W39659   9.253   2.827  40.227 -0.1451  0.1521 -0.1220
33060W        W39660   6.704   4.278   5.675 -0.0924  0.0822  0.1760
33061W        W39661   9.457   3.818  30.586 -0.2541  0.2331  0.4068
33062W        W39662   4.095   4.780  18.646 -0.2165  0.0960  0.0734
33063W        W39663   6.668   1.123   6.302  0.0225  0.0784  0.2379
33064W        W39664  19.387   4.917  26.650  0.2425  0.1550 -0.0081
33065W        W39665   8.248   4.489  43.050  0.0627 -0.1157 -0.2645
33066W        W39666  10.022   5.205   5.656  0.1101 -0.0182 -0.0845
33067W        W39667   2.520   3.410  42.445 -0.0806  0.0817 -0.0078
33068W        W39668  20.786   3.421  21.648  0.1226 -0.1086  0.1503
33069W        W39669   1.295   5.472   0.393 -0.0848 -0.0404 -0.3018
33070W        W39670   6.235   3.918  16.282  0.0652  0.4232 -0.0193
33071W        W39671  15.644   6.237  32.314  0.1628  0.0930 -0.0122
33072W        W39672  16.134   1.991  13.750 -0.1050  0.1239  0.0053
33073W        W39673   6.489   3.061  12.625  0.1367 -0.1400  0.0093
33074W        W39674  15.805   2.565   1.561 -0.0292 -0.2779 -0.1096
33075W        W39675  18.074   5.654  31.469 -0.0758 -0.0120 -0.3247
33076W        W39676  12.720   6.483   5.707 -0.0681 -0.2211  0.0758
33077W        W39677  11.300   5.746  38.840 -0.1553 -0.3740  0.2823
33078W        W39678  13.268   4.299   0.556  0.0399  0.0628  0.3984
33079W        W39679  15.970   0.384  32.058  0.2586 -0.0960 -0.1131
33080W        W39680  17.466   2.494   3.040 -0.0698 -0.0230  0.0139
33081W        W39681   6.502   4.012  35.245  0.2061 -0.0429 -0.1617
33082W        W39682   2.766   3.942  26.702 -0.1598  0.0726 -0.1418
33083W        W39683   3.548   5.787  43.059  0.1315 -0.1776  0.1232
33084W        W39684   9.982   6.089  32.461  0.1509 -0.0538  0.1027
33085W        W39685   1.589   2.946  31.463 -0.2461  0.2129  0.0410
33086W        W39686  20.714   2.255  24.851  0.1873 -0.2337  0.0916
33087W        W39687   0.758   2.331  38.725 -0.3140 -0.1212 -0.1131
33088W        W39688  18.408   3.213  26.027  0.4217 -0.2012 -0.1251
33089W        W39689  20.547   0.598  34.409  0.0429  0.2675  0.1174
33090W        W39690  17.129   2.679   4.514  0.0663 -0.2257  0.0379
33091W        W39691  10.088   1.311  34.664  0.1485 -0.0140 -0.2754
33092W        W39692  16.886   2.892  42.935  0.0592  0.0042 -0.1606
33093W        W39693   6.772   3.075  32.118 -0.0216  0.0121  0.1664
33094W        W39694  18.246   1.682  40.135  0.0988 -0.0235 -0.0184
33095W        W39695   0.859   0.169   7.029  0.1008  0.3134 -0.2725
33096W        W39696   3.260   3.912  15.093  0.0909 -0.3743  0.1329
33097W        W39697   5.480   4.217  41.687  0.1180  0.0210 -0.2422
33098W        W39698   2.247   6.595  43.440  0.1749 -0.0832  0.1821
33099W        W39699  12.467   1.900  28.511  0.2158  0.1776  0.1680
33100W        W39700  21.071   2.333  24.530 -0.0130 -0.0687 -0.2030
33101W        W39701  11.779   1.137  22.124  0.2019 -0.0692  0.2717
33102W        W39702  19.367   0.161  12.071  0.0105  0.1492 -0.1380
33103W        W39703   9.238   1.851  38.921  0.0238  0.0868  0.1326
33104W        W39704  16.638   2.874   1.764  0.2232  0.1644 -0.0865
33105W        W39705  11.432   1.434  44.607 -0.2434  0.0559 -0.2233
33106W        W39706  19.556   3.544  42.713  0.1066 -0.2872  0.1123
33107W        W39707  17.599   2.955   8.757 -0.2232  0.1430  0.0249
33108W        W39708   3.665   2.203  10.063 -0.0077  0.3752 -0.2708
33109W        W39709  20.509   3.631  40.848 -0.1386 -0.2651  0.1895
33110W        W39710  16.423   4.652  12.394 -0.1503  0.2105  0.0556
33111W        W39711  10.330   1.476   9.423  0.3283  0.2451  0.1280
33112W        W39712  14.054   3.132  37.420  0.2071 -0.0600 -0.0466
33113W        W39713   8.415   4.180  22.228  0.0388 -0.1260  0.1534
33114W        W39714  15.184   1.697   4.671 -0.0586 -0.1512 -0.1139
33115W        W39715   2.165   6.573   4.734  0.3105 -0.2157 -0.0845
33116W        W39716   1.940   0.526  14.819  0.0001  0.1329  0.2187
33117W        W39717   4.881   5.467  28.057  0.0862 -0.1325 -0.3374
33118W        W39718   2.807   3.579  37.861  0.0508 -0.0302 -0.1402
33119W        W39719  12.392   4.814  14.606  0.2397 -0.2716  0.2905
33120W        W39720  15.700   3.619   6.601  0.2339  0.0807 -0.1857
33121W        W39721  16.493   0.768   4.904 -0.0319 -0.2105  0.0157
33122W        W39722  12.922   4.351  10.042 -0.0608  0.1002 -0.1344
33123W        W39723  19.643   0.347  24.712  0.3194  0.1437  0.1893
33124W        W39724   9.496   3.454  31.259 -0.0779  0.1161  0.3173
33125W        W39725  11.274   2.513  43.744 -0.0418 -0.0995  0.1022
33126W        W39726  10.981   4.359  21.532  0.0554  0.2724  0.1111
33127W        W39727   2.237   0.115  12.267 -0.2395 -0.0767  0.0520
33128W        W39728   7.034   4.548  31.844 -0.1558 -0.1030  0.3419
33129W        W39729   2.073   6.111   1.523  0.1077  0.0066 -0.0041
33130W        W39730  12.828   1.371   3.686 -0.0299 -0.0375 -0.2342
33131W        W39731   4.248   4.272   3.342 -0.0325  0.0814  0.0365
33132W        W39732  17.779   4.498  43.366 -0.0533 -0.0607  0.0798
33133W        W39733   2.064   6.142  33.614 -0.2005 -0.0388 -0.1065
33134W        W39734   0.993   6.091  28.215 -0.0127  0.2167  0.0796
33135W        W39735  12.714   3.031  36.633 -0.2796  0.0356  0.0986
33136W        W39736   8.432   6.370  34.383 -0.0271 -0.0629  0.1257
33137W        W39737  12.612   5.128  34.684 -0.0523 -0.0935  0.0458
33138W        W39738   9.926   5.236   8.822 -0.2978  0.2879  0.2262
33139W        W39739  19.068   4.558  41.848  0.1315 -0.0690  0.2278
33140W        W39740  13.164   3.469  16.601 -0.0383 -0.0953  0.0758
33141W        W39741  15.451   3.330  30.153 -0.1593 -0.0927  0.1921
33142W        W39742  11.052   4.512  38.748 -0.0078  0.1061 -0.4077
33143W        W39743   8.614   4.126  44.164  0.0623  0.0725  0.0860
33144W        W39744  13.814   4.198   6.534 -0.0619 -0.0850 -0.0281
33145W        W39745  13.372   2.650  44.220  0.1823  0.2215 -0.1093
33146W        W39746  20.937   1.461  21.998  0.0145 -0.0841 -0.1864
33147W        W39747  12.721   6.097   6.651 -0.0297  0.0577 -0.1481
33148W        W39748  15.475   2.775   1.174 -0.1639  0.4465 -0.1678
33149W        W39749  17.737   3.746  35.231  0.0819 -0.0938 -0.1627
33150W        W39750  14.074   2.819  14.879  0.1598 -0.1592 -0.1822
33151W        W39751  10.231   0.343  19.717 -0.0349 -0.0166  0.0260
33152W        W39752   1.348   3.743  39.235 -0.3034  0.2787  0.1201
33153W        W39753  17.124   1.443  29.851 -0.3211 -0.1115  0.3808
33154W        W39754   4.787   5.280  30.032 -0.0458 -0.1662  0.4086
33155W        W39755   9.681   4.374  36.695  0.0026 -0.0013 -0.1780
33156W        W39756  14.295   2.309  36.326  0.2351 -0.0536  0.0076
33157W        W39757  14.092   5.077   1.669 -0.3074  0.1285 -0.1516
33158W        W39758   5.095   4.932  12.527 -0.3978  0.1089 -0.4408
33159W        W39759   7.822   1.148  38.387  0.0140 -0.1349 -0.0936
33160W        W39760  15.818   2.664   2.087 -0.2390  0.1786 -0.1708
33161W        W39761   5.054   3.296   6.251  0.0689  0.4570  0.3171
33162W        W39762   2.126   2.079  37.124 -0.0287 -0.0747 -0.1143
33163W        W39763   9.010   5.284  44.734  0.2038  0.1382 -0.2775
33164W        W39764   7.392   2.472  40.576  0.1049  0.2558 -0.0485
33165W        W39765   8.282   1.097  22.651 -0.0042 -0.0288  0.0252
33166W        W39766   2.509   2.408  26.174  0.2143 -0.1604  0.0382
33167W        W39767   8.415   6.551  20.778 -0.2869  0.1703  0.0828
33168W        W39768   6.430   3.329   1.458  0.0270  0.0466  0.2088
33169W        W39769  20.864   0.730   7.287  0.2071 -0.1283  0.1612
33170W        W39770   8.083   4.814   6.096  0.2799 -0.0423 -0.2771
33171W        W39771   8.765   2.035  38.969  0.0950 -0.1796  0.1586
33172W        W39772  19.279   2.229  39.092 -0.0426  0.3302  0.0666
33173W        W39773   9.042   0.532   9.178 -0.0584  0.2065  0.0021
33174W        W39774  13.094   3.135   4.506  0.2718  0.3750  0.1080
33175W        W39775  12.137   1.787  28.142  0.1608 -0.0589  0.0673
33176W        W39776   7.400   5.257   0.425 -0.1613  0.0331 -0.0921
33177W        W39777  12.034   1.075  35.176 -0.0654 -0.2016  0.1910
33178W        W39778  17.474   1.414  40.615  0.0957 -0.0643  0.0715
33179W        W39779  11.129   5.776   0.322  0.0182  0.1700 -0.1750
33180W        W39780  17.515   6.538   3.600  0.0325  0.1037 -0.0816
33181W        W39781  18.988   2.151   9.391  0.2144  0.0418 -0.1081
33182W        W39782   8.481   6.030  31.604 -0.0996 -0.1360 -0.0344
33183W        W39783   4.784   1.549  44.044 -0.0732  0.1372 -0.0145
33184W        W39784  17.708   6.341  33.515  0.0597  0.1439  0.2870
33185W        W39785  11.625   0.885  14.872 -0.2234  0.1457 -0.3329
33186W        W39786   8.486   2.248   8.026 -0.0225 -0.2745 -0.1749
33187W        W39787   3.085   2.019  28.136 -0.3587  0.0664 -0.1455
33188W        W39788  16.549   1.744   3.492  0.1417 -0.2873 -0.2589
33189W        W39789  17.492   4.851  14.531 -0.1083  0.1330  0.1255
33190W        W39790   0.366   3.219   4.113 -0.0010 -0.3517 -0.0447
33191W        W39791   7.251   3.924  44.861 -0.3124 -0.2109 -0.0738
33192W        W39792   2.013   3.359  44.434  0.2201 -0.2863 -0.0234
33193W        W39793  16.549   0.224  35.914  0.1454 -0.1814  0.2126
33194W        W39794   4.044   1.179  39.784  0.1143  0.1127 -0.0157
33195W        W39795   8.360   6.527  43.804 -0.1351 -0.0012 -0.1284
33196W        W39796   8.144   4.787  41.217 -0.1307 -0.1393  0.3267
33197W        W39797   2.353   0.450   9.080  0.0650 -0.2905  0.2018
33198W        W39798  11.213   0.330  41.753 -0.2050 -0.1410  0.1937
33199W        W39799   2.103   1.297  11.587 -0.2289  0.3390 -0.0580
33200W        W39800  13.727   3.674   2.165  0.1634 -0.0170  0.1292
33201W        W39801  10.655   5.445   9.892  0.1250  0.0262  0.1370
33202W        W39802  11.216   5.887  44.095  0.1501  0.0024  0.0894
33203W        W39803   1.906   3.606  26.398 -0.0624  0.0481  0.0887
33204W        W39804  15.971   2.092  12.174  0.0232  0.1719 -0.0914
33205W        W39805  17.790   3.002   4.991 -0.1030 -0.2994  0.3329
33206W        W39806  12.391   5.816   6.308 -0.1149  0.4143 -0.0130
33207W        W39807  19.524   0.565  15.087 -0.1753 -0.3611  0.1835
33208W        W39808   1.968   2.448  29.543  0.0673  0.2947 -0.3430
33209W        W39809  18.190   4.203  32.316 -0.2554  0.2702 -0.2052
33210W        W39810   8.312   1.028  13.058  0.0587  0.2674 -0.3470
33211W        W39811   1.454   6.109  34.840  0.2162  0.3065 -0.0065
33212W        W39812  15.640   5.760  41.502  0.1438  0.0412  0.0649
33213W        W39813  15.042   2.993  10.151 -0.2142  0.2674 -0.0836
33214W        W39814   2.531   6.322  33.821 -0.1124  0.0328  0.3357
33215W        W39815   5.092   6.287  39.378  0.1560 -0.1071  0.0540
33216W        W39816  21.077   4.709  44.581 -0.1374  0.1373 -0.0659
33217W        W39817  10.362   0.903  35.611 -0.0842 -0.0131 -0.0860
33218W        W39818   2.928   6.394   9.960  0.0645  0.3757 -0.0597
33219W        W39819  16.412   1.131  32.045  0.0899  0.1653 -0.0906
33220W        W39820  18.487   0.558  30.919  0.0092  0.0704 -0.2787
33221W        W39821  13.409   3.034  43.385  0.0850  0.1944 -0.1389
33222W        W39822  18.724   4.580   9.357 -0.0581 -0.0569 -0.1970
33223W        W39823  20.733   2.859  11.160 -0.3113 -0.0111  0.1171
33224W        W39824   0.604   5.352   1.221  0.2841 -0.3368 -0.0218
33225W        W39825   6.906   1.420  40.762  0.1761 -0.1441 -0.1304
33226W        W39826  17.112   0.049  38.866 -0.0795 -0.3024 -0.0585
33227W        W39827   7.542   5.483   3.891  0.0059  0.1270  0.0819
33228W        W39828  16.136   3.575   1.200  0.0033 -0.0678  0.2532
33229W        W39829   3.214   5.639  38.141  0.0456  0.1121 -0.1202
33230W        W39830   0.287   4.591  29.615  0.3007 -0.0829 -0.0250
33231W        W39831  15.659   3.687  26.012  0.3385 -0.1883  0.0310
33232W        W39832  20.033   3.355  42.603  0.2024  0.2628  0.0786
33233W        W39833   4.513   6.512  11.762 -0.2429 -0.0487  0.3062
33234W        W39834   5.080   6.493  32.961  0.1224  0.1279 -0.2210
33235W        W39835  10.701   0.300  22.836  0.0225  0.0035 -0.1313
33236W        W39836  12.100   5.060  10.276  0.1873 -0.0730 -0.2816
33237W        W39837  15.328   2.755  26.153 -0.1110  0.1788  0.0978
33238W        W39838   1.454   0.727  12.106 -0.2187 -0.2275 -0.1017
33239W        W39839   0.611   2.304  32.077  0.0992  0.0032 -0.1248
33240W        W39840  17.646   0.263  25.605 -0.1813 -0.1308  0.2473
33241W        W39841  12.556   6.186   0.079 -0.1814 -0.1047  0.1890
33242W        W39842   9.502   3.986  44.712  0.0363 -0.2332 -0.0930
33243W        W39843  18.503   4.934  33.921 -0.2148 -0.0206  0.0392
33244W        W39844  11.697   5.417  38.855  0.3005 -0.4600 -0.0701
33245W        W39845   8.407   0.640  22.787 -0.0344  0.0912 -0.0785
33246W        W39846  19.113   6.499  22.987 -0.1568 -0.0163  0.1390
33247W        W39847  18.477   1.515  14.858  0.0824 -0.1229 -0.0447
33248W        W39848   6.209   3.053  31.997  0.0894 -0.2651 -0.2822
33249W        W39849  20.830   6.591   3.306 -0.0617 -0.3421 -0.2237
33250W        W39850  17.256   3.341  29.253  0.1998 -0.1214  0.1065
33251W        W39851  14.238   4.124  44.949  0.4267  0.1265  0.2463
33252W        W39852   2.889   0.494  13.572 -0.0871  0.0494  0.0514
33253W        W39853  16.632   5.259   3.934 -0.0545  0.0199  0.2661
33254W        W39854   4.373   0.794   3.222  0.1972  0.1001  0.1877
33255W        W39855  15.133   1.820  15.204  0.4564  0.3541 -0.0113
33256W        W39856   3.852   5.799  32.959 -0.2391  0.0181 -0.6791
33257W        W39857   6.781   2.499  36.857 -0.0296  0.0798 -0.2159
33258W        W39858   3.951   2.411  42.360  0.1166 -0.1665 -0.1648
33259W        W39859   4.188   4.685  29.679 -0.0298 -0.2196  0.5489
33260W        W39860   8.585   4.516  18.637 -0.2196 -0.0393 -0.1533
33261W        W39861  19.565   2.158   0.525 -0.2832 -0.0033 -0.1106
33262W        W39862   5.768   5.912  42.627 -0.0221 -0.3666 -0.2593
33263W        W39863   3.671   2.577   2.359  0.0819 -0.1928 -0.0127
33264W        W39864  17.422   0.731   4.123  0.1214 -0.0265  0.1783
33265W        W39865   0.747   3.532  15.156  0.0459 -0.0015  0.2686
33266W        W39866  18.803   5.464  24.594 -0.1463  0.3670 -0.0320
33267W        W39867   6.385   1.850   6.885  0.3074  0.2036 -0.1806
33268W        W39868  16.823   0.203   0.200 -0.0662 -0.0480  0.0020
33269W        W39869  16.673   5.372  32.100  0.1394 -0.0099  0.0633
33270W        W39870   0.821   6.018   5.634 -0.0179  0.0427 -0.1478
33271W        W39871  19.647   2.623  20.330 -0.0741 -0.0123  0.0768
33272W        W39872  20.954   0.974   9.931  0.1331 -0.0773 -0.0016
33273W        W39873   0.044   4.274   1.329 -0.1034 -0.1454 -0.1409
33274W        W39874  16.764   2.545  15.841 -0.0104 -0.3718  0.2313
33275W        W39875  19.757   1.428   5.754  0.2101  0.0865 -0.2316
33276W        W39876   8.964   0.561  42.676 -0.0629 -0.1898 -0.1322
33277W        W39877   4.383   5.409  28.058  0.0655 -0.3111  0.0858
33278W        W39878  18.456   1.804  28.457  0.2889  0.2540  0.0544
33279W        W39879  12.957   0.098   8.750  0.1279 -0.0231  0.1136
33280W        W39880  10.157   1.375   4.032  0.1839  0.2455 -0.2213
33281W        W39881  20.954   1.887  24.362 -0.3752  0.1253  0.0590
33282W        W39882  11.973   1.593   6.058 -0.0438 -0.0272 -0.1848
33283W        W39883   8.697   5.181  24.402 -0.0867 -0.2941  0.0364
33284W        W39884   7.849   5.730  15.625 -0.2196 -0.2349  0.0191
33285W        W39885   4.889   5.135  44.619  0.0495  0.2671 -0.0442
33286W        W39886   6.695   5.347   2.690 -0.1771 -0.0905 -0.0687
33287W        W39887  10.881   0.606  44.813  0.0672 -0.0036 -0.0621
33288W        W39888  17.989   1.803   4.549 -0.0140 -0.3628  0.0637
33289W        W39889   5.853   6.568   7.728 -0.0515 -0.0951  0.3716
33290W        W39890  16.796   3.775  33.565  0.3468 -0.1426  0.0343
33291W        W39891   0.093   3.750   2.166 -0.1683  0.0574  0.0042
33292W        W39892  12.711   3.552  34.020 -0.3146  0.1354 -0.0939
33293W        W39893   4.508   5.940  13.359 -0.1315 -0.2398  0.0563
33294W        W39894  10.659   1.188  42.771  0.0808 -0.1097 -0.3166
33295W        W39895  15.054   2.618  42.349  0.1950  0.2434  0.0594
33296W        W39896  13.552   4.508  39.664 -0.1931 -0.2430  0.3275
33297W        W39897   9.022   1.822  32.406  0.0312  0.2585 -0.2087
33298W        W39898  19.005   0.840  43.633 -0.0798 -0.0842 -0.0677
33299W        W39899  19.127   5.191  23.857 -0.1172 -0.1334  0.2878
33300W        W39900  13.643   0.554   4.040 -0.0011 -0.2775 -0.0700
33301W        W39901  11.134   4.211  34.254  0.2231 -0.3308  0.0386
33302W        W39902   4.970   2.863  11.610 -0.1227 -0.0230  0.1101
33303W        W39903   3.239   1.803  27.438 -0.3053 -0.1329  0.0083
33304W        W39904   9.803   6.009  40.223  0.0114  0.3117 -0.1871
33305W        W39905  19.471   0.747   5.236  0.4680  0.1042  0.1424
33306W        W39906   5.038   1.192  12.631  0.1701  0.0624  0.0388
33307W        W39907   6.881   3.205  17.158  0.0172 -0.3549 -0.0128
33308W        W39908  10.996   6.160  35.615  0.0044 -0.0952 -0.0082
33309W        W39909  12.882   0.275  40.836  0.1967 -0.0745 -0.2282
33310W        W39910   0.199   0.294  42.064  0.0727  0.2222  0.0257
33311W        W39911  15.255   2.531  31.509  0.0730  0.1931  0.0439
33312W        W39912  11.516   6.039  13.994 -0.0999  0.2814  0.2789
33313W        W39913   2.620   4.293  12.622  0.0295  0.0910 -0.2538
33314W        W39914   1.669   4.350   7.101  0.0872  0.2524 -0.0803
33315W        W39915   0.085   0.866  21.921 -0.3489 -0.0588  0.1717
33316W        W39916   2.291   1.965  25.369 -0.2725  0.0219  0.1856
33317W        W39917  13.946   0.594  14.369 -0.1149 -0.2224  0.0685
33318W        W39918  20.709   0.695  43.159 -0.0602 -0.3209 -0.0891
33319W        W39919  18.705   4.052   6.607  0.2110 -0.2172  0.1531
33320W        W39920  18.509   0.632   4.384  0.0912  0.0947 -0.0408
33321W        W39921   7.947   0.313  23.501 -0.2007  0.0030  0.3478
33322W        W39922  11.231   3.861  29.440 -0.2733 -0.0736  0.1550
33323W        W39923  16.643   4.522   4.320  0.0928 -0.0411 -0.2086
33324W        W39924  10.754   0.371  29.285 -0.2560  0.0473 -0.1796
33325W        W39925   3.907   0.578  37.924  0.0812  0.1806  0.0183
33326W        W39926   2.906   4.871   7.881  0.1809 -0.0942  0.1474
33327W        W39927   2.681   0.672  33.906 -0.4423  0.0137  0.5066
33328W        W39928   8.056   1.303  11.978 -0.2956  0.1135  0.1100
33329W        W39929  13.165   0.305  36.571 -0.0004 -0.0215  0.2778
33330W        W39930   5.131   6.093   4.069 -0.0134 -0.0115 -0.2784
33331W        W39931  11.351   5.386  30.741 -0.1360 -0.1561  0.0781
33332W        W39932  14.060   6.312  36.386  0.1117 -0.2568  0.2140
33333W        W39933   6.956   3.952  43.906  0.0473  0.0439 -0.0695
33334W        W39934   2.521   1.453  32.971  0.0005 -0.0252 -0.2138
33335W        W39935  14.057   4.990   2.218  0.0739  0.0841  0.2453
33336W        W39936   7.422   1.607   1.905  0.1141 -0.0900  0.3982
33337W        W39937   1.699   4.007  31.873 -0.0465  0.0393 -0.2680
33338W        W39938  18.493   1.645   7.053  0.1079 -0.2982 -0.1567
33339W        W39939  18.335   3.886  31.910 -0.1139  0.2687  0.2151
33340W        W39940   7.448   4.612  42.360 -0.3580 -0.0143 -0.1665
33341W        W39941   1.834   1.703   4.093 -0.3233  0.0616 -0.1225
33342W        W39942  10.378   4.345   8.512 -0.1226 -0.1226 -0.2945
33343W        W39943   6.845   2.554   6.412 -0.0534  0.0127 -0.0190
33344W        W39944  15.682   1.006   5.134 -0.1288 -0.1961 -0.0343
33345W        W39945   1.124   0.859  31.839 -0.2505 -0.0277 -0.0151
33346W        W39946  11.381   6.240  22.983  0.0887  0.0997  0.0230
33347W        W39947   7.741   0.339  38.806  0.0582  0.1955 -0.2425
33348W        W39948   0.829   4.939  33.685  0.0171 -0.1514 -0.2836
33349W        W39949  12.846   2.517  10.281 -0.1729 -0.2657  0.0669
33350W        W39950  11.986   3.361  29.308  0.1135 -0.0139  0.0285
33351W        W39951  16.655   1.218  42.465  0.0318 -0.0522 -0.1174
33352W        W39952   9.441   5.894  34.230  0.0865 -0.0059  0.2814
33353W        W39953  17.466   5.721  14.831 -0.1826  0.0098  0.1650
33354W        W39954  21.119   5.991   0.946  0.0502 -0.0103 -0.0232
33355W        W39955   7.966   3.183  30.802  0.0639  0.1595 -0.0950
33356W        W39956  16.875   3.830  30.907  0.4167  0.1585  0.1782
33357W        W39957  12.160   2.951  15.284 -0.0246 -0.3127  0.1003
33358W        W39958   5.978   4.588  43.695 -0.0079  0.3539 -0.0394
33359W        W39959   7.266   6.201  22.376  0.0779  0.0386 -0.0067
33360W        W39960  17.694   6.423   9.643  0.1793  0.1226 -0.3824
33361W        W39961  19.997   4.346  41.900 -0.0996 -0.0029  0.3022
33362W        W39962   1.424   3.138  10.481  0.2422  0.0901  0.2489
33363W        W39963  19.476   0.941  32.062 -0.2247 -0.0286 -0.0806
33364W        W39964   9.093   5.500  13.511 -0.1379  0.0602 -0.1601
33365W        W39965   5.043   3.347  12.211 -0.0802  0.2270  0.1416
33366W        W39966  17.614   2.605  33.819 -0.2431 -0.2271  0.0355
33367W        W39967   7.636   1.559   3.067 -0.3134 -0.1135 -0.2791
33368W        W39968   5.443   0.783  15.415  0.1497  0.1707  0.2889
33369W        W39969  20.811   6.547  35.100 -0.0313  0.2788  0.2266
33370W        W39970  18.488   5.694  33.692  0.0254  0.0388 -0.3243
33371W        W39971   1.734   1.527   0.184 -0.0465  0.0923 -0.2111
33372W        W39972  20.592   5.161  41.233  0.0023 -0.0052  0.0749
33373W        W39973  18.715   3.861   2.529 -0.0376 -0.1588  0.1402
33374W        W39974  13.134   0.778  40.728  0.3793  0.1612 -0.2370
33375W        W39975  10.200   2.254  33.681 -0.2998 -0.3839 -0.1002
33376W        W39976  13.907   0.375  41.100 -0.2063 -0.2020 -0.1856
33377W        W39977  17.409   4.358   3.280  0.1974  0.4934 -0.0115
33378W        W39978   6.872   2.098  14.971 -0.0088  0.0522  0.1565
33379W        W39979   9.928   0.915  31.185 -0.0830  0.4365  0.2372
33380W        W39980   3.535   4.857  28.873 -0.2695  0.0228 -0.1559
33381W        W39981  12.150   0.864  38.525 -0.0299 -0.1583 -0.1953
33382W        W39982  12.768   3.874   3.689 -0.0956 -0.0056  0.0633
33383W        W39983   0.009   5.627   2.413  0.0046 -0.0894  0.2322
33384W        W39984   8.242   0.027   9.286 -0.0727  0.2213  0.1493
33385W        W39985  13.317   5.881  28.806  0.0585 -0.0016 -0.0631
33386W        W39986  14.693   4.547   1.626 -0.0452  0.1169 -0.0791
33387W        W39987  17.121   5.448   1.681 -0.1624 -0.0569 -0.1687
33388W        W39988  14.863   0.023  34.816 -0.1068 -0.1704 -0.1680
33389W        W39989   9.644   0.823   0.893 -0.3431 -0.3147  0.0131
33390W        W39990   5.934   3.575  42.456 -0.0924  0.0875  0.2999
33391W        W39991  20.285   6.178   0.177  0.1255 -0.0637  0.0134
33392W        W39992  16.877   6.150  38.939  0.0791  0.2418  0.3398
33393W        W39993  19.040   1.531  37.157 -0.1922  0.0382 -0.0790
33394W        W39994   8.486   5.038   6.385  0.0060  0.0108 -0.1695
33395W        W39995  14.989   6.320  31.506 -0.2702 -0.0361 -0.2996
33396W        W39996   9.175   5.147  35.534  0.0939 -0.5849 -0.1163
33397W        W39997  11.617   4.890   0.421 -0.0072 -0.1654 -0.0864
33398W        W39998  18.988   3.306  32.834 -0.0836 -0.2182 -0.2906
33399W        W39999  10.086   2.562  18.833  0.0900 -0.0627  0.0825
33400W        W40000  20.197   3.272  25.461 -0.0229 -0.1283  0.0560
33401W        W40001  11.714   6.406  29.064  0.1963  0.0372  0.0020
33402W        W40002  11.279   0.501  29.296 -0.0547  0.2147 -0.0807
33403W        W40003  19.335   0.468   3.890 -0.1472 -0.0201 -0.2782
33404W        W40004  17.382   3.037   4.746 -0.4666  0.3375  0.1135
33405W        W40005   8.692   4.616  38.951  0.2039  0.0262 -0.1939
33406W        W40006   8.464   2.696  36.586 -0.1060  0.1785 -0.3416
33407W        W40007   0.762   0.913   3.546 -0.2752 -0.0445 -0.3656
33408W        W40008  12.246   4.288  37.239 -0.0884  0.1640  0.0527
33409W        W40009   4.757   4.159   3.625 -0.2667  0.1486  0.1692
33410W        W40010  15.956   6.263  13.803 -0.0777  0.0736 -0.2651
33411W        W40011  20.681   5.316  38.010  0.3192  0.1439 -0.1376
33412W        W40012   0.093   4.323  39.659  0.2017  0.2309 -0.0947
33413W        W40013  13.566   6.135  12.784  0.2742  0.0782  0.1924
33414W        W40014  11.834   6.079  15.110 -0.3643  0.2233 -0.0601
33415W        W40015  19.143   4.157  32.521 -0.0697  0.0893  0.1807
33416W        W40016  10.383   4.930  42.834 -0.4198 -0.1237  0.0823
33417W        W40017   6.868   0.417  15.305 -0.2796  0.0974  0.2593
33418W        W40018  15.330   0.571   8.392  0.1822 -0.3304 -0.1018
33419W        W40019  17.974   1.262  23.224  0.1527  0.1253  0.1418
33420W        W40020   5.750   4.461   8.076  0.0553 -0.1545 -0.1377
33421W        W40021   3.916   1.454  31.809  0.0893  0.2751 -0.1068
33422W        W40022   8.921   4.882  17.909 -0.2592  0.2399  0.3094
33423W        W40023   7.399   5.057  19.337 -0.0303  0.1719  0.1114
33424W        W40024   7.740   3.178   3.974  0.2472 -0.0038  0.1438
33425W        W40025  14.792   3.442  12.157 -0.4270 -0.1082  0.1504
33426W        W40026  20.154   5.785  32.439 -0.2107 -0.1458 -0.2081
33427W        W40027   5.037   0.187  19.227 -0.2189  0.1766  0.1351
33428W        W40028   4.030   4.940   1.329  0.2928 -0.1729 -0.2227
33429W        W40029   5.935   4.969  42.026  0.2017 -0.0646  0.1420
33430W        W40030   7.788   5.778   8.074 -0.0753 -0.2337  0.2103
33431W        W40031  14.761   4.551  28.964 -0.3231  0.2476 -0.3194
33432W        W40032  15.202   3.037   2.573  0.0649  0.1175  0.1746
33433W        W40033  16.735   1.538  31.343  0.1226 -0.0112  0.3864
33434W        W40034   3.289   3.536  12.488 -0.3619  0.1127 -0.1956
33435W        W40035   0.901   0.673   3.153  0.0421 -0.0849 -0.2653
33436W        W40036  20.887   1.026  42.714 -0.0068 -0.1288  0.5012
33437W        W40037  12.532   1.906  42.247 -0.0277 -0.0482  0.2665
33438W        W40038  15.109   6.115   5.044 -0.3102 -0.0364  0.0030
33439W        W40039  19.252   0.921  44.038  0.0832  0.3098  0.1606
33440W        W40040   0.670   6.065  43.578  0.0195  0.0549 -0.1541
33441W        W40041  20.348   6.156   5.274  0.1688  0.1381 -0.0304
33442W        W40042  18.589   6.403  42.574 -0.0163 -0.1358  0.0908
33443W        W40043  20.170   5.029  26.998 -0.1962  0.2241 -0.0940
33444W        W40044  10.106   6.037  23.118  0.0034 -0.2184  0.0607
33445W        W40045  18.068   2.292  34.476  0.0905  0.0138 -0.0077
33446W        W40046  16.676   6.236  13.143  0.0064  0.2129  0.3573
33447W        W40047   9.077   6.576  36.244  0.2362  0.0444 -0.0976
33448W        W40048  16.089   0.825   9.735  0.2596 -0.0495 -0.1834
33449W        W40049  12.883   5.674  33.532  0.0297  0.0754 -0.1656
33450W        W40050  20.813   0.159  12.473  0.1552 -0.0075  0.1185
33451W        W40051  10.759   5.389  41.636  0.0766 -0.3601  0.0602
33452W        W40052  14.695   1.793  34.383 -0.1036  0.4319 -0.2228
33453W        W40053   9.755   0.596   9.606  0.1051 -0.0765  0.1312
33454W        W40054  13.017   6.403  17.856  0.1792 -0.0465 -0.1130
33455W        W40055   8.929   5.764  20.144  0.0890 -0.0865  0.1638
33456W        W40056   9.132   6.141  37.029 -0.1874  0.1044 -0.0788
33457W        W40057  19.815   4.436  22.475  0.2471  0.1438 -0.2570
33458W        W40058   7.908   0.845  34.830 -0.0075 -0.1706 -0.1024
33459W        W40059   3.924   0.488  31.759 -0.0480 -0.1818  0.1550
33460W        W40060  10.903   2.590  23.010  0.0365  0.1827  0.1165
33461W        W40061   9.510   3.344  38.695  0.1235 -0.1205  0.2528
33462W        W40062   6.157   0.730  45.059 -0.0146  0.1509 -0.0481
33463W        W40063  12.805   4.354  38.510 -0.1934  0.2710  0.0756
33464W        W40064   3.909   6.275  36.736 -0.2338  0.1533 -0.0100
33465W        W40065   4.506   4.940  13.837  0.1847 -0.0373 -0.1777
33466W        W40066   9.483   5.858  42.664 -0.3317  0.0269 -0.0259
33467W        W40067  13.805   1.474  32.235 -0.0639  0.2379  0.1726
33468W        W40068   1.341   4.965  29.277 -0.1308  0.0533  0.3394
33469W        W40069   8.971   0.123  23.032 -0.2062 -0.2230 -0.0245
33470W        W40070  15.622   4.258  39.636  0.2173 -0.1890 -0.0466
33471W        W40071  16.430   5.175   5.477  0.3035 -0.1805 -0.0133
33472W        W40072   1.168   6.498  41.347 -0.2172  0.1551  0.0773
33473W        W40073   0.486   2.596  39.722 -0.1977 -0.1010 -0.2904
33474W        W40074   8.901   1.765  37.607  0.4190 -0.1012 -0.1343
33475W        W40075   3.659   5.191  37.117 -0.1645  0.5631 -0.2482
33476W        W40076   9.398   2.833  33.398 -0.3588 -0.0191 -0.2782
33477W        W40077   2.885   2.442  30.819 -0.2346  0.0362 -0.3146
33478W        W40078  19.266   5.269  24.397  0.1128  0.1447  0.0472
33479W        W40079  14.800   2.522   0.147 -0.3423  0.0419 -0.0301
33480W        W40080  14.429   5.195   3.692  0.0033  0.1284 -0.2483
33481W        W40081  18.507   1.250  12.896 -0.0675 -0.0043  0.0536
33482W        W40082   8.379   0.674  43.638 -0.1070  0.1714 -0.1003
33483W        W40083  16.029   2.020  43.290 -0.2322 -0.2748 -0.0902
33484W        W40084   4.663   2.132  31.587 -0.1638  0.4651  0.1378
33485W        W40085   5.242   4.767   0.140  0.2091  0.3079  0.0710
33486W        W40086   5.205   0.329  45.045  0.1997 -0.0884 -0.1329
33487W        W40087   8.536   5.972  16.244 -0.3008  0.1636  0.0007
33488W        W40088   6.893   6.149  15.687  0.0363 -0.0793 -0.1405
33489W        W40089   4.475   1.986   7.985 -0.0613  0.0141 -0.4137
33490W        W40090   6.730   2.640  12.651 -0.0957  0.1402 -0.1959
33491W        W40091  11.667   4.290  28.591 -0.1516 -0.0354 -0.0241
33492W        W40092  12.687   6.498  28.810  0.0436 -0.1933 -0.4243
33493W        W40093  18.208   2.978  10.712  0.4657  0.0062 -0.0122
33494W        W40094   9.085   4.145  41.903  0.2135 -0.0856  0.0023
33495W        W40095   0.567   0.926  41.612  0.1325 -0.0249 -0.0164
33496W        W40096  13.172   5.170  18.228 -0.0445 -0.1163  0.1377
33497W        W40097  12.566   3.010  28.621 -0.0886 -0.0514 -0.2411
33498W        W40098  16.405   2.915  34.866  0.3659  0.0224 -0.1952
33499W        W40099   5.815   6.569  17.623  0.0570 -0.1412 -0.1042
33500W        W40100   5.661   1.716  28.996 -0.2576 -0.0880 -0.1006
33501W        W40101   8.559   1.232  21.800 -0.1059 -0.2628  0.2412
33502W        W40102  14.325   0.375  42.058  0.0068  0.3619  0.0377
33503W        W40103   0.978   6.477  23.306  0.1718 -0.0403 -0.0475
33504W        W40104  18.485   1.452  31.306 -0.1181  0.0154  0.2378
33505W        W40105   0.877   6.199  13.960 -0.0493  0.0682 -0.0927
33506W        W40106  15.870   4.941   1.372 -0.0382  0.3314 -0.1903
33507W        W40107  14.946   5.248   9.365  0.1644  0.3002 -0.1672
33508W        W40108   0.781   4.168  34.396  0.2543 -0.0876 -0.2512
33509W        W40109  19.403   0.406  12.942  0.0277 -0.0255  0.0148
33510W        W40110   0.665   0.465   8.814  0.0547 -0.1678  0.2144
33511W        W40111   9.292   5.650  32.520  0.2989  0.0002  0.2322
33512W        W40112   6.841   3.694   7.338  0.0514 -0.1389  0.0804
33513W        W40113   3.297   2.106  36.393 -0.0263 -0.0167 -0.2776
33514W        W40114  16.201   5.304  10.271 -0.1884  0.3551  0.0378
33515W        W40115  19.260   0.537  32.898  0.1297 -0.1002 -0.3692
33516W        W40116  11.476   2.764  34.983 -0.1132 -0.0142 -0.3169
33517W        W40117   1.667   5.239   4.401  0.1134 -0.3304 -0.1222
33518W        W40118   1.407   0.622  42.976 -0.0753  0.0338 -0.1390
33519W        W40119   0.328   5.542   3.792 -0.0926  0.1834  0.2421
33520W        W40120   5.353   4.777  12.029  0.0938  0.0772  0.0538
33521W        W40121  12.285   2.909  11.093 -0.2059 -0.1663  0.1710
33522W        W40122  15.691   1.068  38.542  0.0659  0.0924 -0.0251
33523W        W40123  16.688   4.109  44.900  0.0459  0.1177  0.0350
33524W        W40124  10.390   4.826   2.223 -0.0090 -0.1305 -0.2772
33525W        W40125   8.449   1.688   5.561  0.0876 -0.2880 -0.0532
33526W        W40126  20.972   3.513  33.646 -0.0639  0.2313 -0.0581
33527W        W40127  21.113   4.918  24.746  0.0464  0.0127 -0.2880
33528W        W40128   5.790   0.966   2.753 -0.0619  0.3461 -0.1014
33529W        W40129   7.975   2.049   8.185 -0.0136  0.3746  0.4717
33530W        W40130   1.066   5.368  29.399 -0.0774 -0.0518  0.1838
33531W        W40131  10.511   5.384  39.066  0.1555 -0.3577  0.1642
33532W        W40132   1.450   1.176  38.321  0.0923 -0.1352 -0.0640
33533W        W40133   3.516   0.511   7.455  0.2003  0.2039  0.2491
33534W        W40134  15.637   1.034  43.682 -0.0757 -0.0166  0.1007
33535W        W40135   9.524   6.183   8.936  0.0052 -0.0217 -0.2891
33536W        W40136   5.385   6.400  37.210  0.0241 -0.1513  0.4610
33537W        W40137   5.996   1.658  11.672  0.0892  0.1262 -0.0951
33538W        W40138   1.150   2.748  27.118 -0.1597  0.0862 -0.0672
33539W        W40139   6.282   6.457  10.737 -0.1096 -0.3667 -0.1558
33540W        W40140   7.968   1.907   3.052  0.0370  0.0284  0.0791
33541W        W40141   9.737   5.948  15.514 -0.0117 -0.1745 -0.2589
33542W        W40142  13.289   4.940  44.948 -0.2428  0.0040  0.1952
33543W        W40143   7.033   6.127   5.738 -0.0595  0.1988 -0.1816
33544W        W40144  19.883   5.825  16.033  0.2363  0.3675  0.0377
33545W        W40145   7.574   1.233   2.241  0.0717  0.0738 -0.0600
33546W        W40146  19.670   0.161   0.057 -0.0781 -0.0875  0.2506
33547W        W40147   9.574   4.300   6.862 -0.4420 -0.1630  0.0506
33548W        W40148   1.332   2.554  35.486  0.2530  0.2253 -0.1538
33549W        W40149  18.815   2.813  26.287  0.0767 -0.1993  0.0764
33550W        W40150   4.543   5.237   2.274 -0.3820 -0.1173  0.1009
33551W        W40151  15.557   4.516  32.210 -0.1476  0.2118 -0.0106
33552W        W40152  14.647   3.622  16.796 -0.1439  0.2855  0.0005
33553W        W40153   5.974   4.689  40.086 -0.3078  0.1621 -0.3594
33554W        W40154  13.395   3.942  17.734 -0.2368  0.0286  0.1216
33555W        W40155  16.332   5.514  35.690 -0.0843 -0.1515  0.1704
33556W        W40156   8.983   3.948   7.887 -0.1473 -0.2467  0.2788
33557W        W40157  14.987   2.561   3.801 -0.0766 -0.2786  0.1413
33558W        W40158   2.837   5.131  28.958 -0.0600  0.1487  0.0533
33559W        W40159   8.440   6.086  33.508 -0.2235 -0.0618 -0.0108
33560W        W40160  18.732   0.880  34.919 -0.0747 -0.0643  0.1232
33561W        W40161   7.551   6.193   6.770 -0.0232  0.0476  0.0056
33562W        W40162   5.292   4.813  31.502 -0.1097  0.2508 -0.1681
33563W        W40163   3.186   4.920  33.007  0.0828  0.1801 -0.0026
33564W        W40164  19.043   4.736   8.089 -0.1308 -0.0517 -0.2900
33565W        W40165   1.997   4.743  14.358 -0.1605  0.4302  0.1851
33566W        W40166  20.512   2.462   6.656  0.3827 -0.0244  0.1563
33567W        W40167   0.223   3.935  40.367  0.1430 -0.0907  0.1971
33568W        W40168   6.696   6.019  20.623 -0.0321  0.1618  0.1435
33569W        W40169  18.266   2.325  33.979  0.0467  0.2274  0.3000
33570W        W40170  13.972   0.123  12.035 -0.1163  0.0288 -0.1630
33571W        W40171   5.091   2.028  11.537 -0.0787 -0.0085  0.2590
33572W        W40172  20.554   6.077  43.656  0.2927  0.2705 -0.0661
33573W        W40173   1.323   0.265  23.228  0.2971  0.0408  0.2369
33574W        W40174   8.335   1.912  19.421  0.0212  0.1961 -0.2258
33575W        W40175   1.541   4.066  10.895  0.0534  0.1955  0.0290
33576W        W40176   5.475   1.812  15.080  0.1547 -0.4602 -0.2313
33577W        W40177  21.131   3.884  12.978 -0.1300  0.1349 -0.0364
33578W        W40178  10.021   1.782  25.335 -0.0715  0.2679 -0.1181
33579W        W40179   1.823   2.935  42.114  0.1372 -0.3103  0.0924
33580W        W40180   5.232   3.583  15.104 -0.2780  0.1399  0.0104
33581W        W40181  20.304   3.022  42.371  0.1474 -0.0896  0.2560
33582W        W40182   0.965   6.049  21.892 -0.1976 -0.1169 -0.0359
33583W        W40183  10.517   6.191   6.555 -0.0300  0.1743 -0.0586
33584W        W40184  18.852   2.243   7.537 -0.1011  0.1049 -0.0627
33585W        W40185  11.752   4.071  39.221  0.1745  0.4348  0.1571
33586W        W40186  15.394   5.330  31.245 -0.0968  0.1361  0.0017
33587W        W40187   6.027   2.335   9.290 -0.3608 -0.0467 -0.1887
33588W        W40188  14.682   5.620  15.127 -0.1773 -0.2734 -0.0637
33589W        W40189   7.308   4.309   5.410 -0.0414  0.3042  0.0457
33590W        W40190   0.785   0.088  15.569  0.1849  0.0439 -0.2230
33591W        W40191  14.395   5.213  27.253  0.2406  0.0649  0.3285
33592W        W40192  10.526   1.862  18.074  0.0128 -0.2515 -0.0868
33593W        W40193  15.134   3.415   2.974 -0.1078 -0.1074  0.0617
33594W        W40194   7.271   1.512  37.946 -0.2779 -0.0129  0.2591
33595W        W40195  19.712   5.495  34.150 -0.3673 -0.0661 -0.0041
33596W        W40196  10.085   3.346   1.950 -0.1088 -0.0502 -0.2486
33597W        W40197  20.265   0.635  30.948 -0.1960 -0.1600 -0.3022
33598W        W40198  17.642   2.061   8.267 -0.1406 -0.0440  0.1366
33599W        W40199   9.295   6.521  40.609 -0.0475 -0.1907 -0.2093
33600W        W40200   8.422   5.904   0.605 -0.1917 -0.0424 -0.0306
33601W        W40201  17.660   6.236   8.419 -0.1627 -0.0588 -0.2914
33602W        W40202   9.672   3.174  22.222  0.2911  0.0307  0.0161
33603W        W40203   4.145   4.886   4.048  0.0579 -0.0514  0.2062
33604W        W40204   0.221   5.706  29.885  0.0688  0.2087  0.1373
33605W        W40205  12.489   2.877  39.790 -0.1916  0.1351 -0.0556
33606W        W40206   3.443   0.023  36.904  0.0494 -0.1963 -0.0892
33607W        W40207  12.287   0.461  41.175  0.0433 -0.0136  0.2449
33608W        W40208   4.016   1.487  13.091  0.1718  0.2270  0.0826
33609W        W40209  13.141   3.135  29.717 -0.0936 -0.2296  0.2042
33610W        W40210  11.795   5.567   2.006  0.2183  0.1712  0.0020
33611W        W40211  20.660   1.083   7.629 -0.1099  0.0404  0.2491
33612W        W40212   2.454   6.070  33.291 -0.1189 -0.1046 -0.0681
33613W        W40213  11.551   3.499   9.669 -0.4169 -0.2928 -0.0662
33614W        W40214   6.344   4.461   2.562 -0.0955  0.0980 -0.0764
33615W        W40215  14.412   5.868  38.503  0.2333 -0.0300 -0.2874
33616W        W40216   1.565   4.005  36.476 -0.2879 -0.1523 -0.3585
33617W        W40217  11.872   0.371  37.051  0.3586  0.2083 -0.0211
33618W        W40218  16.859   5.020  39.617 -0.0494  0.1899 -0.1241
33619W        W40219  20.225   2.014  14.220 -0.0369  0.0018 -0.1406
33620W        W40220   3.359   0.510   3.261  0.1982 -0.0022  0.0068
33621W        W40221   1.428   5.616  37.229  0.0486 -0.0658 -0.1266
33622W        W40222   5.292   0.256  33.213  0.0595 -0.1093  0.3145
33623W        W40223   2.096   3.931   9.182 -0.1891 -0.0863  0.0927
33624W        W40224   8.594   3.433  40.264  0.1262  0.0585 -0.4086
33625W        W40225   3.516   1.095  18.025 -0.0685 -0.3134  0.1222
33626W        W40226  14.037   3.652  14.007 -0.1209 -0.0777  0.0664
33627W        W40227   2.141   2.441  43.320  0.2528  0.0583  0.0254
33628W        W40228   3.416   5.339   8.034 -0.1170 -0.0438 -0.0084
33629W        W40229   2.440   0.038   3.560 -0.2035  0.1818 -0.0446
33630W        W40230  13.292   1.675   4.692 -0.0879  0.1045  0.1632
33631W        W40231  10.576   6.390  30.452 -0.3730 -0.0806 -0.0953
33632W        W40232  20.902   5.871   6.968  0.2090 -0.0832 -0.2498
33633W        W40233  10.215   0.791  39.866 -0.1783  0.0103 -0.0360
33634W        W40234   2.388   5.680  26.488 -0.0803 -0.3478 -0.1265
33635W        W40235   3.444   6.588   3.214 -0.0991  0.1005 -0.1101
33636W        W40236  15.670   0.447  41.367  0.3421  0.1273  0.0024
33637W        W40237  18.824   5.021  36.525 -0.3228  0.1806  0.0653
33638W        W40238   4.141   5.345   8.786 -0.2871  0.0536 -0.0273
33639W        W40239  13.349   2.329  36.950 -0.2216 -0.0967  0.0971
33640W        W40240  10.756   1.064  14.337 -0.0548  0.0164 -0.4181
33641W        W40241  19.991   6.068  41.990  0.0490  0.2454  0.0325
33642W        W40242  16.352   0.074  27.417  0.0455  0.0204 -0.0978
33643W        W40243  19.778   1.287  40.125 -0.0843  0.2468 -0.0401
33644W        W40244  17.326   4.268  26.106 -0.3875  0.1399 -0.1349
33645W        W40245  18.064   5.309  36.184  0.0237  0.2091 -0.1561
33646W        W40246   2.805   6.374  44.862 -0.2117  0.1807  0.0992
33647W        W40247   4.236   0.885   3.729 -0.1169 -0.2886  0.0312
33648W        W40248  13.869   0.663   1.849  0.0643 -0.0902  0.1348
33649W        W40249  18.751   1.636  37.566 -0.0420  0.0841 -0.3934
33650W        W40250   5.295   6.541  43.031 -0.1856  0.3649 -0.2119
33651W        W40251   6.862   5.558  19.082  0.3051  0.0440  0.2523
33652W        W40252  16.001   4.524   1.988  0.1262 -0.1201 -0.1165
33653W        W40253  10.654   4.630  31.479  0.0511  0.4578 -0.1483
33654W        W40254  13.109   1.523  39.693  0.0160 -0.2304  0.1209
33655W        W40255  10.906   4.820   7.420  0.1787  0.1483  0.1130
33656W        W40256  13.690   1.158  36.465  0.1848 -0.0958 -0.2332
33657W        W40257   3.550   2.927  38.401 -0.1437 -0.2315  0.1146
33658W        W40258  11.062   4.297  37.414  0.1762 -0.3999 -0.1657
33659W        W40259  19.458   0.813  40.912  0.1237  0.0930 -0.0863
33660W        W40260  18.332   5.363  24.437 -0.3251 -0.2045  0.1468
33661W        W40261   9.750   2.443   6.011  0.0589  0.0156  0.2298
33662W        W40262  20.064   5.478  37.739  0.2177  0.1811 -0.2693
33663W        W40263  13.450   2.757  40.726  0.1201 -0.1034 -0.2099
33664W        W40264   5.749   3.112  40.878 -0.0608 -0.1178 -0.1031
33665W        W40265   4.477   1.099  41.670  0.0958  0.0997 -0.1306
33666W        W40266   4.204   1.281  28.531 -0.1579  0.1729 -0.3304
33667W        W40267   9.440   2.050  13.091  0.0363 -0.1525 -0.5175
33668W        W40268  12.118   0.622  43.990 -0.5454  0.0928  0.1984
33669W        W40269  16.729   3.561  26.538 -0.0226 -0.0137 -0.4438
33670W        W40270  15.905   5.725  15.809  0.0514  0.3189  0.0669
33671W        W40271  10.755   2.977  29.284 -0.1583 -0.3698  0.3523
33672W        W40272  14.174   2.655  32.889  0.0802  0.1135  0.0965
33673W        W40273   8.307   6.286  18.080 -0.1221 -0.0332  0.0891
33674W        W40274   2.068   1.455  36.846  0.2118  0.0644 -0.1254
33675W        W40275  12.515   4.143  35.797  0.2270 -0.1861  0.1467
33676W        W40276  18.988   5.672  30.513 -0.2176  0.0646  0.2266
33677W        W40277  11.446   1.893  40.716  0.1576  0.3221 -0.0758
33678W        W40278   9.116   4.747  43.716  0.1068 -0.0003 -0.1325
33679W        W40279  20.276   0.060  24.098  0.0853  0.0926  0.1678
33680W        W40280  16.104   5.914  35.415 -0.1018  0.1663  0.0665
33681W        W40281   9.116   3.585  44.689 -0.1487  0.0117 -0.1426
33682W        W40282   7.334   3.715  11.630  0.0925  0.0597 -0.2175
33683W        W40283  19.208   6.266  12.317  0.0616  0.1166  0.0189
33684W        W40284   6.181   2.664   5.998  0.1409  0.2149 -0.1967
33685W        W40285  18.809   6.452  32.689 -0.1594  0.2885 -0.1414
33686W        W40286  19.647   6.424  10.209  0.1378 -0.0265 -0.0078
33687W        W40287   9.144   4.260   3.022 -0.0027  0.0854  0.0421
33688W        W40288  14.456   1.100  41.283 -0.0453  0.0285  0.0631
33689W        W40289   4.864   3.563  39.278  0.1980 -0.0121 -0.0278
33690W        W40290   8.406   1.539   3.805 -0.2747  0.3421  0.2904
33691W        W40291   2.300   4.338  13.598  0.1732 -0.2295 -0.1985
33692W        W40292   1.800   3.134  36.672 -0.1052  0.0125 -0.1762
33693W        W40293  17.905   5.787  38.265 -0.0175  0.0944 -0.1547
33694W        W40294   9.494   3.713   2.162 -0.0864  0.3269  0.0954
33695W        W40295   7.494   2.791  34.248  0.0647  0.0091 -0.1907
33696W        W40296  10.125   0.204  32.104  0.1706  0.1007 -0.0776
33697W        W40297  11.954   2.564  15.537 -0.1624  0.3631 -0.0430
33698W        W40298   7.599   0.709  12.568 -0.0413 -0.1201  0.1076
33699W        W40299   3.929   4.973  39.000 -0.0657 -0.0800  0.0118
33700W        W40300   6.146   6.467   9.642  0.1042  0.3714  0.1491
33701W        W40301   7.961   4.828  35.880  0.0819  0.1181 -0.4716
33702W        W40302   2.814   0.271  15.252 -0.2701  0.0298  0.1967
33703W        W40303   5.602   1.252  10.045  0.0765 -0.0436  0.2236
33704W        W40304  20.967   2.860  33.488 -0.0955 -0.1055  0.1350
33705W        W40305   5.766   6.596  31.853  0.1896 -0.2616 -0.2121
33706W        W40306  17.309   6.299  30.491 -0.0533 -0.0062  0.0503
33707W        W40307  11.010   5.133  44.782 -0.0931  0.0532  0.2213
33708W        W40308   1.479   6.482  29.624  0.2753 -0.0901  0.2155
33709W        W40309   4.055   5.495  28.528 -0.1309  0.3031 -0.0702
33710W        W40310   5.482   6.231  19.261  0.0709  0.2569  0.1082
33711W        W40311   0.018   4.423   9.422  0.0965 -0.0451  0.1242
33712W        W40312   6.196   1.315  41.991 -0.3148  0.0985  0.3900
33713W        W40313  18.716   5.295  31.211 -0.1121  0.2218  0.0118
33714W        W40314   1.222   1.578  28.515  0.0759  0.1812 -0.2361
33715W        W40315   1.935   4.312  37.510  0.0127 -0.3992 -0.4690
33716W        W40316  20.043   4.156  33.528 -0.0028  0.1253  0.0217
33717W        W40317  19.155   0.747   7.046  0.0628 -0.2202 -0.0087
33718W        W40318   0.851   1.572  41.909 -0.1837  0.1137  0.0498
33719W        W40319  18.475   0.401   7.502  0.1508 -0.0594 -0.2497
33720W        W40320   3.311   1.751   5.679 -0.0563 -0.2074 -0.0077
33721W        W40321   8.069   2.975  32.193 -0.2471 -0.0691 -0.0221
33722W        W40322   3.408   4.297  17.340 -0.0715 -0.3291  0.0073
33723W        W40323  19.424   3.361  29.737 -0.0420 -0.0179 -0.0030
33724W        W40324  20.144   0.072  44.082  0.2474  0.2765 -0.4623
33725W        W40325   5.226   0.036  43.514  0.1682  0.2455  0.0204
33726W        W40326   9.934   5.416  34.800  0.0694 -0.4846 -0.0874
33727W        W40327  10.831   3.280  41.653 -0.1101 -0.2449  0.1708
33728W        W40328   2.229   1.287  14.934 -0.1382  0.0114  0.1117
33729W        W40329   5.088   4.381  33.175 -0.0769  0.2275 -0.0807
33730W        W40330   8.683   2.145  37.828 -0.0658  0.4461  0.1016
33731W        W40331   9.923   2.803  39.494 -0.0955  0.1732  0.0114
33732W        W40332   6.071   2.340   4.604 -0.1576 -0.1061  0.0445
33733W        W40333  14.176   5.804  15.040  0.2372  0.0742  0.0905
33734W        W40334   4.690   4.506  13.838 -0.2063  0.2479  0.0807
33735W        W40335   0.250   5.687  40.784 -0.0032 -0.0189 -0.0270
33736W        W40336  15.718   1.932   8.414 -0.1729 -0.0114  0.1873
33737W        W40337   9.032   3.462  11.337 -0.0743 -0.1481 -0.2860
33738W        W40338   5.374   0.557  17.273 -0.1965 -0.0775  0.2542
33739W        W40339   8.345   2.761  12.648  0.0204 -0.0821  0.0729
33740W        W40340  14.408   0.775   3.170  0.0098 -0.0471 -0.3194
33741W        W40341   2.211   4.789  41.066 -0.1535  0.2378  0.0680
33742W        W40342  16.245   4.591  10.836  0.1763 -0.1437 -0.1627
33743W        W40343   9.948   1.914   4.223  0.1813 -0.1677  0.2775
33744W        W40344  20.426   2.635  39.318 -0.2106  0.1471  0.2531
33745W        W40345  11.164   0.321  43.831 -0.1799 -0.2507  0.0223
33746W        W40346   5.622   3.707  35.254  0.0838  0.1599 -0.2567
33747W        W40347  19.754   1.404   9.335  0.2391  0.0455  0.1378
33748W        W40348   9.872   0.693  36.409 -0.2400  0.1395 -0.1352
33749W        W40349  13.779   5.083   9.144  0.1784  0.0236 -0.0336
33750W        W40350   9.829   2.630  14.718 -0.2895  0.1203 -0.1818
33751W        W40351  16.433   1.943  31.139  0.0632  0.1950  0.1984
33752W        W40352  19.084   2.716  35.211 -0.2552  0.0962  0.2391
33753W        W40353   6.903   5.125  38.864 -0.1095  0.2285  0.3198
33754W        W40354   8.692   0.662  10.501  0.1879  0.0643 -0.1883
33755W        W40355  18.956   3.435  31.183  0.1116 -0.1521 -0.2436
33756W        W40356  11.266   4.627  11.779 -0.0816  0.0640 -0.2874
33757W        W40357  15.140   5.693  29.638 -0.0780  0.3539 -0.2606
33758W        W40358  13.548   0.004  12.484 -0.1339  0.3783 -0.0594
33759W        W40359   3.810   1.271  36.474  0.1119 -0.1015 -0.0044
33760W        W40360  10.011   3.268  24.817 -0.3063 -0.1291 -0.3848
33761W        W40361  16.786   0.136   1.911 -0.2517 -0.0070  0.0443
33762W        W40362   7.969   0.077   2.780 -0.1540 -0.1176 -0.0079
33763W        W40363  14.643   4.067   2.595  0.4717  0.1806 -0.1665
33764W        W40364  12.102   0.847   0.560 -0.4801  0.3757 -0.0906
33765W        W40365  15.999   0.068  29.224 -0.0053 -0.1509  0.1506
33766W        W40366   7.905   6.282  31.762  0.2593 -0.0691  0.2424
33767W        W40367   7.103   1.225  42.458  0.1063 -0.0425  0.0575
33768W        W40368  15.922   0.167  34.660  0.0177  0.0325 -0.2416
33769W        W40369  10.259   3.057  35.783 -0.0045 -0.2210 -0.0713
33770W        W40370   1.060   4.719  36.434 -0.0761 -0.1794  0.3470
33771W        W40371  20.188   4.835  10.130 -0.2313 -0.0870  0.0743
33772W        W40372  20.140   1.442  35.984  0.2120  0.0126 -0.0913
33773W        W40373   3.369   1.063  13.291  0.1113 -0.0427 -0.0087
33774W        W40374   6.206   3.482  31.370  0.3078  0.2121  0.2282
33775W        W40375   1.410   1.195  45.055  0.2611  0.1469  0.0727
33776W        W40376   8.150   0.123   5.647  0.3392 -0.0457 -0.0649
33777W        W40377   8.270   0.971  11.320 -0.1896 -0.2438 -0.2396
33778W        W40378   4.105   4.210  38.286  0.4367 -0.2176  0.0467
33779W        W40379   9.088   4.001  22.990  0.0513  0.1197 -0.0201
33780W        W40380  10.377   1.995  29.887 -0.0423 -0.0745 -0.0464
33781W        W40381   6.265   4.380  33.679  0.2895  0.0028 -0.3197
33782W        W40382   9.747   1.433  33.738 -0.0551 -0.0118 -0.0815
33783W        W40383   0.925   2.572   9.902  0.2482  0.1792 -0.1998
33784W        W40384   4.703   2.780  30.885  0.1345  0.0377 -0.1984
33785W        W40385   3.081   2.129  29.458  0.0102  0.1080  0.3323
33786W        W40386   3.106   3.546  30.042  0.2395 -0.0430  0.3628
33787W        W40387  12.759   2.781   2.827 -0.1672  0.3299  0.1372
33788W        W40388  16.629   2.420  39.108  0.1207  0.0025 -0.0446
33789W        W40389   0.444   6.578  35.581  0.2684  0.1852 -0.2221
33790W        W40390  12.679   1.241   5.816 -0.2523 -0.2648 -0.0749
33791W        W40391  18.871   5.899  42.623  0.2027 -0.0912 -0.1487
33792W        W40392  11.452   2.435  42.745 -0.1573 -0.0950  0.2245
33793W        W40393  20.713   2.078   8.418  0.0136 -0.3356  0.1657
33794W        W40394   7.685   2.258  38.782 -0.0530 -0.1408  0.1845
33795W        W40395   7.673   4.386  33.352  0.1438  0.1327 -0.0541
33796W        W40396  17.943   6.048   8.871  0.1367  0.1724  0.2966
33797W        W40397   1.681   5.995   9.854 -0.2142 -0.1111 -0.1882
33798W        W40398   8.728   6.414   2.341  0.1183 -0.1189 -0.0042
33799W        W40399   0.464   0.168   7.315 -0.0096  0.0610  0.1763
33800W        W40400   2.272   6.331  37.832 -0.0377  0.2606 -0.0312
33801W        W40401   7.851   1.615  30.085  0.2807 -0.0726  0.4412
33802W        W40402  16.999   1.192   0.199  0.1028 -0.1594 -0.1258
33803W        W40403  15.652   3.347  25.487 -0.1105  0.1327 -0.0621
33804W        W40404  18.246   3.441  33.390  0.2226  0.1876  0.6002
33805W        W40405  12.178   1.749   1.587 -0.4189  0.2805 -0.0092
33806W        W40406   9.782   1.748   0.896 -0.0815  0.0281  0.0035
33807W        W40407  17.365   4.211  34.941  0.0237 -0.3065  0.4582
33808W        W40408   4.484   6.545  15.862 -0.0226  0.0908  0.0866
33809W        W40409  17.195   0.846  26.423  0.1462  0.0722  0.2649
33810W        W40410   8.061   0.526  32.923  0.1495  0.3621  0.1292
33811W        W40411   6.287   6.239  20.872  0.3425 -0.1571 -0.2160
33812W        W40412  17.989   1.950  11.395  0.2829  0.0295 -0.1182
33813W        W40413   6.327   5.458  32.005 -0.1644  0.0359  0.0598
33814W        W40414   9.517   1.400   0.080 -0.1048  0.2310  0.3939
33815W        W40415   6.449   6.584  19.388  0.0433 -0.2035 -0.1686
33816W        W40416  11.497   5.166   1.736 -0.0443  0.0570  0.0220
33817W        W40417   5.594   3.677  44.702  0.0336  0.0342 -0.0381
33818W        W40418   7.502   3.273  11.940  0.2040 -0.0192  0.0660
33819W        W40419  19.542   5.927  36.704  0.2715 -0.1008  0.2319
33820W        W40420   8.306   3.526  19.951 -0.3934 -0.0151 -0.0720
33821W        W40421  11.599   6.323  44.196 -0.1618  0.1880 -0.1632
33822W        W40422   3.617   3.572  11.215 -0.2093  0.2552  0.0283
33823W        W40423  11.700   1.757  14.061 -0.4007 -0.1410 -0.0052
33824W        W40424  10.072   6.394   6.471 -0.1172  0.0911 -0.0578
33825W        W40425   7.607   2.547  17.506 -0.3654 -0.0510  0.0152
33826W        W40426  16.671   4.771  40.587  0.0443 -0.0609  0.0988
33827W        W40427  20.911   2.514   1.542  0.0555 -0.1813  0.1341
33828W        W40428   5.824   2.117  40.568  0.0486 -0.4038  0.1020
33829W        W40429  11.222   6.126  18.996 -0.1686 -0.0649  0.1454
33830W        W40430   6.294   3.643  42.068 -0.1389 -0.1856 -0.0272
33831W        W40431  15.724   0.982  42.753  0.0833 -0.2356  0.0387
33832W        W40432   2.827   5.483  12.972  0.1944 -0.4773 -0.1842
33833W        W40433   1.790   4.771   6.314 -0.1027 -0.0292  0.1115
33834W        W40434   4.845   0.413  35.338  0.0800 -0.0623  0.1355
33835W        W40435  11.777   5.933  38.725 -0.2123 -0.1006 -0.0954
33836W        W40436   7.435   6.242   1.679  0.2160  0.1824 -0.2310
33837W        W40437  18.104   0.623   9.636 -0.0215  0.2561  0.2668
33838W        W40438  12.671   1.338  21.048  0.3952  0.0319  0.3343
33839W        W40439   6.435   6.314  39.348 -0.0266 -0.0105  0.0961
33840W        W40440  19.882   2.496  27.262  0.0642 -0.1296 -0.0449
33841W        W40441   8.026   4.511  15.120 -0.1654 -0.0467  0.2414
33842W        W40442   2.380   5.822  36.984 -0.1369 -0.3276 -0.0431
33843W        W40443  14.359   4.407   4.705  0.1810  0.1419 -0.0651
33844W        W40444   2.319   6.531   8.013 -0.1928  0.0282 -0.1444
33845W        W40445  17.635   0.684  32.062  0.0462  0.1935  0.1795
33846W        W40446  16.899   5.863  38.418  0.1998 -0.1693  0.0227
33847W        W40447  17.738   1.103  16.371  0.1869 -0.1915  0.1829
33848W        W40448   2.070   0.252   3.248  0.0879 -0.1817  0.1677
33849W        W40449   0.140   4.693  13.231 -0.0711 -0.1135  0.1254
33850W        W40450  18.971   4.959  29.186 -0.3142 -0.1150 -0.1140
33851W        W40451  19.804   6.526   4.546 -0.1501  0.0613  0.1889
33852W        W40452   3.491   4.457   5.769  0.0191  0.0179  0.0230
33853W        W40453  15.993   4.795   0.453 -0.1180 -0.1641  0.2382
33854W        W40454   7.066   5.925   0.766 -0.0100  0.3866  0.2763
33855W        W40455  14.480   2.290  12.038  0.1757 -0.0400  0.1943
33856W        W40456   0.442   4.833  44.050  0.0266  0.0586  0.0691
33857W        W40457   2.690   0.807  42.781  0.1588  0.0136  0.1355
33858W        W40458  18.888   3.082  31.618  0.0113 -0.2048  0.3344
33859W        W40459   3.109   2.732   2.554 -0.1083 -0.1185 -0.1519
33860W        W40460   5.651   2.086  18.723 -0.2840  0.0211 -0.0357
33861W        W40461  13.070   3.889   2.703 -0.1267 -0.0973  0.0772
33862W        W40462   7.927   1.794  16.064  0.1250  0.0538 -0.2374
33863W        W40463  13.620   4.441  29.785  0.0197 -0.0367  0.0402
33864W        W40464  12.934   3.360  42.128  0.1325  0.3346 -0.3033
33865W        W40465  20.530   4.336  32.773  0.2336 -0.0277  0.1883
33866W        W40466  14.488   0.863  15.490  0.1061 -0.1684  0.3060
33867W        W40467  12.878   3.323  41.356  0.2793  0.1205 -0.0488
33868W        W40468   7.796   3.912   6.654 -0.1409 -0.1569 -0.2147
33869W        W40469  17.931   0.389  12.657  0.0352 -0.0210  0.2609
33870W        W40470   0.132   0.676  38.427  0.2102  0.5791 -0.3582
33871W        W40471   4.440   3.589  28.225  0.0749  0.2142  0.0467
33872W        W40472  12.583   2.651  38.937 -0.0341 -0.1111 -0.4688
33873W        W40473   1.860   0.714  33.317  0.1838  0.1249  0.2772
33874W        W40474  10.636   1.298  43.428 -0.4766 -0.0553  0.0881
33875W        W40475  18.660   0.338  40.903  0.2940 -0.2683  0.2269
33876W        W40476   8.170   2.341  41.581 -0.1640  0.1679 -0.1257
33877W        W40477  10.550   4.529  12.895  0.1511  0.1956 -0.1742
33878W        W40478  12.118   0.468   3.881  0.1076 -0.0987 -0.0115
33879W        W40479  10.760   6.184  41.910  0.0940 -0.1493 -0.1669
33880W        W40480   7.031   5.317  39.570  0.1074  0.3280 -0.0707
33881W        W40481  11.739   1.123   4.865 -0.3582  0.2979 -0.1656
33882W        W40482   3.946   4.558  12.941 -0.1762 -0.0619  0.1038
33883W        W40483   1.274   2.755  14.185 -0.0272 -0.1181 -0.2757
33884W        W40484   5.248   4.199   7.473  0.2483 -0.0604  0.3545
33885W        W40485  17.188   0.208   6.625  0.3763  0.0689  0.2362
33886W        W40486   8.932   3.350  12.709  0.2884 -0.1599 -0.0179
33887W        W40487   7.481   4.314  34.372 -0.1667  0.1679  0.0607
33888W        W40488  18.065   5.474   6.278 -0.2842 -0.0475  0.0802
33889W        W40489  16.224   0.187  39.791  0.1151 -0.2468 -0.0439
33890W        W40490  16.103   5.865   0.697 -0.0852 -0.2271 -0.2708
33891W        W40491  17.554   4.168  42.449  0.1181  0.1663  0.1650
33892W        W40492  14.557   6.183   0.958 -0.0045  0.0084  0.1332
33893W        W40493   5.071   5.547   8.605  0.2577 -0.2395  0.2354
33894W        W40494   1.513   5.749  12.614 -0.0020 -0.0534  0.0058
33895W        W40495   9.919   4.165   8.212  0.1137  0.1599 -0.3519
33896W        W40496  12.890   5.863   1.944 -0.0805  0.4047 -0.4674
33897W        W40497   5.723   5.008  34.362  0.3078 -0.1746 -0.2637
33898W        W40498  18.284   4.714  10.325  0.1059  0.0650  0.0941
33899W        W40499  12.587   1.168  11.639  0.3053 -0.2034 -0.1436
33900W        W40500   6.158   6.417  32.093 -0.1722  0.0183 -0.1181
33901W        W40501  15.606   5.764  35.477  0.4517 -0.0668 -0.2066
33902W        W40502   3.507   6.335  30.046  0.2476 -0.3245 -0.0504
33903W        W40503  14.920   5.289  32.593 -0.0155  0.1114  0.0339
33904W        W40504  10.077   0.038  24.327  0.0432 -0.1041  0.0977
33905W        W40505   0.983   4.800  10.675  0.1382  0.0011  0.0438
33906W        W40506   7.515   5.253  23.939 -0.1066  0.1506 -0.0347
33907W        W40507   1.558   5.919  44.753 -0.2404  0.0844 -0.0461
33908W        W40508  17.428   2.591  37.446  0.1805  0.0513 -0.3311
33909W        W40509  15.467   2.083  17.026  0.3445 -0.1664 -0.2326
33910W        W40510  20.077   4.229   2.742 -0.0191  0.0839 -0.0440
33911W        W40511  11.779   6.222   9.508 -0.1290  0.3560 -0.2018
33912W        W40512   3.281   6.067  15.047 -0.0452  0.0320  0.0086
33913W        W40513   7.416   3.946  21.948 -0.0832 -0.2706  0.0202
33914W        W40514  19.075   4.821  31.058  0.0106 -0.1439  0.5113
33915W        W40515  14.516   1.373  43.254  0.1538 -0.0179 -0.0326
33916W        W40516  15.532   4.109  16.610 -0.1166  0.4489  0.0745
33917W        W40517  11.813   6.417  31.741 -0.1392  0.1544 -0.1246
33918W        W40518  12.423   2.116   6.123  0.1883  0.3926 -0.0600
33919W        W40519  11.372   1.085  39.131 -0.1495 -0.1615 -0.0366
33920W        W40520  18.340   1.895   5.086  0.2480  0.1265  0.0899
33921W        W40521   5.606   0.570  35.992 -0.1039 -0.1944  0.0610
33922W        W40522   1.593   3.426  44.674 -0.0721  0.1466 -0.1002
33923W        W40523  16.003   0.195  42.954  0.1858  0.0293 -0.0198
33924W        W40524  15.482   4.636  38.746 -0.0018 -0.4089 -0.0091
33925W        W40525   5.610   0.363  29.345 -0.0548 -0.0295  0.0890
33926W        W40526   6.610   5.321  44.129 -0.1363  0.0179  0.1364
33927W        W40527  18.879   2.133   8.913 -0.0882 -0.0915 -0.2999
33928W        W40528  15.517   4.342  41.100  0.0078  0.1718 -0.0171
33929W        W40529   3.952   2.372  37.155 -0.1392 -0.0864 -0.1626
33930W        W40530  16.532   2.954  27.205 -0.1621  0.2213  0.4191
33931W        W40531  13.925   1.771  15.392  0.0125 -0.0391  0.3187
33932W        W40532  15.211   5.283  11.998 -0.1135 -0.3020  0.2503
33933W        W40533   7.141   3.163  30.395 -0.1459  0.0809 -0.0738
33934W        W40534   7.977   3.155  16.556 -0.1260 -0.0162 -0.0612
33935W        W40535  16.345   3.315  16.022  0.1482  0.2240 -0.0326
33936W        W40536  18.762   2.849  12.181 -0.0704  0.2091  0.0416
33937W        W40537   3.700   6.302  35.169 -0.0741 -0.0167  0.1464
33938W        W40538  20.309   5.636  26.276  0.1604 -0.0635 -0.0209
33939W        W40539  10.680   6.513  37.722  0.0529  0.3550  0.2318
33940W        W40540   3.772   2.841  43.036 -0.1219 -0.0606  0.0414
33941W        W40541   9.613   3.326   1.805  0.2818 -0.2032 -0.0807
33942W        W40542  18.450   4.098   0.575 -0.0659 -0.2180 -0.1713
33943W        W40543  13.159   4.531  14.686  0.0928  0.0944  0.0573
33944W        W40544   9.621   4.775   1.325 -0.1551  0.1233 -0.0457
33945W        W40545  19.313   4.940  11.866  0.0409  0.1777  0.1963
33946W        W40546  11.966   6.055   1.741  0.0269  0.0225 -0.0951
33947W        W40547   4.059   1.168  27.713  0.0967  0.0773 -0.1701
33948W        W40548  14.016   2.402  14.456 -0.3328  0.1087 -0.0765
33949W        W40549  19.293   1.991   4.897 -0.0005 -0.2335  0.3669
33950W        W40550   6.426   5.216  14.667  0.0917  0.1119 -0.1204
33951W        W40551  15.328   3.660  28.819 -0.0015  0.1355  0.4514
33952W        W40552   1.914   0.346  32.291 -0.2638 -0.0791 -0.0104
33953W        W40553  14.622   0.716  42.331  0.3704  0.2552  0.1361
33954W        W40554  15.170   3.568  26.733  0.0168 -0.1507  0.1275
33955W        W40555   0.728   2.669  24.449 -0.1922 -0.3081 -0.3738
33956W        W40556   7.290   1.949   9.404 -0.1680 -0.2216  0.0906
33957W        W40557   1.937   0.614  40.904  0.1697 -0.0610  0.2297
33958W        W40558   0.933   2.520  22.708  0.1118  0.1280  0.2995
33959W        W40559   8.518   3.830   9.552 -0.0800  0.0973  0.0906
33960W        W40560  18.654   4.400  41.482 -0.1148  0.0513  0.0255
33961W        W40561   5.163   2.469   8.734  0.0243  0.2403 -0.1201
33962W        W40562   1.454   0.499   1.179 -0.0728 -0.3755 -0.0405
33963W        W40563  18.961   5.333  38.593 -0.0580 -0.1904  0.1443
33964W        W40564   6.424   2.376  43.758 -0.0226 -0.1648  0.0476
33965W        W40565   0.219   0.271  36.744  0.0462 -0.1080  0.0439
33966W        W40566  17.648   1.105  34.538  0.0197  0.0093 -0.0294
33967W        W40567   9.594   3.921   7.204  0.0110 -0.0025  0.2409
33968W        W40568   7.818   2.213  34.369 -0.0719  0.2438  0.1386
33969W        W40569  19.767   3.742  37.120  0.0319  0.2747 -0.1613
33970W        W40570   7.871   2.047  12.610  0.4001  0.0594 -0.0629
33971W        W40571  11.454   0.143  31.685  0.4157  0.0788  0.0245
33972W        W40572  19.369   6.416  31.370  0.0358  0.2081 -0.0285
33973W        W40573   1.500   0.443   4.016 -0.0979  0.3566  0.0379
33974W        W40574  15.173   1.590  32.895 -0.1020  0.0516 -0.0607
33975W        W40575  13.481   3.340   7.399  0.0342 -0.0505 -0.0540
33976W        W40576  15.424   3.323  36.373  0.0141 -0.1369 -0.0824
33977W        W40577   4.749   4.511  37.225  0.0078 -0.0849 -0.1699
33978W        W40578  18.018   0.069   8.229 -0.0096  0.3224  0.0089
33979W        W40579   3.190   0.470  34.613 -0.2811  0.0458  0.3676
33980W        W40580  14.951   2.638   2.555  0.0240  0.2911  0.0007
33981W        W40581   6.245   2.562  31.207  0.2070  0.2293  0.0966
33982W        W40582  16.682   0.835  26.511  0.0308  0.0886  0.0156
33983W        W40583   5.025   6.303   0.268  0.2138 -0.0118 -0.1202
33984W        W40584   2.411   5.741  29.117 -0.3495 -0.1980  0.1183
33985W        W40585   1.363   4.414  34.671  0.0010 -0.2183 -0.1841
33986W        W40586  12.274   4.601  30.769  0.3082  0.0305 -0.1585
33987W        W40587   3.021   5.291  39.853  0.0953 -0.0511 -0.0125
33988W        W40588   8.483   6.357   0.894  0.0426 -0.0834 -0.1236
33989W        W40589  20.647   1.162  37.375  0.1492 -0.0516 -0.1755
33990W        W40590   8.401   5.598   4.747 -0.0070  0.0704  0.0610
33991W        W40591   4.149   5.792  35.334  0.0508  0.1956 -0.2650
33992W        W40592   6.415   1.511  42.656 -0.0304 -0.3619 -0.2737
33993W        W40593   6.179   6.267  12.547 -0.1408  0.0020  0.0807
33994W        W40594  15.212   6.028  36.004 -0.2182 -0.0423 -0.4476
33995W        W40595   1.136   5.918  27.247 -0.2765 -0.1319 -0.1426
33996W        W40596   9.039   3.834  44.243  0.0313  0.0354 -0.0296
33997W        W40597   5.902   5.973  11.571 -0.0822 -0.1401  0.4061
33998W        W40598  19.247   1.111  12.974 -0.0020  0.1581 -0.0770
33999W        W40599   9.498   3.441  24.603  0.2986  0.0596 -0.0824
34000W        W40600  19.921   5.263  43.445  0.2596  0.2376  0.1679
34001W        W40601   3.113   5.501  14.881 -0.1721  0.1130  0.3888
34002W        W40602  14.770   6.500   0.020  0.1047  0.0052 -0.1365
34003W        W40603   8.205   2.038  36.920 -0.1486 -0.0309 -0.0244
34004W        W40604   1.532   0.077  42.258  0.0704 -0.1415 -0.1339
34005W        W40605  18.027   2.150  10.437 -0.2443 -0.3458 -0.0053
34006W        W40606   6.614   2.146  13.700 -0.0516  0.1448  0.2550
34007W        W40607   8.432   4.756  20.065  0.2464  0.0767  0.3498
34008W        W40608   6.579   0.632   9.799 -0.0166  0.0274 -0.1089
34009W        W40609  21.097   0.032   0.356 -0.2199  0.1291  0.2328
34010W        W40610  13.913   5.457   2.448 -0.0970 -0.1814 -0.1386
34011W        W40611  15.585   2.417  29.688 -0.2272  0.1839 -0.0916
34012W        W40612  13.363   4.417  14.238 -0.0840  0.1085  0.3937
34013W        W40613   1.787   3.058   6.645 -0.0480 -0.3633 -0.2376
34014W        W40614   0.343   4.057   9.160  0.2358  0.0854 -0.2819
34015W        W40615   5.337   2.228  12.986  0.3418  0.0262  0.0504
34016W        W40616  20.961   1.895  22.897  0.0316  0.0124  0.1156
34017W        W40617   1.857   0.871   1.223 -0.0498  0.1639 -0.0399
34018W        W40618  19.699   6.422  28.749  0.0170 -0.1281  0.3301
34019W        W40619  20.281   4.916  26.479 -0.1621  0.1735 -0.0224
34020W        W40620  14.450   3.095  33.997  0.3117  0.1202  0.0882
34021W        W40621   2.420   5.870   8.911  0.0369  0.0151 -0.4771
34022W        W40622  16.326   4.932   4.391  0.3636  0.0247  0.1150
34023W        W40623   8.620   1.560  19.283 -0.1740 -0.1624  0.1105
34024W        W40624  12.559   2.598  15.468 -0.4168  0.1009  0.0553
34025W        W40625  10.086   5.410   1.575  0.1348 -0.1422  0.0274
34026W        W40626   5.101   0.596  15.759 -0.2511 -0.1910  0.0192
34027W        W40627  13.395   3.721  37.748  0.0394 -0.0669  0.2925
34028W        W40628   6.367   4.383  14.913 -0.0254  0.2536 -0.1149
34029W        W40629  16.865   5.936   5.062  0.1453 -0.0377 -0.0365
34030W        W40630  10.102   3.865  11.476  0.3726  0.2243  0.0024
34031W        W40631   2.441   1.187  41.627 -0.0198 -0.0152  0.1312
34032W        W40632  19.685   3.437  30.175 -0.0849 -0.0832 -0.0519
34033W        W40633  15.556   1.482  13.234 -0.1412  0.0653  0.1279
34034W        W40634   0.918   1.999   6.566 -0.1589  0.1904  0.1990
34035W        W40635  17.931   1.785   9.073  0.1083 -0.0202  0.2377
34036W        W40636  15.302   0.742  13.742  0.2027  0.2276 -0.2599
34037W        W40637   6.107   4.901  29.613  0.0592 -0.2547  0.1946
34038W        W40638   3.932   2.812  10.779  0.0218 -0.2129 -0.1045
34039W        W40639  12.632   2.330   2.177  0.0678 -0.0123 -0.3686
34040W        W40640   4.870   1.269  39.863 -0.0982  0.0297  0.1705
34041W        W40641   2.381   1.951   7.376  0.1330 -0.0825 -0.0396
34042W        W40642  16.941   4.102  43.835  0.2333  0.0296  0.0839
34043W        W40643   0.990   1.982  35.716  0.4561 -0.1119  0.3151
34044W        W40644   8.430   4.988  31.197  0.1879 -0.1138  0.1618
34045W        W40645  19.479   2.685  36.685 -0.2090  0.1554 -0.0600
34046W        W40646   2.481   3.932  40.592  0.1182 -0.1989 -0.0466
34047W        W40647  13.300   1.781  41.572  0.2326  0.0314 -0.3174
34048W        W40648  11.322   4.902  23.231  0.2924  0.3153 -0.0111
34049W        W40649  14.615   1.095  17.481  0.0244  0.0646 -0.1383
34050W        W40650  12.607   0.032  21.443 -0.1187  0.4947  0.1755
34051W        W40651   6.721   2.742   5.165 -0.0440 -0.2180 -0.2023
34052W        W40652   2.024   1.313  41.363 -0.2980  0.0508 -0.0255
34053W        W40653   9.224   3.977  16.494 -0.0014 -0.1509 -0.1819
34054W        W40654   7.323   4.464   4.425  0.3134 -0.0351 -0.0325
34055W        W40655   5.851   5.843  19.554  0.0538  0.1136  0.1145
34056W        W40656  12.935   6.382   9.828  0.0077  0.2209  0.0368
34057W        W40657   4.074   6.601  17.210  0.1306  0.1618 -0.1521
34058W        W40658   1.181   0.075  23.810  0.1846  0.1335 -0.2468
34059W        W40659   8.479   5.378  30.490  0.0598 -0.0570  0.1745
34060W        W40660  12.430   0.922  18.681  0.1585 -0.3944 -0.0684
34061W        W40661  19.652   1.285  42.088  0.1004  0.1055  0.1663
34062W        W40662   7.673   3.998  32.215 -0.1716 -0.1668  0.0522
34063W        W40663  19.314   2.453  24.686  0.2478 -0.1932  0.1060
34064W        W40664   2.311   4.799  25.151 -0.2374 -0.0291 -0.1369
34065W        W40665   5.341   2.708  19.520  0.1492 -0.1706 -0.0790
34066W        W40666   4.420   4.789  36.851  0.1480  0.4754 -0.0325
34067W        W40667   2.869   3.045   8.291 -0.1442  0.2566  0.0033
34068W        W40668  10.554   0.215   1.489 -0.1872 -0.3784 -0.3100
34069W        W40669   7.066   4.437  42.052  0.2150 -0.0377 -0.2056
34070W        W40670   9.807   3.585  40.723  0.0731  0.0793  0.0243
34071W        W40671   1.108   5.286  27.499 -0.0131  0.1345  0.3064
34072W        W40672   3.888   4.602  35.655 -0.1912  0.0290  0.1644
34073W        W40673   2.228   3.858  26.767  0.1066  0.2186 -0.0185
34074W        W40674   9.144   1.665   0.307  0.4326  0.2780 -0.0470
34075W        W40675  15.288   1.269  10.260  0.2011  0.0022 -0.2739
34076W        W40676   4.768   6.569  42.061 -0.2373  0.0197 -0.3643
34077W        W40677   3.190   3.737   0.984 -0.3056 -0.2978  0.0120
34078W        W40678   5.483   1.459  39.114 -0.2445 -0.1605  0.1546
34079W        W40679  12.362   1.468  35.178  0.0896 -0.2471 -0.1816
34080W        W40680   4.662   4.060  40.703 -0.0970 -0.0642 -0.0979
34081W        W40681  10.182   4.438  19.711 -0.1467 -0.0885  0.0566
34082W        W40682   3.818   0.086  36.463 -0.0721 -0.0640 -0.1980
34083W        W40683   7.088   0.388  44.787  0.0330  0.0541  0.2943
34084W        W40684   7.046   2.846   4.317  0.0675 -0.0024  0.0020
34085W        W40685   0.783   6.092  32.724  0.1789  0.2490 -0.0807
34086W        W40686  12.166   6.481  20.220 -0.1094 -0.0490  0.1862
34087W        W40687  14.966   4.842  18.192  0.0480 -0.3263  0.1656
34088W        W40688  13.147   5.414  34.728 -0.2190 -0.1828  0.0669
34089W        W40689   2.950   4.872  36.647 -0.1123 -0.0915  0.1007
34090W        W40690   3.011   3.838  31.968 -0.1934  0.0299 -0.0916
34091W        W40691   8.141   5.408   2.318  0.0471 -0.1059  0.0538
34092W        W40692  17.190   2.473  33.631  0.2650  0.3653  0.0600
34093W        W40693  14.943   1.053  11.079 -0.0884  0.0114  0.2239
34094W        W40694   3.667   4.971  32.122  0.0059 -0.2910 -0.0305
34095W        W40695   5.685   3.937   3.783 -0.1555 -0.0529  0.2020
34096W        W40696  13.094   5.156  40.981 -0.0759  0.1252 -0.0229
34097W        W40697   7.696   4.933  40.994 -0.0235  0.1113 -0.2050
34098W        W40698  13.320   4.813  19.749 -0.1700 -0.2011 -0.0876
34099W        W40699  11.039   4.925  32.979 -0.2391 -0.2293 -0.1078
34100W        W40700   5.903   5.698  33.297 -0.0117  0.2140  0.3641
34101W        W40701  10.480   3.743  16.448 -0.2646  0.1946  0.0240
34102W        W40702  13.807   0.228  33.930 -0.0636 -0.0679  0.1384
34103W        W40703   8.720   1.084   4.536  0.1536 -0.0940  0.0630
34104W        W40704  18.171   0.390   1.030 -0.1825  0.1082 -0.2860
34105W        W40705   7.528   2.823  41.018 -0.0470 -0.0800 -0.0821
34106W        W40706  19.187   5.412   1.217  0.1004  0.1088  0.0922
34107W        W40707  10.931   1.666  44.018 -0.0339  0.0238  0.2795
34108W        W40708  21.062   5.412  36.057  0.0695  0.0634  0.2009
34109W        W40709   9.103   5.599  23.865  0.1362  0.2369 -0.1231
34110W        W40710  17.471   4.551  33.054 -0.2334 -0.1549  0.0102
34111W        W40711  16.394   2.740  16.675  0.3588 -0.2087 -0.2179
34112W        W40712   6.932   2.138  34.387 -0.0029 -0.0860  0.0452
34113W        W40713  19.448   0.878  20.399 -0.1856 -0.3554  0.0935
34114W        W40714   4.952   4.478  28.907 -0.3780 -0.2102  0.1420
34115W        W40715   9.276   5.819  38.481  0.0942 -0.1737  0.1205
34116W        W40716   7.919   0.252  15.068 -0.1397  0.0374  0.0910
34117W        W40717   8.135   5.229  14.760  0.1356  0.0881 -0.0115
34118W        W40718   4.148   2.141  35.426 -0.2783 -0.1668 -0.0412
34119W        W40719  12.207   6.438   5.812  0.2943  0.2960 -0.0373
34120W        W40720   0.770   1.227  10.163  0.1267  0.1861  0.0085
34121W        W40721  19.052   3.630   1.335 -0.0499  0.1928 -0.1337
34122W        W40722  17.942   0.565  35.456  0.2224 -0.2764  0.0622
34123W        W40723   1.425   2.540   1.025 -0.1564  0.0082 -0.1281
34124W        W40724   2.889   0.997  28.679  0.0348 -0.0695  0.0220
34125W        W40725  19.659   0.185  43.652  0.1500  0.0520  0.0169
34126W        W40726   2.351   0.233  26.776 -0.0622 -0.4447 -0.0199
34127W        W40727  20.150   0.474  27.199 -0.1070 -0.3958  0.0243
34128W        W40728   5.239   4.087  18.947  0.0408  0.1509 -0.0318
34129W        W40729  16.594   0.603   5.421 -0.1815 -0.1463 -0.1603
34130W        W40730  21.108   0.513   5.466 -0.1544  0.1127 -0.0099
34131W        W40731  17.289   2.251  42.798 -0.0922  0.1955 -0.1485
34132W        W40732  18.531   1.745  20.062 -0.0056  0.1090  0.0169
34133W        W40733  16.024   5.633   2.930  0.0538  0.2295  0.0683
34134W        W40734  19.651   6.033   4.306  0.1454  0.3229 -0.0802
34135W        W40735   8.440   4.103  14.483  0.0874 -0.1620 -0.0583
34136W        W40736  12.216   4.319   8.606  0.3249  0.0530 -0.2236
34137W        W40737   4.444   2.172  35.807  0.0568  0.2160 -0.1295
34138W        W40738   3.694   3.678   5.685 -0.1393 -0.0749 -0.0452
34139W        W40739   5.671   6.411   2.801  0.1864  0.0552  0.1298
34140W        W40740  20.030   1.889  28.392  0.0194  0.3948 -0.2368
34141W        W40741  14.362   5.301  11.764 -0.0233 -0.0895  0.1745
34142W        W40742   5.741   3.457  19.809 -0.1801 -0.1882  0.0249
34143W        W40743  16.335   4.062   8.579  0.0514 -0.1621  0.1095
34144W        W40744   3.412   5.341  13.067 -0.1099  0.1734 -0.0116
34145W        W40745   4.083   1.932   0.129 -0.0041  0.1073 -0.1150
34146W        W40746  16.248   1.843  41.308 -0.0515 -0.1607 -0.0123
34147W        W40747  11.850   5.542  19.546 -0.3238  0.2529 -0.1329
34148W        W40748   4.813   2.177  44.069 -0.1995 -0.2344  0.1947
34149W        W40749   6.330   0.463   1.925  0.0200 -0.3453  0.2073
34150W        W40750  16.363   0.897   5.804 -0.1092 -0.0905  0.1990
34151W        W40751   7.772   0.752  40.654 -0.1113  0.1217  0.0255
34152W        W40752  11.845   4.387  37.880 -0.3802  0.0319 -0.1195
34153W        W40753   1.912   5.147  36.348 -0.2323 -0.2076  0.2122
34154W        W40754  11.632   4.004  43.238  0.0699  0.3217  0.0312
34155W        W40755   2.417   5.971  39.498  0.0882  0.2335 -0.3036
34156W        W40756  17.093   1.993  25.306 -0.1339  0.0471 -0.1312
34157W        W40757   6.461   5.645   5.156  0.2815 -0.0909  0.2960
34158W        W40758  20.094   0.404  32.629  0.2793  0.1093  0.1912
34159W        W40759   0.107   6.326  25.508  0.1174 -0.2892  0.3249
34160W        W40760  20.511   3.133  40.972  0.1371  0.1926  0.1106
34161W        W40761  11.972   0.079  21.809  0.0565  0.1811 -0.0159
34162W        W40762   2.268   5.687  44.447 -0.5618 -0.4784 -0.0953
34163W        W40763  10.842   0.046  39.786  0.0941  0.0894 -0.0231
34164W        W40764  19.011   3.996  18.315  0.0568  0.0610 -0.1373
34165W        W40765  13.569   4.474   1.347  0.1296  0.0797 -0.0997
34166W        W40766   2.990   3.589  16.929  0.0165  0.2058  0.3028
34167W        W40767   5.723   4.036  39.152 -0.3308 -0.1432  0.0685
34168W        W40768   2.914   1.799   6.060 -0.1150  0.1786 -0.1155
34169W        W40769  11.657   6.239  12.505 -0.1781  0.2695 -0.1854
34170W        W40770  20.483   5.092  37.577 -0.0023  0.0887 -0.0013
34171W        W40771   5.359   3.954  40.364  0.4530 -0.2180  0.0386
34172W        W40772  20.008   0.429  39.972 -0.1323 -0.0804 -0.1544
34173W        W40773  15.588   4.426   4.823 -0.3334  0.3679  0.0652
34174W        W40774   4.715   0.312  36.645 -0.3396 -0.1290  0.1436
34175W        W40775   8.385   3.904  13.196  0.1512  0.3428  0.0594
34176W        W40776   8.778   0.006  32.302 -0.0354  0.3708  0.0653
34177W        W40777  14.079   4.223   7.312 -0.1441  0.0513  0.1589
34178W        W40778  15.558   4.709  10.016 -0.1267  0.1236  0.3966
34179W        W40779   8.882   5.722  35.674 -0.1388 -0.0687 -0.1149
34180W        W40780  12.011   4.026  21.625  0.0446  0.1024  0.0085
34181W        W40781   5.954   6.416  19.202 -0.2502 -0.2639 -0.0762
34182W        W40782  20.175   3.643   7.316  0.1016 -0.1522  0.0601
34183W        W40783   2.881   2.540  11.720 -0.0802  0.5981  0.0750
34184W        W40784  16.209   0.595  41.497  0.0273  0.1633  0.2671
34185W        W40785  14.222   3.017   4.268  0.1271  0.0194 -0.0265
34186W        W40786   9.637   5.893  33.290 -0.5761 -0.2330  0.0797
34187W        W40787   4.706   3.155  42.508  0.1819  0.1350  0.0321
34188W        W40788  18.203   0.763  38.880  0.0397 -0.1292  0.2457
34189W        W40789  15.332   0.259  32.565  0.2916  0.0347 -0.2434
34190W        W40790   7.203   0.894  32.447 -0.1327 -0.2816  0.2154
34191W        W40791  21.007   2.493   7.612 -0.0102  0.0441  0.1254
34192W        W40792  15.124   6.584  41.869 -0.0353 -0.1408  0.1961
34193W        W40793  15.457   6.199  34.017  0.0876  0.2148 -0.0366
34194W        W40794  19.527   3.594  10.196 -0.3972  0.2572  0.0335
34195W        W40795  17.382   4.525  37.594  0.1079 -0.0708 -0.1303
34196W        W40796  13.063   4.677  13.830  0.1306  0.0321  0.1719
34197W        W40797   5.560   5.404  30.460 -0.0214  0.0505 -0.0041
34198W        W40798   9.855   6.333  24.065 -0.0179  0.3092  0.1239
34199W        W40799   0.537   4.668  42.781  0.1104 -0.2721  0.2167
34200W        W40800   9.758   0.218   8.828 -0.0067 -0.1446 -0.2878
34201W        W40801   1.152   2.251  34.175 -0.1858  0.0390  0.4408
34202W        W40802   4.840   3.313  43.968  0.1994  0.0601 -0.1064
34203W        W40803  10.385   5.833  39.967 -0.0688  0.1807  0.0717
34204W        W40804   3.181   6.468  39.541 -0.1085  0.0409 -0.1181
34205W        W40805   7.346   6.031  18.271  0.1233  0.2329  0.1416
34206W        W40806  12.785   1.448  34.841  0.2978 -0.1112 -0.1639
34207W        W40807  18.835   4.087  33.960  0.2052  0.0821 -0.0379
34208W        W40808   9.601   0.336  16.912  0.1485 -0.3836  0.1647
34209W        W40809   1.534   3.015  15.776  0.0038  0.1175 -0.0426
34210W        W40810  10.616   1.722  28.626  0.0781 -0.0363 -0.0585
34211W        W40811   5.049   0.986  33.089 -0.1998 -0.1780 -0.0760
34212W        W40812  15.353   0.482   3.397 -0.1378  0.1762 -0.2440
34213W        W40813  13.063   0.101   2.766  0.3681  0.1486 -0.0896
34214W        W40814  14.295   4.869  34.385 -0.4230  0.0049  0.1186
34215W        W40815   4.221   2.437   2.637  0.0728  0.1126  0.1224
34216W        W40816  11.678   3.281  14.249  0.0728 -0.2209 -0.1841
34217W        W40817  19.982   5.156   1.194  0.1476  0.0286  0.0120
34218W        W40818   7.268   5.046   8.000  0.1756  0.0592  0.1040
34219W        W40819   8.942   1.793  24.119  0.2422 -0.1223  0.0207
34220W        W40820   5.485   1.259  21.234 -0.0206  0.1908 -0.0439
34221W        W40821   1.452   4.371   5.088 -0.0577 -0.3205 -0.2200
34222W        W40822   7.787   2.731  11.334 -0.1711 -0.1763 -0.1263
34223W        W40823   4.317   0.963  13.636 -0.1920 -0.1159  0.0453
34224W        W40824   3.662   1.037  42.702  0.4207 -0.0013 -0.2918
34225W        W40825   8.997   1.345  15.088  0.3588 -0.0607  0.2182
34226W        W40826  19.236   1.723  19.254 -0.1043  0.2751  0.0200
34227W        W40827  10.205   2.666  41.119 -0.1859 -0.3185  0.2161
34228W        W40828   1.897   4.976  26.727  0.0133 -0.1651 -0.3032
34229W        W40829  18.301   3.138  35.398 -0.0617  0.2180 -0.0530
34230W        W40830  20.864   0.657  13.993  0.1391  0.1372  0.0274
34231W        W40831  20.202   0.204  11.508  0.0958 -0.1409  0.1174
34232W        W40832   3.501   6.417  11.114  0.0632 -0.3049  0.0567
34233W        W40833   7.510   3.106   5.562  0.1545 -0.0133  0.1106
34234W        W40834  14.205   5.172   6.225  0.0801  0.0469 -0.0170
34235W        W40835   0.390   0.571  22.249 -0.0258  0.0464 -0.1471
34236W        W40836   8.403   6.601   7.148  0.1326 -0.2914 -0.4023
34237W        W40837  13.853   1.798  39.092  0.1937 -0.1726  0.0045
34238W        W40838   1.051   1.664  38.107  0.1207 -0.1370 -0.0719
34239W        W40839   0.309   0.519   9.822  0.1775  0.1192 -0.0145
34240W        W40840  20.045   0.575   2.635 -0.1303 -0.1168 -0.0685
34241W        W40841   6.565   4.839  31.910 -0.2223 -0.2399 -0.0157
34242W        W40842  15.167   4.873  34.609  0.1682  0.1981 -0.3401
34243W        W40843  12.987   5.773  37.525 -0.0843 -0.1118  0.1600
34244W        W40844  14.518   2.115   0.473 -0.0113  0.1364 -0.3437
34245W        W40845  10.266   5.735   0.639 -0.0211 -0.0366  0.0122
34246W        W40846  17.142   4.213  13.517 -0.0582 -0.1557  0.0678
34247W        W40847   4.166   6.060  11.823 -0.1942 -0.0303 -0.1091
34248W        W40848   4.038   4.982  13.269 -0.2030 -0.3256 -0.1623
34249W        W40849   5.677   1.828  38.849  0.1481 -0.1601  0.0756
34250W        W40850  15.822   5.611  34.910 -0.0439  0.2410  0.0094
34251W        W40851   4.267   4.167  27.462 -0.1517  0.1587  0.4914
34252W        W40852   9.985   2.815   2.172 -0.0924  0.3217  0.0097
34253W        W40853   4.379   1.737  15.951  0.3594  0.0587  0.0104
34254W        W40854   2.338   3.598  28.382 -0.0737  0.3605 -0.0698
34255W        W40855   8.672   5.157  11.627 -0.0199  0.0985 -0.1917
34256W        W40856   1.924   5.721  42.067 -0.1715 -0.0976  0.0803
34257W        W40857  17.437   4.004  14.957  0.0604  0.2998  0.2022
34258W        W40858   4.777   4.956  19.731  0.0681  0.0001 -0.0236
34259W        W40859   7.456   5.901  31.039  0.0815 -0.1175  0.0855
34260W        W40860  20.915   5.657  43.604  0.1456  0.1192  0.0286
34261W        W40861  20.795   0.370   6.259 -0.0704 -0.0189 -0.1452
34262W        W40862  13.102   1.953  40.064  0.0089  0.0205  0.0047
34263W        W40863  16.113   4.649   7.730 -0.0160 -0.0703  0.2220
34264W        W40864  18.800   2.103  13.997  0.1356  0.2884 -0.2435
34265W        W40865  16.367   3.156  32.960  0.2081  0.1073  0.2031
34266W        W40866   6.825   6.354   7.454 -0.0530  0.2626 -0.0588
34267W        W40867  17.566   1.390  41.467  0.0753  0.0249 -0.0951
34268W        W40868   9.259   3.498  23.118 -0.1220 -0.0502  0.2759
34269W        W40869  20.669   3.717   9.181  0.0691  0.1243  0.0925
34270W        W40870   1.945   6.401  31.322 -0.2348  0.4041  0.1197
34271W        W40871  15.305   0.984  35.374 -0.0094 -0.3496  0.1825
34272W        W40872  16.977   0.419  40.760  0.0111 -0.0505 -0.0890
34273W        W40873  14.731   0.252   8.019 -0.1239 -0.0669 -0.1031
34274W        W40874   4.078   1.231  30.459  0.2779 -0.1228  0.0278
34275W        W40875  11.930   0.642  34.955 -0.1861  0.1849 -0.1845
34276W        W40876   0.655   0.795   6.002  0.2310  0.1699  0.0055
34277W        W40877  17.201   5.334   8.812 -0.1523  0.0120  0.1581
34278W        W40878   5.334   4.678   8.988  0.1439 -0.3201  0.0707
34279W        W40879  15.819   1.046  29.377 -0.2769  0.0528  0.0159
34280W        W40880  12.967   5.475  17.818  0.1068  0.2314 -0.3166
34281W        W40881   5.559   3.653  32.706  0.2439  0.0196 -0.1463
34282W        W40882   9.956   0.387  15.926 -0.1787  0.0542 -0.1416
34283W        W40883  16.304   1.386  42.097  0.0163 -0.1888  0.0177
34284W        W40884  17.815   3.748  12.932 -0.1696  0.1923  0.2817
34285W        W40885  13.892   1.518  14.422  0.1031 -0.0486 -0.0154
34286W        W40886  11.736   5.364   3.517 -0.2366  0.0071  0.0920
34287W        W40887   3.295   0.712  33.260 -0.2674  0.0257 -0.0868
34288W        W40888   2.744   2.837  15.603  0.1312 -0.2394  0.0540
34289W        W40889  13.897   6.434  17.922  0.0587 -0.0357 -0.2256
34290W        W40890   0.295   0.739   1.154 -0.0645  0.0358 -0.1120
34291W        W40891  11.164   0.942  42.816  0.0240  0.3517 -0.2918
34292W        W40892  16.703   0.798  39.684  0.1408 -0.0968  0.0510
34293W        W40893   4.297   0.709   8.983 -0.1508 -0.1818  0.0787
34294W        W40894  20.306   0.125   4.396  0.1985 -0.0429  0.0441
34295W        W40895  12.184   2.274  13.344 -0.1073  0.2180  0.2763
34296W        W40896  13.515   2.728  13.694  0.0779  0.2923  0.3761
34297W        W40897  14.529   3.270  28.470 -0.4298  0.1957  0.2832
34298W        W40898   3.999   2.967   5.738  0.1559 -0.2326  0.0934
34299W        W40899   0.324   5.865  23.000 -0.2113 -0.1552  0.2167
34300W        W40900   2.888   0.385  12.829  0.3816  0.2762 -0.1520
34301W        W40901   3.510   2.862  44.343 -0.0784  0.1405 -0.2235
34302W        W40902   9.261   3.094  39.346  0.3415 -0.1107  0.1833
34303W        W40903   2.801   3.774  28.477 -0.2661 -0.0914  0.0046
34304W        W40904   3.035   2.990  39.805  0.0999 -0.0656  0.1192
34305W        W40905  18.595   5.952   7.526 -0.2295  0.1752 -0.1807
34306W        W40906  19.573   2.311  13.529 -0.0863  0.0862  0.2506
34307W        W40907  12.760   3.493  28.988  0.0717  0.2309 -0.1755
34308W        W40908   2.253   0.284  28.488 -0.0225  0.0988 -0.0139
34309W        W40909   3.767   3.842  10.290  0.0400  0.1115 -0.1958
34310W        W40910   2.959   0.025  30.576 -0.2999  0.4615 -0.1838
34311W        W40911  17.587   4.924  38.489 -0.2116  0.2595  0.3413
34312W        W40912   3.722   0.753  31.048 -0.1500  0.0506  0.0339
34313W        W40913  15.162   4.070  11.546  0.2698  0.2623  0.0340
34314W        W40914   5.029   3.979  38.439 -0.1323 -0.2270  0.0807
34315W        W40915  20.281   6.272  10.591  0.0720  0.0665 -0.1763
34316W        W40916  13.678   0.789   0.418  0.1421  0.0663  0.1360
34317W        W40917  15.721   1.087  12.491  0.3045 -0.1156 -0.0053
34318W        W40918  18.040   2.316  44.088  0.2103 -0.2979 -0.2517
34319W        W40919   2.298   4.078   2.733  0.0055 -0.0635 -0.1078
34320W        W40920   2.632   2.704  26.599  0.7176  0.2979 -0.2274
34321W        W40921  18.844   4.642   6.745  0.1414 -0.0567 -0.1215
34322W        W40922   2.312   4.884  15.706 -0.1145  0.3500 -0.0914
34323W        W40923   5.979   0.690   9.408 -0.1138  0.0000 -0.1885
34324W        W40924  15.142   2.202  40.450  0.0293  0.0941  0.0386
34325W        W40925  18.456   6.201  24.090  0.0985  0.0209  0.0517
34326W        W40926   6.226   3.791  17.141  0.1515  0.1287 -0.0262
34327W        W40927   2.948   6.345  40.914 -0.2437  0.2329  0.2498
34328W        W40928  19.302   3.713  21.504 -0.2169  0.0282  0.0643
34329W        W40929  18.090   0.938   3.676  0.1673  0.0533 -0.4306
34330W        W40930   2.504   1.590   4.815 -0.0079  0.2124  0.0485
34331W        W40931  10.757   2.479   3.319  0.2759  0.0187  0.0106
34332W        W40932   9.290   4.054  34.509  0.0761  0.0472 -0.2296
34333W        W40933  16.986   2.743   4.969 -0.2616  0.0494 -0.1241
34334W        W40934  20.959   4.134  38.030  0.1767 -0.0165  0.2959
34335W        W40935   5.986   3.722  18.300 -0.0543 -0.0181 -0.2667
34336W        W40936   7.118   5.900   1.386  0.0363  0.1013  0.0716
34337W        W40937  17.555   3.864   7.914  0.0912 -0.0583  0.2642
34338W        W40938   0.134   6.288  15.029 -0.0488  0.1564 -0.0444
34339W        W40939   7.361   5.283  40.729 -0.1257  0.0299 -0.0751
34340W        W40940  18.477   2.579  34.540  0.1646  0.0457 -0.2238
34341W        W40941   8.975   2.835  19.886 -0.3860  0.0353 -0.0721
34342W        W40942  16.043   0.890  37.588  0.0489 -0.0203 -0.0130
34343W        W40943  17.219   0.145  39.700  0.3083 -0.0400  0.0726
34344W        W40944   4.660   5.633  32.732  0.1846 -0.0720  0.3384
34345W        W40945  17.201   1.904  35.449  0.0706  0.1095  0.0200
34346W        W40946   3.861   2.223  44.821  0.0306 -0.0534 -0.1286
34347W        W40947   0.686   4.805  33.149  0.2332  0.2234  0.0596
34348W        W40948  16.369   4.790  12.961 -0.0447  0.0561  0.1068
34349W        W40949   2.940   1.005  37.762 -0.1014 -0.1392  0.0383
34350W        W40950   4.935   2.726   1.326 -0.1546  0.1157 -0.0465
34351W        W40951   2.163   2.916  34.072 -0.1241 -0.3580 -0.1937
34352W        W40952  18.443   0.805  39.976 -0.0175 -0.1059  0.2138
34353W        W40953  21.118   0.104   6.492 -0.0382 -0.0658  0.2112
34354W        W40954  21.133   3.230   7.335  0.1055  0.0659 -0.1513
34355W        W40955  11.327   5.388  39.197  0.0310 -0.0345  0.4114
34356W        W40956  18.536   5.553  31.644 -0.2627 -0.2712 -0.3477
34357W        W40957   8.537   5.305  23.262  0.1711  0.0891  0.1567
34358W        W40958  10.836   3.268  15.760  0.2672  0.1402 -0.0566
34359W        W40959   2.482   2.761  23.771 -0.0128  0.1073  0.2912
34360W        W40960   1.442   4.880  11.750 -0.3299  0.0056  0.3071
34361W        W40961   2.348   1.407  39.524 -0.0762 -0.1650 -0.1761
34362W        W40962   0.201   4.509   5.421 -0.2130  0.1987  0.0547
34363W        W40963   1.564   5.990  26.154  0.3977  0.0070 -0.0407
34364W        W40964   7.849   5.176   3.513  0.0600 -0.2101 -0.2200
34365W        W40965  10.925   5.481   8.777  0.1445 -0.0465 -0.1359
34366W        W40966  18.152   1.440  31.643  0.3641  0.0025 -0.1927
34367W        W40967   6.831   1.368  37.994  0.0248 -0.0975 -0.1797
34368W        W40968   9.388   3.849   6.176  0.2552  0.1683  0.0590
34369W        W40969  15.970   0.593  31.230  0.0293 -0.2631  0.2050
34370W        W40970   3.392   5.296  26.737 -0.1209  0.2274  0.0468
34371W        W40971  11.717   5.040  21.514 -0.1365  0.1762  0.1242
34372W        W40972  10.322   0.306  18.499  0.0260 -0.1533 -0.0990
34373W        W40973   5.958   1.860  20.884  0.1710 -0.1497  0.2755
34374W        W40974  14.066   1.684  27.954 -0.1680 -0.0870  0.1420
34375W        W40975  11.316   5.201   7.040 -0.3818 -0.3508  0.4257
34376W        W40976  13.555   4.647   7.238 -0.1728 -0.2206 -0.0743
34377W        W40977  19.922   5.834   3.089 -0.4344  0.2135 -0.0938
34378W        W40978  21.132   3.885  33.965 -0.2564  0.1072  0.1651
34379W        W40979   0.729   5.007   9.749 -0.0780  0.0940 -0.1971
34380W        W40980   8.634   4.145  30.100  0.1724  0.2849  0.0778
34381W        W40981   1.144   1.742  31.541 -0.0337 -0.0455 -0.3006
34382W        W40982   8.776   6.538  20.304 -0.0619  0.3484  0.0428
34383W        W40983  18.504   5.697  29.820  0.0622 -0.0635 -0.0965
34384W        W40984  18.994   4.454   5.554  0.1024 -0.1445  0.0767
34385W        W40985   9.222   5.166   0.952 -0.0888  0.0837 -0.0960
34386W        W40986  20.500   2.350   8.902  0.0181  0.0235 -0.0063
34387W        W40987  19.606   4.264  25.387  0.2465  0.2285  0.4478
34388W        W40988  17.801   2.714  35.182 -0.2312 -0.1607 -0.0757
34389W        W40989  16.312   6.367   5.699 -0.0167 -0.3043 -0.2751
34390W        W40990   9.470   0.885   5.991 -0.1956 -0.1164 -0.0155
34391W        W40991   1.980   2.998  30.390 -0.3266 -0.0198  0.2281
34392W        W40992  12.904   1.446  34.043  0.4099  0.1431 -0.1553
34393W        W40993  16.426   4.963  32.371  0.1471 -0.2145  0.0590
34394W        W40994   8.203   3.079  17.592 -0.0652 -0.0061  0.1233
34395W        W40995   0.317   3.372  31.490 -0.0506  0.3756  0.1308
34396W        W40996   8.665   0.519  16.626 -0.0764 -0.1416 -0.0160
34397W        W40997   3.801   0.994  30.014 -0.1278  0.0056  0.2695
34398W        W40998  12.218   6.382   9.173  0.0182  0.0000 -0.1502
34399W        W40999   1.200   2.061  41.046  0.0983 -0.0826  0.0692
34400W        W41000   5.251   0.728  39.149  0.0485  0.1475 -0.1093
34401W        W41001   9.799   1.670  33.153  0.0308  0.1407  0.0217
34402W        W41002   0.964   3.100  24.774  0.0649  0.0964 -0.0916
34403W        W41003   5.624   6.134  16.378  0.1918  0.4032 -0.1756
34404W        W41004   3.256   6.600  14.983 -0.2763  0.0464 -0.1648
34405W        W41005   8.933   2.556  39.270 -0.0629 -0.0586 -0.3408
34406W        W41006   7.325   2.023  11.187 -0.0452  0.1601  0.1216
34407W        W41007  13.157   5.783  17.143 -0.2848  0.1126 -0.0487
34408W        W41008  19.282   3.020   5.879  0.1490  0.3253  0.0724
34409W        W41009  11.865   6.292  29.945 -0.2031  0.1134 -0.0080
34410W        W41010  18.245   1.258  25.612 -0.1097  0.1235  0.1537
34411W        W41011  13.323   1.498  37.351 -0.1054 -0.1701 -0.1567
34412W        W41012  19.072   0.903  31.741 -0.0784  0.1268  0.1911
34413W        W41013   9.792   5.603  13.006  0.2347 -0.0636  0.1595
34414W        W41014  13.452   3.544  11.137 -0.0842 -0.2623  0.0762
34415W        W41015  20.350   6.129  34.999  0.0893 -0.2158 -0.2357
34416W        W41016   5.572   6.524   4.981  0.5789 -0.0092 -0.1145
34417W        W41017  10.733   4.205  31.300 -0.2051  0.2052  0.2807
34418W        W41018   4.015   3.087  28.703  0.1694  0.1254 -0.0003
34419W        W41019   9.694   6.403  33.861  0.2402 -0.0125 -0.0140
34420W        W41020   1.380   0.759  28.549  0.0734  0.0125  0.0545
34421W        W41021   1.710   0.421   2.488  0.1805 -0.0470  0.1339
34422W        W41022   7.764   5.357  33.216 -0.0937 -0.3381 -0.1479
34423W        W41023  17.760   0.225  38.075  0.1018  0.0392 -0.0805
34424W        W41024   5.112   1.951   1.807 -0.1663 -0.0085  0.1574
34425W        W41025   4.275   2.738  17.317  0.1218  0.4107  0.0420
34426W        W41026  18.775   4.566  10.579  0.1521  0.0050  0.4293
34427W        W41027   5.041   1.834   6.581 -0.0242  0.1314 -0.1571
34428W        W41028   9.117   4.229  43.530 -0.0946 -0.0507  0.1157
34429W        W41029   8.331   4.636  42.499 -0.1373 -0.1891  0.0682
34430W        W41030   5.056   4.716  44.764  0.0702 -0.0459 -0.3219
34431W        W41031   5.890   3.199  32.973 -0.0824  0.0729  0.1461
34432W        W41032  11.337   2.160  13.132 -0.2418 -0.0652  0.1259
34433W        W41033  13.849   4.553  43.235 -0.0087 -0.3575 -0.3113
34434W        W41034   3.562   3.666   2.390 -0.1327 -0.1012  0.0243
34435W        W41035  14.590   3.991  44.562 -0.2633  0.1876 -0.1799
34436W        W41036   0.879   3.554  29.853  0.1289  0.1791  0.4161
34437W        W41037  16.615   5.739  28.488 -0.1405  0.1376  0.1557
34438W        W41038   0.314   5.253   8.540 -0.1979 -0.0921  0.1464
34439W        W41039   3.763   3.946  16.550 -0.0176 -0.1714 -0.0089
34440W        W41040   2.803   2.551  29.332 -0.1138  0.0621 -0.0908
34441W        W41041   4.364   2.870   5.311 -0.0002 -0.0716 -0.0744
34442W        W41042  15.883   2.141   1.706 -0.0639 -0.1202  0.3923
34443W        W41043   3.287   5.261  28.749 -0.0857 -0.2544  0.0930
34444W        W41044  13.572   1.511   4.238  0.2137 -0.1971 -0.0889
34445W        W41045   5.113   2.631  40.605 -0.0473 -0.0730  0.0507
34446W        W41046  15.941   4.375  30.377  0.2785  0.2067  0.0507
34447W        W41047  14.173   5.788   5.778 -0.0280  0.0376 -0.0508
34448W        W41048   4.444   2.506   7.187 -0.0788 -0.0089 -0.0803
34449W        W41049  13.635   6.081  18.569 -0.2185 -0.2641  0.0123
34450W        W41050  13.767   4.710  42.008 -0.1186 -0.0795  0.0577
34451W        W41051  12.824   4.676  14.306 -0.2197 -0.1610  0.1743
34452W        W41052  10.882   5.704  34.636  0.1169 -0.0640 -0.0992
34453W        W41053   9.953   4.035   6.710  0.0991 -0.1239 -0.2545
34454W        W41054  17.784   3.163  23.780 -0.1371  0.0197  0.0827
34455W        W41055   0.820   4.883   3.943  0.0504  0.1765 -0.3652
34456W        W41056  13.745   5.549   3.370 -0.1217  0.2779  0.0521
34457W        W41057   4.006   1.298  41.528 -0.0148 -0.0545 -0.1150
34458W        W41058  10.848   3.580  24.367 -0.1316  0.0299  0.0266
34459W        W41059   9.571   0.446  24.868 -0.1495  0.1250 -0.2331
34460W        W41060  14.187   5.019  33.575 -0.0940  0.1117 -0.1548
34461W        W41061   8.960   0.935  36.009  0.1149  0.1570  0.1440
34462W        W41062  16.874   5.970  11.968  0.1039 -0.1835 -0.0512
34463W        W41063  12.518   4.924  21.954 -0.1072  0.1832 -0.0036
34464W        W41064   5.597   6.145  17.776  0.0045 -0.1468 -0.1740
34465W        W41065   7.026   6.438  17.123 -0.1143  0.1664 -0.1926
34466W        W41066   1.211   4.167  27.451  0.3062 -0.0898  0.0580
34467W        W41067   6.429   3.499  35.761 -0.0608 -0.4392  0.0127
34468W        W41068  15.080   3.568   1.874 -0.0261 -0.0689  0.0700
34469W        W41069   9.262   1.757  14.798  0.1847 -0.1367  0.1942
34470W        W41070  17.540   2.332  36.308 -0.0538 -0.1565  0.5214
34471W        W41071   4.908   6.597  44.821  0.0465 -0.1049  0.1269
34472W        W41072  21.115   1.412  13.670 -0.1277  0.0683 -0.0742
34473W        W41073  15.362   3.330   5.368  0.0272  0.0443  0.2023
34474W        W41074  17.891   3.136  26.201  0.0760  0.2051 -0.0953
34475W        W41075   4.833   5.534  18.977 -0.2923  0.3350  0.0871
34476W        W41076  16.394   4.683  15.196  0.1466 -0.1778 -0.0012
34477W        W41077   9.887   4.628  41.977  0.0219  0.0448  0.0574
34478W        W41078  16.852   1.165  26.873 -0.3543 -0.0108 -0.0751
34479W        W41079  16.097   5.769   5.453 -0.1073  0.0169 -0.2196
34480W        W41080   5.080   3.420  29.123 -0.0823  0.1126  0.0391
34481W        W41081  18.306   6.277  15.383 -0.0954  0.2142 -0.0362
34482W        W41082  15.505   0.091  14.747  0.0805 -0.0215  0.3230
34483W        W41083  11.203   2.789  15.215 -0.0242 -0.2717  0.0960
34484W        W41084  11.835   1.014  11.677  0.0542  0.0981  0.2003
34485W        W41085  19.398   2.639  44.235 -0.1619 -0.1510 -0.2337
34486W        W41086   0.970   1.780   5.106  0.0134  0.1841 -0.1013
34487W        W41087  10.897   0.010  36.913 -0.0835  0.1208 -0.0707
34488W        W41088  10.925   6.162   1.021  0.0575 -0.0216  0.3138
34489W        W41089  18.127   1.017  29.671  0.0825  0.0283  0.1174
34490W        W41090  16.764   0.133  29.818 -0.3100 -0.0663 -0.0703
34491W        W41091  20.416   2.957  29.346  0.1609  0.3005  0.0825
34492W        W41092  20.813   3.413  32.654  0.0661 -0.1895  0.1575
34493W        W41093   3.853   3.185   4.051 -0.2684  0.0266  0.1065
34494W        W41094  16.654   5.358  29.647 -0.2725 -0.0035  0.1301
34495W        W41095   2.788   1.679   8.583  0.2590 -0.1511 -0.3199
34496W        W41096   3.854   6.314  42.449 -0.0842 -0.1267 -0.1912
34497W        W41097  20.136   1.697   1.179 -0.2307 -0.0573 -0.0714
34498W        W41098  17.761   0.743   3.176  0.1268 -0.2774 -0.2331
34499W        W41099   4.552   2.666  38.036  0.0455  0.3011 -0.3230
34500W        W41100  15.626   4.990  26.028  0.0302  0.1186 -0.0653
34501W        W41101   6.395   0.619  15.102  0.1161  0.1563 -0.0261
34502W        W41102   8.218   4.610  37.378  0.0314  0.1683 -0.0591
34503W        W41103   0.873   0.975  43.461  0.0343 -0.6223 -0.1731
34504W        W41104  11.261   6.395   4.212  0.0860  0.0144 -0.0327
34505W        W41105  20.110   3.025  11.803  0.1317  0.1759 -0.3003
34506W        W41106   7.795   4.981  38.360 -0.1235  0.0102  0.0344
34507W        W41107   1.140   0.563   0.084 -0.0407  0.0089 -0.1757
34508W        W41108   2.282   0.417  38.912 -0.1526 -0.0657 -0.2485
34509W        W41109  19.090   2.715  30.456  0.2339 -0.4772  0.0401
34510W        W41110   3.644   3.320  13.310 -0.1117  0.3052 -0.0666
34511W        W41111  19.368   5.899  27.486  0.1133 -0.0247  0.0873
34512W        W41112  15.704   5.708   6.824 -0.0983 -0.4480  0.0959
34513W        W41113  12.357   0.400   0.723  0.1826 -0.0009 -0.0347
34514W        W41114   7.668   3.181  24.173  0.1804  0.0691 -0.0382
34515W        W41115  21.057   0.574   4.526 -0.5672  0.1377  0.0293
34516W        W41116   9.433   5.758   8.724  0.1971  0.1733  0.1110
34517W        W41117   8.149   2.843  44.427  0.0253 -0.0770  0.2373
34518W        W41118   0.348   1.871  25.951 -0.0471  0.1635  0.2071
34519W        W41119  11.750   2.416  35.311 -0.1472  0.1162 -0.0216
34520W        W41120   5.410   1.227   9.580 -0.3073 -0.1166 -0.1231
34521W        W41121  11.609   5.774   1.556 -0.1496  0.1724  0.0133
34522W        W41122   8.953   1.207  22.291 -0.1262 -0.0296  0.2798
34523W        W41123  14.889   5.883   3.102  0.2001  0.2522  0.0419
34524W        W41124   3.286   5.333   0.675  0.1120  0.2029  0.1834
34525W        W41125  20.069   3.268  41.734  0.2938 -0.0069 -0.1079
34526W        W41126  19.810   3.602  26.923  0.2328  0.0631  0.2807
34527W        W41127  13.970   4.485  37.528  0.2167  0.2654 -0.3129
34528W        W41128  12.766   2.221  27.449  0.0640  0.1249 -0.3643
34529W        W41129  16.611   3.192  12.396 -0.1656 -0.0224  0.4286
34530W        W41130   1.218   1.494  11.091  0.6565  0.1042  0.0377
34531W        W41131  17.272   1.116  10.092  0.0924 -0.0796 -0.2290
34532W        W41132   4.107   1.963  12.971  0.0549  0.0868  0.1270
34533W        W41133   1.863   5.826  37.017  0.1815 -0.0270  0.3218
34534W        W41134   4.266   0.569  39.738 -0.0106  0.0109  0.4099
34535W        W41135   9.639   5.301  14.417 -0.1085 -0.0826 -0.0456
34536W        W41136   0.682   0.141  42.882 -0.0152  0.0216 -0.0404
34537W        W41137  20.216   0.398   0.750  0.0908  0.0245  0.1169
34538W        W41138  14.122   1.421   0.956  0.1346  0.1025  0.0656
34539W        W41139  16.893   6.347   8.748 -0.0066  0.0394 -0.0881
34540W        W41140   4.126   0.443  13.007  0.0554  0.0013  0.1834
34541W        W41141   6.101   0.408  16.528 -0.2245 -0.0793  0.1669
34542W        W41142   7.585   5.797  17.342 -0.0762 -0.0073 -0.1772
34543W        W41143   3.118   5.377   6.698 -0.2062 -0.1974  0.3012
34544W        W41144   5.191   5.366  28.413 -0.1825 -0.4878  0.0019
34545W        W41145   9.767   2.791   9.480  0.2016  0.0621 -0.1590
34546W        W41146  20.009   0.308  20.517  0.0363  0.0998 -0.0848
34547W        W41147  12.698   0.463  36.604  0.0119  0.0181 -0.1513
34548W        W41148   6.782   1.226  12.331  0.2237 -0.0042 -0.1017
34549W        W41149   6.237   4.144  29.026  0.0290 -0.0668  0.3651
34550W        W41150   3.218   4.274  25.843 -0.0833  0.3148 -0.3369
34551W        W41151  19.877   0.430  11.196 -0.0630  0.0747 -0.0780
34552W        W41152  20.315   0.352  43.179 -0.2362 -0.2310 -0.0130
34553W        W41153   5.390   4.262  12.167 -0.4940 -0.1071 -0.1890
34554W        W41154  16.561   1.297   0.522  0.1302  0.2536 -0.1583
34555W        W41155   3.609   2.019   7.436 -0.0777 -0.0870  0.1089
34556W        W41156  17.447   5.990  32.388  0.0302  0.1037 -0.0462
34557W        W41157   6.633   0.065   8.635 -0.0802 -0.0339  0.3360
34558W        W41158  13.305   1.847  12.028  0.2172  0.1084  0.0976
34559W        W41159  19.295   2.329  37.817 -0.0782 -0.0059  0.0881
34560W        W41160  18.742   2.920  16.385 -0.0254  0.1075  0.0562
34561W        W41161  17.251   5.148   5.087  0.0809 -0.5508  0.2121
34562W        W41162  11.186   3.363   3.647 -0.1648  0.2239 -0.0685
34563W        W41163  10.256   3.352  42.419 -0.1695 -0.2309 -0.2282
34564W        W41164  15.453   4.404  33.193 -0.0730 -0.0554 -0.0835
34565W        W41165  20.945   4.126  11.021  0.0286 -0.0209 -0.2620
34566W        W41166   5.573   2.375   8.429 -0.4286  0.3707 -0.2478
34567W        W41167  19.602   2.856   1.085  0.0258  0.0911 -0.0446
34568W        W41168  17.715   3.766  25.524  0.0033 -0.1816 -0.0037
34569W        W41169   7.857   4.993  16.791  0.0698 -0.1203 -0.0816
34570W        W41170   3.194   1.423  11.561 -0.3402 -0.1443 -0.0547
34571W        W41171  17.056   4.693  34.976  0.3221 -0.1578 -0.0114
34572W        W41172  10.702   3.792  29.392 -0.0808 -0.2024  0.0504
34573W        W41173   9.399   4.595   4.015  0.0438 -0.1704  0.1957
34574W        W41174  18.240   2.050  31.026 -0.0990  0.0507  0.2195
34575W        W41175  17.982   6.434   1.322  0.1384  0.1983  0.0631
34576W        W41176   0.214   5.906  12.196 -0.1665 -0.1044 -0.1146
34577W        W41177   2.439   4.016   9.484 -0.1691  0.0684 -0.0230
34578W        W41178  12.148   5.327  37.083  0.0127  0.0792  0.2005
34579W        W41179   3.645   1.402  37.429  0.3564  0.0455  0.0946
34580W        W41180   6.307   0.185  14.687  0.1286 -0.0868 -0.2739
34581W        W41181   1.696   5.215   9.807 -0.1824 -0.0985 -0.0163
34582W        W41182   1.053   4.202   6.377  0.0334 -0.1007 -0.1921
34583W        W41183  21.081   4.272  38.616  0.0057 -0.4268 -0.1277
34584W        W41184  16.469   3.542  44.161  0.1024  0.2431  0.0500
34585W        W41185  14.447   4.111  44.081 -0.0081  0.0991  0.2291
34586W        W41186   3.907   3.484   3.661 -0.1582 -0.1427  0.0267
34587W        W41187   9.911   6.543   8.261 -0.4903 -0.0140 -0.1280
34588W        W41188   7.331   4.765  20.733  0.0510 -0.0722  0.0117
34589W        W41189   0.079   5.554  38.389  0.0710  0.2596 -0.0108
34590W        W41190   7.499   5.750  11.743 -0.0280  0.1686  0.1111
34591W        W41191   0.162   6.335  28.181 -0.0685  0.0574 -0.0259
34592W        W41192  10.575   3.537  33.480  0.2084 -0.0851  0.4298
34593W        W41193  16.283   3.568  10.018 -0.1646  0.3861  0.0301
34594W        W41194   4.661   4.555  30.272  0.3009  0.0140  0.0472
34595W        W41195  14.344   2.819  37.632  0.1829 -0.0721  0.2362
34596W        W41196  11.639   0.633  43.833 -0.0633 -0.0105 -0.1361
34597W        W41197  16.989   2.462  25.042 -0.1645  0.1901  0.3284
34598W        W41198  16.453   1.961  39.613 -0.0200  0.3323  0.1270
34599W        W41199  10.035   0.911  22.226 -0.2264  0.0495 -0.3338
34600W        W41200  15.289   4.635  36.527 -0.4349  0.0904 -0.2319
34601W        W41201   3.838   3.006  11.639  0.1477 -0.0600 -0.2708
34602W        W41202   4.969   4.139  20.005 -0.0176 -0.1357  0.2831
34603W        W41203   7.075   6.334   2.688 -0.1104  0.2160 -0.0168
34604W        W41204   6.438   2.641  21.210 -0.1481  0.1369  0.3350
34605W        W41205  17.888   3.837  38.128  0.1414  0.1580  0.0220
34606W        W41206  19.169   3.450   0.847  0.2201 -0.1556  0.1234
34607W        W41207  10.951   5.277   5.552 -0.2962 -0.1057 -0.0178
34608W        W41208   7.321   3.627  35.567  0.1597 -0.1748  0.0171
34609W        W41209  10.534   5.498  22.223  0.0594  0.1785 -0.1165
34610W        W41210  18.214   5.107   1.398  0.0332 -0.0238 -0.1501
34611W        W41211   3.884   6.601  42.939 -0.2104  0.0849  0.0457
34612W        W41212  18.406   6.199  25.747  0.2705 -0.0232  0.1036
34613W        W41213   2.801   3.079  35.982  0.1499  0.0834  0.0242
34614W        W41214   0.685   6.147  31.626  0.1423  0.3663 -0.2005
34615W        W41215   4.223   5.881  35.898 -0.1468  0.1842  0.0058
34616W        W41216  20.652   5.815   0.219  0.0723  0.4884 -0.0193
34617W        W41217  18.675   3.707  38.664  0.1908  0.1301  0.0269
34618W        W41218  18.242   3.492  28.454  0.1727 -0.4208 -0.0655
34619W        W41219  19.941   4.964  21.151 -0.1061  0.4589 -0.3144
34620W        W41220  15.048   4.715  32.523 -0.2037  0.1376 -0.1167
34621W        W41221  13.121   6.304  19.632  0.0275 -0.1424  0.0065
34622W        W41222  16.285   1.698   4.532 -0.0191 -0.1112 -0.1235
34623W        W41223   0.577   0.076  42.404 -0.1368  0.1348 -0.3277
34624W        W41224   9.896   1.536  12.497  0.2199  0.1457 -0.0719
34625W        W41225   5.131   6.411   5.247 -0.0002 -0.0738  0.0550
34626W        W41226  13.383   6.021   5.315  0.1399  0.0477  0.2607
34627W        W41227   2.740   2.906  14.340 -0.2783 -0.0074 -0.0895
34628W        W41228  14.555   1.819   7.834  0.0485  0.0974  0.0589
34629W        W41229   6.967   1.276  28.703  0.1546 -0.3426  0.0144
34630W        W41230  10.732   3.912  40.806 -0.2533 -0.1671  0.1804
34631W        W41231  13.801   3.135  28.606  0.2213 -0.1516  0.0370
34632W        W41232   3.640   3.624  43.314 -0.0692  0.0010 -0.1169
34633W        W41233   3.008   3.750   4.056  0.1594  0.0485  0.0653
34634W        W41234  19.185   3.085  43.938  0.0408  0.0910 -0.0394
34635W        W41235   4.302   2.740  16.141 -0.2156  0.2095 -0.2312
34636W        W41236  16.499   2.996  41.888  0.0337 -0.1892 -0.0888
34637W        W41237   6.255   0.511  17.747 -0.0933 -0.2074 -0.0705
34638W        W41238   8.816   6.421  14.905  0.0481  0.2114  0.1857
34639W        W41239   8.402   1.909  37.426 -0.2279  0.0347  0.1756
34640W        W41240   5.285   1.542   4.304  0.2164  0.1358  0.0358
34641W        W41241   9.986   6.386  36.644 -0.0006  0.0713  0.0830
34642W        W41242  20.513   5.059  28.181  0.1615 -0.0396  0.2559
34643W        W41243  12.896   5.963  18.080  0.0238 -0.1081  0.1599
34644W        W41244  19.365   0.108  35.484  0.1864  0.0466  0.2246
34645W        W41245   1.459   3.963  40.584 -0.0580 -0.0585  0.0527
34646W        W41246  18.506   6.090  40.341 -0.3050  0.0400 -0.0270
34647W        W41247   4.318   5.172  14.968 -0.1069  0.2405 -0.1355
34648W        W41248   4.268   0.414  10.868 -0.3107 -0.2697 -0.0710
34649W        W41249  20.403   3.538   3.308 -0.2929  0.0264  0.3961
34650W        W41250  12.052   3.265  21.222  0.2241  0.0565  0.1337
34651W        W41251   2.812   2.632  11.243  0.0755 -0.0170  0.2194
34652W        W41252   8.230   3.810  38.892  0.2064 -0.1348  0.0742
34653W        W41253  15.265   2.849  29.584 -0.0052 -0.1531 -0.1201
34654W        W41254   3.596   2.222  36.839  0.0784 -0.1013  0.2690
34655W        W41255  14.288   5.469  41.518 -0.2061 -0.0280 -0.2553
34656W        W41256   5.928   4.000  19.681  0.1618  0.0656 -0.3467
34657W        W41257   8.364   5.474  31.351  0.2461  0.0233  0.0164
34658W        W41258  14.573   0.415  37.967 -0.1418  0.1173  0.0883
34659W        W41259  19.505   1.192  12.146  0.3479 -0.1833 -0.1313
34660W        W41260  13.889   3.503  33.064  0.0339  0.3526 -0.0834
34661W        W41261   2.866   4.367  30.267  0.0059  0.2521  0.1344
34662W        W41262  10.701   3.889  20.261 -0.1251 -0.2027  0.2023
34663W        W41263   0.352   2.188  43.922 -0.0684 -0.1178  0.2635
34664W        W41264   6.502   2.268   0.246 -0.1462  0.2167  0.1818
34665W        W41265   5.366   5.741   2.612  0.0991 -0.0555 -0.2719
34666W        W41266  12.948   5.332   1.858  0.1838 -0.4513 -0.1091
34667W        W41267   1.416   3.187  37.351  0.0060 -0.2889 -0.0942
34668W        W41268  13.410   1.947  35.996  0.0616  0.2926 -0.0693
34669W        W41269  18.096   6.072  33.629  0.0753  0.1685 -0.2323
34670W        W41270  19.243   4.934  39.946 -0.2581  0.0812 -0.0786
34671W        W41271  15.972   4.809  30.017 -0.1476  0.1059  0.1820
34672W        W41272  12.794   2.307  28.248 -0.0302 -0.2671  0.0850
34673W        W41273  10.428   3.456  39.953  0.1351  0.0662  0.1922
34674W        W41274   0.364   3.896  34.364  0.0259 -0.1192 -0.1311
34675W        W41275  15.370   3.030  32.685 -0.2356  0.1619  0.1561
34676W        W41276  15.050   4.791   0.794  0.0870 -0.2858  0.0273
34677W        W41277   0.472   1.008  44.290  0.1013 -0.1882  0.0201
34678W        W41278  17.562   6.514  33.989 -0.2201  0.0572 -0.2673
34679W        W41279   1.942   4.435   4.929  0.2506  0.2907 -0.2886
34680W        W41280  17.528   1.522  35.287  0.1842  0.1729 -0.0047
34681W        W41281  20.486   4.650  42.038  0.1578 -0.0936  0.0285
34682W        W41282   8.085   2.574  17.330 -0.0666  0.0295 -0.1841
34683W        W41283   3.752   2.218  33.998 -0.2629 -0.1578 -0.1090
34684W        W41284  18.097   5.494   1.769  0.1635  0.1291 -0.1467
34685W        W41285  18.359   0.125  34.328 -0.2691  0.0568 -0.0872
34686W        W41286   8.244   2.689   2.518  0.4171  0.1260  0.0468
34687W        W41287  11.773   3.999   0.479  0.1911  0.0626  0.0194
34688W        W41288   2.988   5.985  15.694 -0.5633 -0.1913 -0.1019
34689W        W41289   7.178   2.272  20.226  0.0950  0.2481  0.1073
34690W        W41290  20.381   4.399  25.702  0.2523 -0.0368 -0.0409
34691W        W41291  16.915   6.356   0.404  0.2401 -0.2124 -0.0573
34692W        W41292   3.591   5.881  42.556  0.0093 -0.1441 -0.1315
34693W        W41293  19.811   0.330  23.204  0.2422 -0.3401 -0.1159
34694W        W41294  13.649   4.311  43.599  0.0656  0.4063  0.0693
34695W        W41295  15.869   2.963  33.699  0.1809 -0.0426 -0.1178
34696W        W41296  13.269   5.526  27.902  0.2869 -0.0709 -0.2183
34697W        W41297   1.056   3.300   1.670 -0.0632 -0.1427 -0.0793
34698W        W41298  13.110   1.282  37.823 -0.0589 -0.0020  0.0808
34699W        W41299  12.717   0.706  14.580  0.0107 -0.0840 -0.0501
34700W        W41300  15.958   3.744  38.345  0.2270  0.3496  0.3280
34701W        W41301  18.245   2.224  42.728 -0.0237  0.2099  0.3537
34702W        W41302  19.080   0.537  10.490  0.0083 -0.0678 -0.0424
34703W        W41303  12.083   4.768  19.355 -0.4361 -0.0596 -0.0332
34704W        W41304   1.287   0.739  43.577  0.2877  0.3622  0.0688
34705W        W41305  13.671   4.462   9.941  0.2737  0.2316 -0.0002
34706W        W41306  10.357   5.332  30.532  0.1845 -0.2643 -0.0051
34707W        W41307  19.027   5.429   6.470  0.3505 -0.3049 -0.2423
34708W        W41308   2.511   0.010  32.433  0.2570 -0.0094  0.3262
34709W        W41309   7.724   1.535  31.998 -0.0477  0.0191 -0.2069
34710W        W41310  11.338   5.525  27.962 -0.1567 -0.2220  0.0162
34711W        W41311  13.868   0.265  31.519 -0.0454  0.1982  0.0589
34712W        W41312  10.903   2.815   9.869 -0.0181 -0.1536 -0.6462
34713W        W41313  20.947   5.588  27.856 -0.1031  0.1007 -0.0257
34714W        W41314   3.199   0.507  34.124  0.0534  0.0586  0.0406
34715W        W41315  17.786   4.652  35.730 -0.0072  0.3880  0.1464
34716W        W41316   3.320   4.540  32.041 -0.1839 -0.1161  0.1250
34717W        W41317  16.089   4.253  27.301  0.3059 -0.2559  0.2769
34718W        W41318  14.776   5.903  41.634 -0.1413 -0.2710 -0.0078
34719W        W41319  16.622   2.396   6.918 -0.1820  0.1448 -0.0315
34720W        W41320  14.231   2.623  12.319 -0.0664 -0.1456 -0.2577
34721W        W41321  13.512   6.395   9.732 -0.0165 -0.1917  0.0609
34722W        W41322   0.567   4.009  35.678  0.2125 -0.0413  0.0623
34723W        W41323   3.447   1.702  31.818  0.1511 -0.1574 -0.0705
34724W        W41324  20.586   3.235  39.958  0.1005 -0.0963 -0.1085
34725W        W41325  18.561   0.538  34.590  0.0243  0.3174 -0.0629
34726W        W41326  10.608   3.560  18.037 -0.2173 -0.1183  0.0967
34727W        W41327   0.579   2.272  24.689  0.3040  0.0603  0.0675
34728W        W41328   0.854   2.277   1.011 -0.1039 -0.0307 -0.0954
34729W        W41329   2.883   3.337  41.709 -0.0771  0.2062 -0.2007
34730W        W41330   8.958   5.129   6.625 -0.0633  0.1387 -0.0724
34731W        W41331   7.187   4.948   2.243  0.2295 -0.1523  0.1042
34732W        W41332   5.611   0.258   1.273  0.0924 -0.0698 -0.0118
34733W        W41333  18.779   2.936  34.690 -0.1019  0.1047 -0.1474
34734W        W41334   0.840   3.529  41.256 -0.0191 -0.3120  0.2349
34735W        W41335  16.933   3.350  12.758  0.0170  0.0428 -0.1514
34736W        W41336  11.680   3.164  14.739  0.1573  0.1739 -0.0634
34737W        W41337   0.710   6.116   4.603  0.0679 -0.2393 -0.0316
34738W        W41338   1.781   1.405  22.860  0.1810  0.2859  0.0430
34739W        W41339  16.938   3.040   6.077 -0.1235  0.0098 -0.2867
34740W        W41340  12.979   0.436  27.796  0.1413 -0.2381 -0.0360
34741W        W41341  19.832   0.123   7.018 -0.2424 -0.0294  0.0709
34742W        W41342  14.380   2.689  14.170  0.0554  0.0327 -0.0345
34743W        W41343   9.829   5.908  12.579 -0.3114 -0.0588 -0.1321
34744W        W41344  15.532   5.755  37.233  0.1444  0.2208 -0.1187
34745W        W41345   1.315   5.150  10.659  0.1175 -0.4277 -0.0836
34746W        W41346  12.575   0.742  43.871  0.0541  0.3816  0.1365
34747W        W41347  13.986   1.501  43.206  0.1565 -0.2275  0.0248
34748W        W41348   8.311   5.015   3.573  0.0625 -0.0119 -0.3202
34749W        W41349   1.121   3.900  37.858  0.0417  0.1187 -0.2159
34750W        W41350   8.692   0.691   0.830  0.1449 -0.2521 -0.2101
34751W        W41351   1.088   4.552  16.402 -0.1014  0.1286 -0.1020
34752W        W41352  19.692   3.125  13.567  0.1387 -0.3018 -0.0514
34753W        W41353  18.830   4.668  37.023 -0.0194 -0.0277 -0.1168
34754W        W41354   5.802   0.675  38.750 -0.0796 -0.6244 -0.0583
34755W        W41355   1.867   0.692  39.135 -0.1378  0.2119 -0.1876
34756W        W41356  19.260   2.451   8.177 -0.1327  0.3430 -0.1497
34757W        W41357  19.303   4.768  30.338  0.1844  0.0545 -0.0295
34758W        W41358  15.047   0.151   0.366 -0.0239 -0.1257  0.1939
34759W        W41359   0.466   3.652  26.755 -0.0292  0.3194 -0.1041
34760W        W41360   7.277   4.611  33.153  0.1254  0.2363  0.2853
34761W        W41361  14.356   2.821   6.517  0.0694 -0.0842  0.1602
34762W        W41362  15.690   3.138  43.922  0.0697  0.0761 -0.0050
34763W        W41363  10.570   0.241  31.899 -0.3435 -0.1547 -0.0314
34764W        W41364  15.756   1.861   5.706 -0.2540  0.1386 -0.1926
34765W        W41365   4.094   2.180  27.780  0.1222 -0.1194 -0.2587
34766W        W41366   3.740   2.631   1.425  0.0007  0.2356 -0.1100
34767W        W41367  10.201   4.201  21.983  0.2881  0.0087 -0.0616
34768W        W41368   6.165   3.253  18.365 -0.3042  0.1658  0.1096
34769W        W41369   2.000   5.189  13.500  0.1200  0.1313  0.1979
34770W        W41370   9.811   1.347   2.452  0.1182 -0.0164 -0.0532
34771W        W41371   8.702   4.882  20.508 -0.2451  0.1537  0.2159
34772W        W41372   7.990   5.341  21.057  0.1066 -0.0815  0.1360
34773W        W41373  15.015   5.361   6.591 -0.0001  0.0662 -0.1172
34774W        W41374  11.519   6.192  14.472  0.0229  0.1311 -0.0976
34775W        W41375  13.256   1.262  10.973 -0.4532  0.0363 -0.2033
34776W        W41376  14.863   5.931  34.550  0.1728 -0.2003 -0.1587
34777W        W41377  19.116   0.180  40.170  0.0491  0.2412  0.3367
34778W        W41378  12.165   4.983   0.610 -0.3967 -0.0297 -0.0605
34779W        W41379  13.287   1.803  11.558 -0.1198  0.2820  0.1214
34780W        W41380  20.939   4.909  24.260  0.2131 -0.0562  0.2934
34781W        W41381  16.673   5.462  33.517  0.2430 -0.2477 -0.2129
34782W        W41382   0.166   3.172  25.633 -0.2639  0.1284 -0.0978
34783W        W41383   1.818   0.750  27.980  0.2871  0.1292  0.2082
34784W        W41384  12.720   5.253  30.308  0.3573 -0.1584  0.3107
34785W        W41385   5.336   2.932  40.919 -0.0089 -0.0678  0.0186
34786W        W41386  17.341   3.281  28.501  0.1262  0.0222  0.0877
34787W        W41387   9.382   6.306  33.322 -0.0944 -0.0666 -0.0965
34788W        W41388  19.224   5.094  44.036 -0.1502  0.3154 -0.3389
34789W        W41389  14.342   0.690  16.921  0.0309  0.0113 -0.0139
34790W        W41390   7.311   1.548   6.663 -0.1228  0.2380 -0.1626
34791W        W41391  19.860   1.169  11.774 -0.2210  0.0832 -0.5074
34792W        W41392  16.823   3.100  44.175  0.0323  0.0774 -0.1990
34793W        W41393   4.868   4.031  30.160  0.0516  0.1391 -0.0946
34794W        W41394  13.758   5.464   7.786 -0.0437 -0.0368 -0.1075
34795W        W41395   1.866   1.414  27.363 -0.0709  0.0449 -0.1650
34796W        W41396  15.524   5.720  10.359 -0.1288  0.0503  0.0232
34797W        W41397  12.183   5.628  29.700 -0.0778 -0.0117 -0.3048
34798W        W41398  17.925   2.244  28.098  0.2530 -0.0689 -0.2216
34799W        W41399  10.207   5.588  30.980 -0.1335  0.2114  0.3099
34800W        W41400   5.517   5.339   9.024  0.0649  0.1001  0.2868
34801W        W41401  16.567   5.064   3.473 -0.1666 -0.0606  0.3007
34802W        W41402  19.057   0.282  25.311  0.0087  0.0712 -0.0691
34803W        W41403   1.074   5.241   4.951 -0.1899  0.0765  0.0735
34804W        W41404  18.772   2.657   4.352  0.0972  0.1576  0.1086
34805W        W41405   2.279   4.671  33.469  0.2588 -0.5279 -0.3418
34806W        W41406  17.540   5.361  22.865  0.2063  0.0535  0.0688
34807W        W41407  16.280   5.786  33.624  0.1076 -0.0604 -0.0919
34808W        W41408  11.839   1.058  40.373  0.0210 -0.0132 -0.2481
34809W        W41409  13.762   2.945  30.294  0.0305  0.3026 -0.1626
34810W        W41410   9.019   1.345  44.977 -0.1174 -0.0221 -0.2275
34811W        W41411   4.963   1.071   5.643 -0.0115 -0.0886 -0.0392
34812W        W41412   7.052   6.137  42.931 -0.0203 -0.0309  0.0260
34813W        W41413   4.498   0.042  11.279 -0.0716  0.0277 -0.2042
34814W        W41414  18.828   4.120  28.988 -0.2607  0.1686  0.0034
34815W        W41415  10.567   5.269  12.853  0.2325  0.0110 -0.1119
34816W        W41416   6.832   3.049   6.638  0.0067 -0.0857  0.1108
34817W        W41417  16.580   3.669   0.979  0.1723 -0.2573 -0.0023
34818W        W41418  18.082   1.754  33.407 -0.2723 -0.1064 -0.2514
34819W        W41419   2.569   4.863  44.899 -0.0044  0.1107 -0.2087
34820W        W41420  18.560   4.479  44.262 -0.2594  0.0997 -0.0158
34821W        W41421  19.127   3.220  35.351  0.2344  0.0295 -0.1489
34822W        W41422   7.689   2.998   6.478 -0.1400  0.2166  0.1474
34823W        W41423  17.433   4.263  24.248 -0.0502  0.1937 -0.0551
34824W        W41424  15.393   1.469   8.925  0.1220 -0.3249 -0.1350
34825W        W41425  20.819   4.576  28.073  0.1111 -0.1934  0.1173
34826W        W41426  17.254   1.569  10.331  0.0334 -0.1155 -0.0740
34827W        W41427  10.991   3.284  40.069 -0.0609 -0.4859 -0.1555
34828W        W41428   8.635   3.847   0.698  0.2417 -0.1879  0.0301
34829W        W41429   6.978   6.414  12.576  0.1853  0.1812  0.2518
34830W        W41430  16.885   3.869  26.870 -0.0709 -0.2503 -0.0820
34831W        W41431  14.577   4.030   3.555  0.2415 -0.1778 -0.0548
34832W        W41432  16.430   2.517  31.282 -0.0256  0.0076  0.1860
34833W        W41433  19.876   2.103  42.251 -0.1055 -0.0649  0.0479
34834W        W41434   5.686   3.295  32.285  0.1762 -0.0294 -0.2022
34835W        W41435  11.632   3.754  12.298  0.1400  0.2756 -0.0154
34836W        W41436  15.576   2.451  15.759  0.1169  0.0003 -0.0615
34837W        W41437  10.522   4.556   1.612 -0.1931 -0.0431 -0.0847
34838W        W41438  11.814   4.974  15.916 -0.1607 -0.0129 -0.0706
34839W        W41439   6.482   5.352   9.235  0.2394  0.0491 -0.0661
34840W        W41440   5.553   4.891  29.740  0.1121 -0.2796 -0.3334
34841W        W41441  12.323   2.978  18.880  0.1361 -0.1670  0.3276
34842W        W41442   1.016   0.179   0.378  0.0555  0.1975 -0.0628
34843W        W41443  17.249   0.975  38.003 -0.3059 -0.1868  0.0647
34844W        W41444  12.038   2.491  30.306  0.0892 -0.4822  0.3055
34845W        W41445  11.987   3.106   5.759  0.4025 -0.2632 -0.1026
34846W        W41446   5.221   2.174   0.555 -0.1405  0.0364 -0.2574
34847W        W41447  15.251   1.591  17.518 -0.0957 -0.1367 -0.1052
34848W        W41448  16.293   2.021  16.352 -0.0843 -0.0715 -0.2827
34849W        W41449   8.291   6.363  24.262 -0.0060 -0.1461 -0.0567
34850W        W41450   0.233   1.480  33.105  0.2156  0.1063  0.0599
34851W        W41451   6.013   4.098   1.285 -0.0986  0.0217 -0.1476
34852W        W41452   3.010   0.500  12.273  0.2876 -0.1090 -0.1002
34853W        W41453   1.186   4.274  26.120  0.0595  0.1689  0.0320
34854W        W41454   9.518   1.968   1.664 -0.0865  0.2439  0.0224
34855W        W41455   7.475   4.710  31.155 -0.0279  0.1551 -0.0686
34856W        W41456   3.792   3.386  12.266  0.0073 -0.2076 -0.2440
34857W        W41457   9.312   3.949   2.564 -0.2411 -0.0028  0.2873
34858W        W41458  20.249   2.398  22.671  0.2408  0.0954  0.0894
34859W        W41459  15.015   6.162  33.039  0.2426 -0.0077  0.0121
34860W        W41460   3.344   3.154  38.002 -0.0902 -0.0617  0.0002
34861W        W41461   7.039   3.368  12.966 -0.0290 -0.1107 -0.4626
34862W        W41462   8.906   2.523   5.922 -0.2059 -0.0451 -0.0670
34863W        W41463  10.009   4.722  10.978 -0.1653  0.0189  0.1454
34864W        W41464  15.954   2.259  38.401 -0.1694 -0.2052 -0.0202
34865W        W41465  15.809   0.412  32.509 -0.1543  0.0095 -0.0695
34866W        W41466   1.169   2.871   3.475  0.2139  0.3096  0.0867
34867W        W41467  20.020   5.980  39.982 -0.0360  0.0192  0.2525
34868W        W41468   2.402   2.289  30.154  0.4464 -0.0460  0.3568
34869W        W41469  13.887   2.123  34.600  0.2218 -0.0653  0.1314
34870W        W41470   7.010   5.116   5.904  0.1501 -0.0400 -0.1071
34871W        W41471   9.271   2.686  33.878  0.0321  0.3793  0.0743
34872W        W41472  18.771   2.233  15.216  0.3093 -0.1020 -0.3898
34873W        W41473   5.264   6.406   3.504  0.0199 -0.4708  0.0760
34874W        W41474  15.405   5.504  38.524  0.1296 -0.1319 -0.1743
34875W        W41475   9.644   4.393  24.666 -0.0506 -0.2439 -0.0281
34876W        W41476  12.771   4.033  31.038 -0.0022 -0.0501  0.1008
34877W        W41477   8.041   3.305  42.718  0.1069  0.1259 -0.2167
34878W        W41478  15.134   2.862  42.741  0.2014  0.0778  0.0150
34879W        W41479   8.307   6.352  35.421  0.1272  0.0276 -0.0405
34880W        W41480   3.299   6.221  41.285  0.2555  0.0770 -0.2697
34881W        W41481   2.439   0.587   3.664  0.0656  0.2645  0.1512
34882W        W41482  10.204   5.781  38.165 -0.0025 -0.0629  0.1509
34883W        W41483   1.547   1.663  38.112 -0.0492  0.0849  0.0079
34884W        W41484   7.271   1.881  39.224 -0.0816  0.4458  0.0700
34885W        W41485   8.927   1.623   5.302  0.1820 -0.1299  0.1977
34886W        W41486  20.419   4.157   5.274 -0.2515 -0.0571  0.0823
34887W        W41487   2.448   4.926  32.559  0.0374  0.2673 -0.1476
34888W        W41488  11.958   6.498  28.628  0.1408  0.2185 -0.0376
34889W        W41489  16.309   4.731  30.421 -0.3394 -0.0966  0.3601
34890W        W41490  21.112   5.231  38.799 -0.1089 -0.2749  0.0433
34891W        W41491   8.413   3.303  34.135  0.1726  0.0340  0.1476
34892W        W41492  16.356   3.603  37.607  0.0638  0.4730 -0.0083
34893W        W41493  20.851   2.773  23.215 -0.0060 -0.1815  0.0425
34894W        W41494  10.788   5.996  44.401  0.0677 -0.0564  0.0674
34895W        W41495  19.189   4.998  13.535  0.1030 -0.1982  0.2424
34896W        W41496   1.536   4.431  11.472  0.0733  0.0952 -0.0139
34897W        W41497   7.480   2.033   3.078  0.2648 -0.0338  0.2522
34898W        W41498  14.151   6.078  18.216  0.1349  0.0723  0.0228
34899W        W41499   5.746   1.259   0.667 -0.1481  0.0934 -0.0080
34900W        W41500   8.609   1.190   7.328  0.2616 -0.0038 -0.1943
34901W        W41501   7.257   5.573  16.475  0.0981 -0.1985 -0.1695
34902W        W41502   4.944   4.651  28.203  0.1738  0.3339 -0.1525
34903W        W41503  11.285   4.920  21.317 -0.3972  0.2641 -0.0225
34904W        W41504   8.214   0.533  40.749  0.0036  0.1400  0.1971
34905W        W41505  13.243   2.332   1.777 -0.1603 -0.0176 -0.0907
34906W        W41506  15.171   3.598  38.525  0.0613  0.2163  0.1672
34907W        W41507   8.907   4.936   9.545  0.2460  0.1894 -0.1554
34908W        W41508   3.384   3.303   3.793 -0.0913  0.1213 -0.1374
34909W        W41509  14.253   6.420  14.246 -0.0454  0.0654  0.2325
34910W        W41510  10.613   4.330  22.689  0.1020  0.0780 -0.1411
34911W        W41511  17.163   3.850  44.702 -0.0559 -0.1805 -0.0375
34912W        W41512  11.079   0.487   4.661  0.0641 -0.2029  0.0468
34913W        W41513   2.132   5.245  38.638  0.0289  0.3167 -0.0435
34914W        W41514   1.169   2.617  38.902  0.0655  0.1428  0.1061
34915W        W41515  11.759   6.095  10.440  0.3941  0.2483  0.1584
34916W        W41516   8.092   2.568  24.663 -0.0259 -0.1382 -0.4674
34917W        W41517   1.328   1.470   8.197  0.0813  0.2543 -0.0287
34918W        W41518   5.503   1.403   1.090 -0.0491  0.0352  0.1339
34919W        W41519  18.290   0.299  44.584  0.1051  0.2749  0.0845
34920W        W41520  14.469   4.925  15.899 -0.0129 -0.1432 -0.0021
34921W        W41521   2.463   0.225  25.507 -0.0997 -0.3112 -0.0984
34922W        W41522   5.892   2.668   3.305  0.1788 -0.1081  0.1640
34923W        W41523   8.337   1.559  34.367  0.1615 -0.1277 -0.1935
34924W        W41524  13.602   0.819  36.834  0.1698  0.0837 -0.0516
34925W        W41525  12.820   4.806  42.813  0.1739  0.1099  0.3536
34926W        W41526  11.627   3.050  32.149  0.1667  0.0614  0.1874
34927W        W41527   0.785   1.791   1.236  0.2559 -0.0820  0.0555
34928W        W41528   9.060   0.890  12.551 -0.0257 -0.1388 -0.0235
34929W        W41529   1.797   0.535  33.932 -0.1990 -0.2230  0.0103
34930W        W41530   8.893   5.917   7.282 -0.4012  0.1572 -0.2124
34931W        W41531  14.772   3.033  30.609  0.0816 -0.0265 -0.0893
34932W        W41532  14.148   1.430  11.284 -0.1838  0.0916 -0.0557
34933W        W41533  10.491   5.262  40.264  0.0398  0.0198 -0.1068
34934W        W41534   3.078   4.177  32.342 -0.0939 -0.2964 -0.1681
34935W        W41535  14.831   4.461  34.735  0.1614 -0.0935 -0.1297
34936W        W41536  12.243   1.242  18.995 -0.1179  0.0177 -0.1004
34937W        W41537   3.470   1.742  31.045 -0.0332 -0.2342 -0.0428
34938W        W41538   2.323   1.970  43.333  0.3014  0.0947 -0.1509
34939W        W41539   4.036   5.975   2.113 -0.0046 -0.0690  0.1380
34940W        W41540  15.767   5.712  32.480  0.0631 -0.1151  0.2702
34941W        W41541   6.443   5.663   4.510  0.1515 -0.0892  0.0324
34942W        W41542  20.080   5.308  44.271  0.2135 -0.1791 -0.1012
34943W        W41543  14.422   3.582  37.454  0.0999 -0.1688  0.1525
34944W        W41544  11.986   6.121  39.436  0.0402 -0.0016  0.0596
34945W        W41545   6.492   5.370  39.102  0.0147  0.2739 -0.0093
34946W        W41546   4.888   2.176  13.269 -0.1377 -0.0456 -0.1235
34947W        W41547  16.238   1.330  14.905 -0.2166 -0.3504 -0.0759
34948W        W41548   4.165   4.555  30.216  0.1819 -0.0869  0.0989
34949W        W41549  12.640   5.326  20.593 -0.0298  0.0283 -0.0350
34950W        W41550  16.430   6.526   0.523 -0.1583  0.1510 -0.1516
34951W        W41551  11.046   3.009  18.737 -0.1864  0.0805 -0.1341
34952W        W41552  18.731   5.182   1.246 -0.1182 -0.0478 -0.1603
34953W        W41553  13.073   1.848  15.265  0.0588  0.0506 -0.2376
34954W        W41554  20.588   2.179  39.173  0.1481  0.0640  0.0875
34955W        W41555   0.579   5.241   0.019  0.1807  0.1095  0.1193
34956W        W41556   2.703   3.080  32.421 -0.0038  0.0422  0.1567
34957W        W41557   5.321   3.666   0.573  0.0444  0.1398  0.1696
34958W        W41558   7.959   1.914  40.075 -0.1065  0.1916 -0.1114
34959W        W41559  12.843   3.259   9.384 -0.0384 -0.3101 -0.2111
34960W        W41560  21.124   6.284  29.064 -0.0612  0.1920 -0.0526
34961W        W41561  12.095   3.208  43.720 -0.2186  0.3082  0.0673
34962W        W41562   4.198   1.497  18.285 -0.2155  0.0318 -0.0274
34963W        W41563  16.222   4.952  36.318 -0.0197  0.1951 -0.1534
34964W        W41564   0.644   1.497   8.924  0.3213 -0.3155 -0.1773
34965W        W41565  16.590   4.489  37.129 -0.1152  0.0270  0.2757
34966W        W41566   8.401   1.155  14.401 -0.0582 -0.1791  0.1438
34967W        W41567  15.078   4.421   4.498  0.0601  0.2086  0.0578
34968W        W41568  18.273   5.244  43.143 -0.1766  0.2153  0.0886
34969W        W41569  14.786   5.181  10.879  0.1245 -0.0321  0.1940
34970W        W41570  18.386   4.091  32.751 -0.1081  0.3225 -0.0259
34971W        W41571  19.803   1.608  12.034  0.0039  0.1783 -0.0385
34972W        W41572  20.674   1.517  31.061  0.0793 -0.0320  0.0962
34973W        W41573  12.910   4.018   4.164  0.1859  0.1243 -0.1523
34974W        W41574   5.772   0.553  18.492 -0.0670  0.0646  0.0512
34975W        W41575  15.365   6.577  11.867  0.2213 -0.0189  0.0685
34976W        W41576  10.316   1.528   8.570  0.3218 -0.0778  0.0147
34977W        W41577  12.927   6.343  15.520 -0.3414  0.2523  0.2523
34978W        W41578   9.320   0.791  18.598 -0.1298  0.0848 -0.1155
34979W        W41579   3.924   3.646  43.692 -0.2920  0.1784 -0.2166
34980W        W41580  12.707   4.171  41.498  0.2759 -0.0058  0.1311
34981W        W41581   8.434   1.412  23.103  0.2221 -0.3036 -0.0951
34982W        W41582   6.285   0.831  16.417  0.0393  0.0345  0.1195
34983W        W41583   9.485   6.580  11.641 -0.0748 -0.1594 -0.3968
34984W        W41584  19.926   1.901  14.612 -0.1095  0.0856  0.0446
34985W        W41585  20.005   1.213   6.949 -0.0905 -0.1497 -0.2150
34986W        W41586  18.776   3.340  12.183 -0.1944  0.1621  0.2177
34987W        W41587  11.055   5.293  19.002  0.1260 -0.0570  0.0092
34988W        W41588  13.550   2.293  20.401 -0.2296 -0.0593 -0.2353
34989W        W41589  13.558   5.453  34.238  0.0278 -0.0685 -0.0119
34990W        W41590   1.423   2.774   6.892 -0.2053 -0.0539  0.2503
34991W        W41591   5.731   2.844  35.175 -0.0654  0.1122 -0.1549
34992W        W41592   6.247   1.533  39.377  0.0662 -0.2598 -0.4166
34993W        W41593  12.504   4.748   4.267  0.3465 -0.1189  0.1295
34994W        W41594   3.655   5.410  44.806  0.0222 -0.1773  0.0657
34995W        W41595   0.171   4.902  15.260 -0.0582 -0.0858 -0.2333
34996W        W41596   7.058   3.417   4.433  0.2134  0.1094  0.0577
34997W        W41597  15.132   1.723  44.017 -0.2112 -0.0104 -0.1759
34998W        W41598  20.117   0.754  45.078  0.1638  0.1913 -0.0585
34999W        W41599  17.817   1.291  15.338 -0.1562  0.2686  0.1774
35000W        W41600  18.368   0.049  39.533  0.1856 -0.2426  0.3897
35001W        W41601   4.811   3.808  33.818 -0.0463 -0.1409  0.1873
35002W        W41602  11.759   1.270  17.614 -0.0025  0.2778  0.3158
35003W        W41603  18.557   2.241   6.022 -0.2301 -0.2257  0.1117
35004W        W41604  10.854   0.837  35.811  0.3064  0.3481  0.0581
35005W        W41605  20.716   5.845  36.381  0.0204  0.1116  0.4046
35006W        W41606  20.624   0.182  14.572  0.5828 -0.1615 -0.1937
35007W        W41607  14.764   5.529  43.837 -0.2252 -0.0456  0.1178
35008W        W41608  17.182   2.445  41.721 -0.1572 -0.2966  0.0280
35009W        W41609  18.101   0.112  13.431 -0.2018 -0.0573 -0.4582
35010W        W41610  11.147   3.897  35.694 -0.5452  0.0051 -0.0454
35011W        W41611   0.391   2.203   6.523 -0.2226 -0.0385  0.1692
35012W        W41612  13.137   0.962  41.209  0.0049 -0.0699  0.3173
35013W        W41613  12.426   2.586  12.509  0.0468 -0.1014  0.1372
35014W        W41614   7.153   1.260  41.954 -0.0095  0.0557 -0.0579
35015W        W41615  18.327   2.414  29.622 -0.1327 -0.1133 -0.1132
35016W        W41616  14.086   3.076   6.164  0.0190 -0.0736 -0.3000
35017W        W41617   4.889   3.865   3.271 -0.3259  0.1604  0.0197
35018W        W41618  20.220   4.532  43.699  0.1699 -0.2727 -0.0282
35019W        W41619  19.443   3.523   1.688  0.0237  0.0465 -0.0738
35020W        W41620  12.878   0.527   0.022 -0.0166 -0.0658  0.4247
35021W        W41621  19.180   0.127  41.862  0.2080 -0.1069  0.2530
35022W        W41622   2.352   4.093   3.340 -0.1082  0.0748 -0.0320
35023W        W41623   3.318   2.332   2.143 -0.2540 -0.1324 -0.0117
35024W        W41624  18.623   1.676  12.662  0.1474 -0.3685  0.0024
35025W        W41625  19.118   3.720  28.097  0.1235 -0.0812  0.3156
35026W        W41626   5.633   0.788  30.635  0.2688 -0.2514 -0.0338
35027W        W41627   6.442   2.216  10.948 -0.2878 -0.2163 -0.0387
35028W        W41628  15.621   2.339   5.627 -0.3602 -0.1171 -0.0981
35029W        W41629  20.014   3.264  29.377 -0.0318 -0.1748 -0.0846
35030W        W41630  13.581   5.638  40.995 -0.1999  0.2700  0.0564
35031W        W41631   7.885   4.193  14.737  0.1608 -0.0486 -0.1473
35032W        W41632  20.421   5.115   7.604  0.1968  0.0170 -0.1965
35033W        W41633   9.074   3.301  40.378  0.0276  0.2503 -0.0626
35034W        W41634   0.966   3.971   5.847  0.3706 -0.2424  0.1041
35035W        W41635  11.120   6.082  37.113  0.2921 -0.1970 -0.0082
35036W        W41636  16.755   5.326  31.573  0.0271  0.1301 -0.1917
35037W        W41637   8.434   4.228  39.109 -0.0107  0.0990 -0.1310
35038W        W41638  20.522   2.956  11.587 -0.1902  0.2134  0.2110
35039W        W41639   7.277   3.142  39.079  0.0308  0.1548 -0.0525
35040W        W41640  20.264   6.276  44.470 -0.2109  0.0100  0.0102
35041W        W41641   1.961   5.730  26.157  0.2600 -0.0837 -0.0152
35042W        W41642  20.762   5.402  31.961 -0.0432  0.1203 -0.1901
35043W        W41643  16.814   3.367   6.762 -0.2159 -0.1974  0.0790
35044W        W41644  10.706   1.315  34.595  0.1785 -0.0961  0.3571
35045W        W41645  11.783   0.701   0.183  0.0905  0.0986 -0.3159
35046W        W41646  17.566   3.332  36.654 -0.3783 -0.1695  0.1301
35047W        W41647  20.611   3.295  32.073  0.0409 -0.0820 -0.0605
35048W        W41648  10.957   6.180  30.818  0.2142 -0.1287 -0.0354
35049W        W41649  14.369   6.023  10.942  0.1513  0.1528  0.1437
35050W        W41650   6.940   1.583  10.449  0.0682 -0.3359  0.1317
35051W        W41651  13.675   1.558  16.462 -0.0771 -0.1515  0.4550
35052W        W41652   7.295   2.476   3.622 -0.0681 -0.0377  0.0699
35053W        W41653   9.575   2.790  41.395  0.0779  0.1278  0.1290
35054W        W41654  17.223   2.296  31.734 -0.1909 -0.1148 -0.0602
35055W        W41655  19.262   6.547   7.729 -0.2885 -0.2447 -0.0657
35056W        W41656   9.718   2.488  16.757  0.1789 -0.2192  0.0298
35057W        W41657   0.674   5.739  25.656  0.1841 -0.0136  0.0187
35058W        W41658   4.782   5.456  42.966 -0.0611  0.1082  0.0727
35059W        W41659   5.945   5.447   9.258 -0.2131 -0.1725  0.1069
35060W        W41660  15.837   5.366  11.073 -0.1007  0.0408 -0.0758
35061W        W41661   9.443   0.318  29.622  0.1355 -0.1147  0.0619
35062W        W41662   9.992   0.054  12.979 -0.1897 -0.2896 -0.1983
35063W        W41663  16.678   3.464  36.053  0.2497  0.0015 -0.1927
35064W        W41664   3.401   4.916  11.393 -0.1816  0.2286 -0.2543
35065W        W41665   5.415   2.463   1.452 -0.2393 -0.0594  0.0896
35066W        W41666  13.295   0.546   3.044  0.2041 -0.2370  0.0499
35067W        W41667   7.147   2.685  36.431 -0.1358 -0.0061 -0.0580
35068W        W41668   2.668   5.223   8.520  0.0403 -0.0603  0.0411
35069W        W41669  16.500   5.358  29.075  0.1569  0.0406 -0.2790
35070W        W41670  12.671   3.977  29.106 -0.0448  0.1714  0.0705
35071W        W41671  16.183   1.578  34.864  0.2304  0.0744 -0.1308
35072W        W41672  14.441   0.784   2.221 -0.0455  0.0321 -0.2840
35073W        W41673   5.228   0.705  12.444 -0.1375 -0.3054  0.1059
35074W        W41674  11.503   1.262  10.212  0.1907 -0.3303 -0.2204
35075W        W41675  11.963   5.179  15.070 -0.0815 -0.3704 -0.2785
35076W        W41676  16.800   3.860  40.183 -0.4166 -0.1035  0.2061
35077W        W41677  12.110   6.266  34.521  0.0068  0.0320 -0.3369
35078W        W41678  14.098   5.911  36.782 -0.3706 -0.0105  0.1060
35079W        W41679  15.107   4.714   3.685 -0.0756  0.2745 -0.1721
35080W        W41680  14.689   6.527  10.125  0.0921  0.0211  0.0618
35081W        W41681  16.314   1.516  42.638 -0.0327 -0.2401 -0.0148
35082W        W41682  21.062   4.508   4.931  0.0474  0.0214 -0.1796
35083W        W41683   7.242   5.829  44.104 -0.4270 -0.0199  0.2381
35084W        W41684  15.067   3.391   6.172 -0.2416 -0.2710  0.1001
35085W        W41685   9.505   2.354   8.242 -0.0535  0.3492  0.2498
35086W        W41686  14.739   2.768  38.956  0.2495 -0.1683  0.0038
35087W        W41687   9.313   5.995   5.102  0.1432  0.0192  0.1090
35088W        W41688  14.615   4.639   8.466  0.1379  0.1001  0.0194
35089W        W41689  16.295   2.679  28.183  0.1151 -0.0102  0.1250
35090W        W41690   0.610   1.183  43.050 -0.0909  0.0517 -0.1838
35091W        W41691   1.019   3.579  41.751  0.1088  0.1623  0.0207
35092W        W41692  18.685   4.674  35.057  0.0986 -0.2749  0.0257
35093W        W41693  17.779   4.443  28.049 -0.0627  0.2047  0.1240
35094W        W41694  20.955   5.265  42.657 -0.2716 -0.2255  0.1976
35095W        W41695  15.371   2.573  39.929  0.2041  0.0401 -0.0009
35096W        W41696   0.719   0.700  44.921  0.0014 -0.0634 -0.0770
35097W        W41697  12.534   1.263  30.732  0.0349 -0.0028 -0.0247
35098W        W41698   6.916   2.203  12.379  0.3019 -0.1411 -0.1755
35099W        W41699   9.918   6.350  38.412 -0.2502 -0.0822 -0.0711
35100W        W41700  13.919   5.549   6.794  0.2498 -0.0942  0.0089
35101W        W41701   4.387   0.137  31.707  0.2414  0.0029  0.1649
35102W        W41702  16.539   1.639  37.099 -0.4119 -0.0227  0.0226
35103W        W41703  14.640   1.341  10.805 -0.1014  0.2466  0.1033
35104W        W41704  11.535   5.079  18.958  0.4801  0.0411  0.0545
35105W        W41705  10.044   4.377  29.999  0.2015  0.4571 -0.2047
35106W        W41706   9.961   5.309   3.962 -0.0601 -0.0606  0.0808
35107W        W41707  20.350   4.617  27.214 -0.1622 -0.2466  0.2804
35108W        W41708   7.051   2.524   2.418 -0.0006 -0.0426  0.1064
35109W        W41709   6.837   4.324  12.164 -0.2089  0.1601 -0.0144
35110W        W41710  17.041   6.043  23.999 -0.5273  0.3617  0.2744
35111W        W41711   0.496   6.008   5.149 -0.1044  0.0182  0.2305
35112W        W41712   2.609   0.634  28.323  0.1333  0.0898  0.1819
35113W        W41713   5.668   3.806   0.985  0.1382  0.1801 -0.0164
35114W        W41714   8.738   5.894  15.238  0.0094 -0.2719 -0.1035
35115W        W41715  14.946   5.806  44.287 -0.0919  0.2634  0.0824
35116W        W41716  12.296   2.497  35.296  0.2146  0.2718 -0.0523
35117W        W41717   0.527   3.499   9.899 -0.0322  0.4127 -0.0964
35118W        W41718  14.696   5.395  36.952 -0.3345  0.0663  0.0753
35119W        W41719   4.431   6.443   9.551  0.0282  0.1145  0.1885
35120W        W41720   3.598   0.117   1.483 -0.4209 -0.1121  0.1232
35121W        W41721  20.982   5.486  11.247 -0.1354  0.3696  0.0343
35122W        W41722   4.188   2.489  27.451 -0.1042 -0.0495  0.1559
35123W        W41723   5.672   1.643  35.156 -0.0280 -0.5932 -0.2537
35124W        W41724  17.514   2.588   4.207 -0.2247  0.5042 -0.1850
35125W        W41725  13.961   3.838  39.525 -0.0283 -0.0320 -0.0714
35126W        W41726  11.707   6.243   3.229  0.1544 -0.0485  0.0997
35127W        W41727  11.894   4.959  40.333  0.3746  0.0812  0.1184
35128W        W41728   7.603   5.592  30.029  0.3298 -0.2043  0.1574
35129W        W41729  10.574   4.624  13.705 -0.3110 -0.0704 -0.3380
35130W        W41730   6.616   4.359   8.438 -0.0287  0.1761 -0.0666
35131W        W41731  16.485   0.275  14.662 -0.3377 -0.0981  0.0855
35132W        W41732   8.547   5.074   9.193  0.1435  0.0476 -0.0628
35133W        W41733   8.111   2.055  23.004  0.2066  0.1311 -0.1493
35134W        W41734   1.705   0.514  44.259  0.1313 -0.3621  0.1070
35135W        W41735   0.562   6.420  39.523  0.3148 -0.1809  0.0760
35136W        W41736   5.351   4.403   4.080 -0.0871 -0.0292 -0.0964
35137W        W41737   6.285   4.437  35.021 -0.1277  0.0768  0.0457
35138W        W41738   2.587   5.161  29.803  0.0477  0.1778  0.0778
35139W        W41739   5.912   6.445   0.545 -0.0627 -0.0330  0.1008
35140W        W41740   7.586   1.654  34.988  0.1670 -0.0759  0.1660
35141W        W41741   2.476   4.878  36.631  0.3299  0.0544  0.1138
35142W        W41742  11.195   0.494  28.808 -0.4598 -0.1004 -0.0714
35143W        W41743   2.963   5.197  13.830  0.0212 -0.2014 -0.3656
35144W        W41744   7.450   5.582  42.428 -0.1864  0.0040 -0.0204
35145W        W41745  14.324   0.947  14.889 -0.0198  0.0198  0.0328
35146W        W41746   1.099   5.179  35.781 -0.1884 -0.0066  0.0231
35147W        W41747  20.272   0.074  38.352  0.0990  0.0270  0.0786
35148W        W41748   5.393   1.747  14.500  0.0469  0.1293  0.0180
35149W        W41749  19.233   0.756  13.367  0.0053  0.2618  0.3001
35150W        W41750  19.973   0.212   1.674  0.0904 -0.1080  0.0504
35151W        W41751  11.363   0.731  12.923 -0.0380  0.0530 -0.0668
35152W        W41752  20.480   5.745  39.968 -0.0225 -0.1929 -0.0883
35153W        W41753  19.233   1.213  25.917  0.1687  0.0805 -0.1227
35154W        W41754   9.876   1.430  42.517  0.0540 -0.0172  0.1860
35155W        W41755  16.026   4.959  36.813  0.0712 -0.1252 -0.0799
35156W        W41756   2.836   0.280   6.585 -0.1868  0.1067 -0.1139
35157W        W41757  18.061   4.116  33.828  0.0280 -0.0154  0.0774
35158W        W41758   5.130   4.184  17.429 -0.1634  0.1598 -0.0941
35159W        W41759  13.020   4.493  40.282 -0.0961  0.0904 -0.0859
35160W        W41760   8.180   4.599  35.431  0.1869 -0.2491 -0.3458
35161W        W41761   8.256   3.239  11.321  0.0476  0.0649 -0.2740
35162W        W41762  16.458   3.856  12.639 -0.2545  0.0092 -0.0601
35163W        W41763  16.626   2.601  43.447  0.1849 -0.0162  0.0914
35164W        W41764   0.849   3.113   9.905  0.3391 -0.1561  0.0027
35165W        W41765   5.313   5.372  15.137 -0.1933 -0.2483 -0.0060
35166W        W41766  17.337   0.800   8.248  0.3273 -0.2256  0.0264
35167W        W41767   8.335   5.024  16.665 -0.0158 -0.0573  0.0842
35168W        W41768   0.787   4.712  36.895 -0.1313  0.3021 -0.0782
35169W        W41769   5.648   0.684  10.781  0.0364  0.0351  0.1548
35170W        W41770  19.198   5.924  37.458  0.3049  0.2729  0.1977
35171W        W41771  18.664   1.905  30.620 -0.0735 -0.0405  0.0488
35172W        W41772   3.412   1.440  43.619  0.1477 -0.3544  0.0790
35173W        W41773  19.608   2.187  24.003  0.0146 -0.0375  0.1497
35174W        W41774   5.050   3.362  18.802  0.3557 -0.0000 -0.0251
35175W        W41775   6.028   5.141  33.948 -0.0985 -0.1320 -0.1339
35176W        W41776  19.847   2.718  19.858  0.1546 -0.4034 -0.0765
35177W        W41777   3.502   2.959  27.301 -0.1396 -0.2327 -0.1257
35178W        W41778   6.185   1.479   4.561 -0.1384  0.0805  0.0374
35179W        W41779  16.144   3.998  36.591 -0.0080 -0.0501 -0.0779
35180W        W41780  19.782   3.074  39.883  0.1957  0.0480  0.1678
35181W        W41781  12.871   4.276  11.363 -0.3824  0.1462 -0.0590
35182W        W41782  15.526   2.827  25.648 -0.2394 -0.2416 -0.0338
35183W        W41783   9.679   3.287  13.556 -0.1151 -0.0626 -0.0236
35184W        W41784   3.839   4.508  16.277 -0.1979 -0.1526  0.0728
35185W        W41785   4.165   6.539  34.434 -0.2041  0.1979  0.2061
35186W        W41786   9.667   2.312  28.848 -0.1668 -0.1264  0.1595
35187W        W41787   2.845   0.646   3.232 -0.2175  0.2270  0.1962
35188W        W41788  11.876   5.053  32.117 -0.3683  0.1632  0.2265
35189W        W41789   6.527   4.628  13.159 -0.2030 -0.2591 -0.3332
35190W        W41790   5.459   5.679  12.145 -0.3401  0.1064  0.0380
35191W        W41791  12.160   6.256  12.974  0.1544 -0.1273  0.0185
35192W        W41792  19.675   0.323  43.183  0.2015  0.0741  0.3150
35193W        W41793   2.015   4.917  32.276  0.0013 -0.0408 -0.1374
35194W        W41794  19.483   2.808  42.942  0.2748  0.1167  0.2832
35195W        W41795  15.459   2.914  41.645  0.2822  0.1722 -0.0886
35196W        W41796  18.598   3.991   9.925  0.1554  0.0755  0.2644
35197W        W41797  19.385   1.067  37.927 -0.0623 -0.0881 -0.0400
35198W        W41798  17.939   4.716  44.695  0.0933 -0.1347 -0.0966
35199W        W41799  10.528   3.039  30.571  0.1192 -0.4230 -0.4618
35200W        W41800  11.511   2.467   7.620 -0.1416  0.1727  0.0365
35201W        W41801  15.482   1.440   4.403 -0.0959 -0.1859  0.2613
35202W        W41802  13.802   1.696   5.589 -0.0806 -0.1791 -0.0971
35203W        W41803  13.640   1.545  36.937 -0.3885  0.2368  0.4045
35204W        W41804  20.434   6.181   6.470 -0.2906  0.1265  0.2679
35205W        W41805   8.460   3.338  19.503  0.1767 -0.0938  0.3099
35206W        W41806   1.520   2.616  31.927 -0.2116 -0.0797  0.1774
35207W        W41807  10.918   2.758  15.693  0.1198 -0.1104  0.2118
35208W        W41808  13.745   1.746  34.904 -0.1090  0.1318 -0.3996
35209W        W41809   9.845   2.541   5.255  0.0261  0.0052 -0.1671
35210W        W41810   9.447   6.308  41.407 -0.0016  0.1455  0.2159
35211W        W41811  20.059   3.573  27.855 -0.1503  0.2001 -0.2418
35212W        W41812   9.308   1.703  42.261  0.0142  0.0600  0.1654
35213W        W41813   1.822   6.252   2.879  0.2160 -0.1447  0.2729
35214W        W41814  10.792   6.224  18.279  0.0999 -0.1129  0.2006
35215W        W41815  11.850   2.719  17.324 -0.1043  0.0699 -0.1456
35216W        W41816   0.949   6.403   2.434 -0.2289  0.0083  0.0413
35217W        W41817  11.195   6.549  18.173  0.2258 -0.0578 -0.0492
35218W        W41818  17.733   3.238  41.986 -0.1408  0.0197 -0.1524
35219W        W41819  20.762   4.771  32.706  0.2874  0.0838 -0.0395
35220W        W41820   6.479   3.003   9.808 -0.2226 -0.2547  0.3368
35221W        W41821  10.787   1.272  21.107  0.0643  0.0957  0.1692
35222W        W41822  15.849   5.200  42.366  0.2107 -0.2390 -0.1416
35223W        W41823   6.047   1.749  40.214 -0.1209 -0.0039  0.0526
35224W        W41824   8.710   1.793   7.179 -0.1242 -0.0072  0.0097
35225W        W41825  11.306   5.457  18.624 -0.0758  0.0290 -0.0059
35226W        W41826  11.346   3.248  22.485 -0.0515 -0.0468 -0.3393
35227W        W41827  17.175   4.168  40.077 -0.1544  0.0641  0.3794
35228W        W41828   0.132   3.806  28.121  0.1581 -0.1523  0.1085
35229W        W41829   4.324   6.387  42.742  0.0498 -0.1811  0.0076
35230W        W41830   9.727   4.845  39.375 -0.3060  0.3061 -0.3687
35231W        W41831  12.876   3.633  11.112 -0.1826  0.2049 -0.1461
35232W        W41832  11.420   5.811  33.840  0.1532  0.0059  0.0761
35233W        W41833  10.450   3.353  16.145 -0.1241 -0.1456 -0.2164
35234W        W41834  13.899   3.647  35.417 -0.0037 -0.0295 -0.2738
35235W        W41835  20.590   5.344  30.429 -0.1046 -0.1144 -0.0152
35236W        W41836   4.790   1.493   5.803 -0.0060 -0.0613 -0.0356
35237W        W41837   5.214   2.981   1.957 -0.2036 -0.0875 -0.0022
35238W        W41838   5.938   0.903  28.349 -0.0585  0.2543  0.1151
35239W        W41839  14.959   1.689  41.764  0.3426 -0.1444 -0.1347
35240W        W41840  10.538   5.880   8.749 -0.1204 -0.2780 -0.3585
35241W        W41841   0.586   4.185   5.600 -0.0416  0.0385 -0.1495
35242W        W41842  18.192   5.807  24.268 -0.0111  0.0246 -0.0218
35243W        W41843  10.762   1.392   8.296 -0.0782  0.0840  0.0685
35244W        W41844   0.634   4.640  16.149 -0.0889  0.1072  0.4088
35245W        W41845   3.334   1.921  13.626  0.0632  0.1710 -0.2985
35246W        W41846  10.977   1.860  11.721  0.2811 -0.1545  0.1308
35247W        W41847   3.386   3.079  28.906  0.0659 -0.0221 -0.1494
35248W        W41848  14.278   4.438  12.858 -0.0669 -0.3199  0.1705
35249W        W41849  12.459   2.822  14.857  0.5707 -0.2692 -0.3342
35250W        W41850  13.669   2.707  33.357  0.1124 -0.1527  0.3215
35251W        W41851  13.923   2.872  12.797 -0.3096  0.2861  0.0640
35252W        W41852  18.069   5.507  27.025 -0.0163  0.0804 -0.4182
35253W        W41853   8.971   5.805  16.058 -0.0778 -0.0298  0.1662
35254W        W41854  20.547   3.452  35.206  0.0375  0.2367 -0.0775
35255W        W41855  10.064   6.490   4.710  0.0825  0.0926 -0.1065
35256W        W41856  17.487   2.097  16.314  0.4540  0.3139 -0.1090
35257W        W41857   6.794   3.643  19.434  0.0060  0.1266 -0.1005
35258W        W41858  12.184   5.212  32.528 -0.2398 -0.0233  0.1026
35259W        W41859   7.221   6.554  18.447 -0.1408  0.1000 -0.0434
35260W        W41860  15.860   2.498  43.170  0.0148  0.1707  0.0231
35261W        W41861  20.250   5.094   8.903 -0.0342 -0.2190  0.1033
35262W        W41862   9.627   5.275  42.734 -0.1381 -0.1821  0.3635
35263W        W41863   7.094   5.899  42.450  0.0550  0.1632 -0.0864
35264W        W41864  18.464   1.583  34.792  0.2234  0.3400  0.3294
35265W        W41865  18.851   6.099  23.812  0.0576  0.0976  0.1951
35266W        W41866  18.214   6.070   1.633  0.0877  0.1028  0.0610
35267W        W41867  17.460   1.261   8.152  0.1185 -0.2841  0.0149
35268W        W41868  20.511   4.546  34.436  0.0124 -0.0332  0.2004
35269W        W41869   9.405   3.129  44.717 -0.2970  0.0483 -0.0881
35270W        W41870  15.678   4.042  26.449 -0.0817  0.3947 -0.1978
35271W        W41871  15.043   4.598   3.216 -0.2150  0.1132 -0.0045
35272W        W41872  20.426   4.240   6.327  0.0785 -0.1728 -0.0248
35273W        W41873  13.176   4.985  15.254  0.0316  0.0409  0.1337
35274W        W41874  19.424   4.831   4.440  0.1514 -0.0445 -0.0010
35275W        W41875  17.801   1.388  39.124  0.3044 -0.1153  0.0032
35276W        W41876   5.096   0.028   4.033  0.1236  0.2426  0.1212
35277W        W41877   9.014   0.794   4.222 -0.0231 -0.1677  0.1953
35278W        W41878   8.724   2.331  39.648  0.1907  0.2619  0.1379
35279W        W41879   6.223   2.703  17.321  0.2482  0.0826  0.0644
35280W        W41880  10.455   5.137  15.362  0.5249  0.3255  0.1358
35281W        W41881  17.712   4.740   4.468  0.1520  0.0997 -0.0455
35282W        W41882   7.927   2.177  17.551  0.3046  0.3092  0.1432
35283W        W41883   9.165   0.098  17.164  0.1766  0.1515 -0.2892
35284W        W41884  14.838   3.467   8.033  0.1171 -0.1501 -0.0194
35285W        W41885  18.813   2.276  21.504  0.3640 -0.0140  0.2437
35286W        W41886  16.313   6.467  28.613 -0.0382  0.1551 -0.1545
35287W        W41887  17.355   3.338   6.896 -0.0303 -0.0434  0.0953
35288W        W41888  10.173   1.408   8.123 -0.0060  0.1027  0.2144
35289W        W41889   9.531   3.950   1.166  0.3372 -0.1238  0.0642
35290W        W41890   6.798   2.766  44.220 -0.2214  0.1592 -0.0735
35291W        W41891  18.303   6.554  44.940 -0.2334 -0.2588  0.0727
35292W        W41892   5.507   1.752  42.593 -0.1997 -0.0219  0.2304
35293W        W41893   1.527   2.940  28.768  0.0108  0.0788 -0.2550
35294W        W41894  18.762   2.510  42.540  0.1092 -0.0807  0.2409
35295W        W41895   1.230   6.462  38.779  0.0400 -0.1719  0.2022
35296W        W41896  18.270   5.052  11.777 -0.1219 -0.0240  0.0031
35297W        W41897   4.130   1.070  35.463 -0.1840  0.2372 -0.0221
35298W        W41898   0.257   1.627  34.205 -0.2342 -0.2130  0.3031
35299W        W41899  20.688   3.947  33.138 -0.0404 -0.0086 -0.3355
35300W        W41900   6.860   5.150  43.737 -0.0530  0.0412  0.0095
35301W        W41901   5.243   4.343  29.300 -0.1271 -0.4298  0.0961
35302W        W41902   8.522   5.943  34.152 -0.3203 -0.1857 -0.5124
35303W        W41903  16.736   1.653  10.673  0.0021  0.0270  0.0164
35304W        W41904  18.085   1.765   0.412 -0.1747  0.3184  0.0639
35305W        W41905  17.473   6.303  26.146 -0.2879 -0.0701  0.0633
35306W        W41906  10.419   1.574  11.004  0.3520  0.2537 -0.1569
35307W        W41907  17.056   4.947  11.104 -0.2603  0.0381  0.2604
35308W        W41908  16.886   4.801  41.952  0.0623 -0.1105 -0.1164
35309W        W41909  14.935   1.734  15.657 -0.1005 -0.1681 -0.1909
35310W        W41910  13.227   3.768  42.012 -0.0495 -0.0222  0.0271
35311W        W41911   8.637   1.339  38.470 -0.1540  0.0626 -0.1835
35312W        W41912  19.619   5.624   5.205 -0.1443  0.0785  0.1909
35313W        W41913   1.229   4.930   2.549 -0.0494  0.1376 -0.0178
35314W        W41914  18.811   0.179  11.270 -0.3558 -0.1469  0.0199
35315W        W41915   1.304   4.345  10.023  0.1216 -0.0977 -0.0154
35316W        W41916  10.553   5.926   4.210 -0.1006 -0.1081 -0.2282
35317W        W41917  10.027   5.599  13.468  0.2515 -0.0464 -0.0966
35318W        W41918  16.674   5.309  32.649  0.0283  0.0709  0.1715
35319W        W41919   1.180   1.857   7.831  0.3414 -0.0759  0.0994
35320W        W41920   7.744   3.420  10.304 -0.0192  0.2119  0.3019
35321W        W41921   4.807   4.071   5.933  0.2592 -0.0525 -0.1118
35322W        W41922   7.645   2.639   6.953  0.1956  0.3171 -0.2649
35323W        W41923  17.974   1.225   8.930 -0.1031 -0.2691  0.1743
35324W        W41924  19.162   4.206   9.267  0.0410  0.2655 -0.0241
35325W        W41925   9.909   0.873  33.663 -0.1594  0.1151 -0.0139
35326W        W41926   8.433   4.981  42.077 -0.1548  0.1691 -0.2440
35327W        W41927   7.960   2.356   0.748  0.0453  0.1865  0.2340
35328W        W41928  17.476   4.704  41.266  0.1713 -0.0638  0.1159
35329W        W41929   9.746   1.079  31.652  0.1772  0.1515 -0.3177
35330W        W41930  16.510   0.512  39.259  0.4327 -0.0213  0.3855
35331W        W41931  15.916   4.332   3.220 -0.0191  0.0511 -0.1654
35332W        W41932   8.023   0.032  34.944 -0.0911 -0.1886  0.0139
35333W        W41933   8.383   2.996  37.888  0.0568 -0.0062 -0.0903
35334W        W41934   2.219   0.774   2.608 -0.0482  0.3736  0.1418
35335W        W41935  20.259   4.169  30.907 -0.0745 -0.0190 -0.0143
35336W        W41936  14.078   4.082  38.656 -0.0493 -0.1594 -0.3184
35337W        W41937   8.260   4.976  16.112  0.3853  0.1880 -0.1437
35338W        W41938  16.549   5.137  16.979  0.0041  0.1030  0.1306
35339W        W41939  21.007   1.841  28.716 -0.1005 -0.1698 -0.0311
35340W        W41940   0.631   6.526  28.171 -0.0363  0.0269  0.0848
35341W        W41941  10.837   6.476  36.367 -0.3328 -0.0051 -0.0974
35342W        W41942  17.810   4.723  13.700 -0.1310  0.0453  0.1263
35343W        W41943   9.628   3.981  12.962 -0.0586  0.0785 -0.0309
35344W        W41944  10.671   1.778  35.894  0.0805  0.0197 -0.1168
35345W        W41945  17.520   5.870  33.460 -0.1529  0.1915  0.0354
35346W        W41946  12.635   4.758   3.130  0.0247 -0.0726 -0.1714
35347W        W41947   5.244   6.134  14.697 -0.1443  0.0780 -0.1338
35348W        W41948  13.836   5.512  35.330 -0.3427  0.1250 -0.1235
35349W        W41949   8.361   6.390  33.890 -0.2669 -0.0341 -0.0608
35350W        W41950   9.898   2.502  19.901  0.0268 -0.0427 -0.0266
35351W        W41951   5.315   5.272   4.411 -0.1041 -0.1853 -0.0755
35352W        W41952  11.119   2.995   0.092  0.1729 -0.1098  0.0713
35353W        W41953  16.301   0.751  33.880  0.0405  0.0862 -0.0808
35354W        W41954  13.691   0.760  41.532 -0.0669  0.1478 -0.5299
35355W        W41955  10.619   3.822  23.293 -0.1693 -0.2632  0.2640
35356W        W41956  19.693   3.508  26.107  0.1022  0.0470 -0.1239
35357W        W41957  20.129   3.107  43.522  0.0936 -0.1351  0.0707
35358W        W41958  13.489   4.186  35.020  0.0283  0.3787 -0.2377
35359W        W41959   3.849   4.376   1.897  0.2151  0.0815 -0.1711
35360W        W41960   7.944   0.398  13.975  0.0964 -0.0813  0.1277
35361W        W41961   7.443   0.257  36.446 -0.4226 -0.1340  0.0418
35362W        W41962   1.033   3.818  13.584 -0.1119 -0.0336 -0.0450
35363W        W41963  11.565   3.394  21.025  0.0686  0.2960  0.2912
35364W        W41964   2.115   0.464   6.085 -0.1118  0.0724 -0.1734
35365W        W41965   1.951   3.274  29.020  0.0514 -0.0691  0.3310
35366W        W41966   7.213   1.404  32.488  0.2883 -0.0743 -0.0277
35367W        W41967   9.407   3.168  23.517  0.1435 -0.0499  0.2001
35368W        W41968  11.422   2.878  41.045  0.2254  0.0163 -0.3247
35369W        W41969   6.734   3.234  33.723 -0.0660  0.0085  0.1448
35370W        W41970  12.844   1.279  30.180 -0.0525  0.0093  0.1135
35371W        W41971  17.264   3.720  12.985 -0.2152  0.4038  0.1006
35372W        W41972  13.940   0.274  34.410  0.3285  0.0052 -0.0960
35373W        W41973  16.154   3.269  33.437 -0.1931  0.2532 -0.4289
35374W        W41974  18.867   1.522  26.649 -0.1196 -0.0016  0.0588
35375W        W41975   0.292   6.364  42.685  0.4133 -0.0991  0.1170
35376W        W41976   2.501   3.215  35.153  0.1533 -0.0558  0.1464
35377W        W41977  12.965   1.894   3.600 -0.2138  0.1454  0.3591
35378W        W41978  18.871   0.499  24.172 -0.1122  0.0060  0.0021
35379W        W41979   1.760   3.502  29.422 -0.3175  0.0717  0.0711
35380W        W41980   6.053   0.717   1.290 -0.1943  0.0689  0.1495
35381W        W41981  18.585   1.545  38.650 -0.1305  0.1002 -0.0904
35382W        W41982  13.232   1.788  36.871 -0.0046  0.1168 -0.2546
35383W        W41983  19.654   2.542  18.495  0.1249 -0.2475  0.1612
35384W        W41984   1.006   3.956  43.610  0.2547 -0.0540  0.1203
35385W        W41985  18.181   6.528   4.845 -0.3839  0.3984 -0.0604
35386W        W41986  20.614   6.569   6.738 -0.1483  0.1280 -0.1171
35387W        W41987   7.573   2.426   8.958 -0.1889 -0.4033 -0.0882
35388W        W41988  12.170   0.761  29.838 -0.2965 -0.0564 -0.1923
35389W        W41989   6.405   1.842  15.235 -0.2569 -0.3348  0.1526
35390W        W41990  11.320   6.298  34.111 -0.1273 -0.3165 -0.0371
35391W        W41991   5.400   1.778  13.909  0.1099 -0.0360 -0.0038
35392W        W41992   7.129   2.357  35.567 -0.0772  0.1940  0.2439
35393W        W41993  18.381   6.135  27.605  0.1067  0.1760  0.1006
35394W        W41994   9.541   4.406  34.091  0.0014 -0.2636  0.0201
35395W        W41995   1.710   6.074  28.940  0.1664  0.0771  0.0980
35396W        W41996  12.683   1.619   7.145  0.1820  0.0627  0.0443
35397W        W41997   6.249   5.698  44.066 -0.4261  0.2883  0.1979
35398W        W41998   8.760   1.598  42.116  0.1795  0.2186 -0.1204
35399W        W41999  17.791   5.865  44.602  0.0701 -0.0909 -0.2597
35400W        W42000   0.989   0.588   9.396  0.0088 -0.0729 -0.3149
35401W        W42001  15.794   5.264  33.048 -0.1767  0.0444 -0.1123
35402W        W42002  11.800   5.533  14.218 -0.0072 -0.1199 -0.1718
35403W        W42003   3.191   1.858  44.488 -0.0583  0.0014 -0.0725
35404W        W42004   8.691   6.131  19.942  0.0080 -0.2111  0.1799
35405W        W42005  17.629   3.544  40.647  0.0050 -0.1870 -0.0729
35406W        W42006   2.145   5.003   8.442 -0.1673 -0.0584  0.1627
35407W        W42007  12.251   2.068  30.195 -0.1181  0.0909 -0.1560
35408W        W42008  20.864   4.775   9.711  0.0340  0.3968 -0.1436
35409W        W42009   7.959   3.205  37.143 -0.1386 -0.3217 -0.0637
35410W        W42010  19.527   6.066   1.209 -0.0946 -0.0603 -0.2858
35411W        W42011   5.444   6.077   0.204 -0.3872  0.0631 -0.1537
35412W        W42012   6.704   3.208  44.503 -0.2935 -0.0041 -0.0658
35413W        W42013   2.719   5.715  11.995  0.0019 -0.3091  0.2235
35414W        W42014  13.034   5.600  32.462 -0.2981  0.1760  0.1004
35415W        W42015  12.268   5.269   7.078 -0.0403 -0.1000  0.2379
35416W        W42016  18.436   1.921  29.589  0.1402  0.0810 -0.2796
35417W        W42017  12.767   5.693  12.540 -0.1743 -0.0528 -0.2051
35418W        W42018   7.126   6.586  43.075 -0.0037  0.1966  0.2415
35419W        W42019   4.494   2.276   1.711 -0.1581  0.0596 -0.1350
35420W        W42020  20.187   0.465  20.955  0.0273  0.2543 -0.1345
35421W        W42021  12.620   3.393  33.509 -0.1193  0.0741 -0.0491
35422W        W42022   9.922   1.015  10.259 -0.0685  0.1028 -0.0309
35423W        W42023   2.013   1.188   6.814  0.1436  0.0353 -0.2324
35424W        W42024  12.494   5.360  16.558 -0.0106 -0.1246 -0.0340
35425W        W42025  10.706   1.167  38.374  0.2306  0.1894  0.0476
35426W        W42026  13.435   2.591  34.825  0.1379  0.2575 -0.1338
35427W        W42027  11.886   6.316   5.395 -0.1774 -0.3310 -0.4005
35428W        W42028   8.316   5.803  20.970  0.3085 -0.2960  0.3878
35429W        W42029  20.562   0.861  31.630 -0.1640 -0.3148  0.3427
35430W        W42030  17.450   2.576   4.948 -0.0638 -0.1271  0.3302
35431W        W42031   2.547   3.194   7.325 -0.1574  0.0411 -0.0569
35432W        W42032   0.251   3.268   8.582  0.0554 -0.3204  0.1650
35433W        W42033  12.141   3.946  13.165 -0.1261  0.1243  0.4921
35434W        W42034   5.977   0.420  41.079 -0.0091  0.1370 -0.1160
35435W        W42035   1.819   3.722  33.684 -0.3399 -0.0295  0.0554
35436W        W42036  17.528   3.769  11.731 -0.0029 -0.2620  0.4878
35437W        W42037  10.255   3.523   9.854 -0.0190  0.3410 -0.2468
35438W        W42038  13.743   5.364   4.548 -0.0575  0.0412  0.1357
35439W        W42039  18.469   2.225  37.935 -0.2368  0.0703 -0.0236
35440W        W42040   0.543   0.388   0.794 -0.2012 -0.4679  0.1196
35441W        W42041   6.738   4.100  40.570  0.0016  0.2829 -0.0111
35442W        W42042   2.213   1.238  40.718  0.3314  0.2200  0.4215
35443W        W42043  19.133   4.548  16.272 -0.0611  0.1061  0.1675
35444W        W42044  21.049   4.168  25.537 -0.0466 -0.1983  0.0221
35445W        W42045   8.325   0.263   0.662 -0.0196  0.3637  0.4096
35446W        W42046   2.570   6.073   3.193 -0.1528 -0.1592 -0.1215
35447W        W42047  13.418   4.817   4.077 -0.1942 -0.2698 -0.0359
35448W        W42048   2.774   3.177  40.192  0.1632 -0.2784  0.1389
35449W        W42049  14.051   4.029  34.848  0.0631  0.0298 -0.0504
35450W        W42050  20.449   5.219   6.343  0.0860  0.1762 -0.0340
35451W        W42051   9.473   4.438  35.547 -0.1359  0.1285 -0.0728
35452W        W42052   6.289   3.018  41.048  0.1562 -0.1384 -0.4422
35453W        W42053  13.322   5.174  44.558  0.1637  0.1133  0.4336
35454W        W42054  16.907   2.536  28.973  0.2617  0.1612 -0.0433
35455W        W42055  13.922   3.445  11.813  0.0137 -0.3321 -0.5595
35456W        W42056  14.500   4.856  36.703  0.0903 -0.1980  0.0000
35457W        W42057   2.932   4.085  39.622 -0.0558 -0.0023  0.1410
35458W        W42058   8.385   5.383  39.732 -0.1192 -0.3419  0.1851
35459W        W42059   2.555   3.806  34.253 -0.3152  0.0444 -0.1000
35460W        W42060  20.029   6.580  29.687  0.0496 -0.1904  0.1273
35461W        W42061   8.397   4.269  38.135  0.0190  0.0942  0.1176
35462W        W42062  16.109   0.392  35.139 -0.1952 -0.0943  0.1806
35463W        W42063  10.100   5.728  33.408  0.0997 -0.1781  0.0172
35464W        W42064   9.816   4.898  34.884 -0.1395  0.2983 -0.2640
35465W        W42065  20.949   4.731  29.696 -0.3488 -0.0850 -0.2157
35466W        W42066   4.153   5.003   6.045 -0.1842 -0.0650 -0.1213
35467W        W42067   4.626   0.986  31.089 -0.2333  0.0383  0.0021
35468W        W42068  14.033   5.564  28.113 -0.1636 -0.3395  0.1149
35469W        W42069  20.859   3.340  11.496 -0.1559 -0.2261  0.1110
35470W        W42070  13.560   5.493  19.095 -0.0445  0.0751  0.1301
35471W        W42071  14.570   0.599  30.386  0.2058 -0.1186  0.0776
35472W        W42072   2.282   1.997  26.436  0.1533 -0.2941 -0.0927
35473W        W42073   1.478   1.693   5.084 -0.0495 -0.0190  0.0179
35474W        W42074   6.011   3.643  44.013  0.2335  0.2897  0.0275
35475W        W42075  19.951   4.980  34.251  0.1219 -0.0903 -0.1404
35476W        W42076   8.906   0.583  17.687  0.0878 -0.1888  0.0752
35477W        W42077  20.282   2.899  22.643 -0.1489 -0.0627 -0.1451
35478W        W42078   5.822   6.078  38.760  0.0280  0.0983  0.0149
35479W        W42079   6.343   2.980  35.048  0.1936 -0.0082  0.1106
35480W        W42080   2.339   2.804   1.996 -0.0461  0.0383 -0.1211
35481W        W42081  19.015   5.228  33.240 -0.1033 -0.0701  0.0845
35482W        W42082   5.546   5.060  15.495 -0.1272  0.1481 -0.0587
35483W        W42083  13.089   2.393  39.778  0.0878 -0.0829 -0.3536
35484W        W42084  17.258   2.121  43.949  0.0100 -0.0124  0.1925
35485W        W42085  16.752   2.508   1.426 -0.1961  0.1082  0.0138
35486W        W42086  11.769   3.661  42.865  0.1926  0.0152  0.0584
35487W        W42087  16.343   5.882   5.924  0.3609  0.0987  0.2105
35488W        W42088  20.874   1.939  22.378 -0.0043 -0.0159  0.1083
35489W        W42089   9.688   0.407   8.375  0.2854  0.0560 -0.2538
35490W        W42090  20.947   4.409  39.280  0.1362  0.3385  0.0343
35491W        W42091   6.611   0.332  16.498 -0.0080 -0.1226  0.0576
35492W        W42092   8.695   1.078  37.970 -0.2341 -0.0242 -0.2732
35493W        W42093   2.716   3.452   1.064 -0.2425 -0.1544 -0.0187
35494W        W42094   1.771   5.698  23.878  0.1387 -0.1468  0.1348
35495W        W42095   6.694   0.031   0.250  0.1113 -0.0053  0.0573
35496W        W42096   7.770   2.220   3.454 -0.1950  0.0449 -0.0939
35497W        W42097  13.229   6.025  30.643  0.1277  0.1726 -0.0226
35498W        W42098  20.388   2.025  42.929  0.0445  0.0176 -0.0096
35499W        W42099   5.623   3.497  12.895 -0.1886 -0.0461  0.0436
35500W        W42100   0.013   2.960  36.761 -0.1525  0.0730 -0.1076
35501W        W42101   9.594   6.345  35.561 -0.1006  0.1982  0.3818
35502W        W42102   3.574   4.152   2.276  0.3554 -0.2386  0.1787
35503W        W42103  16.594   1.981   4.090 -0.1690  0.0973  0.0491
35504W        W42104  20.856   3.826   5.558 -0.2856  0.1313 -0.1352
35505W        W42105  10.318   6.087  20.344 -0.1237 -0.1071  0.2836
35506W        W42106   0.449   2.216  27.847 -0.1178  0.1097 -0.0218
35507W        W42107   8.740   0.945  36.877 -0.1028  0.3082  0.0962
35508W        W42108  10.406   2.643  23.383  0.0383  0.1273  0.0802
35509W        W42109  16.816   0.763  29.203  0.3742  0.0292  0.0068
35510W        W42110   4.878   5.502  37.438  0.0425 -0.0652 -0.0580
35511W        W42111   5.039   5.023  39.591 -0.0120  0.0783 -0.2062
35512W        W42112  12.074   1.372  40.754  0.0222  0.0654  0.2243
35513W        W42113  18.537   6.313   2.901  0.1450 -0.0615 -0.0785
35514W        W42114   1.470   4.418  24.041  0.4274 -0.2169  0.1552
35515W        W42115   5.452   6.195  42.363 -0.1517 -0.0213  0.0031
35516W        W42116  20.705   3.728   6.084 -0.1483  0.0439  0.2417
35517W        W42117  16.583   4.755   0.851 -0.1252  0.0452  0.0536
35518W        W42118  12.857   0.124   4.194  0.2079  0.0656  0.0635
35519W        W42119  20.547   1.695  39.252 -0.1670 -0.2359  0.1773
35520W        W42120   4.444   2.364  16.947 -0.0895 -0.0467  0.0488
35521W        W42121   0.877   3.015   5.140  0.1438  0.1059  0.2918
35522W        W42122  20.812   1.001  23.902  0.0772  0.0614 -0.0904
35523W        W42123  16.177   4.796   9.215 -0.1142 -0.3765  0.1234
35524W        W42124   3.148   1.572  31.437  0.1220  0.2167  0.0293
35525W        W42125   9.826   3.821   7.602 -0.1968  0.1324 -0.0511
35526W        W42126  14.827   0.335  16.380 -0.1953 -0.0470  0.0625
35527W        W42127   3.416   1.491  17.603 -0.1929  0.1604 -0.0584
35528W        W42128   7.958   0.565  41.635 -0.0378  0.1440  0.1355
35529W        W42129   1.318   2.707  41.829  0.1018 -0.2476  0.0366
35530W        W42130  12.769   0.831   4.369  0.0005  0.1665  0.1689
35531W        W42131  13.020   6.265  44.315 -0.1555 -0.1604  0.0396
35532W        W42132  13.690   1.647  30.869  0.1560  0.2537  0.1022
35533W        W42133   7.765   0.648   0.466  0.0019  0.3588  0.2030
35534W        W42134   4.833   4.378  18.108 -0.0954  0.0727  0.0275
35535W        W42135  16.776   1.960   7.921 -0.1755 -0.0966 -0.1025
35536W        W42136   0.555   4.628  38.798  0.0135 -0.1391  0.0014
35537W        W42137   0.812   4.227  35.309  0.0777 -0.1918  0.0163
35538W        W42138  10.898   6.184  23.177 -0.0050  0.0137  0.2165
35539W        W42139  10.918   1.863  10.277 -0.0755 -0.1011 -0.0687
35540W        W42140  17.793   2.934   9.915  0.0612 -0.0863 -0.2548
35541W        W42141  11.930   2.546  34.339 -0.1193 -0.1335  0.0117
35542W        W42142  16.941   0.677   5.104  0.1290 -0.0792  0.1586
35543W        W42143   8.045   6.443  15.291  0.0926 -0.0938 -0.1568
35544W        W42144   0.908   2.703  15.455 -0.5259  0.2643  0.4923
35545W        W42145  19.724   1.141  25.043 -0.1439  0.1024 -0.1871
35546W        W42146  16.134   4.587  35.405  0.1035 -0.3580 -0.0252
35547W        W42147   8.644   5.291   0.018 -0.0185  0.0184  0.0395
35548W        W42148   4.139   1.669  42.689  0.0794  0.0076 -0.0374
35549W        W42149  19.451   1.933  14.361 -0.1825 -0.3914 -0.0974
35550W        W42150  11.202   0.978  44.651  0.0176  0.1258 -0.0660
35551W        W42151   7.303   0.027  13.507 -0.2330  0.0168 -0.1301
35552W        W42152  17.803   6.055  10.393  0.2469 -0.0184  0.1135
35553W        W42153   2.133   1.588  11.092 -0.2869 -0.1873  0.2297
35554W        W42154   1.030   4.256   1.661 -0.0098 -0.0002 -0.0010
35555W        W42155  15.003   5.380  40.087 -0.2857 -0.1736 -0.0503
35556W        W42156   9.550   2.433  23.836  0.0451 -0.1442 -0.0090
35557W        W42157  15.902   6.066   7.812  0.0531  0.1585  0.3735
35558W        W42158  12.629   5.772  42.372 -0.1658  0.1964 -0.0353
35559W        W42159   3.964   4.469  28.243  0.2482 -0.0958 -0.0617
35560W        W42160  11.670   4.785  32.741  0.1429 -0.2519 -0.2035
35561W        W42161   4.071   3.541  39.510 -0.1286 -0.4494 -0.0414
35562W        W42162  10.431   0.019  37.304  0.1917 -0.2805  0.2570
35563W        W42163   1.142   5.720  25.941  0.0213  0.0923  0.5459
35564W        W42164  12.093   4.879  17.277 -0.2569  0.0804 -0.0450
35565W        W42165   9.460   0.412   5.944 -0.1225  0.1711  0.0139
35566W        W42166  19.752   1.602  42.473 -0.2159 -0.2051 -0.1009
35567W        W42167   6.528   6.090   3.096  0.0506  0.4622  0.1731
35568W        W42168  13.752   0.224   9.903  0.2572 -0.0739  0.0618
35569W        W42169  10.880   0.486  39.534  0.0491 -0.0535  0.1275
35570W        W42170  16.269   4.623  14.367 -0.1605 -0.2067  0.1817
35571W        W42171  17.408   0.611   6.862 -0.1572 -0.0439 -0.2050
35572W        W42172   0.530   4.867  27.345  0.0960  0.1319  0.1678
35573W        W42173  19.080   5.277  28.793 -0.1357  0.0117 -0.0308
35574W        W42174  13.197   6.491  18.338 -0.0117  0.4943  0.0483
35575W        W42175  19.351   6.207  14.079 -0.0463  0.0292  0.1266
35576W        W42176  19.702   4.649  35.555 -0.1291 -0.0347  0.2216
35577W        W42177   9.314   0.104  42.702 -0.0701  0.3922  0.0560
35578W        W42178   9.875   5.392  30.653 -0.1872  0.3415  0.0791
35579W        W42179   9.811   2.165  14.999  0.0492 -0.3148  0.0138
35580W        W42180  19.389   2.389  36.216  0.0036 -0.0280  0.0795
35581W        W42181  16.891   4.568  32.417  0.2600 -0.1437  0.0259
35582W        W42182  19.281   5.864  40.628 -0.2079 -0.0042  0.0426
35583W        W42183   5.361   3.178  43.211  0.1378 -0.1932  0.3705
35584W        W42184   5.772   0.664  12.644 -0.0812 -0.0006  0.0629
35585W        W42185   1.829   1.515  38.519  0.0566 -0.0283  0.0982
35586W        W42186   9.614   1.030  38.793 -0.3577  0.0154  0.2777
35587W        W42187   7.660   5.242  15.543  0.3681 -0.0728 -0.2778
35588W        W42188   4.708   5.974  14.683  0.3355  0.0460 -0.0501
35589W        W42189  20.474   2.568  18.312 -0.0964 -0.1186 -0.4973
35590W        W42190  11.951   4.900  34.989  0.1658  0.0390  0.3944
35591W        W42191  10.582   5.580  29.528 -0.1894  0.1533 -0.3212
35592W        W42192  18.178   0.811   1.418  0.1112 -0.0234  0.0379
35593W        W42193   3.492   5.299  37.552  0.2445  0.0955  0.1755
35594W        W42194  12.220   2.478  31.778  0.0379  0.2589  0.1780
35595W        W42195   8.136   2.869  21.509 -0.1458  0.3518 -0.1355
35596W        W42196  15.368   0.526  39.895  0.2613  0.1309 -0.0946
35597W        W42197   6.396   0.530   0.934 -0.1939  0.2341  0.0747
35598W        W42198  14.740   2.799  35.493  0.1105  0.0285  0.0340
35599W        W42199   1.773   0.906  34.761 -0.0941  0.3194  0.0503
35600W        W42200   2.879   1.323  13.135 -0.2480 -0.1541  0.3693
35601W        W42201   0.572   4.492   1.151  0.1423 -0.0617 -0.0724
35602W        W42202  19.198   3.347  10.484 -0.0122  0.2653 -0.1045
35603W        W42203   2.437   4.359  40.874  0.0035  0.0371 -0.0300
35604W        W42204  20.368   5.818   1.755 -0.1179 -0.1047  0.0587
35605W        W42205   1.926   1.498  13.805 -0.0865  0.0897 -0.2131
35606W        W42206   9.834   0.064  19.141 -0.0994  0.3424 -0.0282
35607W        W42207  10.789   5.812  38.760 -0.2449  0.1950  0.0155
35608W        W42208  10.581   4.499   3.615  0.0782 -0.2087 -0.0689
35609W        W42209  13.585   3.619  43.291  0.1946 -0.0757 -0.1906
35610W        W42210  11.921   6.118  16.884 -0.0205  0.0757  0.1835
35611W        W42211   6.656   3.077  21.372  0.1032 -0.2030  0.0455
35612W        W42212   8.498   6.392  15.375 -0.0446 -0.2639 -0.0500
35613W        W42213   8.508   3.597  36.000  0.1011  0.0742 -0.1513
35614W        W42214   5.470   2.230  14.219 -0.0951  0.0278 -0.2812
35615W        W42215  15.189   4.583  27.805  0.1113  0.1237  0.0105
35616W        W42216  11.559   5.561  38.319 -0.2743  0.0840  0.0714
35617W        W42217   5.444   5.716  13.394 -0.0841 -0.0085  0.1922
35618W        W42218   7.172   0.747  21.907  0.1561 -0.1717  0.3481
35619W        W42219   1.110   3.500  23.379  0.1653  0.0185  0.0012
35620W        W42220  10.124   1.485  40.309 -0.0024 -0.2875  0.2299
35621W        W42221   1.201   1.546   1.532  0.1577  0.1581 -0.1856
35622W        W42222   6.589   5.389  41.800 -0.3175 -0.1856  0.0143
35623W        W42223  13.275   1.774  30.341 -0.0322  0.0749 -0.3566
35624W        W42224  15.050   3.756  40.445  0.2415 -0.4584 -0.0275
35625W        W42225   4.789   0.924  16.020 -0.3032  0.1413  0.1158
35626W        W42226  18.562   2.090  44.310 -0.1458  0.2976  0.0664
35627W        W42227   0.685   3.951   1.397  0.0483  0.1011 -0.0808
35628W        W42228  19.736   2.173  38.930  0.0294 -0.1187  0.1064
35629W        W42229   7.324   1.826  36.860 -0.0101  0.1009  0.0144
35630W        W42230  18.922   5.369  25.485 -0.0224  0.0714  0.1985
35631W        W42231  13.045   0.558  39.570  0.5411  0.1250  0.3115
35632W        W42232  13.592   2.187  42.488 -0.1833  0.2366  0.2029
35633W        W42233  15.586   6.343  38.884 -0.0125 -0.0312 -0.0438
35634W        W42234   4.782   0.667   3.615 -0.0940  0.1131 -0.0078
35635W        W42235  13.235   3.821  18.345 -0.1504  0.0696 -0.1656
35636W        W42236  14.611   5.600  42.974  0.0407  0.0100  0.0991
35637W        W42237  18.936   4.381  35.615  0.1062  0.4956  0.2668
35638W        W42238  12.905   1.530   0.459  0.3223  0.1443  0.1872
35639W        W42239   9.112   1.567  20.158 -0.2251  0.1980  0.1145
35640W        W42240  13.731   6.265   4.900 -0.1170 -0.2567 -0.0385
35641W        W42241  10.198   2.109  19.008  0.1769  0.2370 -0.3690
35642W        W42242   5.566   3.304  12.007  0.2229 -0.1195  0.1795
35643W        W42243   6.305   6.035  38.562  0.1461  0.2413  0.1111
35644W        W42244  14.853   3.649  11.607 -0.1029  0.0418 -0.1565
35645W        W42245  18.635   2.568  35.109 -0.1029  0.0305 -0.0759
35646W        W42246  20.156   3.689  27.319 -0.3172  0.1527 -0.1830
35647W        W42247  13.522   2.004  18.953  0.0832 -0.1476  0.2401
35648W        W42248  14.210   4.490  28.025 -0.2197  0.1767  0.2108
35649W        W42249   3.816   4.816   2.937  0.2043 -0.0182  0.0048
35650W        W42250  17.792   0.834   5.695 -0.0939 -0.0113 -0.0031
35651W        W42251   4.612   1.977  35.375 -0.0454  0.1427  0.0726
35652W        W42252  10.224   2.346  20.800  0.0031  0.2232 -0.0309
35653W        W42253   8.687   4.011  43.702 -0.1223 -0.0934 -0.1276
35654W        W42254   8.620   4.004   0.150 -0.2290 -0.0184 -0.0197
35655W        W42255  10.492   1.787  10.551 -0.0679  0.2038 -0.0916
35656W        W42256   5.624   0.661  42.493 -0.2255  0.2390 -0.1629
35657W        W42257  19.873   6.332  13.924 -0.0453 -0.1753 -0.0266
35658ION     NA42258   9.666   0.565  38.679 -0.3244 -0.0535 -0.2045
35659ION     NA42259  15.695   0.120  10.074  0.2044 -0.0193  0.2764
35660ION     NA42260   7.949   1.553  35.170  0.1871 -0.3969 -0.0279
35661ION     NA42261   1.554   2.982  26.891  0.3388 -0.5053 -0.0522
35662ION     NA42262  15.830   0.552  43.149  0.0496  0.0505 -0.0324
35663ION     NA42263  12.853   2.662  20.457 -0.0204  0.1537 -0.1555
35664ION     NA42264   1.125   0.532  44.747 -0.2445  0.1074 -0.0806
35665ION     NA42265   5.380   1.559  33.935 -0.2186  0.4041  0.0071
35666ION     NA42266  15.580   6.120  11.186  0.2101 -0.0271 -0.2502
35667ION     NA42267  16.107   4.178  28.950 -0.3668 -0.3894  0.2448
35668ION     NA42268  18.112   1.322  11.708 -0.0893 -0.1376 -0.0868
35669ION     NA42269  16.190   6.396  38.239  0.2403  0.1490 -0.0847
35670ION     NA42270  11.943   0.549  38.358 -0.2967  0.1574  0.2330
35671ION     NA42271   1.478   3.408  39.487 -0.3488  0.1561  0.4327
35672ION     NA42272  20.163   3.981  11.760  0.3319  0.2189 -0.2679
35673ION     NA42273   3.384   4.708  34.583 -0.0649 -0.0714  0.0404
35674ION     NA42274   4.082   1.387  33.952 -0.1479 -0.1779 -0.0325
35675ION     NA42275   9.309   6.269  11.188 -0.3117 -0.0312 -0.3089
35676ION     NA42276  16.252   4.173  12.092 -0.2270 -0.3326  0.3801
35677ION     NA42277   7.090   4.086  40.885  0.1613 -0.1300 -0.1069
35678ION     NA42278   9.616   1.695  21.393 -0.3864  0.0971  0.2019
35679ION     NA42279   0.939   6.319   6.945 -0.1782  0.2246 -0.2042
35680ION     NA42280  13.788   0.272  38.088  0.0371 -0.0403 -0.0612
35681ION     NA42281  20.691   1.729  12.234  0.0892 -0.0858  0.0278
35682ION     NA42282   5.866   6.129   9.723 -0.4231  0.0611 -0.0733
35683ION     NA42283   6.846   0.866  34.785 -0.3154 -0.1208 -0.0787
35684ION     NA42284   3.693   0.569   0.895  0.1744  0.0576  0.3343
35685ION     NA42285  10.397   4.383   8.075 -0.0614 -0.2435 -0.0361
35686ION     NA42286  12.433   4.641  21.113 -0.1719 -0.0224  0.3032
35687ION     NA42287   8.124   1.334  31.944 -0.0147  0.1065 -0.0111
35688ION     NA42288  19.280   4.600  35.662 -0.0199 -0.2732 -0.3103
35689ION     NA42289   4.496   4.767  31.829 -0.2521  0.0962 -0.0978
35690ION     NA42290  19.999   5.671  42.117  0.3471  0.1300 -0.1725
35691ION     NA42291   0.588   5.482   0.362 -0.0201  0.2390  0.1092
35692ION     NA42292  20.171   2.399   1.019 -0.5010 -0.1135 -0.4106
35693ION     NA42293  17.391   0.214  30.842 -0.4754 -0.4739  0.3488
35694ION     NA42294   5.670   1.836  43.892 -0.4080  0.1356 -0.1192
35695ION     NA42295  14.296   5.169  13.822 -0.3231  0.4026  0.4799
35696ION     NA42296  11.880   5.729  30.050  0.2248  0.0192  0.3389
35697ION     NA42297   9.407   0.213   7.639  0.1210 -0.0411 -0.1308
35698ION     NA42298  15.633   2.343   1.233  0.2563  0.0517  0.4892
35699ION     NA42299   4.183   0.353   2.802 -0.0456  0.2877  0.0198
35700ION     NA42300   4.764   2.606   8.820  0.3389 -0.3199  0.3405
35701ION     NA42301  13.771   3.011  44.579  0.1105 -0.0165  0.6532
35702ION     NA42302   5.429   0.319  43.223 -0.2236 -0.0472  0.0124
35703ION     NA42303  12.862   4.234  27.987  0.0251  0.0746  0.2509
35704ION     NA42304  16.653   0.804  15.356  0.5010  0.1493  0.1013
35705ION     NA42305  14.397   5.629   4.898 -0.1853 -0.1727  0.0628
35706ION     NA42306  20.978   2.856   2.301 -0.1426  0.4007  0.3459
35707ION     NA42307  21.032   2.413  25.368  0.3242  0.3812 -0.0580
35708ION     NA42308  12.882   5.474  42.226  0.0242  0.1537  0.1242
35709ION     NA42309  19.784   0.876  41.995  0.0199 -0.0577  0.1954
35710ION     NA42310  15.583   1.624  33.088  0.0438  0.1122  0.2861
35711ION     NA42311  15.519   4.939  40.447  0.1134  0.1777  0.0746
35712ION     NA42312  11.252   3.878  42.019 -0.3947  0.1655  0.2505
35713ION     NA42313  12.613   4.559  16.348  0.3112  0.2506 -0.3029
35714ION     NA42314  15.973   3.823  26.243 -0.2762  0.0133  0.0670
35715ION     NA42315  18.955   1.271  23.890  0.0119  0.1154  0.0830
35716ION     NA42316  11.842   1.115   1.800 -0.0620 -0.1741  0.7298
35717ION     NA42317   5.616   3.472  16.561  0.0146  0.2144  0.0234
35718ION     NA42318   1.303   1.948  38.297  0.4138  0.5520 -0.4168
35719ION     NA42319   7.455   4.561  43.907  0.1899  0.3415 -0.0273
35720ION     NA42320  18.844   1.275  40.582  0.0772  0.1830 -0.0641
35721ION     NA42321   4.842   4.903   0.016 -0.0249  0.1862  0.0692
35722ION     NA42322  13.749   1.153  12.384  0.7127  0.2438 -0.0845
35723ION     NA42323  19.777   4.075   9.768 -0.3203  0.5586  0.1294
35724ION     NA42324   5.536   2.366  37.149 -0.3130 -0.1680  0.1140
35725ION     NA42325  18.686   1.869  26.974  0.0835 -0.2455  0.0098
35726ION     NA42326  12.265   0.833  11.542  0.0940 -0.4293 -0.3612
35727ION     NA42327  12.310   1.866  35.418  0.3762 -0.4987  0.1297
35728ION     NA42328   2.392   1.732   7.813  0.1507 -0.2881 -0.1197
35729ION     NA42329   1.286   5.558   5.232  0.2597  0.4088 -0.1931
35730ION     NA42330   2.875   5.947  44.921 -0.0102 -0.0582 -0.2239
35731ION     NA42331  10.653   1.483  15.011  0.0183 -0.0938 -0.0639
35732ION     NA42332  14.063   3.760  10.488 -0.5112  0.3326  0.1332
35733ION     NA42333  18.509   6.574  35.077 -0.1191  0.1238  0.2044
35734ION     NA42334  13.427   2.115   0.946 -0.0458  0.2557 -0.0484
35735ION     NA42335  18.566   6.575  10.122  0.1765 -0.1961  0.1689
35736ION     NA42336   0.523   5.040  31.349 -0.2092  0.1841 -0.2225
35737ION     NA42337  18.873   5.475  35.552 -0.3092  0.3455 -0.0009
35738ION     NA42338  18.898   3.174  22.604 -0.0994 -0.1810  0.0500
35739ION     NA42339   0.713   6.003  23.463 -0.1805 -0.3288  0.1618
35740ION     NA42340  20.371   2.662  11.999  0.0880 -0.6544 -0.0135
35741ION     NA42341  17.631   1.663  31.067 -0.0343  0.1084  0.4590
35742ION     NA42342   9.792   5.785   9.042  0.1731  0.2609  0.2871
35743ION     NA42343  12.096   6.504   4.682  0.1440  0.3761  0.0368
35744ION     NA42344   7.661   4.404  13.154  0.0826  0.0847 -0.2083
35745ION     NA42345  15.799   6.411  43.034  0.2881  0.2231 -0.1311
35746ION     NA42346  18.027   0.459  42.936 -0.0393  0.0695 -0.3949
35747ION     NA42347  18.217   0.093  28.932  0.4354  0.1875  0.1762
35748ION     NA42348   0.346   0.767  41.962  0.0816 -0.0495  0.3979
35749ION     NA42349  19.336   3.431   5.064 -0.2300  0.0458 -0.1162
35750ION     NA42350   5.973   6.034   2.160  0.0410 -0.1574 -0.3995
35751ION     NA42351   7.792   6.278  13.273  0.1774 -0.1042  0.2878
35752ION     NA42352   0.690   3.493  25.047 -0.0099 -0.0165  0.3413
35753ION     NA42353   4.301   5.945   0.777 -0.0622  0.0048 -0.0362
35754ION     NA42354  13.159   3.633   3.581  0.3064  0.4271 -0.1133
35755ION     NA42355   7.431   2.751  31.946 -0.0565  0.1262  0.6572
35756ION     NA42356  17.686   4.197   9.853  0.0663 -0.0905  0.3434
35757ION     NA42357  14.188   0.547  33.068 -0.1640 -0.5333 -0.6618
35758ION     NA42358   7.200   3.326   1.795  0.1089 -0.2520 -0.1171
35759ION     NA42359   1.238   1.907   1.791  0.1023  0.0072 -0.0364
35760ION     NA42360  12.109   6.115  36.300 -0.3090 -0.2614  0.2762
35761ION     NA42361   6.909   5.553  43.962 -0.0776  0.5194 -0.2419
35762ION     NA42362  16.804   6.361  24.151  0.4087 -0.2294 -0.4082
35763ION     NA42363   6.476   6.107  19.935  0.2474 -0.3300  0.4265
35764ION     NA42364  19.792   3.947   8.479  0.2888  0.2383 -0.0034
35765ION     NA42365  10.692   2.688  22.007 -0.4652 -0.4967  0.0837
35766ION     NA42366   6.981   4.670   4.561 -0.1541  0.0893 -0.1629
35767ION     NA42367   5.023   5.714   0.882  0.1759  0.2494 -0.2079
35768ION     NA42368   5.541   5.118   0.066  0.4944  0.1916 -0.0417
35769ION     NA42369  12.325   1.554  19.854  0.1943 -0.6645 -0.0309
35770ION     NA42370  17.978   6.153  30.654  0.3059 -0.3214  0.1225
35771ION     NA42371  19.175   2.113  40.800 -0.0466 -0.0484  0.1551
35772ION     NA42372   9.760   0.875  39.765 -0.2141  0.1027  0.0497
35773ION     NA42373  13.791   4.309   2.771  0.1744 -0.0567 -0.3446
35774ION     NA42374   7.953   1.316  13.655  0.4370  0.2500  0.2033
35775ION     NA42375  13.170   5.244  21.176 -0.3295 -0.0226 -0.1647
35776ION     NA42376  14.197   4.188  27.186 -0.3248 -0.1970 -0.3424
35777ION     NA42377   2.887   2.111   3.766 -0.3253  0.0390  0.0050
35778ION     NA42378   0.335   3.487  15.154 -0.4392 -0.1521  0.0603
35779ION     NA42379  12.046   2.181  39.034 -0.0907  0.3577  0.2528
35780ION     NA42380   5.771   3.699  30.277  0.0765 -0.6211 -0.5560
35781ION     NA42381  18.573   2.048  41.851  0.1639 -0.3133  0.1049
35782ION     NA42382  14.585   3.745  32.164  0.0201 -0.1666  0.3691
35783ION     NA42383  10.935   5.331  38.964  0.3333 -0.3767  0.1766
35784ION     NA42384  10.766   6.031  32.354  0.1340 -0.2991  0.0062
35785ION     NA42385  13.622   1.989  16.612  0.0696 -0.1391 -0.2138
35786ION     NA42386  19.508   0.972  13.773  0.0680  0.0980  0.0036
35787ION     NA42387   5.778   4.819  43.128 -0.1205 -0.3623  0.3255
35788ION     NA42388  17.881   5.836   8.376  0.2281 -0.1096 -0.0956
35789ION     NA42389  15.786   5.875  13.949 -0.3449  0.5131 -0.1090
35790ION     NA42390  11.976   1.662   9.115  0.0097  0.1675  0.2711
35791ION     NA42391   3.486   2.713   8.710  0.0790 -0.0136 -0.4425
35792ION     NA42392  19.271   2.969  27.679 -0.1080 -0.0877 -0.3572
35793ION     NA42393  13.832   6.370  13.959 -0.0731 -0.0702  0.2157
35794ION     NA42394   9.917   1.821  18.853 -0.0655  0.3308  0.3148
35795ION     NA42395  13.188   3.041  38.373  0.0882 -0.1306  0.1416
35796ION     NA42396  11.622   1.886  16.065 -0.1028 -0.0514 -0.0965
35797ION     NA42397   1.240   6.530   3.007  0.2732  0.0963  0.0313
35798ION     NA42398   8.614   6.256  32.523 -0.2411 -0.1339  0.6048
35799ION     NA42399  20.653   4.596  37.941 -0.1403 -0.3417 -0.1741
35800ION     NA42400   2.708   1.061  44.598  0.0845  0.0660  0.0699
35801ION     NA42401  19.333   1.293  42.515 -0.0374  0.0482 -0.2829
35802ION     NA42402  19.842   3.785  35.249  0.1418 -0.0807  0.2096
35803ION     NA42403  14.118   2.574  32.442  0.2626 -0.0010  0.1948
35804ION     NA42404  19.792   5.923   3.603 -0.4216  0.1141  0.0650
35805ION     NA42405   0.748   3.999   9.736  0.4066  0.3699 -0.4387
35806ION     NA42406  16.970   3.888  39.152 -0.4484 -0.1898  0.1639
35807ION     NA42407   7.662   1.454  14.923  0.0730  0.2968 -0.2220
35808ION     NA42408  16.750   1.652   9.745 -0.0539 -0.3633 -0.0710
35809ION     NA42409  12.910   5.476  19.788 -0.1506 -0.4103 -0.1318
35810ION     NA42410  10.191   5.719  32.222 -0.0836  0.3136 -0.0849
35811ION     NA42411   2.451   3.257  36.184 -0.0492 -0.1947  0.0677
35812ION     NA42412   9.508   1.941  15.168  0.3051 -0.0175  0.1597
35813ION     NA42413   1.621   4.817  41.651  0.0097 -0.1242  0.0004
35814ION     NA42414  18.968   4.211  24.691 -0.0268 -0.0955  0.4562
35815ION     NA42415   3.779   1.463  29.319  0.3064  0.1064 -0.3960
35816ION     NA42416  13.290   5.530  42.728  0.1022  0.1035 -0.1089
35817ION     NA42417   8.699   1.154  34.962  0.4266 -0.2418  0.0202
35818ION     NA42418   2.352   3.573  26.440  0.2594  0.3615 -0.1893
35819ION     NA42419  15.526   0.533  15.877 -0.0945 -0.0434 -0.1784
35820ION     NA42420  15.069   2.047  33.608 -0.3562  0.0736 -0.0573
35821ION     NA42421   7.262   1.680   2.836 -0.1937  0.7270  0.2277
35822ION     NA42422  12.953   6.071  34.230  0.2352  0.3246 -0.3269
35823ION     NA42423   7.976   3.101   0.461 -0.5876  0.2038 -0.1227
35824ION     NA42424   3.996   2.466  33.299 -0.1352  0.0597 -0.0413
35825ION     NA42425  11.127   5.597   6.903 -0.3661 -0.2287 -0.0249
35826ION     NA42426   7.131   2.572   1.035 -0.2457  0.0365 -0.2830
35827ION     NA42427  20.600   0.589  41.804  0.2441 -0.2904  0.0089
35828ION     NA42428  13.687   5.716  36.118  0.3076 -0.0688 -0.1778
35829ION     NA42429  12.398   3.571   8.169  0.3815  0.2187  0.4802
35830ION     NA42430   7.587   5.839  41.606 -0.3631 -0.0636 -0.0826
35831ION     NA42431   5.919   1.940   9.072 -0.1594 -0.1337  0.2551
35832ION     NA42432  18.833   5.629  26.834 -0.4149 -0.0109 -0.1070
35833ION     NA42433   2.291   3.944  11.243 -0.1836 -0.2072 -0.4127
35834ION     NA42434  18.919   4.548   8.504 -0.0043  0.2400  0.4134
35835ION     NA42435   6.043   1.382   8.144 -0.0467 -0.1033 -0.1034
35836ION     NA42436   6.678   5.865   5.814  0.0812  0.0090  0.2572
35837ION     NA42437   2.660   6.063  31.724 -0.1673  0.2398  0.0072
35838ION     NA42438  11.587   0.862  15.885  0.1378  0.0796 -0.2161
35839ION     NA42439   0.769   2.609   4.355  0.2288  0.3613 -0.1028
35840ION     NA42440  11.725   4.626  22.354  0.1014 -0.1590  0.1126
35841ION     NA42441  13.168   6.436   6.852  0.2412  0.3682 -0.0284
35842ION     NA42442   6.617   2.160  42.131 -0.1086 -0.0338  0.1085
35843ION     NA42443   8.124   4.864   9.896  0.1714 -0.1539 -0.0786
35844ION     NA42444  12.967   2.349   9.070  0.2560  0.2293 -0.1789
35845ION     NA42445   4.725   3.772  10.582  0.1087  0.2442  0.3500
35846ION     NA42446   7.112   3.472   6.540  0.4447 -0.0222  0.5698
35847ION     NA42447   9.435   2.095  30.376 -0.2841 -0.2777  0.3244
35848ION     NA42448   2.287   0.219  10.600  0.0336 -0.0717 -0.4028
35849ION     NA42449  20.088   3.772  38.865  0.0066  0.1688 -0.3972
35850ION     NA42450  15.496   5.247   9.225  0.0641 -0.2224  0.2028
35851ION     NA42451   3.091   4.109  43.507  0.0695  0.0225  0.3165
35852ION     NA42452   1.109   4.935   8.925  0.0580 -0.0672 -0.4477
35853ION     CL42453  18.629   6.367  25.148  0.1810  0.4255 -0.1807
35854ION     CL42454   6.741   5.127  18.873 -0.5366  0.0588 -0.4230
35855ION     CL42455   7.308   1.625   3.365  0.3320 -0.0212 -0.0091
35856ION     CL42456  14.772   5.522  14.114 -0.1797 -0.0496 -0.0356
35857ION     CL42457   0.194   5.964  35.172  0.4190  0.1745  0.1000
35858ION     CL42458  19.189   4.668  36.327 -0.5950  0.2322 -0.3147
35859ION     CL42459   9.409   2.104  33.954  0.0475 -0.0654 -0.1147
35860ION     CL42460   9.437   2.274   2.263  0.0765 -0.1855 -0.0765
35861ION     CL42461  21.064   6.381  40.928  0.0300  0.0994 -0.1833
35862ION     CL42462   4.054   3.041   0.792  0.5503  0.2063  0.0717
35863ION     CL42463  17.609   1.862   4.840 -0.3031  0.1482 -0.0483
35864ION     CL42464   3.205   3.026  11.791  0.0729  0.0314 -0.0126
35865ION     CL42465  15.250   1.704  36.999  0.1225  0.2350  0.4598
35866ION     CL42466  13.307   1.570  29.247  0.0275 -0.1114 -0.1066
35867ION     CL42467  18.378   6.489  34.704  0.1097  0.1724  0.0751
35868ION     CL42468  17.788   4.186  11.826  0.2082  0.1612  0.5887
35869ION     CL42469   5.084   1.528   1.699 -0.1343  0.2751  0.3168
35870ION     CL42470  19.916   5.334  31.957 -0.1547 -0.0290  0.0174
35871ION     CL42471   7.650   2.841   1.361 -0.1551 -0.7927  0.3025
35872ION     CL42472   0.234   3.285  36.367  0.5839  0.0598  0.4346
35873ION     CL42473   0.330   6.033  25.776  0.4662  0.3699 -0.2187
35874ION     CL42474   2.632   2.154  38.514  0.2108  0.0596 -0.1670
35875ION     CL42475   4.904   4.873   9.611 -0.3203  0.0228 -0.0401
35876ION     CL42476  10.139   5.969  33.812 -0.1533  0.3690  0.1113
35877ION     CL42477   9.023   0.207  20.159 -0.0639  0.0985 -0.4039
35878ION     CL42478   3.994   2.218  33.606 -0.3932  0.0709 -0.3488
35879ION     CL42479   3.786   0.188   3.443 -0.0657  0.1207 -0.2555
35880ION     CL42480  14.675   0.031  35.927 -0.0231  0.5514 -0.5256
35881ION     CL42481  12.137   1.975  33.727  0.5445 -0.0258 -0.4408
35882ION     CL42482  13.542   3.761   2.872  0.3095  0.1522 -0.1237
35883ION     CL42483  14.907   3.751  32.420  0.1984 -0.2913  0.4365
35884ION     CL42484  16.547   4.305  15.111 -0.3664 -0.1307  0.0612
35885ION     CL42485  17.244   1.594  31.127 -0.0280 -0.2202 -0.3916
35886ION     CL42486  11.921   0.842  14.142 -0.0992  0.1249  0.3135
35887ION     CL42487  13.098   0.278   6.782 -0.2469 -0.0701  0.1635
35888ION     CL42488  20.743   2.052   7.510  0.4091 -0.3651  0.2822
35889ION     CL42489  13.304   6.383  37.841 -0.1895  0.3227  0.3933
35890ION     CL42490   2.454   5.125  30.616 -0.0021 -0.0674 -0.3607
35891ION     CL42491   6.769   4.954  14.536  0.0870 -0.2959  0.1024
35892ION     CL42492  14.585   4.573  42.331 -0.3414 -0.3494 -0.7246
35893ION     CL42493  10.070   1.118  36.330 -0.0627  0.2252  0.4958
35894ION     CL42494  12.119   3.596  20.945 -0.0089 -0.1217  0.1904
35895ION     CL42495  11.520   6.370   5.234  0.2651 -0.0689 -0.2343
35896ION     CL42496  10.571   6.286  41.508 -0.0270 -0.0543 -0.0098
35897ION     CL42497   2.555   6.296  14.480  0.0229  0.3303 -0.2471
35898ION     CL42498   8.339   5.099   8.292  0.0304 -0.0273  0.1743
35899ION     CL42499   5.571   4.916  42.789 -0.0732  0.4357  0.1794
35900ION     CL42500  10.970   3.783  36.749  0.1276  0.1447  0.0935
35901ION     CL42501  20.021   2.827   9.011 -0.4028 -0.1094 -0.4298
35902ION     CL42502  17.849   4.467  25.351  0.0504  0.1029  0.0628
35903ION     CL42503   6.702   6.038  34.066  0.1088  0.4743 -0.1953
35904ION     CL42504  15.939   0.068  13.707 -0.3031 -0.0696 -0.0800
35905ION     CL42505   1.297   0.497  31.682 -0.1037  0.5884 -0.2004
35906ION     CL42506  20.241   4.919  31.065 -0.4169 -0.0223 -0.2032
35907ION     CL42507  13.574   0.771  14.514  0.0380  0.0841  0.3613
35908ION     CL42508  14.957   4.290   3.502 -0.1349  0.4912 -0.0084
35909ION     CL42509   5.114   0.543  29.758  0.3237  0.0262 -0.0066
35910ION     CL42510  14.473   4.461  30.889  0.2269 -0.1181  0.3604
35911ION     CL42511  17.322   5.142  25.959 -0.5073 -0.0147  0.1163
35912ION     CL42512   5.661   2.562   4.001 -0.5136 -0.1281 -0.2513
35913ION     CL42513   7.833   3.460  44.967 -0.0984 -0.1459  0.3507
35914ION     CL42514  12.207   2.202   7.871  0.2607  0.1607  0.0240
35915ION     CL42515   2.028   4.483  14.012  0.0187 -0.0703  0.2268
35916ION     CL42516   8.320   1.943  34.109  0.3212  0.2143  0.3532
35917ION     CL42517  12.966   1.680  13.197 -0.3534  0.1282  0.0406
35918ION     CL42518  15.443   0.998   2.650 -0.0382 -0.2439 -0.0851
35919ION     CL42519  17.793   6.277  41.881  0.1983  0.0922  0.0037
35920ION     CL42520  19.394   4.162   0.049 -0.3700  0.2636 -0.0550
35921ION     CL42521   7.470   2.529  19.602 -0.3025  0.3520  0.1939
35922ION     CL42522  13.649   2.693  44.562 -0.3700  0.3430  0.2898
35923ION     CL42523  11.691   5.362  41.497 -0.2786  0.3247  0.0246
35924ION     CL42524  14.755   1.019  33.393  0.0216 -0.2330  0.1230
35925ION     CL42525  14.650   6.492  30.663 -0.2626 -0.0922  0.2231
35926ION     CL42526  17.561   3.299  10.118 -0.1900 -0.0629 -0.1501
35927ION     CL42527  10.535   6.378   4.919  0.0273 -0.2691  0.5416
35928ION     CL42528  13.545   2.850   2.291  0.0309 -0.1845 -0.1531
35929ION     CL42529   9.415   5.201  16.039  0.2417 -0.2164 -0.0051
35930ION     CL42530   9.288   6.148   8.555 -0.1521 -0.3105 -0.1105
35931ION     CL42531   6.576   3.956  10.881  0.1055  0.0709 -0.1543
35932ION     CL42532   5.278   5.752   3.007  0.1015  0.0086 -0.1276
35933ION     CL42533   5.560   5.546   7.360 -0.1837  0.7087 -0.5606
35934ION     CL42534  10.902   4.971  31.447 -0.1602  0.1334 -0.6357
35935ION     CL42535  15.510   6.499  16.141  0.2252 -0.1409  0.0092
35936ION     CL42536   5.635   0.610  36.905 -0.0300 -0.4039  0.1438
35937ION     CL42537  10.525   0.971  17.837 -0.4220  0.1535 -0.1970
35938ION     CL42538   8.629   2.807  30.518 -0.0124 -0.0617  0.4122
35939ION     CL42539  16.134   0.812   7.507 -0.2114 -0.3791  0.5541
35940ION     CL42540   1.663   0.709  10.748  0.1267 -0.1663  0.2842
35941ION     CL42541  15.831   4.526  14.681 -0.3544  0.3696  0.0996
35942ION     CL42542  10.244   6.318  36.996 -0.0795  0.2646  0.1572
35943ION     CL42543  10.913   5.239  39.287  0.1541  0.1100 -0.2841
35944ION     CL42544   8.240   1.900  35.581 -0.2408 -0.1404  0.0006
35945ION     CL42545   4.957   5.836  42.741 -0.0936  0.4583  0.0422
35946ION     CL42546  11.330   5.414  44.823 -0.1588 -0.1642  0.3591
35947ION     CL42547  12.058   4.500   5.480  0.0012  0.0321 -0.0170
35948ION     CL42548   9.118   4.466  34.400  0.2599  0.0805 -0.2125
35949ION     CL42549   1.275   3.104   9.286  0.1161  0.7507  0.1095
35950ION     CL42550   8.094   4.495  20.913 -0.2446 -0.1223 -0.1805
35951ION     CL42551   9.166   4.391  15.776  0.1448 -0.1225 -0.4551
35952ION     CL42552   1.419   0.489  34.078  0.1507  0.3124  0.1021
35953ION     CL42553  19.941   0.431  41.933 -0.1575 -0.0359  0.5896
35954ION     CL42554   8.257   5.635  15.742 -0.0242 -0.1017 -0.1952
35955ION     CL42555  10.994   6.179  12.335  0.0474 -0.0448  0.2892
35956ION     CL42556  19.405   3.328  27.431  0.1076  0.1287 -0.2830
35957ION     CL42557  18.463   5.333  34.484  0.0919  0.2511 -0.2431
35958ION     CL42558   2.340   0.679  30.904 -0.3592 -0.2729 -0.1802
35959ION     CL42559  16.309   5.362  27.682 -0.2080 -0.2098 -0.1970
35960ION     CL42560   8.933   0.893   1.100  0.1543  0.1604 -0.2193
35961ION     CL42561  13.829   6.154  32.172  0.2393 -0.1064 -0.0637
35962ION     CL42562  14.575   0.161  33.104 -0.0166  0.2463 -0.1004
35963ION     CL42563   7.329   1.519  40.809 -0.1957 -0.0454  0.2167
35964ION     CL42564   8.516   6.060  24.084 -0.1643 -0.2537  0.0912
35965ION     CL42565  18.318   3.083  30.690 -0.1688  0.2479  0.2271
35966ION     CL42566  14.684   1.255   5.910 -0.2517 -0.0602  0.1939
35967ION     CL42567  16.446   1.061   8.619 -0.4080  0.5827 -0.5111
35968ION     CL42568  11.996   2.861  32.079 -0.1482 -0.1679  0.1010
35969ION     CL42569   3.212   6.445  44.930  0.2711  0.0748 -0.1563
35970ION     CL42570   0.131   6.176  24.596 -0.3068  0.0450 -0.7089
35971ION     CL42571   5.555   5.217  38.966 -0.0258 -0.3014 -0.0221
35972ION     CL42572   2.813   5.678  38.179 -0.0171  0.5148  0.2690
35973ION     CL42573  15.407   4.133  11.899  0.3214 -0.0788  0.0201
35974ION     CL42574  19.507   5.521  41.466 -0.1085 -0.0320 -0.0911
35975ION     CL42575   9.660   1.865  30.316 -0.2415  0.0838 -0.5084
35976ION     CL42576  12.569   4.906  42.163  0.1123 -0.1344  0.1076
35977ION     CL42577  20.560   1.174  21.819  0.0584  0.0715 -0.2177
35978ION     CL42578   1.428   5.366  25.324  0.0436 -0.3744  0.3123
35979ION     CL42579   3.585   0.428   2.473  0.0111  0.0424 -0.2143
35980ION     CL42580  20.087   2.883  43.902  0.2662 -0.2478  0.1832
35981ION     CL42581   8.030   4.554   0.126 -0.3717 -0.2524  0.3264
35982ION     CL42582   9.046   6.319  30.008 -0.0450  0.1036  0.0406
35983ION     CL42583   4.310   5.914   1.429 -0.1067  0.2015 -0.5338
35984ION     CL42584  16.531   3.413  12.769 -0.1702 -0.2500 -0.0929
35985ION     CL42585   4.367   0.368   6.496 -0.4046  0.3159 -0.0030
35986ION     CL42586   4.931   3.691  42.172 -0.1672  0.0906 -0.1792
35987ION     CL42587  10.539   0.849  32.995  0.0198 -0.0556  0.0420
35988ION     CL42588   9.499   5.643   5.293  0.3936  0.0721 -0.0446
35989ION     CL42589  16.198   4.049  31.172 -0.3684  0.0025  0.3360
35990ION     CL42590  18.841   3.518  22.545  0.2831 -0.4411  0.1489
35991ION     CL42591  14.455   3.138  36.098 -0.0829 -0.0767  0.2136
35992ION     CL42592  11.689   4.218  10.886 -0.0378  0.0722 -0.0398
35993ION     CL42593  16.506   1.786  33.464 -0.4083  0.1326  0.0832
35994ION     CL42594  18.874   1.494  41.745  0.2830 -0.2250  0.3903
35995ION     CL42595  16.935   5.929  15.405 -0.0616  0.1320  0.0433
35996ION     CL42596   6.153   1.903  16.746  0.2016  0.1218  0.1819
35997ION     CL42597  10.439   0.084  39.917  0.5623 -0.1979 -0.1051
35998DPPC   NC342598  11.880   5.980  28.617  0.1862 -0.1957 -0.0610
35998DPPC   PO442599  11.985   6.148  28.280  0.1813  0.0688  0.1470
35998DPPC   GL142600  11.724   6.248  27.906 -0.2630  0.1716  0.1764
35998DPPC   GL242601  11.627   5.922  27.986  0.0306 -0.0172  0.0600
35998DPPC   C1A42602  11.829   6.152  27.562 -0.2330  0.3748  0.6470
35998DPPC   C2A42603  11.647   6.216  27.174 -0.1499  0.1660  0.0933
35998DPPC   C3A42604  11.472   6.238  26.787  0.0024  0.0328 -0.0955
35998DPPC   C4A42605  11.223   6.292  26.409  0.1393 -0.3293  0.1887
35998DPPC   C1B42606  11.737   5.733  27.724  0.0085 -0.2426 -0.1415
35998DPPC   C2B42607  11.899   5.790  27.298 -0.1531  0.2910 -0.1148
35998DPPC   C3B42608  12.140   5.571  26.904  0.0837 -0.0806  0.0512
35998DPPC   C4B42609  12.552   5.321  26.835 -0.1327 -0.1969  0.2660
35999DPPC   NC342610  14.775   0.280  26.785 -0.1909  0.0525 -0.3282
35999DPPC   PO442611  14.937   0.225  26.442  0.3889  0.0842  0.1007
35999DPPC   GL142612  14.659   0.232  26.102 -0.0542 -0.2643  0.2178
35999DPPC   GL242613  14.907   0.197  25.926 -0.2989 -0.0712  0.0096
35999DPPC   C1A42614  14.451   0.291  25.744 -0.1516  0.2560 -0.0890
35999DPPC   C2A42615  14.184   0.305  25.398 -0.0791 -0.2585  0.1280
35999DPPC   C3A42616  13.873   0.239  25.043 -0.0786  0.2023  0.1098
35999DPPC   C4A42617  13.545   0.285  24.641  0.0581 -0.1658  0.0642
35999DPPC   C1B42618  14.869   0.152  25.590  0.1086 -0.2710  0.0638
35999DPPC   C2B42619  14.713   0.174  25.242  0.1866 -0.0384 -0.1257
35999DPPC   C3B42620  14.333   0.138  24.865  0.0096 -0.0877  0.2336
35999DPPC   C4B42621  14.024   0.122  24.590 -0.0647 -0.1242  0.1939
36000DPPC   NC342622  14.788   6.251  26.863 -0.0281 -0.1733  0.1704
36000DPPC   PO442623  14.490   6.482  26.732 -0.2049 -0.0022  0.2022
36000DPPC   GL142624  14.439   6.459  26.342 -0.0996  0.2582  0.0415
36000DPPC   GL242625  14.680   6.416  26.276  0.0007 -0.0283 -0.0976
36000DPPC   C1A42626  14.273   6.614  26.066  0.0020  0.3804  0.3787
36000DPPC   C2A42627  13.989   6.564  25.728  0.0149 -0.1103 -0.0343
36000DPPC   C3A42628  13.633   6.598  25.385 -0.1660  0.1439  0.0118
36000DPPC   C4A42629  13.342   6.581  24.988  0.1247 -0.2369  0.1646
36000DPPC   C1B42630  14.665   6.465  25.878 -0.0096  0.0807  0.2674
36000DPPC   C2B42631  14.452   6.408  25.541  0.2002 -0.0694 -0.1450
36000DPPC   C3B42632  14.118   6.422  25.185  0.1243 -0.1390  0.0576
36000DPPC   C4B42633  13.766   6.400  24.859  0.0655  0.0288  0.1750
36001DPPC   NC342634  12.904   2.031  27.874 -0.1272 -0.0212  0.0152
36001DPPC   PO442635  12.544   1.988  27.917  0.0559  0.3076  0.0653
36001DPPC   GL142636  12.194   2.090  27.684 -0.1728 -0.3200  0.0379
36001DPPC   GL242637  12.081   1.788  27.666  0.1359 -0.1220  0.0066
36001DPPC   C1A42638  11.902   2.266  27.504 -0.2755  0.1580  0.0445
36001DPPC   C2A42639  11.779   2.394  27.193  0.2698  0.1113  0.0852
36001DPPC   C3A42640  11.583   2.405  26.726 -0.0606 -0.0710  0.0826
36001DPPC   C4A42641  11.328   2.466  26.287 -0.0491 -0.1305 -0.1318
36001DPPC   C1B42642  11.893   1.725  27.379  0.0108 -0.4838  0.4237
36001DPPC   C2B42643  11.789   1.887  27.035 -0.0816 -0.0260 -0.1312
36001DPPC   C3B42644  11.571   1.934  26.623 -0.0634  0.0998 -0.0166
36001DPPC   C4B42645  11.327   1.986  26.215 -0.2527  0.2462 -0.0974
36002DPPC   NC342646  10.737   5.658  28.734 -0.0511  0.0003 -0.1073
36002DPPC   PO442647  11.032   5.495  28.519 -0.1022  0.0398 -0.0662
36002DPPC   GL142648  10.875   5.231  28.251  0.0737  0.2999  0.0714
36002DPPC   GL242649  11.080   5.059  28.118 -0.0790 -0.3470  0.0898
36002DPPC   C1A42650  10.666   5.273  27.984 -0.0236  0.3359  0.2921
36002DPPC   C2A42651  10.492   5.244  27.583  0.0950 -0.0416 -0.2058
36002DPPC   C3A42652  10.237   5.267  27.169 -0.1043 -0.2818 -0.2194
36002DPPC   C4A42653  10.051   5.299  26.691 -0.0414  0.0343  0.1260
36002DPPC   C1B42654  10.871   4.891  27.915  0.5028 -0.3855 -0.2607
36002DPPC   C2B42655  10.554   4.731  27.677 -0.2077  0.2553  0.0576
36002DPPC   C3B42656  10.390   4.819  27.251  0.2437 -0.1941  0.0033
36002DPPC   C4B42657  10.127   4.811  26.847 -0.0911  0.2473  0.0680
36003DPPC   NC342658  12.884   5.336  28.182 -0.2468 -0.0566 -0.2044
36003DPPC   PO442659  12.695   5.489  27.865  0.3287 -0.1966  0.0011
36003DPPC   GL142660  12.557   5.264  27.591  0.1900  0.0821  0.1870
36003DPPC   GL242661  12.303   5.224  27.670 -0.1794  0.1407 -0.1100
36003DPPC   C1A42662  12.837   5.114  27.307 -0.3381  0.0965 -0.0354
36003DPPC   C2A42663  12.991   5.283  26.964  0.2664 -0.0994 -0.0077
36003DPPC   C3A42664  12.936   5.752  26.856  0.1525  0.1914 -0.0573
36003DPPC   C4A42665  12.481   5.875  26.640  0.1321 -0.2767  0.1033
36003DPPC   C1B42666  12.014   5.381  27.521 -0.0814  0.0863 -0.0402
36003DPPC   C2B42667  11.806   5.339  27.162  0.0580  0.0970  0.1074
36003DPPC   C3B42668  11.633   5.262  26.775 -0.0364  0.3621  0.1885
36003DPPC   C4B42669  11.351   5.112  26.410 -0.2406  0.1567 -0.0896
36004DPPC   NC342670  10.269   6.310  29.109  0.3579 -0.3173 -0.0125
36004DPPC   PO442671  10.422   6.022  28.854 -0.0893  0.0400  0.0319
36004DPPC   GL142672  10.303   5.804  28.597 -0.2005  0.0090  0.2698
36004DPPC   GL242673  10.365   6.012  28.412  0.0874 -0.0489  0.1813
36004DPPC   C1A42674  10.037   5.636  28.447  0.0084 -0.2152 -0.2625
36004DPPC   C2A42675   9.758   5.682  28.086 -0.1646 -0.1727  0.0695
36004DPPC   C3A42676   9.534   5.696  27.638 -0.0754  0.2573  0.1589
36004DPPC   C4A42677   9.312   5.759  27.251 -0.0381 -0.0265 -0.0458
36004DPPC   C1B42678  10.105   5.927  28.085 -0.0233  0.0690 -0.0572
36004DPPC   C2B42679   9.990   5.960  27.707 -0.1263 -0.0629  0.0118
36004DPPC   C3B42680   9.770   6.039  27.328  0.1198 -0.1612  0.3404
36004DPPC   C4B42681   9.565   6.206  26.936 -0.0644  0.1592 -0.3765
36005DPPC   NC342682  15.525   1.417  25.933  0.3753 -0.1183 -0.0996
36005DPPC   PO442683  15.353   1.773  25.846 -0.0721  0.0284 -0.1249
36005DPPC   GL142684  14.945   1.768  25.716  0.0090  0.2936  0.1308
36005DPPC   GL242685  15.014   2.014  25.650 -0.0644  0.2385 -0.0231
36005DPPC   C1A42686  14.765   1.538  25.466 -0.2421 -0.1424  0.1286
36005DPPC   C2A42687  14.438   1.685  25.221 -0.2439 -0.2238 -0.0919
36005DPPC   C3A42688  14.141   1.612  24.812  0.2915 -0.1540  0.0725
36005DPPC   C4A42689  13.791   1.592  24.501  0.0878 -0.0855 -0.1509
36005DPPC   C1B42690  14.856   2.232  25.380 -0.0495 -0.0363 -0.2581
36005DPPC   C2B42691  14.667   2.356  25.006 -0.1356 -0.0654 -0.1001
36005DPPC   C3B42692  14.374   2.440  24.621 -0.0007  0.1558  0.3071
36005DPPC   C4B42693  14.062   2.368  24.252 -0.1321 -0.0821  0.2374
36006DPPC   NC342694  10.569   3.411  29.097  0.1797  0.0489 -0.1738
36006DPPC   PO442695  10.822   3.272  28.855 -0.1242 -0.0226  0.1200
36006DPPC   GL142696  10.763   3.278  28.432 -0.1402  0.1550 -0.4499
36006DPPC   GL242697  10.927   3.460  28.336  0.0131  0.0730  0.2421
36006DPPC   C1A42698  10.639   2.926  28.303 -0.0615  0.2431 -0.0809
36006DPPC   C2A42699  10.407   2.612  28.198  0.1662 -0.0895  0.0655
36006DPPC   C3A42700  10.167   2.241  27.976  0.2927 -0.0819  0.3976
36006DPPC   C4A42701   9.959   2.121  27.614 -0.1658 -0.2217 -0.1695
36006DPPC   C1B42702  10.976   3.701  28.056 -0.0871  0.1504  0.2389
36006DPPC   C2B42703  10.755   3.731  27.735 -0.0766  0.0680  0.1955
36006DPPC   C3B42704  10.581   3.747  27.272  0.0235 -0.4143 -0.0793
36006DPPC   C4B42705  10.325   3.755  26.870 -0.0895  0.1286 -0.1962
36007DPPC   NC342706  15.648   3.863  25.536  0.1935 -0.3174 -0.0204
36007DPPC   PO442707  15.573   4.243  25.505 -0.1348 -0.2188 -0.3651
36007DPPC   GL142708  15.426   4.273  25.082 -0.0954  0.0191  0.3263
36007DPPC   GL242709  15.452   3.963  25.141  0.2049 -0.2020  0.0122
36007DPPC   C1A42710  15.157   4.341  24.858 -0.0602  0.2410 -0.2298
36007DPPC   C2A42711  14.781   4.165  24.780 -0.3074  0.1748  0.2044
36007DPPC   C3A42712  14.423   4.117  24.547 -0.2856 -0.0651 -0.1289
36007DPPC   C4A42713  14.197   4.221  24.176 -0.0753 -0.1809 -0.0457
36007DPPC   C1B42714  15.268   3.946  24.834  0.3991 -0.1381 -0.2782
36007DPPC   C2B42715  15.112   4.006  24.460 -0.1833  0.0297  0.2454
36007DPPC   C3B42716  14.717   3.981  24.114 -0.1094  0.2566 -0.1218
36007DPPC   C4B42717  14.347   3.980  23.756  0.2231  0.0248  0.2299
36008DPPC   NC342718  14.039   3.190  26.846 -0.2651 -0.0936  0.0866
36008DPPC   PO442719  14.262   3.423  26.627  0.1033  0.0841 -0.0584
36008DPPC   GL142720  14.440   3.307  26.207 -0.1236  0.3891  0.0335
36008DPPC   GL242721  14.472   3.616  26.162 -0.0119  0.1421 -0.0897
36008DPPC   C1A42722  14.151   3.258  26.000 -0.1096  0.0982  0.1073
36008DPPC   C2A42723  13.904   3.262  25.691  0.1706 -0.0245 -0.0624
36008DPPC   C3A42724  13.687   3.233  25.332  0.0754 -0.1425 -0.1257
36008DPPC   C4A42725  13.355   3.218  24.928  0.0262 -0.0356 -0.2688
36008DPPC   C1B42726  14.262   3.849  25.918  0.1393 -0.1754 -0.3870
36008DPPC   C2B42727  14.094   3.965  25.570  0.0778  0.0749  0.1959
36008DPPC   C3B42728  13.820   4.047  25.103  0.1588  0.1357  0.0272
36008DPPC   C4B42729  13.557   4.052  24.679 -0.1547 -0.0075  0.0008
36009DPPC   NC342730  14.963   2.377  25.942 -0.2266  0.1819 -0.0024
36009DPPC   PO442731  15.242   2.421  25.660  0.2168  0.1660  0.0629
36009DPPC   GL142732  15.123   2.608  25.250  0.1916 -0.0942 -0.1076
36009DPPC   GL242733  14.932   2.661  25.480  0.2330  0.0443  0.0643
36009DPPC   C1A42734  14.979   2.692  24.948  0.0178 -0.1478 -0.3511
36009DPPC   C2A42735  14.804   2.733  24.566  0.2124 -0.2646 -0.3150
36009DPPC   C3A42736  14.556   2.772  24.220 -0.0005  0.1140  0.0483
36009DPPC   C4A42737  14.258   2.692  23.855  0.1993  0.2033 -0.1965
36009DPPC   C1B42738  14.567   2.539  25.532  0.1839 -0.0448 -0.1610
36009DPPC   C2B42739  14.271   2.581  25.246 -0.0096  0.1991 -0.1919
36009DPPC   C3B42740  13.914   2.569  24.903  0.2352  0.0326  0.0962
36009DPPC   C4B42741  13.669   2.609  24.491  0.0945  0.5709  0.2191
36010DPPC   NC342742  15.320   6.523  25.682 -0.0251  0.1866 -0.0694
36010DPPC   PO442743  15.607   6.246  25.502  0.1256 -0.3174  0.0260
36010DPPC   GL142744  15.457   6.311  25.166 -0.1885  0.2913 -0.2249
36010DPPC   GL242745  15.237   6.491  25.213  0.2358  0.0685  0.4616
36010DPPC   C1A42746  15.465   6.174  24.837 -0.1318  0.0230  0.1195
36010DPPC   C2A42747  15.212   6.311  24.559 -0.1943  0.0241  0.1557
36010DPPC   C3A42748  14.879   6.351  24.203 -0.0011  0.1578  0.1967
36010DPPC   C4A42749  14.651   6.405  23.783  0.0871  0.2102  0.3252
36010DPPC   C1B42750  15.082   6.549  24.911  0.0493 -0.2014 -0.1600
36010DPPC   C2B42751  14.776   6.552  24.677  0.1857 -0.0317 -0.1773
36010DPPC   C3B42752  14.435   6.549  24.355 -0.0477 -0.1294 -0.0842
36010DPPC   C4B42753  14.192   6.534  23.975  0.0369 -0.3630 -0.1409
36011DPPC   NC342754  16.453   4.293  24.466 -0.0650  0.0980  0.2721
36011DPPC   PO442755  16.140   4.101  24.559 -0.0400  0.0760 -0.1234
36011DPPC   GL142756  15.729   4.173  24.400 -0.3376 -0.0477  0.1840
36011DPPC   GL242757  15.704   3.894  24.270  0.3689 -0.0957 -0.0441
36011DPPC   C1A42758  15.444   4.290  24.207 -0.0375 -0.0348 -0.4541
36011DPPC   C2A42759  15.093   4.258  23.919 -0.0300  0.1596  0.1207
36011DPPC   C3A42760  14.811   4.364  23.567 -0.1460  0.3361  0.0787
36011DPPC   C4A42761  14.453   4.279  23.300  0.3616 -0.1378 -0.2056
36011DPPC   C1B42762  15.413   3.892  24.019 -0.0437  0.4362  0.1682
36011DPPC   C2B42763  15.141   3.826  23.705 -0.0607 -0.0420  0.0779
36011DPPC   C3B42764  14.760   3.816  23.455 -0.0306 -0.0915 -0.2340
36011DPPC   C4B42765  14.395   3.836  23.076 -0.1686 -0.0428  0.2704
36012DPPC   NC342766  11.873   2.137  28.469 -0.0568 -0.1777 -0.3385
36012DPPC   PO442767  11.620   1.843  28.382  0.0720  0.0412  0.1039
36012DPPC   GL142768  11.320   1.942  28.104  0.0972 -0.0812 -0.1675
36012DPPC   GL242769  11.214   1.694  28.041 -0.1918 -0.2885  0.0344
36012DPPC   C1A42770  11.196   2.217  27.872  0.1418  0.2372  0.2303
36012DPPC   C2A42771  11.037   2.318  27.512 -0.2381  0.0432 -0.2796
36012DPPC   C3A42772  10.795   2.329  27.066  0.1703 -0.4273 -0.2778
36012DPPC   C4A42773  10.593   2.375  26.646 -0.1849  0.0131 -0.0079
36012DPPC   C1B42774  11.089   1.791  27.731 -0.4974  0.1509  0.2212
36012DPPC   C2B42775  10.957   1.854  27.335  0.1352  0.1350  0.0918
36012DPPC   C3B42776  10.821   1.835  26.893  0.0780 -0.1216  0.2758
36012DPPC   C4B42777  10.625   1.949  26.419  0.1237  0.1118 -0.1227
36013DPPC   NC342778  11.607   4.432  28.076 -0.2067 -0.2526 -0.1632
36013DPPC   PO442779  12.012   4.575  28.176  0.0869 -0.3009 -0.0309
36013DPPC   GL142780  11.998   4.551  27.707  0.0584  0.0901 -0.0477
36013DPPC   GL242781  11.733   4.385  27.653 -0.0261  0.1249 -0.0773
36013DPPC   C1A42782  12.049   4.864  27.475 -0.3258 -0.0537  0.2517
36013DPPC   C2A42783  12.243   5.150  27.226  0.0113  0.1755  0.0873
36013DPPC   C3A42784  12.476   5.586  27.252 -0.4787  0.0251  0.3426
36013DPPC   C4A42785  12.289   5.981  27.437  0.0381 -0.2986 -0.2341
36013DPPC   C1B42786  11.584   4.498  27.322  0.7814 -0.0891  0.0327
36013DPPC   C2B42787  11.357   4.416  26.998 -0.0689  0.0029 -0.0045
36013DPPC   C3B42788  11.115   4.449  26.639 -0.0913  0.1544  0.1745
36013DPPC   C4B42789  10.878   4.382  26.248 -0.1639  0.1161 -0.1122
36014DPPC   NC342790  15.124   0.591  26.132 -0.0943  0.1165 -0.1400
36014DPPC   PO442791  15.343   0.935  26.086  0.1018 -0.1357 -0.0477
36014DPPC   GL142792  15.023   1.092  25.991 -0.1343  0.0778  0.0228
36014DPPC   GL242793  14.802   1.095  26.221 -0.3786 -0.1467  0.1510
36014DPPC   C1A42794  14.770   1.119  25.672  0.2243 -0.6360  0.1279
36014DPPC   C2A42795  14.618   1.166  25.264  0.1419  0.0335 -0.0617
36014DPPC   C3A42796  14.289   1.061  24.930 -0.2602  0.3755 -0.3473
36014DPPC   C4A42797  13.983   1.141  24.573 -0.2816 -0.4372  0.0265
36014DPPC   C1B42798  14.493   1.168  26.050  0.2368  0.1888  0.1244
36014DPPC   C2B42799  14.142   1.008  26.034  0.0347  0.2745  0.0226
36014DPPC   C3B42800  13.780   0.947  25.692 -0.2783 -0.0206  0.2496
36014DPPC   C4B42801  13.463   0.986  25.335  0.1465 -0.0564 -0.3391
36015DPPC   NC342802   9.558   2.597  29.368 -0.1955 -0.1064 -0.0169
36015DPPC   PO442803   9.190   2.418  29.329 -0.3562  0.0309 -0.0194
36015DPPC   GL142804   9.024   2.376  28.917 -0.3918 -0.1474  0.1627
36015DPPC   GL242805   9.261   2.221  28.816 -0.0006 -0.3003  0.2526
36015DPPC   C1A42806   8.961   2.715  28.770  0.0490  0.2119 -0.1771
36015DPPC   C2A42807   9.172   3.006  28.577  0.1274 -0.1591  0.2290
36015DPPC   C3A42808   9.439   3.389  28.617  0.1348  0.0259 -0.0953
36015DPPC   C4A42809   9.684   3.841  28.663  0.2179  0.0108 -0.1756
36015DPPC   C1B42810   9.363   2.400  28.534 -0.1626 -0.0831  0.2893
36015DPPC   C2B42811   9.311   2.349  28.097 -0.0164  0.3200  0.0011
36015DPPC   C3B42812   9.490   2.300  27.658 -0.0435 -0.0172  0.1462
36015DPPC   C4B42813   9.354   2.201  27.188  0.0627 -0.2559  0.2304
36016DPPC   NC342814  16.098   3.706  24.800 -0.0483 -0.0905 -0.0556
36016DPPC   PO442815  15.731   3.620  25.026 -0.0495 -0.1113  0.0374
36016DPPC   GL142816  15.551   3.661  24.706  0.0764  0.2649  0.3536
36016DPPC   GL242817  15.764   3.565  24.528  0.3155 -0.1722 -0.2244
36016DPPC   C1A42818  15.271   3.580  24.487 -0.0334 -0.3482 -0.1967
36016DPPC   C2A42819  15.010   3.516  24.203 -0.2094 -0.2424  0.1263
36016DPPC   C3A42820  14.690   3.501  23.849 -0.1366 -0.0328 -0.0806
36016DPPC   C4A42821  14.387   3.557  23.477 -0.1604  0.0690  0.2306
36016DPPC   C1B42822  15.557   3.233  24.415 -0.0739  0.2569 -0.0836
36016DPPC   C2B42823  15.267   3.031  24.275  0.1160  0.1780  0.1572
36016DPPC   C3B42824  14.900   3.001  23.953 -0.0216  0.0927  0.1613
36016DPPC   C4B42825  14.612   3.020  23.587  0.0443  0.1105  0.4644
36017DPPC   NC342826  14.512   1.295  27.947  0.1218 -0.0415  0.1362
36017DPPC   PO442827  14.171   1.235  27.783  0.3289  0.0073  0.1298
36017DPPC   GL142828  13.883   0.877  27.556  0.0949 -0.1990  0.2187
36017DPPC   GL242829  13.753   1.119  27.425  0.0879  0.2502 -0.1308
36017DPPC   C1A42830  13.657   0.602  27.481  0.0294  0.1336 -0.0785
36017DPPC   C2A42831  13.463   0.463  27.124 -0.2091  0.0387 -0.0077
36017DPPC   C3A42832  13.157   0.150  26.869  0.0025  0.2377 -0.2252
36017DPPC   C4A42833  12.998  -0.273  26.730  0.0817  0.0948 -0.2784
36017DPPC   C1B42834  13.526   0.917  27.228  0.1418 -0.2291 -0.1216
36017DPPC   C2B42835  13.158   0.801  27.028  0.2126  0.0950 -0.0211
36017DPPC   C3B42836  12.936   0.530  26.693 -0.1914 -0.0237  0.0826
36017DPPC   C4B42837  12.735   0.098  26.451  0.0261  0.0321  0.0015
36018DPPC   NC342838   9.238   1.958  29.217 -0.0316 -0.0083  0.1256
36018DPPC   PO442839   9.597   2.072  29.288 -0.1367  0.5477 -0.1859
36018DPPC   GL142840   9.801   1.828  28.951  0.4113  0.0619  0.2083
36018DPPC   GL242841   9.613   1.595  29.017  0.1908 -0.2224 -0.0381
36018DPPC   C1A42842   9.788   1.951  28.624  0.1917 -0.3632  0.1238
36018DPPC   C2A42843   9.733   2.198  28.308 -0.1481  0.1840  0.0787
36018DPPC   C3A42844   9.832   2.609  28.097  0.2210 -0.4123 -0.0982
36018DPPC   C4A42845   9.615   2.806  27.676  0.1428  0.0517 -0.1717
36018DPPC   C1B42846   9.421   1.604  28.742 -0.0604 -0.1435  0.2770
36018DPPC   C2B42847   9.103   1.476  28.477 -0.2715  0.2781 -0.0460
36018DPPC   C3B42848   8.857   1.464  28.071 -0.2918 -0.0565 -0.1812
36018DPPC   C4B42849   8.752   1.211  27.723 -0.0406 -0.2335  0.1515
36019DPPC   NC342850  16.538   0.720  25.224  0.1655  0.0081 -0.2529
36019DPPC   PO442851  16.198   0.933  25.158 -0.0390 -0.0497 -0.1573
36019DPPC   GL142852  15.951   0.933  24.783  0.2869 -0.1325  0.0854
36019DPPC   GL242853  15.797   1.027  24.930 -0.0927 -0.2214 -0.2076
36019DPPC   C1A42854  15.876   0.752  24.500 -0.1126  0.0597  0.1109
36019DPPC   C2A42855  15.602   0.585  24.298  0.1540  0.1432 -0.2443
36019DPPC   C3A42856  15.262   0.511  23.932 -0.1231 -0.0602  0.0055
36019DPPC   C4A42857  14.890   0.514  23.503  0.0123 -0.0203  0.1142
36019DPPC   C1B42858  15.531   0.868  24.734 -0.0063  0.1431  0.2019
36019DPPC   C2B42859  15.195   0.768  24.535 -0.1309  0.1833 -0.2513
36019DPPC   C3B42860  14.883   0.729  24.191  0.0687 -0.0939 -0.3151
36019DPPC   C4B42861  14.501   0.678  23.806 -0.1802 -0.3991  0.0246
36020DPPC   NC342862  14.051   4.203  26.323  0.2564 -0.0742  0.2337
36020DPPC   PO442863  14.269   3.944  26.497  0.0001  0.1880  0.1052
36020DPPC   GL142864  13.919   3.675  26.528 -0.0818 -0.2915  0.0619
36020DPPC   GL242865  14.039   3.597  26.266  0.1807 -0.1342  0.0210
36020DPPC   C1A42866  13.565   3.710  26.472  0.2743  0.2213 -0.1958
36020DPPC   C2A42867  13.464   3.825  26.068 -0.1738 -0.3019  0.0873
36020DPPC   C3A42868  13.199   3.944  25.699 -0.0642 -0.0073 -0.1204
36020DPPC   C4A42869  12.875   3.940  25.266  0.0277  0.4601  0.2696
36020DPPC   C1B42870  13.847   3.694  25.912  0.0640 -0.3060 -0.1035
36020DPPC   C2B42871  13.641   3.743  25.582 -0.0309 -0.1266  0.0863
36020DPPC   C3B42872  13.455   3.758  25.158  0.0703  0.0226 -0.1074
36020DPPC   C4B42873  13.205   3.723  24.744  0.0226  0.1115 -0.1322
36021DPPC   NC342874  10.342   5.058  28.917  0.0403  0.0673 -0.1583
36021DPPC   PO442875  10.553   5.212  28.651 -0.2084 -0.1900  0.0522
36021DPPC   GL142876  10.343   5.353  28.347 -0.1103  0.0775  0.0109
36021DPPC   GL242877  10.574   5.633  28.308 -0.1333  0.0656 -0.1451
36021DPPC   C1A42878  10.259   5.422  27.974  0.1123  0.0618  0.0699
36021DPPC   C2A42879  10.047   5.444  27.623  0.0004 -0.4293  0.0300
36021DPPC   C3A42880   9.781   5.535  27.225 -0.0170 -0.1265  0.0314
36021DPPC   C4A42881   9.572   5.647  26.790 -0.1897  0.1376 -0.0430
36021DPPC   C1B42882  10.610   5.739  27.979 -0.0819  0.0524  0.4291
36021DPPC   C2B42883  10.446   5.766  27.649  0.1764  0.1489 -0.0468
36021DPPC   C3B42884  10.218   5.775  27.278 -0.3007 -0.0887  0.0792
36021DPPC   C4B42885  10.070   5.871  26.798  0.0280 -0.1127  0.2227
36022DPPC   NC342886   9.790   4.023  29.646 -0.1857  0.0288  0.0028
36022DPPC   PO442887   9.400   4.088  29.588  0.0759 -0.1044  0.0039
36022DPPC   GL142888   9.481   4.095  29.190 -0.1232  0.0229  0.2233
36022DPPC   GL242889   9.737   4.253  29.129  0.0501 -0.0282  0.0862
36022DPPC   C1A42890   9.287   4.044  28.881  0.2104  0.0933  0.2259
36022DPPC   C2A42891   9.194   3.905  28.516 -0.2379  0.0755  0.1366
36022DPPC   C3A42892   9.017   3.964  28.134 -0.1114  0.2756 -0.2598
36022DPPC   C4A42893   8.866   3.901  27.638 -0.0450 -0.0882  0.1462
36022DPPC   C1B42894   9.793   4.487  28.807 -0.2089  0.0422  0.1704
36022DPPC   C2B42895   9.822   4.625  28.418  0.0186 -0.2759  0.2993
36022DPPC   C3B42896   9.578   4.708  28.010 -0.0838  0.0824  0.1183
36022DPPC   C4B42897   9.412   4.685  27.494 -0.1462 -0.1453 -0.0262
36023DPPC   NC342898  15.283   5.367  25.583  0.0907 -0.0136 -0.0756
36023DPPC   PO442899  15.392   5.185  25.271  0.1081 -0.1622  0.0689
36023DPPC   GL142900  15.472   5.269  24.802 -0.0774  0.3038  0.2474
36023DPPC   GL242901  15.230   5.055  24.804 -0.0959  0.3910 -0.1530
36023DPPC   C1A42902  15.388   5.297  24.414 -0.1340 -0.1820 -0.0663
36023DPPC   C2A42903  15.068   5.381  24.143 -0.0022  0.0727  0.0040
36023DPPC   C3A42904  14.807   5.342  23.769  0.1717 -0.0483 -0.0680
36023DPPC   C4A42905  14.491   5.360  23.426 -0.1993 -0.0637 -0.1045
36023DPPC   C1B42906  14.923   5.073  24.552 -0.2615 -0.0499 -0.0554
36023DPPC   C2B42907  14.675   5.061  24.227  0.2938  0.0227  0.1657
36023DPPC   C3B42908  14.325   5.105  23.893 -0.0088  0.1534 -0.3884
36023DPPC   C4B42909  13.919   5.033  23.525  0.1841 -0.0434  0.2835
36024DPPC   NC342910  15.901   1.280  25.278 -0.1715  0.1027  0.0552
36024DPPC   PO442911  15.642   1.521  25.466  0.0747  0.0122  0.4283
36024DPPC   GL142912  15.264   1.573  25.186 -0.0617 -0.3814  0.0211
36024DPPC   GL242913  15.208   1.858  25.301  0.0084 -0.4783 -0.1294
36024DPPC   C1A42914  15.054   1.365  25.097 -0.2291  0.0725 -0.0303
36024DPPC   C2A42915  14.757   1.345  24.806 -0.0892 -0.0889 -0.0343
36024DPPC   C3A42916  14.534   1.366  24.437 -0.0492 -0.1341  0.1232
36024DPPC   C4A42917  14.097   1.353  24.108 -0.1672  0.1803  0.2040
36024DPPC   C1B42918  14.903   1.871  25.032  0.3261 -0.1961 -0.3911
36024DPPC   C2B42919  14.562   1.925  24.778 -0.0767  0.2994 -0.0143
36024DPPC   C3B42920  14.283   1.857  24.417  0.2035 -0.0005  0.2428
36024DPPC   C4B42921  13.882   1.887  24.076  0.1689 -0.1382  0.1377
36025DPPC   NC342922  15.837   0.623  25.345  0.0827 -0.0102 -0.1394
36025DPPC   PO442923  15.915   0.441  25.022 -0.0503  0.0206 -0.4972
36025DPPC   GL142924  15.640   0.423  24.774 -0.1003 -0.0803 -0.3140
36025DPPC   GL242925  15.863   0.294  24.564 -0.1125 -0.1970 -0.1031
36025DPPC   C1A42926  15.359   0.306  24.624  0.2107  0.2351  0.0594
36025DPPC   C2A42927  15.066   0.217  24.391  0.0287  0.0743  0.0998
36025DPPC   C3A42928  14.737   0.281  24.050 -0.0493 -0.2905 -0.1079
36025DPPC   C4A42929  14.369   0.214  23.646  0.0230  0.0122  0.0681
36025DPPC   C1B42930  15.891   0.308  24.184 -0.1309  0.0751 -0.0146
36025DPPC   C2B42931  15.691   0.357  23.813 -0.1803 -0.0008  0.0628
36025DPPC   C3B42932  15.411   0.342  23.439 -0.0684  0.1190 -0.1902
36025DPPC   C4B42933  15.136   0.347  23.053 -0.0301  0.1272 -0.0285
36026DPPC   NC342934  14.630   1.094  26.970 -0.2609 -0.1688 -0.1281
36026DPPC   PO442935  14.835   1.274  26.651  0.2202  0.3859  0.0632
36026DPPC   GL142936  14.325   1.377  26.451 -0.2293 -0.2740  0.1044
36026DPPC   GL242937  14.411   1.027  26.482 -0.0355 -0.4598  0.0702
36026DPPC   C1A42938  13.984   1.455  26.194  0.2003  0.2656  0.0573
36026DPPC   C2A42939  13.805   1.452  25.794  0.3619 -0.2457 -0.4822
36026DPPC   C3A42940  13.459   1.496  25.419 -0.0339 -0.1898  0.0866
36026DPPC   C4A42941  13.278   1.446  25.027 -0.2487  0.0781  0.2814
36026DPPC   C1B42942  14.135   0.804  26.513  0.0333  0.0720 -0.2942
36026DPPC   C2B42943  13.817   0.642  26.319 -0.1085 -0.1236  0.1264
36026DPPC   C3B42944  13.466   0.665  25.927  0.0107 -0.0217  0.1361
36026DPPC   C4B42945  13.179   0.652  25.604  0.3102  0.0310 -0.1061
36027DPPC   NC342946   7.835   4.708  29.465  0.1050 -0.0758  0.1008
36027DPPC   PO442947   7.533   4.462  29.445  0.0699 -0.1696  0.2048
36027DPPC   GL142948   7.711   4.385  29.084 -0.0014  0.1748 -0.1325
36027DPPC   GL242949   7.771   4.633  28.979 -0.2115  0.1506  0.1434
36027DPPC   C1A42950   7.826   4.100  28.916 -0.4375 -0.1085 -0.3987
36027DPPC   C2A42951   8.066   3.835  28.694 -0.1255 -0.1468  0.1535
36027DPPC   C3A42952   8.253   3.430  28.532  0.0727 -0.1404  0.1693
36027DPPC   C4A42953   8.591   3.007  28.526  0.0812  0.3959 -0.2236
36027DPPC   C1B42954   7.984   4.550  28.690  0.1487  0.3121 -0.5749
36027DPPC   C2B42955   8.325   4.321  28.568  0.3289  0.1497  0.2530
36027DPPC   C3B42956   8.446   3.987  28.312  0.0773  0.3780 -0.1890
36027DPPC   C4B42957   8.662   3.635  28.004  0.1268  0.0277 -0.1483
36028DPPC   NC342958   7.434   3.081  29.416 -0.0708  0.3590 -0.3142
36028DPPC   PO442959   7.206   3.105  29.053  0.1044 -0.1604 -0.2048
36028DPPC   GL142960   7.290   3.037  28.665  0.1781  0.0513  0.0216
36028DPPC   GL242961   7.031   2.822  28.589  0.1438  0.1712 -0.2534
36028DPPC   C1A42962   7.548   3.073  28.470  0.0849  0.0604 -0.0273
36028DPPC   C2A42963   7.917   3.139  28.265  0.0472  0.1087 -0.1804
36028DPPC   C3A42964   8.359   3.238  28.087  0.0304 -0.0482 -0.1769
36028DPPC   C4A42965   8.765   3.058  28.020 -0.0937 -0.2239  0.1176
36028DPPC   C1B42966   7.238   2.823  28.323 -0.2743  0.0079 -0.2897
36028DPPC   C2B42967   7.533   2.860  28.035 -0.2354 -0.0281 -0.2917
36028DPPC   C3B42968   7.873   2.842  27.677 -0.0678 -0.0459 -0.2320
36028DPPC   C4B42969   8.257   2.776  27.328  0.4258 -0.2062  0.0471
36029DPPC   NC342970   9.982   5.645  29.398 -0.0891  0.1172  0.1912
36029DPPC   PO442971   9.858   6.034  29.423  0.3771 -0.2945 -0.4194
36029DPPC   GL142972   9.785   6.165  28.971 -0.2549  0.2468 -0.3327
36029DPPC   GL242973   9.971   6.068  28.845 -0.0325  0.0165  0.1808
36029DPPC   C1A42974   9.692   6.482  28.789 -0.1147 -0.1502 -0.2156
36029DPPC   C2A42975   9.887   6.841  28.582 -0.4680 -0.1749  0.3057
36029DPPC   C3A42976  10.138   6.997  28.247  0.2278 -0.1385  0.0947
36029DPPC   C4A42977  10.487   7.187  28.041  0.0918  0.0345 -0.1223
36029DPPC   C1B42978   9.866   6.049  28.506 -0.4175 -0.0252  0.3940
36029DPPC   C2B42979   9.676   6.151  28.200  0.0250  0.1002  0.2387
36029DPPC   C3B42980   9.415   6.217  27.806 -0.1901 -0.0635  0.0908
36029DPPC   C4B42981   9.177   6.248  27.336 -0.1776 -0.2284  0.0251
36030DPPC   NC342982   8.297   3.888  29.661  0.0126  0.0662 -0.3272
36030DPPC   PO442983   8.164   3.574  29.466  0.0291 -0.1808 -0.2081
36030DPPC   GL142984   8.171   3.418  29.111  0.0875  0.1321  0.2106
36030DPPC   GL242985   8.359   3.620  29.037 -0.0307 -0.0527 -0.0837
36030DPPC   C1A42986   8.186   3.092  28.898 -0.2206  0.0208 -0.1876
36030DPPC   C2A42987   8.087   2.754  28.710  0.4443  0.2668  0.4519
36030DPPC   C3A42988   8.456   2.485  28.623  0.0198 -0.0369 -0.0548
36030DPPC   C4A42989   8.876   2.453  28.381  0.0940  0.0220  0.1233
36030DPPC   C1B42990   8.617   3.774  28.769 -0.0085 -0.2523  0.2964
36030DPPC   C2B42991   8.836   3.570  28.476  0.2394  0.0718 -0.0211
36030DPPC   C3B42992   9.174   3.386  28.112  0.0228 -0.0547  0.0419
36030DPPC   C4B42993   9.481   3.251  27.730 -0.1085 -0.0003 -0.1193
36031DPPC   NC342994  14.900   5.589  26.246  0.1732  0.0662  0.0451
36031DPPC   PO442995  15.100   5.728  25.947 -0.2943  0.1617  0.1901
36031DPPC   GL142996  15.012   5.792  25.541 -0.1082 -0.1364  0.0224
36031DPPC   GL242997  15.195   6.090  25.476  0.2574  0.0236 -0.3470
36031DPPC   C1A42998  14.874   5.737  25.221 -0.0543  0.3006  0.1794
36031DPPC   C2A42999  14.564   5.681  24.886 -0.1107 -0.0659 -0.4105
36031DPPC   C3A43000  14.252   5.686  24.551 -0.1404  0.0273 -0.1290
36031DPPC   C4A43001  13.906   5.669  24.184 -0.1132 -0.1992 -0.0623
36031DPPC   C1B43002  14.875   6.173  25.295 -0.3101 -0.1424 -0.1805
36031DPPC   C2B43003  14.590   6.241  25.043 -0.2670 -0.2475  0.4998
36031DPPC   C3B43004  14.282   6.267  24.693  0.0482 -0.0726  0.3057
36031DPPC   C4B43005  13.944   6.214  24.368  0.4786 -0.3363 -0.1390
36032DPPC   NC343006   7.402   6.114  29.270  0.1452  0.0819 -0.1859
36032DPPC   PO443007   7.585   6.487  29.315 -0.4237  0.0812  0.0705
36032DPPC   GL143008   7.678   6.642  29.005  0.2785  0.0806  0.2658
36032DPPC   GL243009   7.427   6.774  28.979  0.5273  0.2302  0.0444
36032DPPC   C1A43010   7.754   6.698  28.640  0.0869 -0.1921  0.0637
36032DPPC   C2A43011   7.855   6.733  28.235 -0.0240  0.0997  0.1328
36032DPPC   C3A43012   8.117   6.776  27.839 -0.3077  0.3056 -0.0444
36032DPPC   C4A43013   8.501   6.832  27.524 -0.2226  0.0442 -0.1938
36032DPPC   C1B43014   7.511   7.093  28.804 -0.1598  0.2255 -0.2183
36032DPPC   C2B43015   7.532   7.223  28.456  0.1830  0.2462 -0.1292
36032DPPC   C3B43016   7.884   7.221  28.128 -0.2813  0.1744  0.0734
36032DPPC   C4B43017   8.169   7.281  27.764  0.2291  0.0087  0.1716
36033DPPC   NC343018  16.262   0.034  24.780  0.0448  0.1315 -0.0029
36033DPPC   PO443019  16.085  -0.089  25.131 -0.1368  0.0457 -0.0352
36033DPPC   GL143020  15.685  -0.030  24.974 -0.1728 -0.2087 -0.0198
36033DPPC   GL243021  15.787  -0.106  24.705 -0.4768 -0.2516 -0.0139
36033DPPC   C1A43022  15.403   0.196  25.023  0.1215  0.3238 -0.1884
36033DPPC   C2A43023  15.008   0.383  24.884  0.1087 -0.1533  0.0455
36033DPPC   C3A43024  14.620   0.409  24.530  0.0839  0.3799 -0.2115
36033DPPC   C4A43025  14.252   0.373  24.184  0.0772 -0.0655 -0.1630
36033DPPC   C1B43026  15.574  -0.056  24.444  0.0861 -0.1993 -0.0674
36033DPPC   C2B43027  15.440  -0.001  24.089  0.2275 -0.0225 -0.1032
36033DPPC   C3B43028  15.072   0.074  23.740 -0.0006  0.3399 -0.1401
36033DPPC   C4B43029  14.752   0.074  23.349 -0.1424 -0.3185  0.0995
36034DPPC   NC343030  13.749   1.314  27.983 -0.0539 -0.1541 -0.1115
36034DPPC   PO443031  13.686   1.566  27.645 -0.0212  0.0026 -0.0791
36034DPPC   GL143032  13.547   1.544  27.253 -0.0156 -0.0514  0.1725
36034DPPC   GL243033  13.724   1.790  27.209  0.1729 -0.2074 -0.0183
36034DPPC   C1A43034  13.529   1.268  26.988 -0.0047  0.2223  0.1033
36034DPPC   C2A43035  13.458   0.966  26.688 -0.2293 -0.2231  0.1410
36034DPPC   C3A43036  13.128   0.825  26.359 -0.2910  0.0717 -0.2153
36034DPPC   C4A43037  12.872   0.802  26.010  0.3032 -0.0099  0.2610
36034DPPC   C1B43038  13.671   1.832  26.813  0.0726 -0.3470 -0.1965
36034DPPC   C2B43039  13.525   1.655  26.455 -0.0281 -0.2858  0.0545
36034DPPC   C3B43040  13.305   1.614  25.943 -0.0042 -0.0119  0.2293
36034DPPC   C4B43041  12.967   1.567  25.599 -0.1789 -0.1348 -0.1891
36035DPPC   NC343042   7.483   1.558  29.436 -0.2861  0.3795  0.0650
36035DPPC   PO443043   7.692   1.240  29.333 -0.3604 -0.0308  0.1055
36035DPPC   GL143044   7.815   1.121  28.972 -0.4221  0.0575 -0.1039
36035DPPC   GL243045   7.909   0.837  29.093 -0.1402 -0.2334  0.1697
36035DPPC   C1A43046   7.865   1.371  28.740 -0.0827 -0.2897  0.1900
36035DPPC   C2A43047   8.064   1.572  28.407  0.1675  0.0256 -0.3785
36035DPPC   C3A43048   8.477   1.659  28.260  0.1319 -0.0412 -0.4276
36035DPPC   C4A43049   8.898   1.959  28.105 -0.0975  0.1347  0.1631
36035DPPC   C1B43050   8.254   0.740  28.962  0.0513  0.1609  0.0354
36035DPPC   C2B43051   8.596   0.718  28.770  0.2216  0.1026 -0.0988
36035DPPC   C3B43052   8.850   0.460  28.446 -0.0642 -0.0960  0.0869
36035DPPC   C4B43053   8.891   0.027  28.233  0.0962  0.2176  0.2143
36036DPPC   NC343054   7.062   0.207  29.546 -0.1437 -0.2095 -0.1712
36036DPPC   PO443055   7.081  -0.063  29.259  0.2034 -0.3169  0.0248
36036DPPC   GL143056   7.205  -0.189  28.877  0.0331  0.2191 -0.3614
36036DPPC   GL243057   6.958  -0.220  28.752  0.1310  0.1174 -0.3181
36036DPPC   C1A43058   7.453  -0.155  28.692 -0.0696  0.0597 -0.1637
36036DPPC   C2A43059   7.719  -0.279  28.411 -0.1827  0.0615 -0.0419
36036DPPC   C3A43060   8.089  -0.358  28.103 -0.0230 -0.0681  0.0228
36036DPPC   C4A43061   8.374  -0.409  27.692  0.2753 -0.1713 -0.1556
36036DPPC   C1B43062   6.961  -0.482  28.489 -0.0921  0.2476 -0.1464
36036DPPC   C2B43063   7.322  -0.549  28.343 -0.1521  0.1136 -0.2064
36036DPPC   C3B43064   7.634  -0.615  27.947 -0.0254 -0.3276 -0.0563
36036DPPC   C4B43065   7.968  -0.636  27.536 -0.0942  0.1030 -0.1199
36037DPPC   NC343066  15.577   2.068  25.476  0.2502 -0.2083  0.0636
36037DPPC   PO443067  15.545   2.376  25.224 -0.2188 -0.1023 -0.0610
36037DPPC   GL143068  15.350   2.466  24.939 -0.1721  0.2582  0.1132
36037DPPC   GL243069  15.582   2.389  24.659  0.0465 -0.2934 -0.0301
36037DPPC   C1A43070  15.101   2.231  24.831 -0.1093 -0.3056  0.2107
36037DPPC   C2A43071  14.786   2.222  24.508  0.0950  0.0084 -0.3313
36037DPPC   C3A43072  14.522   2.229  24.110  0.0749  0.0895 -0.1043
36037DPPC   C4A43073  14.177   2.220  23.741 -0.2386  0.0194  0.2936
36037DPPC   C1B43074  15.250   2.495  24.474 -0.1478 -0.2509  0.0950
36037DPPC   C2B43075  14.993   2.501  24.167  0.0578  0.0239  0.0641
36037DPPC   C3B43076  14.746   2.537  23.711 -0.2019  0.0214  0.1793
36037DPPC   C4B43077  14.373   2.536  23.380  0.1103  0.1380 -0.2497
36038DPPC   NC343078  14.217   5.535  26.850  0.1889 -0.1686  0.4862
36038DPPC   PO443079  13.935   5.474  27.143  0.1614  0.0804 -0.4280
36038DPPC   GL143080  13.752   5.422  26.804  0.1750  0.1090  0.1239
36038DPPC   GL243081  13.760   5.742  26.765  0.3756 -0.3348  0.2749
36038DPPC   C1A43082  13.530   5.457  26.533  0.1134  0.0761 -0.0392
36038DPPC   C2A43083  13.366   5.444  26.139 -0.0691 -0.0171 -0.0357
36038DPPC   C3A43084  13.028   5.488  25.787 -0.3553 -0.0749 -0.4535
36038DPPC   C4A43085  12.704   5.490  25.408  0.0969  0.1142  0.0685
36038DPPC   C1B43086  13.691   5.950  26.444  0.2265 -0.0505  0.1808
36038DPPC   C2B43087  13.682   6.215  26.140 -0.0662  0.2582  0.2064
36038DPPC   C3B43088  13.514   6.240  25.702  0.2160  0.2244 -0.1618
36038DPPC   C4B43089  13.168   6.218  25.321  0.0452  0.0792 -0.0782
36039DPPC   NC343090   8.269   3.073  29.434  0.0801  0.1415 -0.2575
36039DPPC   PO443091   7.925   2.847  29.371  0.1351 -0.0042  0.1967
36039DPPC   GL143092   7.943   2.468  29.145 -0.2794 -0.0042 -0.0833
36039DPPC   GL243093   7.771   2.301  29.032 -0.2045  0.4526  0.1732
36039DPPC   C1A43094   8.259   2.481  28.998  0.0141  0.1413  0.0912
36039DPPC   C2A43095   8.527   2.783  29.005 -0.1448  0.0990  0.1966
36039DPPC   C3A43096   8.620   3.279  29.042 -0.0044 -0.3386  0.1106
36039DPPC   C4A43097   8.967   3.569  28.958 -0.0638 -0.1990  0.4769
36039DPPC   C1B43098   7.892   2.268  28.709 -0.0523 -0.2687 -0.0734
36039DPPC   C2B43099   8.083   2.136  28.370  0.1276 -0.0669 -0.1743
36039DPPC   C3B43100   8.351   2.145  28.034 -0.3365 -0.1706 -0.0310
36039DPPC   C4B43101   8.614   2.217  27.591  0.2971 -0.0950  0.0572
36040DPPC   NC343102  15.389   3.301  24.980 -0.1254 -0.1341 -0.1565
36040DPPC   PO443103  15.247   3.103  25.284  0.1660 -0.0598 -0.0687
36040DPPC   GL143104  14.839   3.049  25.324 -0.2967 -0.1608  0.2019
36040DPPC   GL243105  14.814   3.321  25.507  0.0842  0.5743 -0.2512
36040DPPC   C1A43106  14.602   2.946  25.040  0.0513  0.0896 -0.0632
36040DPPC   C2A43107  14.368   2.912  24.694 -0.2502  0.1445 -0.0705
36040DPPC   C3A43108  14.052   2.855  24.351 -0.0947 -0.0030 -0.1592
36040DPPC   C4A43109  13.808   2.855  23.956  0.1171 -0.0657 -0.0282
36040DPPC   C1B43110  14.672   3.386  25.214  0.1534 -0.0797  0.1125
36040DPPC   C2B43111  14.440   3.385  24.905  0.0182  0.1022  0.0167
36040DPPC   C3B43112  14.158   3.354  24.524  0.0883  0.0176  0.0604
36040DPPC   C4B43113  13.878   3.329  24.096  0.0209  0.0336  0.1173
36041DPPC   NC343114  10.720   0.401  28.673  0.1094 -0.0304 -0.2271
36041DPPC   PO443115  10.559   0.105  28.878 -0.1627 -0.0053  0.0804
36041DPPC   GL143116  10.320  -0.201  28.541  0.1620 -0.3721 -0.3018
36041DPPC   GL243117  10.598  -0.084  28.481  0.0278 -0.2135  0.0118
36041DPPC   C1A43118  10.068  -0.209  28.243  0.0538 -0.1191 -0.3563
36041DPPC   C2A43119   9.941  -0.162  27.886 -0.0517  0.1137  0.4143
36041DPPC   C3A43120   9.620  -0.037  27.535 -0.1967 -0.0974  0.2018
36041DPPC   C4A43121   9.686   0.091  27.068  0.2116  0.1227 -0.1343
36041DPPC   C1B43122  10.521   0.149  28.194 -0.0812 -0.1949  0.1818
36041DPPC   C2B43123  10.326   0.145  27.842 -0.0060 -0.0583 -0.2432
36041DPPC   C3B43124  10.157   0.187  27.413  0.5319 -0.1575 -0.1111
36041DPPC   C4B43125  10.096   0.272  26.907  0.3179 -0.3830 -0.2091
36042DPPC   NC343126   8.164   4.418  29.098 -0.0768  0.1800  0.3463
36042DPPC   PO443127   8.442   4.234  29.303 -0.0511  0.1788 -0.1208
36042DPPC   GL143128   8.844   4.302  29.185 -0.5467 -0.0705  0.2444
36042DPPC   GL243129   8.824   4.635  29.256 -0.1430  0.0084  0.1131
36042DPPC   C1A43130   8.828   4.323  28.813 -0.5208 -0.1652  0.1099
36042DPPC   C2A43131   8.897   4.372  28.436  0.1338  0.1294  0.0460
36042DPPC   C3A43132   9.025   4.659  28.132 -0.2928 -0.1301  0.0487
36042DPPC   C4A43133   9.112   5.041  27.805 -0.4112  0.1564  0.1852
36042DPPC   C1B43134   9.160   4.602  29.083  0.0723  0.2293 -0.0672
36042DPPC   C2B43135   9.335   4.448  28.763 -0.0126  0.2697 -0.1525
36042DPPC   C3B43136   9.516   4.263  28.375  0.0543  0.1595 -0.0366
36042DPPC   C4B43137   9.340   4.250  27.856 -0.1062  0.0596 -0.2306
36043DPPC   NC343138  14.247   2.333  27.253 -0.0655  0.1481  0.1401
36043DPPC   PO443139  14.226   1.943  27.182 -0.0916  0.0004  0.1032
36043DPPC   GL143140  14.294   1.988  26.723 -0.1424 -0.2452 -0.0533
36043DPPC   GL243141  14.074   1.738  26.693  0.0060 -0.3347 -0.2721
36043DPPC   C1A43142  14.248   2.197  26.409 -0.0330  0.1576  0.0099
36043DPPC   C2A43143  14.179   2.282  26.041 -0.0820 -0.2110 -0.0285
36043DPPC   C3A43144  13.924   2.235  25.646  0.2095  0.0807  0.0861
36043DPPC   C4A43145  13.682   2.215  25.154 -0.5097 -0.0879  0.0763
36043DPPC   C1B43146  13.908   1.817  26.358 -0.1500  0.0140 -0.4037
36043DPPC   C2B43147  13.718   1.901  25.975  0.0037  0.1921  0.2174
36043DPPC   C3B43148  13.481   1.954  25.554 -0.1433 -0.3279 -0.0464
36043DPPC   C4B43149  13.188   1.930  25.175  0.1897 -0.3686  0.2975
36044DPPC   NC343150  15.307   2.224  26.418  0.0144 -0.0107 -0.1031
36044DPPC   PO443151  15.062   1.980  26.198 -0.3599 -0.1025  0.2344
36044DPPC   GL143152  14.852   1.665  26.279 -0.1942 -0.0969 -0.3996
36044DPPC   GL243153  14.628   1.763  26.464  0.2475 -0.1845 -0.0803
36044DPPC   C1A43154  14.689   1.544  25.958  0.1447 -0.0647  0.2435
36044DPPC   C2A43155  14.386   1.410  25.718 -0.2361  0.0392 -0.2665
36044DPPC   C3A43156  14.062   1.303  25.370  0.0668 -0.0959 -0.2126
36044DPPC   C4A43157  13.792   1.277  25.027 -0.2274 -0.0899 -0.1069
36044DPPC   C1B43158  14.414   1.780  26.188 -0.3507  0.0554 -0.2498
36044DPPC   C2B43159  14.196   1.828  25.828  0.1764  0.0208 -0.0511
36044DPPC   C3B43160  13.966   1.800  25.375  0.0968  0.3068  0.1972
36044DPPC   C4B43161  13.666   1.776  24.957  0.0554 -0.0060 -0.0970
36045DPPC   NC343162  13.615   6.418  27.897  0.2478  0.2302 -0.0398
36045DPPC   PO443163  13.776   6.178  27.625 -0.0308  0.0154  0.1582
36045DPPC   GL143164  13.616   6.226  27.246 -0.0608 -0.0327 -0.3479
36045DPPC   GL243165  13.593   5.974  27.125  0.1997 -0.4994 -0.0764
36045DPPC   C1A43166  13.528   6.442  26.928  0.0545  0.1723  0.0510
36045DPPC   C2A43167  13.496   6.484  26.530  0.2594  0.0767 -0.0745
36045DPPC   C3A43168  13.208   6.444  26.173 -0.0932 -0.2782 -0.2853
36045DPPC   C4A43169  12.882   6.448  25.857 -0.0447 -0.0484  0.0382
36045DPPC   C1B43170  13.375   6.021  26.850  0.0229  0.1444  0.0294
36045DPPC   C2B43171  13.198   5.949  26.482  0.1475  0.2283 -0.0902
36045DPPC   C3B43172  13.128   5.910  25.991  0.1497 -0.0906 -0.3575
36045DPPC   C4B43173  12.841   5.965  25.633  0.0120  0.1277 -0.1313
36046DPPC   NC343174  14.137   1.594  27.470 -0.2076 -0.3345  0.0428
36046DPPC   PO443175  14.274   1.272  27.271 -0.0985  0.2626 -0.3062
36046DPPC   GL143176  14.005   0.936  27.070 -0.0871 -0.3134  0.0053
36046DPPC   GL243177  14.057   1.119  26.789  0.0947  0.3652 -0.2888
36046DPPC   C1A43178  13.789   0.672  26.868  0.0995 -0.2619  0.0508
36046DPPC   C2A43179  13.646   0.344  26.674  0.0368  0.2056  0.0322
36046DPPC   C3A43180  13.297   0.336  26.387 -0.4839  0.0694 -0.0192
36046DPPC   C4A43181  13.020   0.281  26.004  0.0616 -0.1601 -0.0771
36046DPPC   C1B43182  13.826   1.191  26.494 -0.6499  0.0512  0.0921
36046DPPC   C2B43183  13.552   1.143  26.186 -0.1050 -0.1729 -0.4423
36046DPPC   C3B43184  13.248   1.154  25.810 -0.2342  0.0475  0.3404
36046DPPC   C4B43185  12.957   1.084  25.422  0.2587 -0.1010  0.3640
36047DPPC   NC343186  12.407   0.125  28.062 -0.0498 -0.2595 -0.0816
36047DPPC   PO443187  12.535   0.528  27.997 -0.0367  0.2776  0.4117
36047DPPC   GL143188  12.488   0.690  27.588  0.0906  0.3572  0.0283
36047DPPC   GL243189  12.774   0.679  27.499 -0.2559 -0.0497 -0.0795
36047DPPC   C1A43190  12.574   1.034  27.382  0.1198 -0.1103 -0.2444
36047DPPC   C2A43191  12.630   1.429  27.221 -0.1355 -0.0109 -0.1782
36047DPPC   C3A43192  12.774   1.817  27.016 -0.1776  0.1279  0.1137
36047DPPC   C4A43193  12.823   2.259  26.894 -0.1789  0.1602 -0.2540
36047DPPC   C1B43194  12.721   0.574  27.137  0.0866 -0.0211 -0.0052
36047DPPC   C2B43195  12.547   0.198  27.003 -0.0692 -0.3587 -0.1742
36047DPPC   C3B43196  12.478  -0.188  26.764 -0.2169 -0.0072 -0.1508
36047DPPC   C4B43197  12.604  -0.380  26.281  0.1022 -0.0762 -0.0229
36048DPPC   NC343198  14.016   5.926  27.267 -0.2606 -0.1786 -0.1066
36048DPPC   PO443199  14.346   6.050  27.080 -0.1258  0.2302  0.1118
36048DPPC   GL143200  14.204   6.023  26.671  0.2519 -0.3268  0.5332
36048DPPC   GL243201  13.938   6.146  26.752 -0.2214  0.2056 -0.1952
36048DPPC   C1A43202  14.249   6.050  26.310 -0.2956  0.1216  0.0739
36048DPPC   C2A43203  14.274   6.127  25.911 -0.2477 -0.1864 -0.4118
36048DPPC   C3A43204  14.024   6.110  25.595 -0.2249  0.1345  0.3623
36048DPPC   C4A43205  13.625   6.077  25.169 -0.1153 -0.1470 -0.0574
36048DPPC   C1B43206  13.957   6.410  26.473  0.0943 -0.1553 -0.0648
36048DPPC   C2B43207  13.835   6.684  26.207 -0.2601 -0.0149 -0.2208
36048DPPC   C3B43208  13.534   6.797  25.860 -0.1241 -0.0954 -0.4110
36048DPPC   C4B43209  13.142   6.703  25.509 -0.0816  0.3815  0.2036
36049DPPC   NC343210   9.428   6.336  29.152 -0.0417 -0.2459 -0.2094
36049DPPC   PO443211   9.269   6.726  29.222  0.2463  0.3804  0.1953
36049DPPC   GL143212   8.930   6.824  28.971  0.0277  0.0067 -0.3824
36049DPPC   GL243213   9.007   7.140  28.995 -0.3299  0.0890  0.1425
36049DPPC   C1A43214   8.781   6.652  28.701  0.1024  0.1296  0.1277
36049DPPC   C2A43215   8.807   6.217  28.584 -0.3128 -0.1883  0.2555
36049DPPC   C3A43216   8.860   5.784  28.531 -0.2092  0.0220  0.2415
36049DPPC   C4A43217   9.058   5.444  28.755 -0.4515 -0.5790 -0.0778
36049DPPC   C1B43218   9.202   7.347  28.746 -0.1085  0.0376 -0.1722
36049DPPC   C2B43219   9.385   7.655  28.450 -0.0508  0.1259  0.0256
36049DPPC   C3B43220   9.486   7.988  28.088  0.0724  0.0540  0.1256
36049DPPC   C4B43221   9.465   8.433  27.844  0.4014  0.2378 -0.3145
36050DPPC   NC343222  15.239   3.446  25.807 -0.4702  0.0554 -0.3061
36050DPPC   PO443223  14.873   3.401  25.972  0.2495  0.0832  0.0510
36050DPPC   GL143224  14.491   3.366  25.790 -0.1897 -0.0305 -0.0497
36050DPPC   GL243225  14.647   3.033  25.774  0.1807  0.1588  0.1435
36050DPPC   C1A43226  14.293   3.499  25.486 -0.3529  0.0677 -0.2657
36050DPPC   C2A43227  14.004   3.565  25.208 -0.1450  0.1977  0.4237
36050DPPC   C3A43228  13.743   3.587  24.774  0.1737 -0.0919 -0.2077
36050DPPC   C4A43229  13.483   3.629  24.333  0.1172 -0.0195 -0.2565
36050DPPC   C1B43230  14.423   2.995  25.478 -0.1305  0.0011 -0.0295
36050DPPC   C2B43231  14.156   3.072  25.238 -0.3353  0.1419  0.3213
36050DPPC   C3B43232  13.843   3.101  24.868 -0.0104  0.0111  0.1557
36050DPPC   C4B43233  13.530   3.093  24.464  0.2879 -0.0489 -0.0540
36051DPPC   NC343234  14.779   2.924  26.230 -0.3569 -0.1636 -0.1098
36051DPPC   PO443235  14.918   2.575  26.387  0.1364 -0.0544 -0.0588
36051DPPC   GL143236  14.546   2.475  26.294 -0.1011  0.2187  0.2194
36051DPPC   GL243237  14.628   2.173  26.204 -0.1278  0.1124 -0.0683
36051DPPC   C1A43238  14.467   2.625  25.971  0.2710 -0.1674 -0.0577
36051DPPC   C2A43239  14.113   2.692  25.738  0.2522 -0.2924 -0.0519
36051DPPC   C3A43240  13.829   2.737  25.380  0.0211 -0.2818 -0.0907
36051DPPC   C4A43241  13.468   2.693  25.025 -0.2334  0.1418 -0.1177
36051DPPC   C1B43242  14.516   2.130  25.804  0.1756  0.1825  0.1799
36051DPPC   C2B43243  14.357   2.122  25.411 -0.0202 -0.2722  0.0524
36051DPPC   C3B43244  14.166   2.098  24.960  0.2652 -0.0995  0.1010
36051DPPC   C4B43245  13.850   2.096  24.607 -0.2142 -0.2009 -0.6596
36052DPPC   NC343246  13.690   3.038  27.587 -0.1138  0.0793  0.1552
36052DPPC   PO443247  13.664   3.391  27.378 -0.4111 -0.2063 -0.3395
36052DPPC   GL143248  13.610   3.273  26.990 -0.0001 -0.0085  0.0771
36052DPPC   GL243249  13.627   3.002  27.090 -0.0810 -0.3245 -0.0717
36052DPPC   C1A43250  13.591   3.288  26.607 -0.2496  0.0315 -0.1894
36052DPPC   C2A43251  13.608   3.354  26.230  0.0302  0.1089 -0.0152
36052DPPC   C3A43252  13.407   3.349  25.803  0.2151 -0.1949 -0.1087
36052DPPC   C4A43253  13.182   3.387  25.331  0.0677  0.2668 -0.1092
36052DPPC   C1B43254  13.472   2.739  26.909  0.0195  0.0431 -0.2328
36052DPPC   C2B43255  13.337   2.380  26.802 -0.1298 -0.4926  0.0361
36052DPPC   C3B43256  13.022   2.035  26.544 -0.1486  0.3485  0.2704
36052DPPC   C4B43257  12.781   1.800  26.113  0.0658 -0.0307  0.3523
36053DPPC   NC343258  14.396   4.795  26.360  0.1809  0.0093  0.2150
36053DPPC   PO443259  14.517   4.410  26.324  0.0347 -0.1407  0.2787
36053DPPC   GL143260  14.293   4.411  25.960  0.1074 -0.0425 -0.1125
36053DPPC   GL243261  14.543   4.345  25.824  0.2294 -0.0597  0.1235
36053DPPC   C1A43262  13.939   4.339  25.851 -0.1390 -0.0345 -0.0920
36053DPPC   C2A43263  13.604   4.221  25.640 -0.1783  0.0548 -0.1370
36053DPPC   C3A43264  13.290   4.221  25.278  0.1720  0.0040  0.3682
36053DPPC   C4A43265  12.990   4.207  24.854  0.2579  0.1118  0.2691
36053DPPC   C1B43266  14.558   4.075  25.514  0.1381 -0.2717  0.2248
36053DPPC   C2B43267  14.452   3.870  25.148 -0.1339 -0.0198 -0.0187
36053DPPC   C3B43268  14.149   3.821  24.769 -0.1396 -0.2054 -0.1597
36053DPPC   C4B43269  13.903   3.916  24.382 -0.2028 -0.1478  0.1307
36054DPPC   NC343270  12.717   3.179  27.593  0.1478 -0.2372  0.1010
36054DPPC   PO443271  12.388   3.001  27.675 -0.2617  0.2895  0.0687
36054DPPC   GL143272  12.304   2.963  27.329  0.0370  0.1382 -0.0631
36054DPPC   GL243273  12.403   3.263  27.188  0.1684  0.0338 -0.0740
36054DPPC   C1A43274  12.154   2.788  27.051  0.2450  0.1494  0.1046
36054DPPC   C2A43275  12.014   2.747  26.688 -0.0798 -0.0132 -0.1206
36054DPPC   C3A43276  11.791   2.697  26.286  0.1067 -0.3226 -0.0275
36054DPPC   C4A43277  11.490   2.745  25.949  0.3347  0.1424 -0.0097
36054DPPC   C1B43278  12.335   3.585  27.027 -0.0267  0.0865  0.2724
36054DPPC   C2B43279  12.473   3.947  26.807  0.0849  0.1304  0.0135
36054DPPC   C3B43280  12.632   4.390  26.865  0.1749  0.0403  0.1417
36054DPPC   C4B43281  12.754   4.802  26.965  0.0213 -0.3120 -0.2244
36055DPPC   NC343282  15.174   0.925  26.561 -0.0641  0.0391 -0.0527
36055DPPC   PO443283  14.821   0.759  26.661 -0.1344 -0.1714 -0.0800
36055DPPC   GL143284  14.633   0.682  26.302  0.1674 -0.0440  0.2617
36055DPPC   GL243285  14.480   0.480  26.444 -0.2631 -0.5597 -0.0267
36055DPPC   C1A43286  14.497   0.693  25.948 -0.1429 -0.0468  0.0274
36055DPPC   C2A43287  14.340   0.921  25.593  0.1977  0.1987 -0.1223
36055DPPC   C3A43288  13.990   0.800  25.225  0.2812  0.1148  0.0560
36055DPPC   C4A43289  13.645   0.834  24.920 -0.0119 -0.2535 -0.4334
36055DPPC   C1B43290  14.266   0.418  26.177 -0.0030  0.0198  0.0179
36055DPPC   C2B43291  13.994   0.441  25.865 -0.0346 -0.0008 -0.3019
36055DPPC   C3B43292  13.718   0.510  25.500 -0.1988  0.0250  0.0485
36055DPPC   C4B43293  13.384   0.462  25.155  0.2853  0.1609  0.2528
36056DPPC   NC343294   8.552   1.984  29.569 -0.0606  0.2446  0.0685
36056DPPC   PO443295   8.533   1.578  29.474  0.3467  0.0973 -0.1013
36056DPPC   GL143296   8.346   1.591  29.091  0.1452  0.1606 -0.1070
36056DPPC   GL243297   8.151   1.381  29.242 -0.1238  0.0524 -0.1857
36056DPPC   C1A43298   8.404   1.556  28.735 -0.1844  0.0521 -0.4236
36056DPPC   C2A43299   8.658   1.282  28.572  0.2201 -0.2028 -0.0435
36056DPPC   C3A43300   8.909   0.933  28.357 -0.2419 -0.1974 -0.1545
36056DPPC   C4A43301   9.215   0.950  27.945 -0.0298  0.1824 -0.0770
36056DPPC   C1B43302   8.267   1.147  28.956  0.3948  0.2316  0.3176
36056DPPC   C2B43303   8.164   1.095  28.524 -0.1549 -0.0162 -0.1489
36056DPPC   C3B43304   8.472   1.111  28.113  0.1875 -0.1018  0.1958
36056DPPC   C4B43305   8.674   0.742  27.805  0.3001  0.1440  0.1487
36057DPPC   NC343306   6.140   0.387  29.083 -0.1806 -0.2104 -0.0548
36057DPPC   PO443307   6.168   0.279  28.701 -0.1696 -0.3219 -0.2445
36057DPPC   GL143308   6.312   0.276  28.320  0.3709 -0.0356 -0.1320
36057DPPC   GL243309   6.170   0.540  28.164  0.1003  0.1591 -0.1044
36057DPPC   C1A43310   6.575   0.224  28.105 -0.0566  0.2016 -0.0172
36057DPPC   C2A43311   6.916   0.136  27.893  0.0489  0.0129 -0.1727
36057DPPC   C3A43312   7.234   0.062  27.551 -0.0578  0.0152  0.1013
36057DPPC   C4A43313   7.583   0.045  27.201 -0.0382  0.1589 -0.1780
36057DPPC   C1B43314   6.347   0.590  27.820 -0.0219  0.0191  0.0590
36057DPPC   C2B43315   6.632   0.701  27.528  0.2487 -0.2136  0.3169
36057DPPC   C3B43316   6.923   0.768  27.175 -0.2189 -0.4216  0.0879
36057DPPC   C4B43317   7.326   0.807  26.859 -0.0972  0.1638  0.2534
36058DPPC   NC343318  10.454   4.273  28.991  0.0187  0.1244 -0.2381
36058DPPC   PO443319  10.495   3.871  28.982 -0.0431  0.1348 -0.0144
36058DPPC   GL143320  10.133   3.889  28.775  0.1040  0.0808 -0.0031
36058DPPC   GL243321  10.045   4.142  28.752 -0.0799 -0.3291  0.1885
36058DPPC   C1A43322  10.089   3.716  28.441 -0.3038  0.0175 -0.2434
36058DPPC   C2A43323   9.981   3.556  28.084  0.0013 -0.2396  0.1450
36058DPPC   C3A43324   9.805   3.611  27.687  0.1610 -0.0466  0.1087
36058DPPC   C4A43325   9.627   3.638  27.231  0.2201 -0.0239  0.0621
36058DPPC   C1B43326   9.992   4.169  28.393 -0.0337  0.0383  0.1397
36058DPPC   C2B43327   9.809   4.214  27.990 -0.1785  0.3124 -0.0528
36058DPPC   C3B43328   9.692   4.287  27.567 -0.0013  0.3104  0.0185
36058DPPC   C4B43329   9.500   4.196  27.067 -0.1305  0.0438  0.1990
36059DPPC   NC343330  10.472   1.524  29.082  0.1677 -0.2742  0.1146
36059DPPC   PO443331  10.330   1.141  29.093 -0.0895 -0.2459 -0.0212
36059DPPC   GL143332  10.183   1.262  28.657 -0.2797 -0.3352  0.1948
36059DPPC   GL243333  10.113   1.499  28.832  0.2593  0.1856  0.3484
36059DPPC   C1A43334   9.968   1.122  28.383 -0.4063  0.0647 -0.0323
36059DPPC   C2A43335   9.707   0.915  28.060  0.3314  0.1272  0.1042
36059DPPC   C3A43336   9.532   0.713  27.666 -0.1894  0.0241  0.1777
36059DPPC   C4A43337   9.451   0.699  27.145  0.1702  0.0484  0.2539
36059DPPC   C1B43338  10.162   1.745  28.593  0.0122  0.1329 -0.2170
36059DPPC   C2B43339  10.222   2.118  28.434  0.0203 -0.0379 -0.0265
36059DPPC   C3B43340  10.042   2.538  28.546 -0.0905 -0.0501  0.0051
36059DPPC   C4B43341   9.771   2.927  28.791 -0.2784  0.2823 -0.0018
36060DPPC   NC343342  11.364   0.820  28.438  0.0778 -0.0158 -0.0346
36060DPPC   PO443343  10.938   0.811  28.454 -0.0100  0.0221 -0.2779
36060DPPC   GL143344  10.931   0.468  28.246 -0.0301  0.1031 -0.0287
36060DPPC   GL243345  11.188   0.348  28.375 -0.2018  0.2140  0.0935
36060DPPC   C1A43346  10.890   0.345  27.933  0.1677  0.0117  0.3137
36060DPPC   C2A43347  10.740   0.402  27.576  0.0301  0.3920 -0.0996
36060DPPC   C3A43348  10.450   0.495  27.182 -0.0443  0.1378  0.0402
36060DPPC   C4A43349  10.407   0.604  26.695  0.1473 -0.1096  0.3087
36060DPPC   C1B43350  11.300   0.096  28.154  0.1814  0.4204 -0.1253
36060DPPC   C2B43351  11.272  -0.200  27.806  0.2080  0.0311  0.0443
36060DPPC   C3B43352  11.176  -0.262  27.358  0.0698  0.2105 -0.0699
36060DPPC   C4B43353  11.038  -0.181  26.890  0.1390  0.1633  0.0363
36061DPPC   NC343354  12.411   4.898  27.967 -0.0398  0.0911  0.0005
36061DPPC   PO443355  12.516   4.643  27.740  0.0830 -0.0234 -0.0843
36061DPPC   GL143356  12.652   4.759  27.410 -0.0866 -0.1696 -0.1657
36061DPPC   GL243357  12.714   4.505  27.352 -0.1440  0.0850 -0.0329
36061DPPC   C1A43358  12.368   4.737  27.172 -0.0656 -0.0132  0.3124
36061DPPC   C2A43359  12.214   4.650  26.796  0.1689 -0.0674  0.2684
36061DPPC   C3A43360  12.031   4.610  26.449 -0.2889 -0.0407  0.1409
36061DPPC   C4A43361  11.765   4.497  26.080  0.1034  0.2409 -0.0525
36061DPPC   C1B43362  12.581   4.173  27.228 -0.1614  0.0850  0.2093
36061DPPC   C2B43363  12.664   3.778  27.290  0.0713  0.0972 -0.3677
36061DPPC   C3B43364  12.855   3.416  27.012 -0.4151  0.1104 -0.0131
36061DPPC   C4B43365  13.222   3.105  26.782  0.1362 -0.1158 -0.2026
36062DPPC   NC343366  16.259   5.119  24.646  0.1310  0.2492  0.2695
36062DPPC   PO443367  15.915   4.997  24.687 -0.0386 -0.0073  0.1056
36062DPPC   GL143368  15.645   4.877  24.457 -0.3311  0.0435  0.3324
36062DPPC   GL243369  15.762   5.085  24.261 -0.1192 -0.1730 -0.0357
36062DPPC   C1A43370  15.351   4.874  24.275  0.3530  0.2561  0.0553
36062DPPC   C2A43371  15.025   4.820  24.002 -0.2112  0.1134  0.1501
36062DPPC   C3A43372  14.673   4.841  23.700 -0.3020 -0.0701  0.1048
36062DPPC   C4A43373  14.343   4.829  23.262  0.1290  0.0503 -0.0944
36062DPPC   C1B43374  15.628   5.190  23.956 -0.2960  0.2213  0.1435
36062DPPC   C2B43375  15.330   5.138  23.696 -0.0231 -0.3423  0.0080
36062DPPC   C3B43376  14.956   5.104  23.356  0.0130  0.1894 -0.1183
36062DPPC   C4B43377  14.622   5.195  22.964 -0.0518  0.0467 -0.0577
36063DPPC   NC343378  14.948   4.746  26.528  0.1260 -0.0689 -0.2972
36063DPPC   PO443379  14.875   5.112  26.396  0.0313 -0.1227 -0.4805
36063DPPC   GL143380  14.639   5.184  26.089 -0.1431 -0.3111  0.0450
36063DPPC   GL243381  14.804   5.241  25.879  0.0844 -0.0084  0.2404
36063DPPC   C1A43382  14.299   5.320  26.038 -0.0999 -0.0100  0.0453
36063DPPC   C2A43383  13.905   5.275  25.903 -0.0128  0.2853  0.0103
36063DPPC   C3A43384  13.509   5.276  25.640  0.3308 -0.0920 -0.1386
36063DPPC   C4A43385  13.216   5.259  25.330  0.1133 -0.0117  0.2569
36063DPPC   C1B43386  14.758   5.444  25.604  0.3071  0.1511 -0.2535
36063DPPC   C2B43387  14.510   5.424  25.279  0.0558 -0.3272  0.1413
36063DPPC   C3B43388  14.084   5.411  24.937  0.0617 -0.2497  0.2898
36063DPPC   C4B43389  13.749   5.338  24.599 -0.2185  0.0531  0.2800
36064DPPC   NC343390  15.829   5.997  25.045 -0.1893  0.1107 -0.1634
36064DPPC   PO443391  16.083   6.147  24.773 -0.0726 -0.3445 -0.3266
36064DPPC   GL143392  16.092   5.965  24.433  0.1037 -0.1621 -0.0291
36064DPPC   GL243393  15.785   5.943  24.492  0.1598  0.0359  0.0165
36064DPPC   C1A43394  16.017   5.946  24.078 -0.1129  0.1595  0.0624
36064DPPC   C2A43395  15.852   5.951  23.718  0.2332  0.0854  0.1663
36064DPPC   C3A43396  15.512   5.974  23.386 -0.1488 -0.3145 -0.0448
36064DPPC   C4A43397  15.152   5.969  23.051 -0.2258 -0.1011  0.3890
36064DPPC   C1B43398  15.603   6.074  24.213 -0.0829  0.1057 -0.2590
36064DPPC   C2B43399  15.303   6.133  23.972  0.2229  0.2016  0.0527
36064DPPC   C3B43400  15.035   6.134  23.596 -0.1453 -0.3029  0.1503
36064DPPC   C4B43401  14.717   6.149  23.184 -0.1612  0.1654 -0.0867
36065DPPC   NC343402  15.338   4.638  25.620  0.0219 -0.2794 -0.0594
36065DPPC   PO443403  15.064   4.907  25.667 -0.3037  0.2526 -0.1087
36065DPPC   GL143404  14.856   5.050  25.325 -0.1032 -0.4690 -0.1685
36065DPPC   GL243405  14.973   5.316  25.223  0.2732 -0.2532 -0.3216
36065DPPC   C1A43406  14.572   4.959  25.167  0.1668 -0.1516  0.2000
36065DPPC   C2A43407  14.193   4.850  24.973 -0.1046 -0.0684  0.0377
36065DPPC   C3A43408  13.858   4.851  24.596 -0.2528 -0.1066 -0.1166
36065DPPC   C4A43409  13.394   5.004  24.701  0.0821 -0.1767 -0.1719
36065DPPC   C1B43410  14.794   5.277  24.907 -0.0702  0.0265 -0.2102
36065DPPC   C2B43411  14.504   5.174  24.694  0.2405  0.1695  0.0870
36065DPPC   C3B43412  14.175   5.153  24.370  0.0008 -0.2512  0.0378
36065DPPC   C4B43413  13.821   5.194  24.027  0.3015  0.3331 -0.1043
36066DPPC   NC343414   7.188   2.180  29.123 -0.3048 -0.2389  0.1625
36066DPPC   PO443415   7.148   1.787  29.141  0.3657  0.1186  0.0852
36066DPPC   GL143416   6.988   1.780  28.858 -0.1340  0.0694  0.2886
36066DPPC   GL243417   6.869   2.024  28.755 -0.3102 -0.2439  0.2139
36066DPPC   C1A43418   7.154   1.660  28.538 -0.0564 -0.0037  0.3224
36066DPPC   C2A43419   7.254   1.444  28.182  0.1813 -0.1939 -0.2517
36066DPPC   C3A43420   7.572   1.463  27.852 -0.1737  0.3295  0.0243
36066DPPC   C4A43421   7.869   1.471  27.501 -0.0921 -0.2674  0.0672
36066DPPC   C1B43422   6.937   1.984  28.381 -0.0907 -0.1066 -0.3378
36066DPPC   C2B43423   7.222   1.973  28.106 -0.2822  0.1077  0.2566
36066DPPC   C3B43424   7.471   1.964  27.656  0.1658 -0.2124  0.1556
36066DPPC   C4B43425   7.822   2.018  27.271 -0.0565  0.1735  0.3026
36067DPPC   NC343426  14.971   4.467  25.883 -0.0028 -0.1664  0.1534
36067DPPC   PO443427  14.815   4.756  26.060 -0.0384 -0.0254 -0.1929
36067DPPC   GL143428  14.579   4.905  25.768 -0.0751  0.0061 -0.3219
36067DPPC   GL243429  14.685   4.710  25.568 -0.0200 -0.0944 -0.0835
36067DPPC   C1A43430  14.298   5.141  25.634 -0.0157  0.1310  0.0979
36067DPPC   C2A43431  13.983   5.171  25.365 -0.0776 -0.1714  0.1447
36067DPPC   C3A43432  13.616   5.035  25.168 -0.1587 -0.0976  0.1462
36067DPPC   C4A43433  13.189   4.774  25.193  0.1100 -0.1930  0.0130
36067DPPC   C1B43434  14.447   4.503  25.340  0.1127  0.1846  0.2499
36067DPPC   C2B43435  14.359   4.344  24.984  0.1782 -0.0792 -0.2343
36067DPPC   C3B43436  13.966   4.354  24.629 -0.0114  0.1473 -0.0270
36067DPPC   C4B43437  13.629   4.325  24.234  0.0794  0.0966  0.1781
36068DPPC   NC343438   6.599   4.697  29.411 -0.1903 -0.1269 -0.0878
36068DPPC   PO443439   6.366   4.635  29.100 -0.0127 -0.1879  0.1981
36068DPPC   GL143440   6.460   4.419  28.707  0.0401  0.2614 -0.0163
36068DPPC   GL243441   6.299   4.677  28.591  0.0417 -0.0069  0.0665
36068DPPC   C1A43442   6.761   4.321  28.515  0.2835 -0.2277  0.1763
36068DPPC   C2A43443   7.120   4.304  28.300  0.1081 -0.1639 -0.0542
36068DPPC   C3A43444   7.407   4.201  27.985 -0.1185  0.1692  0.3059
36068DPPC   C4A43445   7.718   4.232  27.586  0.0795  0.2078  0.0898
36068DPPC   C1B43446   6.477   4.687  28.263 -0.0085  0.1429 -0.0682
36068DPPC   C2B43447   6.745   4.501  27.993  0.0587  0.0462 -0.2339
36068DPPC   C3B43448   7.035   4.424  27.577  0.3562  0.1469  0.1998
36068DPPC   C4B43449   7.350   4.344  27.204  0.3028 -0.2946 -0.0127
36069DPPC   NC343450  16.124   4.833  25.153  0.0113  0.0259 -0.1632
36069DPPC   PO443451  16.178   4.539  24.918 -0.1965  0.2297  0.0218
36069DPPC   GL143452  15.852   4.534  24.696  0.0258  0.2522 -0.2274
36069DPPC   GL243453  16.024   4.520  24.478  0.4455  0.1441 -0.1543
36069DPPC   C1A43454  15.482   4.411  24.641  0.1275  0.2302  0.2704
36069DPPC   C2A43455  15.084   4.499  24.455  0.0451  0.1560  0.1540
36069DPPC   C3A43456  14.660   4.492  24.099  0.0473  0.1066  0.0804
36069DPPC   C4A43457  14.335   4.549  23.757  0.1485 -0.1467 -0.0231
36069DPPC   C1B43458  15.804   4.571  24.172  0.2259 -0.1820 -0.0704
36069DPPC   C2B43459  15.546   4.658  23.881  0.1254 -0.0554  0.1389
36069DPPC   C3B43460  15.314   4.641  23.530  0.2534  0.2193  0.0938
36069DPPC   C4B43461  14.854   4.651  23.214 -0.6593 -0.1692  0.3193
36070DPPC   NC343462  11.287   1.702  28.720 -0.2027 -0.1935 -0.3134
36070DPPC   PO443463  11.062   1.922  28.526 -0.0230 -0.1660 -0.1308
36070DPPC   GL143464  10.903   2.051  28.135  0.1331  0.1810 -0.0293
36070DPPC   GL243465  10.814   2.327  28.237 -0.0648  0.1509 -0.0311
36070DPPC   C1A43466  10.623   1.839  28.183  0.0047 -0.0837  0.2387
36070DPPC   C2A43467  10.326   1.520  28.233 -0.0712 -0.0773  0.1811
36070DPPC   C3A43468   9.970   1.303  27.962 -0.1897  0.1981 -0.2883
36070DPPC   C4A43469   9.694   1.173  27.608 -0.0881  0.2426 -0.1333
36070DPPC   C1B43470  10.689   2.460  27.842 -0.0254  0.2532 -0.0139
36070DPPC   C2B43471  10.536   2.531  27.477 -0.0617  0.0590 -0.1803
36070DPPC   C3B43472  10.349   2.584  27.040 -0.2974 -0.1055 -0.0826
36070DPPC   C4B43473  10.041   2.565  26.613 -0.0719 -0.3531 -0.2678
36071DPPC   NC343474  11.971   5.124  28.465 -0.2296 -0.2199 -0.0641
36071DPPC   PO443475  12.003   5.140  28.050  0.0623  0.1135  0.1935
36071DPPC   GL143476  11.732   4.916  27.790  0.0341 -0.0421  0.2252
36071DPPC   GL243477  11.586   4.842  28.042  0.2558 -0.2932  0.0272
36071DPPC   C1A43478  11.549   4.880  27.502 -0.1164  0.2389  0.0851
36071DPPC   C2A43479  11.343   4.881  27.177  0.0877 -0.1746 -0.0025
36071DPPC   C3A43480  11.094   4.857  26.839 -0.0831 -0.0368  0.1570
36071DPPC   C4A43481  10.923   4.893  26.369 -0.2076 -0.1285 -0.0304
36071DPPC   C1B43482  11.329   4.741  27.823  0.1604  0.0257 -0.1218
36071DPPC   C2B43483  11.117   4.549  27.516  0.0684  0.2571  0.0077
36071DPPC   C3B43484  10.809   4.563  27.134 -0.0771  0.2314 -0.1167
36071DPPC   C4B43485  10.536   4.571  26.657  0.0043  0.1012  0.0193
36072DPPC   NC343486  14.829   2.741  26.908  0.0029  0.0802  0.1961
36072DPPC   PO443487  14.581   2.886  26.654  0.2816 -0.3761  0.1111
36072DPPC   GL143488  14.239   2.674  26.505  0.2677  0.1187  0.1016
36072DPPC   GL243489  14.158   3.005  26.380  0.1164 -0.0850  0.1411
36072DPPC   C1A43490  13.953   2.523  26.382  0.0445 -0.2946  0.2563
36072DPPC   C2A43491  13.718   2.483  26.044 -0.2072  0.3066 -0.0422
36072DPPC   C3A43492  13.467   2.493  25.579  0.0405  0.2067 -0.4303
36072DPPC   C4A43493  13.097   2.413  25.239 -0.1770 -0.1111 -0.1400
36072DPPC   C1B43494  13.869   3.003  26.085 -0.0645  0.1149  0.0391
36072DPPC   C2B43495  13.619   2.912  25.800  0.2999 -0.2367 -0.2920
36072DPPC   C3B43496  13.302   2.941  25.462  0.1602 -0.0076 -0.0653
36072DPPC   C4B43497  13.009   2.908  25.089  0.0314  0.2390 -0.2193
36073DPPS   CNO43498   6.933   4.681  29.728 -0.1706 -0.1242 -0.1367
36073DPPS   PO443499   7.070   4.386  29.491 -0.1601 -0.0117  0.1699
36073DPPS   GL143500   7.084   4.407  29.181 -0.0606 -0.2408 -0.1816
36073DPPS   GL243501   6.950   4.661  29.055 -0.2174 -0.1979  0.0236
36073DPPS   C1A43502   7.159   4.286  28.916  0.1325 -0.2001  0.1061
36073DPPS   C2A43503   7.411   4.138  28.660 -0.0062 -0.3084 -0.0231
36073DPPS   C3A43504   7.775   4.128  28.330  0.0353  0.3283 -0.3453
36073DPPS   C4A43505   8.086   4.152  27.926  0.0856 -0.0143  0.3819
36073DPPS   C1B43506   7.181   4.707  28.773  0.1992 -0.1160 -0.0378
36073DPPS   C2B43507   7.441   4.623  28.432 -0.0225  0.0402 -0.1540
36073DPPS   C3B43508   7.790   4.558  28.046  0.1532 -0.1444 -0.1302
36073DPPS   C4B43509   8.152   4.609  27.719  0.1371 -0.0530  0.2181
36074DPPS   CNO43510   6.540   0.641  28.836 -0.1326  0.2320  0.1251
36074DPPS   PO443511   6.695   0.941  28.987 -0.0501  0.0749 -0.3410
36074DPPS   GL143512   7.118   0.800  28.756 -0.0372  0.1035  0.0540
36074DPPS   GL243513   6.890   0.863  28.582 -0.2373  0.0453  0.1312
36074DPPS   C1A43514   7.381   1.013  28.679  0.1294 -0.3098 -0.1823
36074DPPS   C2A43515   7.646   1.180  28.349  0.5119 -0.1340 -0.0747
36074DPPS   C3A43516   7.949   1.108  28.001 -0.1701  0.1885  0.1181
36074DPPS   C4A43517   8.278   1.136  27.619 -0.2108 -0.1547 -0.0740
36074DPPS   C1B43518   7.139   0.934  28.276  0.4006  0.6449 -0.2909
36074DPPS   C2B43519   7.408   0.906  27.950 -0.1346  0.2226  0.1854
36074DPPS   C3B43520   7.743   0.851  27.592  0.1057  0.1145 -0.2650
36074DPPS   C4B43521   8.019   0.775  27.218  0.0376 -0.0880  0.3192
36075DPPS   CNO43522   7.761   5.202  29.856  0.1949  0.3403 -0.1595
36075DPPS   PO443523   8.073   5.081  29.627  0.2582  0.0554 -0.1797
36075DPPS   GL143524   8.033   5.030  29.171 -0.2055 -0.0006 -0.1573
36075DPPS   GL243525   8.022   5.329  29.156 -0.0257 -0.1071 -0.0762
36075DPPS   C1A43526   8.214   4.863  28.869  0.3258 -0.1105 -0.3789
36075DPPS   C2A43527   8.609   4.846  28.753  0.0736 -0.0337 -0.1873
36075DPPS   C3A43528   9.090   4.899  28.578  0.0019  0.2060  0.1260
36075DPPS   C4A43529   9.415   5.202  28.381 -0.0536  0.1079  0.3391
36075DPPS   C1B43530   8.182   5.396  28.850 -0.1361 -0.1127 -0.0787
36075DPPS   C2B43531   8.503   5.397  28.591 -0.2168 -0.1061 -0.1800
36075DPPS   C3B43532   8.871   5.278  28.284  0.0221 -0.0750 -0.2278
36075DPPS   C4B43533   9.201   5.549  28.045 -0.0926  0.2507  0.0159
36076DPPS   CNO43534   6.204   5.163  29.201  0.1208  0.0595  0.1254
36076DPPS   PO443535   6.350   5.454  29.012  0.0504  0.1711 -0.0510
36076DPPS   GL143536   6.466   5.355  28.631  0.1213 -0.0634  0.0827
36076DPPS   GL243537   6.217   5.171  28.605  0.3707  0.0121  0.1871
36076DPPS   C1A43538   6.749   5.314  28.316 -0.0364 -0.0234 -0.3256
36076DPPS   C2A43539   7.004   5.261  28.014  0.3423 -0.0311 -0.1640
36076DPPS   C3A43540   7.408   5.203  27.694  0.0196  0.2802 -0.1880
36076DPPS   C4A43541   7.690   5.105  27.308  0.1836 -0.0449  0.1730
36076DPPS   C1B43542   6.350   5.138  28.236  0.0054 -0.2473  0.4632
36076DPPS   C2B43543   6.579   5.030  27.934  0.0278 -0.2008  0.0070
36076DPPS   C3B43544   6.985   4.940  27.623  0.3571 -0.2699 -0.0794
36076DPPS   C4B43545   7.261   4.845  27.230  0.0588 -0.1702  0.0728
36077DPPS   CNO43546  15.033   5.526  26.739 -0.0842 -0.1776  0.0356
36077DPPS   PO443547  14.701   5.444  26.836 -0.0627 -0.0274 -0.0085
36077DPPS   GL143548  14.557   5.422  26.505 -0.1225 -0.1759  0.2988
36077DPPS   GL243549  14.360   5.213  26.524 -0.3687 -0.1097 -0.2980
36077DPPS   C1A43550  14.354   5.623  26.350 -0.0519 -0.0571  0.1588
36077DPPS   C2A43551  13.977   5.707  26.178 -0.2162 -0.0150 -0.2199
36077DPPS   C3A43552  13.664   5.767  25.838  0.0707 -0.1594 -0.2290
36077DPPS   C4A43553  13.350   5.719  25.467 -0.2258 -0.0219 -0.3257
36077DPPS   C1B43554  14.090   5.143  26.332  0.1982  0.2474 -0.1737
36077DPPS   C2B43555  13.698   5.062  26.352  0.1780 -0.0100  0.2852
36077DPPS   C3B43556  13.307   4.964  26.050  0.4437  0.0273 -0.0213
36077DPPS   C4B43557  12.991   4.924  25.662 -0.0757  0.0896  0.1819
36078DPPS   CNO43558  10.241   3.712  29.522  0.0978 -0.3164  0.1853
36078DPPS   PO443559  10.133   3.394  29.297 -0.0139 -0.0223 -0.0554
36078DPPS   GL143560  10.302   3.079  28.949  0.0649 -0.0187  0.2895
36078DPPS   GL243561  10.095   3.344  28.842 -0.2936  0.0715  0.1780
36078DPPS   C1A43562  10.364   3.022  28.595 -0.0479 -0.2224 -0.2147
36078DPPS   C2A43563  10.173   3.070  28.199  0.1550 -0.0400 -0.0248
36078DPPS   C3A43564   9.993   3.117  27.759  0.0512  0.1685 -0.2361
36078DPPS   C4A43565   9.745   3.144  27.338 -0.2275  0.1292  0.1808
36078DPPS   C1B43566   9.909   3.257  28.538 -0.2216  0.0222  0.2246
36078DPPS   C2B43567   9.645   3.044  28.283  0.1198 -0.0368  0.3249
36078DPPS   C3B43568   9.229   2.830  28.093 -0.1830 -0.2327  0.0098
36078DPPS   C4B43569   8.860   2.561  27.903  0.2168  0.1170  0.3118
36079DPPS   CNO43570  14.317   2.819  27.050 -0.0321 -0.0418 -0.1146
36079DPPS   PO443571  13.961   2.726  27.206  0.1599  0.0662  0.2096
36079DPPS   GL143572  13.904   2.677  26.846 -0.1157  0.0213 -0.1127
36079DPPS   GL243573  14.109   2.446  26.810 -0.0977 -0.1176 -0.3970
36079DPPS   C1A43574  13.803   2.871  26.590 -0.3041  0.3380  0.3725
36079DPPS   C2A43575  13.497   2.816  26.374  0.0346  0.0507 -0.1844
36079DPPS   C3A43576  13.181   2.676  26.018  0.4105 -0.1125  0.1146
36079DPPS   C4A43577  12.886   2.587  25.602  0.0181 -0.2940 -0.1582
36079DPPS   C1B43578  13.860   2.200  26.727 -0.1894  0.0929  0.1697
36079DPPS   C2B43579  13.562   2.157  26.431  0.1934 -0.0003 -0.2068
36079DPPS   C3B43580  13.294   2.186  26.018  0.0982 -0.0038 -0.1196
36079DPPS   C4B43581  12.945   2.087  25.659 -0.3166  0.0530  0.0330
36080DPPS   CNO43582  16.323   1.682  25.171  0.2252 -0.0820  0.0223
36080DPPS   PO443583  16.012   1.824  25.346 -0.1465 -0.1078  0.0928
36080DPPS   GL143584  15.803   1.693  24.995 -0.3407 -0.2494  0.2387
36080DPPS   GL243585  15.599   1.919  25.060  0.2659  0.0621 -0.0555
36080DPPS   C1A43586  15.565   1.417  24.836  0.2248 -0.0924  0.2519
36080DPPS   C2A43587  15.239   1.295  24.648 -0.0631 -0.1243 -0.0528
36080DPPS   C3A43588  14.992   1.225  24.251  0.0012  0.0829 -0.3686
36080DPPS   C4A43589  14.579   1.175  23.984 -0.1471  0.1800  0.1856
36080DPPS   C1B43590  15.331   1.850  24.836 -0.0808  0.0988  0.0069
36080DPPS   C2B43591  15.025   1.805  24.546 -0.0612  0.1352 -0.1473
36080DPPS   C3B43592  14.724   1.801  24.245  0.0221  0.2854 -0.2475
36080DPPS   C4B43593  14.328   1.713  23.925 -0.2737  0.0896  0.0549
36081DPPS   CNO43594  15.980   5.726  25.481 -0.0007  0.0254  0.2087
36081DPPS   PO443595  15.571   5.676  25.367  0.0767 -0.1997 -0.0861
36081DPPS   GL143596  15.270   5.890  25.128 -0.0450  0.1014  0.1424
36081DPPS   GL243597  15.207   5.611  25.024 -0.3173  0.2000  0.4017
36081DPPS   C1A43598  15.046   5.964  24.876 -0.1467 -0.1617  0.1239
36081DPPS   C2A43599  14.765   6.037  24.585  0.1557 -0.2437  0.0337
36081DPPS   C3A43600  14.407   6.082  24.192 -0.0782  0.0613 -0.0219
36081DPPS   C4A43601  14.115   6.064  23.786 -0.1438 -0.0649 -0.2337
36081DPPS   C1B43602  15.053   5.519  24.689 -0.0218 -0.0541 -0.0268
36081DPPS   C2B43603  14.746   5.568  24.442  0.0932 -0.1280 -0.1055
36081DPPS   C3B43604  14.428   5.580  24.017 -0.1995 -0.1696 -0.1250
36081DPPS   C4B43605  14.110   5.511  23.679 -0.1578  0.2507 -0.0157
36082DPPS   CNO43606   6.983   2.811  29.424  0.3470  0.2486 -0.2099
36082DPPS   PO443607   6.797   2.462  29.348 -0.0220 -0.0016  0.0076
36082DPPS   GL143608   6.875   2.440  28.899  0.1494 -0.2705 -0.1232
36082DPPS   GL243609   7.109   2.605  28.992 -0.2319  0.0387 -0.0092
36082DPPS   C1A43610   7.117   2.378  28.598 -0.2690  0.0387 -0.1919
36082DPPS   C2A43611   7.458   2.287  28.360  0.1424 -0.3158 -0.0948
36082DPPS   C3A43612   7.760   2.276  27.988  0.0088  0.0080  0.1935
36082DPPS   C4A43613   8.054   2.277  27.604 -0.0998 -0.0839  0.1320
36082DPPS   C1B43614   7.455   2.498  28.805 -0.0351 -0.0854 -0.0889
36082DPPS   C2B43615   7.683   2.636  28.495 -0.1651  0.1415  0.1381
36082DPPS   C3B43616   8.065   2.642  28.199 -0.1791  0.2095  0.0364
36082DPPS   C4B43617   8.352   2.682  27.814 -0.0796  0.0396  0.2691
36083DPPS   CNO43618  12.882   2.691  27.769 -0.0525 -0.2473 -0.1822
36083DPPS   PO443619  13.126   2.443  27.664 -0.0037  0.0627 -0.0487
36083DPPS   GL143620  13.167   2.344  27.226  0.0480  0.1120  0.0755
36083DPPS   GL243621  13.111   2.644  27.197  0.0833  0.0448 -0.1447
36083DPPS   C1A43622  13.228   2.003  27.102  0.3520 -0.3020  0.1217
36083DPPS   C2A43623  13.212   1.613  26.876 -0.0145  0.0404  0.0028
36083DPPS   C3A43624  13.103   1.419  26.470 -0.1436 -0.0159  0.1887
36083DPPS   C4A43625  12.864   1.324  26.074 -0.1254  0.0379  0.0726
36083DPPS   C1B43626  12.975   2.745  26.881 -0.1181  0.2006  0.0629
36083DPPS   C2B43627  12.809   2.808  26.509 -0.3960  0.2295  0.1684
36083DPPS   C3B43628  12.715   3.219  26.344  0.0432 -0.1014 -0.4368
36083DPPS   C4B43629  12.979   3.597  26.077  0.3134  0.0356 -0.1343
36084DPPS   CNO43630   7.066   5.649  29.383 -0.1430 -0.2472 -0.2793
36084DPPS   PO443631   7.456   5.651  29.448 -0.1981  0.1412 -0.2033
36084DPPS   GL143632   7.547   5.472  29.041  0.0204  0.1656  0.5467
36084DPPS   GL243633   7.309   5.338  29.088  0.3445  0.0801 -0.5538
36084DPPS   C1A43634   7.729   5.417  28.694 -0.0997  0.0183  0.1372
36084DPPS   C2A43635   8.063   5.382  28.417  0.1562 -0.4178 -0.1155
36084DPPS   C3A43636   8.395   5.201  28.071 -0.0571 -0.1980 -0.2886
36084DPPS   C4A43637   8.651   4.892  27.777  0.1856  0.0518 -0.0073
36084DPPS   C1B43638   7.450   5.052  28.958  0.0718  0.0830  0.0663
36084DPPS   C2B43639   7.742   4.935  28.660  0.0659 -0.1797 -0.2172
36084DPPS   C3B43640   8.116   4.866  28.353 -0.2053 -0.0189  0.3699
36084DPPS   C4B43641   8.527   4.775  28.302 -0.0087 -0.1306 -0.0369
36085DPPS   CNO43642   9.932   0.540  29.625  0.0486 -0.0363 -0.2327
36085DPPS   PO443643  10.006   0.827  29.365 -0.3799 -0.0078 -0.1307
36085DPPS   GL143644   9.895   1.005  28.937  0.2330  0.0666 -0.1199
36085DPPS   GL243645   9.964   0.735  28.815  0.4204  0.1758  0.1908
36085DPPS   C1A43646   9.716   1.217  28.704  0.0172  0.3958  0.1949
36085DPPS   C2A43647   9.780   1.521  28.457  0.1366 -0.3448  0.4513
36085DPPS   C3A43648   9.901   1.804  28.084  0.1116 -0.3294  0.1144
36085DPPS   C4A43649  10.255   1.743  27.745  0.1198 -0.0294  0.1262
36085DPPS   C1B43650   9.614   0.573  28.592 -0.1947  0.2520  0.0812
36085DPPS   C2B43651   9.320   0.574  28.269 -0.1738  0.1628  0.0417
36085DPPS   C3B43652   9.033   0.392  27.851 -0.0381  0.0352 -0.1178
36085DPPS   C4B43653   9.211   0.250  27.384  0.1092  0.0712 -0.0274
36086DPPS   CNO43654  14.076   5.064  26.825 -0.0362 -0.1730 -0.1470
36086DPPS   PO443655  13.997   4.703  26.799  0.0596  0.2465  0.3331
36086DPPS   GL143656  13.770   4.598  26.489 -0.3200 -0.2586 -0.3174
36086DPPS   GL243657  13.947   4.709  26.262  0.4047  0.1437  0.1076
36086DPPS   C1A43658  13.402   4.703  26.526 -0.1242  0.0101 -0.0467
36086DPPS   C2A43659  13.184   5.029  26.590 -0.0366 -0.0387  0.0775
36086DPPS   C3A43660  12.911   5.411  26.469 -0.0369  0.0385  0.0991
36086DPPS   C4A43661  12.706   5.740  26.146 -0.0947 -0.0477 -0.1000
36086DPPS   C1B43662  13.925   4.753  25.873 -0.1140 -0.1381  0.1469
36086DPPS   C2B43663  13.980   4.647  25.507  0.4607 -0.1677  0.1773
36086DPPS   C3B43664  13.808   4.574  25.107 -0.1503  0.2385  0.0044
36086DPPS   C4B43665  13.522   4.526  24.701 -0.4455  0.1370 -0.1339
36087DPPS   CNO43666  11.718   1.622  27.953 -0.1595 -0.3139  0.2181
36087DPPS   PO443667  11.965   1.368  28.105 -0.0969 -0.0051  0.1395
36087DPPS   GL143668  12.020   1.019  27.787  0.0455  0.1846  0.2285
36087DPPS   GL243669  11.710   0.977  27.771  0.3023  0.2198 -0.3770
36087DPPS   C1A43670  12.071   0.846  27.467 -0.1197  0.3908 -0.0942
36087DPPS   C2A43671  11.906   0.861  27.035 -0.1742  0.3247 -0.0169
36087DPPS   C3A43672  11.665   0.844  26.600  0.4170 -0.4112  0.0021
36087DPPS   C4A43673  11.373   0.945  26.216  0.1670 -0.0551  0.1750
36087DPPS   C1B43674  11.656   1.040  27.417 -0.2245  0.1739  0.1324
36087DPPS   C2B43675  11.411   1.074  27.087 -0.2497  0.0074  0.0436
36087DPPS   C3B43676  11.217   1.143  26.666 -0.1051  0.0383  0.1416
36087DPPS   C4B43677  10.994   1.249  26.239  0.0864  0.2624  0.1548
36088DPPS   CNO43678   9.612   5.131  29.476  0.2091 -0.1148 -0.1156
36088DPPS   PO443679   9.944   5.182  29.247 -0.0736  0.0176 -0.0475
36088DPPS   GL143680   9.992   5.369  28.907  0.3095 -0.0322 -0.1948
36088DPPS   GL243681   9.956   5.605  28.896 -0.0710 -0.4373 -0.2776
36088DPPS   C1A43682   9.939   5.197  28.568  0.0299  0.1499 -0.0855
36088DPPS   C2A43683   9.894   5.139  28.205 -0.1147 -0.5402 -0.0332
36088DPPS   C3A43684   9.631   5.180  27.784 -0.2301  0.1403 -0.0351
36088DPPS   C4A43685   9.367   5.284  27.365  0.0757  0.1411 -0.1777
36088DPPS   C1B43686   9.656   5.728  28.677  0.2000  0.0348 -0.3182
36088DPPS   C2B43687   9.364   5.808  28.398  0.5409 -0.0136  0.0580
36088DPPS   C3B43688   9.042   6.070  28.129 -0.0438 -0.1209  0.1756
36088DPPS   C4B43689   8.824   6.017  27.657  0.2998 -0.0886  0.1065
36089DPPS   CNO43690  13.849   3.682  26.944  0.1363  0.0503 -0.2416
36089DPPS   PO443691  13.895   3.855  27.276  0.0394  0.0753  0.1447
36089DPPS   GL143692  13.535   4.002  27.214 -0.1878 -0.3207  0.3852
36089DPPS   GL243693  13.409   3.749  27.184  0.3762 -0.2033  0.0668
36089DPPS   C1A43694  13.454   4.054  26.847 -0.0737 -0.0122  0.1461
36089DPPS   C2A43695  13.530   4.177  26.458  0.1705  0.1523 -0.4005
36089DPPS   C3A43696  13.582   4.430  26.077 -0.2645  0.0787  0.0524
36089DPPS   C4A43697  13.519   4.709  25.690 -0.2468 -0.1605  0.1565
36089DPPS   C1B43698  13.316   3.646  26.884 -0.1141  0.0311  0.4035
36089DPPS   C2B43699  13.154   3.505  26.535  0.3468 -0.0380 -0.2678
36089DPPS   C3B43700  13.162   3.121  26.282 -0.0885  0.0972  0.1003
36089DPPS   C4B43701  12.948   3.125  25.849  0.1036  0.0461  0.0171
36090DPPS   CNO43702  15.228   5.979  26.697 -0.0354  0.0390 -0.0216
36090DPPS   PO443703  15.047   6.036  26.362 -0.1078  0.2976 -0.0727
36090DPPS   GL143704  14.704   6.059  26.123 -0.0070  0.0107  0.0840
36090DPPS   GL243705  14.972   6.171  25.889  0.0559 -0.4140 -0.0630
36090DPPS   C1A43706  14.518   5.752  25.942 -0.1289 -0.1419 -0.1105
36090DPPS   C2A43707  14.164   5.617  25.709 -0.1538 -0.3431 -0.1052
36090DPPS   C3A43708  13.843   5.650  25.395 -0.0281  0.2394  0.0076
36090DPPS   C4A43709  13.591   5.541  25.033 -0.1286 -0.2163 -0.1929
36090DPPS   C1B43710  14.674   6.047  25.692  0.0805  0.2802 -0.0188
36090DPPS   C2B43711  14.425   5.959  25.352 -0.1714  0.1960  0.0192
36090DPPS   C3B43712  14.130   5.917  24.991 -0.3061  0.1034  0.1204
36090DPPS   C4B43713  13.749   5.869  24.655  0.0947 -0.1479  0.0303
36091DPPS   CNO43714   7.723   1.990  29.763 -0.1840 -0.2728  0.1773
36091DPPS   PO443715   7.510   2.048  29.465 -0.0384  0.0167 -0.1645
36091DPPS   GL143716   7.622   1.840  29.077  0.1433  0.0171 -0.1339
36091DPPS   GL243717   7.819   1.679  29.097 -0.3996 -0.3011  0.0044
36091DPPS   C1A43718   7.581   1.971  28.728  0.6619  0.3245 -0.3821
36091DPPS   C2A43719   7.670   1.857  28.321  0.0259 -0.1243  0.0388
36091DPPS   C3A43720   7.952   1.752  27.940  0.1986 -0.1064  0.1329
36091DPPS   C4A43721   8.378   1.565  27.796 -0.0372 -0.0672 -0.3683
36091DPPS   C1B43722   8.002   1.887  28.850  0.0689 -0.0546 -0.1202
36091DPPS   C2B43723   8.400   1.991  28.816  0.2666  0.0933  0.5101
36091DPPS   C3B43724   8.854   2.043  28.623 -0.0516  0.1769  0.2087
36091DPPS   C4B43725   9.308   1.936  28.423  0.0123 -0.2571 -0.1025
36092DPPS   CNO43726  15.432   4.212  25.992  0.0197  0.2110  0.0063
36092DPPS   PO443727  15.234   3.918  25.809  0.0350 -0.1184  0.0178
36092DPPS   GL143728  15.098   4.143  25.469 -0.0075  0.1593 -0.1118
36092DPPS   GL243729  14.936   4.345  25.471  0.0480  0.1378  0.1584
36092DPPS   C1A43730  14.980   3.968  25.186 -0.0910 -0.0235  0.0703
36092DPPS   C2A43731  14.885   3.706  24.939 -0.0749 -0.1802 -0.0095
36092DPPS   C3A43732  14.672   3.667  24.496  0.0453  0.1905  0.1439
36092DPPS   C4A43733  14.324   3.695  24.140  0.1429 -0.3132  0.1159
36092DPPS   C1B43734  14.818   4.449  25.161 -0.1148  0.3275  0.4417
36092DPPS   C2B43735  14.694   4.685  24.781 -0.0741 -0.1577  0.0196
36092DPPS   C3B43736  14.352   4.703  24.488 -0.0053  0.0928  0.0281
36092DPPS   C4B43737  13.993   4.728  24.126 -0.0802  0.3768  0.0562
36093DPPS   CNO43738  13.326   1.379  28.325  0.1165  0.2545 -0.0462
36093DPPS   PO443739  13.262   1.154  28.043 -0.1961 -0.4090  0.4292
36093DPPS   GL143740  13.256   1.252  27.548 -0.1852 -0.1160 -0.0667
36093DPPS   GL243741  13.356   1.004  27.618 -0.2284  0.2481  0.0493
36093DPPS   C1A43742  13.042   1.175  27.224  0.2616  0.0435  0.3003
36093DPPS   C2A43743  12.869   1.196  26.834  0.4619 -0.2637 -0.1050
36093DPPS   C3A43744  12.621   0.962  26.538 -0.2525 -0.0149  0.1251
36093DPPS   C4A43745  12.532   0.503  26.321  0.0675 -0.1915  0.3078
36093DPPS   C1B43746  13.217   0.664  27.511 -0.0668  0.1126 -0.1682
36093DPPS   C2B43747  13.027   0.305  27.374 -0.1341 -0.2128  0.1780
36093DPPS   C3B43748  12.827  -0.127  27.327 -0.0105  0.4781 -0.1019
36093DPPS   C4B43749  12.633  -0.551  27.100 -0.2481 -0.0785 -0.1860
36094DPPS   CNO43750   6.731   5.470  29.711  0.0138  0.0669 -0.2688
36094DPPS   PO443751   6.704   5.202  29.495 -0.1097 -0.0584  0.0581
36094DPPS   GL143752   6.780   5.295  29.139  0.2561  0.2108 -0.2059
36094DPPS   GL243753   6.578   5.059  28.997  0.1551  0.2213 -0.2382
36094DPPS   C1A43754   6.936   5.206  28.819  0.0851 -0.2034  0.3372
36094DPPS   C2A43755   7.253   5.160  28.532  0.3110 -0.0443  0.0285
36094DPPS   C3A43756   7.572   5.102  28.235 -0.2813  0.1069  0.0106
36094DPPS   C4A43757   7.847   4.978  27.829 -0.1265  0.0462  0.0149
36094DPPS   C1B43758   6.628   4.897  28.684 -0.1698  0.0682  0.5240
36094DPPS   C2B43759   6.895   4.793  28.375  0.1761 -0.4411 -0.0224
36094DPPS   C3B43760   7.181   4.744  28.020  0.1512  0.2755  0.1718
36094DPPS   C4B43761   7.493   4.707  27.625 -0.0374 -0.0185 -0.2519
36095DPPS   CNO43762  15.693   2.903  25.170  0.0475  0.0670 -0.0395
36095DPPS   PO443763  15.934   2.691  24.934 -0.1896  0.0286  0.0078
36095DPPS   GL143764  15.632   2.830  24.705 -0.1268 -0.1855 -0.3538
36095DPPS   GL243765  15.718   2.769  24.415 -0.3018  0.0253 -0.4151
36095DPPS   C1A43766  15.292   2.934  24.713 -0.2415  0.0004  0.0365
36095DPPS   C2A43767  14.965   3.162  24.682 -0.1228 -0.2038 -0.0401
36095DPPS   C3A43768  14.669   3.212  24.367  0.0827 -0.0965  0.1025
36095DPPS   C4A43769  14.317   3.140  23.991 -0.2950  0.0401 -0.1001
36095DPPS   C1B43770  15.619   2.578  24.144 -0.0464 -0.0264  0.2653
36095DPPS   C2B43771  15.375   2.422  23.862 -0.1810  0.1606 -0.3612
36095DPPS   C3B43772  15.140   2.347  23.466 -0.1201  0.1397  0.0360
36095DPPS   C4B43773  14.801   2.387  23.099 -0.0109 -0.0834  0.2325
36096DPPS   CNO43774  15.304   0.353  25.492 -0.1285  0.0183 -0.1531
36096DPPS   PO443775  15.451   0.532  25.759 -0.1105 -0.0365 -0.3902
36096DPPS   GL143776  15.217   0.847  25.651 -0.0917  0.1332 -0.3240
36096DPPS   GL243777  14.949   0.699  25.726  0.0590 -0.6616 -0.1986
36096DPPS   C1A43778  15.037   0.923  25.368 -0.4577 -0.1084 -0.2733
36096DPPS   C2A43779  14.924   0.858  25.003 -0.0560  0.2079  0.0890
36096DPPS   C3A43780  14.686   0.890  24.604  0.0859  0.1999 -0.3179
36096DPPS   C4A43781  14.299   0.873  24.318  0.0459  0.0951  0.0759
36096DPPS   C1B43782  14.716   0.576  25.447 -0.2243  0.0643 -0.1130
36096DPPS   C2B43783  14.502   0.593  25.087  0.1694 -0.2108 -0.0996
36096DPPS   C3B43784  14.162   0.613  24.755  0.2712 -0.2420  0.0696
36096DPPS   C4B43785  13.845   0.643  24.394 -0.0923  0.1015 -0.1705
36097DPPS   CNO43786  13.917   4.206  27.636 -0.0483  0.0263 -0.1158
36097DPPS   PO443787  13.540   4.224  27.593 -0.1132 -0.1336 -0.1257
36097DPPS   GL143788  13.285   4.347  27.256  0.0137  0.0914  0.0921
36097DPPS   GL243789  13.071   4.179  27.292 -0.0836 -0.1415  0.0928
36097DPPS   C1A43790  13.273   4.482  26.897 -0.1443 -0.1263  0.0728
36097DPPS   C2A43791  12.991   4.544  26.563  0.0826 -0.0801  0.0372
36097DPPS   C3A43792  12.790   4.670  26.142  0.0087 -0.2020 -0.1323
36097DPPS   C4A43793  12.580   4.624  25.727 -0.0111  0.1788  0.2271
36097DPPS   C1B43794  13.063   3.954  26.981 -0.2943 -0.2602 -0.4709
36097DPPS   C2B43795  12.971   4.040  26.610  0.0241  0.2136 -0.0674
36097DPPS   C3B43796  13.099   4.117  26.162 -0.0886  0.3634 -0.0324
36097DPPS   C4B43797  13.141   4.425  25.777  0.0011 -0.1285 -0.2843
36098DPPC   NC343798   9.693   3.812  26.076  0.0904  0.0526 -0.1689
36098DPPC   PO443799   9.976   3.564  26.241 -0.0032  0.2668  0.0182
36098DPPC   GL143800   9.766   3.662  26.542  0.3109  0.2534  0.1151
36098DPPC   GL243801   9.500   3.669  26.518  0.3532  0.0876 -0.2361
36098DPPC   C1A43802   9.859   3.578  26.859 -0.2815  0.0569 -0.2051
36098DPPC   C2A43803  10.104   3.452  27.169  0.0294 -0.3205 -0.2227
36098DPPC   C3A43804  10.339   3.435  27.609  0.1681 -0.0797  0.0848
36098DPPC   C4A43805  10.520   3.413  28.088 -0.2122 -0.1018 -0.1768
36098DPPC   C1B43806   9.319   3.729  26.893  0.1151  0.0769  0.3724
36098DPPC   C2B43807   9.148   3.785  27.266  0.1075 -0.1501  0.0197
36098DPPC   C3B43808   9.375   3.780  27.702 -0.0594  0.1992 -0.0651
36098DPPC   C4B43809   9.556   3.773  28.186  0.1153  0.0312  0.0705
36099DPPC   NC343810  11.221   0.615  24.203 -0.1318 -0.3026 -0.0918
36099DPPC   PO443811  11.160   0.542  24.567  0.3567 -0.4307 -0.0631
36099DPPC   GL143812  11.351   0.377  24.816 -0.2357  0.0241  0.1945
36099DPPC   GL243813  11.157   0.257  25.041 -0.1019  0.0835  0.0312
36099DPPC   C1A43814  11.610   0.177  24.943  0.2582  0.4968  0.1625
36099DPPC   C2A43815  11.907   0.071  25.232 -0.0372 -0.0317  0.0604
36099DPPC   C3A43816  12.226   0.097  25.611 -0.1180 -0.1008 -0.1479
36099DPPC   C4A43817  12.447   0.050  26.019  0.1599  0.2250  0.1719
36099DPPC   C1B43818  11.377   0.200  25.351 -0.2474 -0.0918  0.1110
36099DPPC   C2B43819  11.631   0.219  25.651  0.1622  0.1641 -0.2722
36099DPPC   C3B43820  11.919   0.207  26.060  0.1784 -0.0915 -0.0696
36099DPPC   C4B43821  12.204   0.175  26.463  0.1589 -0.2423 -0.0737
36100DPPC   NC343822  10.674   2.788  23.881  0.0173  0.0323  0.2219
36100DPPC   PO443823  11.031   2.697  24.040 -0.0246  0.1536  0.1742
36100DPPC   GL143824  11.406   2.585  23.871 -0.0083  0.0040 -0.0172
36100DPPC   GL243825  11.463   2.664  23.634 -0.1029  0.3810  0.1550
36100DPPC   C1A43826  11.653   2.686  24.131  0.0741  0.1345  0.2460
36100DPPC   C2A43827  11.900   2.653  24.485  0.1882 -0.1119 -0.0480
36100DPPC   C3A43828  12.234   2.628  24.844 -0.1395  0.0973  0.2217
36100DPPC   C4A43829  12.558   2.652  25.197  0.0896 -0.1079  0.0169
36100DPPC   C1B43830  11.727   2.899  23.683  0.1134 -0.1930  0.2318
36100DPPC   C2B43831  11.946   3.046  24.020  0.0692  0.1600  0.0482
36100DPPC   C3B43832  12.276   2.878  24.332 -0.0534  0.0981 -0.0348
36100DPPC   C4B43833  12.648   2.864  24.715  0.0363 -0.0343  0.3072
36101DPPC   NC343834  12.869   3.915  21.815 -0.0951  0.1707 -0.1938
36101DPPC   PO443835  12.548   4.127  21.727 -0.1663  0.0802 -0.1884
36101DPPC   GL143836  12.653   4.399  22.056 -0.2436  0.1647 -0.1827
36101DPPC   GL243837  12.735   4.163  22.218 -0.1148 -0.2870  0.2603
36101DPPC   C1A43838  12.892   4.741  22.122  0.1998  0.4511 -0.0681
36101DPPC   C2A43839  13.324   4.817  22.121  0.0175  0.1595  0.1460
36101DPPC   C3A43840  13.631   4.836  22.444 -0.3419  0.2012  0.3744
36101DPPC   C4A43841  13.952   4.799  22.832  0.1764  0.0428  0.1722
36101DPPC   C1B43842  12.983   4.345  22.370 -0.0491  0.2540 -0.0663
36101DPPC   C2B43843  13.258   4.524  22.634  0.3956 -0.0044  0.1672
36101DPPC   C3B43844  13.585   4.589  23.012  0.0063 -0.1371  0.1169
36101DPPC   C4B43845  13.959   4.510  23.336 -0.1319  0.1497  0.1800
36102DPPC   NC343846  12.562   0.885  21.595  0.2826  0.0310 -0.0405
36102DPPC   PO443847  12.745   1.199  21.514 -0.2020 -0.0181  0.0865
36102DPPC   GL143848  13.129   1.241  21.739  0.2771 -0.0332  0.2074
36102DPPC   GL243849  13.007   1.439  21.902  0.0838 -0.1218  0.0960
36102DPPC   C1A43850  13.440   1.063  21.919  0.1621  0.1867 -0.3085
36102DPPC   C2A43851  13.660   1.051  22.284 -0.0726 -0.2960  0.0594
36102DPPC   C3A43852  13.957   1.042  22.628  0.4094  0.3662  0.0694
36102DPPC   C4A43853  14.276   1.021  22.992 -0.0831  0.0853  0.0157
36102DPPC   C1B43854  13.280   1.491  22.115 -0.0988  0.2295  0.0965
36102DPPC   C2B43855  13.621   1.541  22.280 -0.3355  0.1856 -0.2786
36102DPPC   C3B43856  13.955   1.563  22.658 -0.1657 -0.3868  0.0261
36102DPPC   C4B43857  14.249   1.537  23.065 -0.0624  0.2801 -0.1087
36103DPPC   NC343858  12.375   1.491  22.787  0.1963  0.0551  0.1753
36103DPPC   PO443859  12.398   1.630  22.391  0.3070  0.0561 -0.2523
36103DPPC   GL143860  12.805   1.510  22.339  0.0839 -0.0983 -0.2766
36103DPPC   GL243861  12.867   1.724  22.219 -0.2988 -0.1163 -0.4018
36103DPPC   C1A43862  12.922   1.471  22.695  0.3071  0.1599  0.0432
36103DPPC   C2A43863  13.129   1.469  23.061 -0.0605  0.1109 -0.0700
36103DPPC   C3A43864  13.430   1.360  23.330  0.0396 -0.0896 -0.2715
36103DPPC   C4A43865  13.774   1.359  23.716 -0.0884 -0.5112  0.1948
36103DPPC   C1B43866  13.154   1.780  22.497  0.0530 -0.1562  0.0036
36103DPPC   C2B43867  13.419   1.773  22.769  0.3697  0.0169 -0.3978
36103DPPC   C3B43868  13.752   1.725  23.154 -0.0139 -0.5084  0.0512
36103DPPC   C4B43869  14.055   1.757  23.543 -0.0026 -0.2980  0.0578
36104DPPC   NC343870  12.423   6.461  21.885 -0.1795  0.2305  0.0449
36104DPPC   PO443871  12.299   6.716  22.158  0.0896 -0.3671  0.0516
36104DPPC   GL143872  12.655   6.839  22.398  0.0106 -0.4333 -0.1348
36104DPPC   GL243873  12.541   6.906  22.639 -0.0247  0.1027 -0.3017
36104DPPC   C1A43874  12.961   6.691  22.484  0.0362 -0.0582 -0.0339
36104DPPC   C2A43875  13.177   6.636  22.813 -0.2720 -0.1539 -0.0326
36104DPPC   C3A43876  13.501   6.544  23.213  0.0320  0.0500 -0.1857
36104DPPC   C4A43877  13.851   6.503  23.609 -0.0827 -0.0169  0.0676
36104DPPC   C1B43878  12.758   6.840  22.981  0.5550  0.4894 -0.2712
36104DPPC   C2B43879  13.025   6.754  23.324  0.1622 -0.1999 -0.0922
36104DPPC   C3B43880  13.379   6.733  23.733  0.1627 -0.2221  0.0681
36104DPPC   C4B43881  13.700   6.749  24.095 -0.0910  0.0322 -0.2657
36105DPPC   NC343882   9.065   3.754  25.380  0.0860 -0.1538  0.0015
36105DPPC   PO443883   9.083   3.396  25.285 -0.0602  0.0208  0.0323
36105DPPC   GL143884   8.993   3.039  25.538  0.1738 -0.4470  0.1595
36105DPPC   GL243885   8.803   3.208  25.507 -0.2451 -0.2297  0.3427
36105DPPC   C1A43886   8.981   3.133  25.864 -0.0487 -0.0588 -0.0365
36105DPPC   C2A43887   8.909   3.191  26.218  0.2604 -0.1196  0.1328
36105DPPC   C3A43888   8.632   3.253  26.630 -0.0496  0.0307  0.0857
36105DPPC   C4A43889   8.356   3.239  27.039  0.1864  0.1234  0.1102
36105DPPC   C1B43890   8.573   3.268  25.794  0.1019  0.1093 -0.2539
36105DPPC   C2B43891   8.384   3.401  26.177  0.1616 -0.3984  0.1195
36105DPPC   C3B43892   8.062   3.401  26.542  0.1262 -0.1604  0.1387
36105DPPC   C4B43893   7.753   3.498  26.931 -0.1855 -0.0406 -0.0838
36106DPPC   NC343894  10.678   3.000  25.584  0.0943 -0.2616  0.2058
36106DPPC   PO443895  10.464   2.838  25.918 -0.0879  0.0053  0.0695
36106DPPC   GL143896  10.667   2.751  26.224 -0.1202  0.1407 -0.2976
36106DPPC   GL243897  10.412   2.805  26.462  0.0887 -0.1589  0.1049
36106DPPC   C1A43898  10.981   2.650  26.448  0.1995  0.0891  0.3727
36106DPPC   C2A43899  11.079   2.647  26.805 -0.1218 -0.1813 -0.1358
36106DPPC   C3A43900  11.319   2.616  27.240  0.3696 -0.3187  0.0594
36106DPPC   C4A43901  11.504   2.554  27.665  0.0922  0.2423 -0.0174
36106DPPC   C1B43902  10.632   2.895  26.754  0.2546  0.0578 -0.1706
36106DPPC   C2B43903  10.768   2.816  27.146  0.2423 -0.0055  0.2302
36106DPPC   C3B43904  10.956   2.794  27.578  0.1286 -0.0536  0.0222
36106DPPC   C4B43905  10.974   2.722  28.030  0.1280 -0.2532  0.4050
36107DPPC   NC343906  11.108   2.727  25.511  0.0865 -0.2535 -0.1351
36107DPPC   PO443907  11.063   2.296  25.513 -0.4140 -0.2132  0.0999
36107DPPC   GL143908  11.379   2.255  25.758  0.0443  0.1642  0.1883
36107DPPC   GL243909  11.374   1.917  25.623 -0.1173  0.0462  0.1803
36107DPPC   C1A43910  11.655   2.253  26.020  0.3058  0.2474  0.3452
36107DPPC   C2A43911  11.871   2.198  26.348 -0.2905  0.1706  0.0475
36107DPPC   C3A43912  12.098   2.235  26.835  0.1233  0.2391  0.1920
36107DPPC   C4A43913  12.291   2.409  27.238  0.1485  0.2914  0.1017
36107DPPC   C1B43914  11.604   1.783  25.873 -0.1024  0.0778  0.2141
36107DPPC   C2B43915  11.859   1.766  26.191  0.0933  0.2649 -0.0289
36107DPPC   C3B43916  12.114   1.746  26.615 -0.4531  0.0956  0.0651
36107DPPC   C4B43917  12.261   1.713  27.062 -0.0251 -0.0611 -0.0894
36108DPPC   NC343918  10.384   2.362  26.118 -0.2643 -0.2678 -0.0558
36108DPPC   PO443919  10.107   2.467  25.887  0.4247  0.0906  0.0405
36108DPPC   GL143920   9.859   2.697  26.089  0.2204 -0.1578  0.1292
36108DPPC   GL243921  10.070   2.929  26.175 -0.2321  0.1836 -0.0880
36108DPPC   C1A43922   9.667   2.775  26.391 -0.2335  0.1312 -0.2028
36108DPPC   C2A43923   9.578   2.836  26.796 -0.0864  0.2338 -0.2208
36108DPPC   C3A43924   9.308   2.716  27.172  0.0699  0.1589 -0.1819
36108DPPC   C4A43925   9.076   2.839  27.554  0.1701  0.1151  0.1843
36108DPPC   C1B43926  10.012   3.051  26.526  0.0343 -0.0770 -0.5268
36108DPPC   C2B43927  10.040   2.988  26.936  0.0826 -0.0471 -0.1356
36108DPPC   C3B43928  10.304   2.999  27.363  0.0123 -0.1843  0.0409
36108DPPC   C4B43929  10.549   2.914  27.819 -0.0927  0.2404 -0.1176
36109DPPC   NC343930  11.213   4.684  24.893 -0.3011  0.0284  0.2446
36109DPPC   PO443931  11.290   5.008  24.648 -0.2586  0.0949  0.2681
36109DPPC   GL143932  11.558   5.243  24.761 -0.0259  0.0323 -0.1087
36109DPPC   GL243933  11.369   5.409  24.977  0.0172  0.3247  0.0330
36109DPPC   C1A43934  11.843   5.128  25.010  0.2687 -0.2066 -0.0139
36109DPPC   C2A43935  12.157   5.140  25.321 -0.1238  0.0123 -0.0678
36109DPPC   C3A43936  12.467   5.096  25.676 -0.3597 -0.1090 -0.1977
36109DPPC   C4A43937  12.772   5.198  26.067  0.3610 -0.0859  0.0413
36109DPPC   C1B43938  11.593   5.386  25.257  0.1308 -0.5694 -0.1796
36109DPPC   C2B43939  11.798   5.405  25.587 -0.0298  0.0573  0.1141
36109DPPC   C3B43940  12.113   5.463  25.942 -0.0744  0.0708  0.2315
36109DPPC   C4B43941  12.383   5.411  26.334 -0.0500 -0.2476  0.1096
36110DPPC   NC343942  10.572   0.070  24.261  0.1927  0.0954 -0.1854
36110DPPC   PO443943  10.893   0.241  24.198  0.0089  0.1164  0.0152
36110DPPC   GL143944  11.282   0.112  24.362  0.1335 -0.1060 -0.2067
36110DPPC   GL243945  11.512   0.316  24.303 -0.1883 -0.3286 -0.0482
36110DPPC   C1A43946  11.345  -0.062  24.671 -0.2188  0.3035 -0.1028
36110DPPC   C2A43947  11.372  -0.206  25.113 -0.0446  0.1736  0.1917
36110DPPC   C3A43948  11.596  -0.303  25.541  0.2729  0.0063  0.1407
36110DPPC   C4A43949  11.960  -0.250  25.903  0.3276 -0.1612 -0.3577
36110DPPC   C1B43950  11.795   0.355  24.521 -0.2668  0.1517 -0.1722
36110DPPC   C2B43951  12.049   0.385  24.795  0.1367 -0.4061 -0.2003
36110DPPC   C3B43952  12.390   0.351  25.209  0.0608  0.0865  0.0996
36110DPPC   C4B43953  12.687   0.291  25.576  0.2275 -0.1353  0.0481
36111DPPC   NC343954   9.462   0.733  25.644 -0.3590  0.1357  0.0413
36111DPPC   PO443955   9.356   0.490  25.338 -0.1722  0.0515 -0.2295
36111DPPC   GL143956   9.099   0.312  25.521 -0.1040 -0.0273 -0.0226
36111DPPC   GL243957   8.862   0.236  25.389 -0.3907  0.1929 -0.1472
36111DPPC   C1A43958   8.988   0.342  25.858  0.0811  0.2973  0.2889
36111DPPC   C2A43959   8.766   0.418  26.214  0.0000 -0.1453  0.0673
36111DPPC   C3A43960   8.551   0.411  26.620 -0.0379 -0.0649 -0.2492
36111DPPC   C4A43961   8.251   0.395  26.957  0.1089 -0.1175 -0.0783
36111DPPC   C1B43962   8.709   0.098  25.677 -0.2035 -0.3030  0.0545
36111DPPC   C2B43963   8.458   0.155  25.981  0.2326 -0.2325 -0.2476
36111DPPC   C3B43964   8.195   0.013  26.374 -0.3846 -0.0350 -0.2021
36111DPPC   C4B43965   7.920   0.027  26.727  0.1532 -0.2339 -0.1886
36112DPPC   NC343966  10.206   3.668  25.732 -0.1107 -0.1510 -0.0864
36112DPPC   PO443967  10.275   3.296  25.807 -0.2665  0.0297  0.2108
36112DPPC   GL143968  10.341   3.234  26.216 -0.0336  0.0027 -0.0350
36112DPPC   GL243969  10.596   3.182  26.175 -0.2610 -0.2814 -0.1012
36112DPPC   C1A43970  10.403   3.346  26.588 -0.0827 -0.1751  0.1224
36112DPPC   C2A43971  10.535   3.327  26.985 -0.0658  0.1348  0.0353
36112DPPC   C3A43972  10.783   3.251  27.429  0.0238  0.0227 -0.2858
36112DPPC   C4A43973  10.968   3.217  27.952 -0.0746  0.0676  0.0485
36112DPPC   C1B43974  10.841   3.151  26.442 -0.1034  0.1269  0.0541
36112DPPC   C2B43975  11.013   3.148  26.820 -0.1189 -0.0863  0.4480
36112DPPC   C3B43976  11.249   3.149  27.163  0.0322  0.3812  0.0794
36112DPPC   C4B43977  11.387   3.046  27.606  0.0475 -0.1707 -0.4843
36113DPPC   NC343978   9.515   2.072  25.410  0.1952 -0.3816  0.3086
36113DPPC   PO443979   9.449   1.706  25.540  0.0861 -0.1028  0.5035
36113DPPC   GL143980   9.246   1.778  25.880  0.1394 -0.1947 -0.2560
36113DPPC   GL243981   9.435   1.985  25.998  0.1744 -0.0080 -0.0538
36113DPPC   C1A43982   9.027   1.616  26.121 -0.2406 -0.0559  0.2086
36113DPPC   C2A43983   8.847   1.692  26.476  0.2973  0.0124 -0.2514
36113DPPC   C3A43984   8.595   1.758  26.914  0.0114  0.0768 -0.3142
36113DPPC   C4A43985   8.329   1.715  27.327  0.1998 -0.0581  0.0755
36113DPPC   C1B43986   9.328   2.037  26.309  0.3007  0.1676  0.1059
36113DPPC   C2B43987   9.219   2.015  26.708 -0.1948  0.0636 -0.0529
36113DPPC   C3B43988   8.949   1.997  27.129  0.1730  0.0234 -0.0885
36113DPPC   C4B43989   8.785   1.704  27.460 -0.2296  0.1209 -0.2154
36114DPPC   NC343990  12.358   2.464  22.057  0.0759 -0.1093  0.4546
36114DPPC   PO443991  12.105   2.763  22.105  0.0659 -0.2510 -0.0678
36114DPPC   GL143992  12.232   2.986  22.357  0.1127  0.0726  0.3421
36114DPPC   GL243993  12.041   2.977  22.557 -0.1413 -0.1298 -0.0402
36114DPPC   C1A43994  12.510   3.004  22.548 -0.0157 -0.0792  0.1884
36114DPPC   C2A43995  12.735   2.995  22.887 -0.3000  0.1248 -0.1230
36114DPPC   C3A43996  13.024   2.868  23.288 -0.0128  0.2353 -0.0946
36114DPPC   C4A43997  13.358   2.834  23.627  0.0534  0.1997 -0.2317
36114DPPC   C1B43998  12.151   2.969  22.925  0.0384  0.1063 -0.5507
36114DPPC   C2B43999  12.340   3.100  23.289 -0.1621 -0.1583  0.0736
36114DPPC   C3B44000  12.730   3.154  23.636 -0.1373  0.2187  0.1015
36114DPPC   C4B44001  13.116   3.114  23.946 -0.0827  0.2671  0.0788
36115DPPC   NC344002  10.815   1.888  25.480 -0.2564 -0.1520  0.1431
36115DPPC   PO444003  11.131   1.715  25.333  0.0457  0.0419 -0.1367
36115DPPC   GL144004  11.427   1.421  25.567 -0.0184 -0.6023  0.2359
36115DPPC   GL244005  11.564   1.514  25.242 -0.0345  0.2000 -0.1611
36115DPPC   C1A44006  11.662   1.219  25.811  0.1381  0.2135 -0.1644
36115DPPC   C2A44007  11.883   1.203  26.166 -0.1089 -0.0118  0.1112
36115DPPC   C3A44008  12.170   1.234  26.504 -0.1272  0.0558  0.0045
36115DPPC   C4A44009  12.364   1.067  26.960 -0.3997 -0.0061 -0.0769
36115DPPC   C1B44010  11.807   1.645  25.457  0.0858  0.2718  0.0263
36115DPPC   C2B44011  11.991   1.523  25.767 -0.1500 -0.0395  0.2348
36115DPPC   C3B44012  12.374   1.543  26.096  0.0222 -0.0482 -0.1058
36115DPPC   C4B44013  12.626   1.514  26.510  0.3595  0.0920  0.2575
36116DPPC   NC344014  10.622   1.118  25.917 -0.2511  0.0112 -0.0058
36116DPPC   PO444015  10.231   1.209  25.911 -0.1316 -0.2613  0.0109
36116DPPC   GL144016  10.202   1.267  26.324  0.0255 -0.2204  0.0792
36116DPPC   GL244017   9.954   1.396  26.352  0.0740 -0.0634 -0.2281
36116DPPC   C1A44018  10.354   1.190  26.644 -0.2183 -0.1232  0.2778
36116DPPC   C2A44019  10.404   1.023  27.019  0.2692 -0.2631  0.3725
36116DPPC   C3A44020  10.638   0.936  27.459  0.1283 -0.0878 -0.3685
36116DPPC   C4A44021  10.874   0.828  27.820 -0.1158 -0.1997 -0.1740
36116DPPC   C1B44022   9.881   1.287  26.742  0.0900  0.1055 -0.0400
36116DPPC   C2B44023   9.909   1.171  27.128 -0.1433 -0.0881  0.2307
36116DPPC   C3B44024  10.181   1.220  27.543  0.2166 -0.1901  0.0217
36116DPPC   C4B44025  10.385   1.061  27.995  0.0592 -0.1351  0.1777
36117DPPC   NC344026  11.290   6.416  23.412 -0.3335  0.0268  0.0139
36117DPPC   PO444027  11.283   6.124  23.678  0.0348  0.1551 -0.1078
36117DPPC   GL144028  11.612   5.865  23.764 -0.0298  0.1545  0.3263
36117DPPC   GL244029  11.890   5.990  23.789 -0.0415  0.0591 -0.4661
36117DPPC   C1A44030  11.596   5.695  24.013 -0.0667  0.0459 -0.4900
36117DPPC   C2A44031  11.829   5.523  24.288  0.2192  0.1518 -0.1420
36117DPPC   C3A44032  12.054   5.409  24.680  0.2794  0.0184  0.3943
36117DPPC   C4A44033  12.424   5.425  25.022 -0.0326  0.1427  0.1792
36117DPPC   C1B44034  12.110   5.809  24.038 -0.0386  0.3043  0.0646
36117DPPC   C2B44035  12.373   5.722  24.381 -0.0906 -0.1049 -0.0532
36117DPPC   C3B44036  12.724   5.731  24.792 -0.1072  0.0505  0.0758
36117DPPC   C4B44037  13.058   5.748  25.101  0.1998 -0.3941  0.0453
36118DPPC   NC344038  11.337   4.850  24.196  0.0469 -0.0779  0.1926
36118DPPC   PO444039  11.212   4.553  24.397 -0.3491  0.1874  0.0917
36118DPPC   GL144040  11.490   4.356  24.624  0.1555  0.0216  0.1250
36118DPPC   GL244041  11.378   4.223  24.801 -0.1925 -0.1589  0.0371
36118DPPC   C1A44042  11.664   4.545  24.862 -0.0684 -0.1575  0.0811
36118DPPC   C2A44043  11.922   4.638  25.187  0.0130  0.0906  0.0559
36118DPPC   C3A44044  12.344   4.640  25.331  0.0114 -0.1080  0.1598
36118DPPC   C4A44045  12.816   4.438  25.257 -0.2298 -0.3151  0.0757
36118DPPC   C1B44046  11.555   4.157  25.130 -0.0348 -0.0200 -0.1943
36118DPPC   C2B44047  11.556   3.964  25.544  0.1399 -0.1344  0.2281
36118DPPC   C3B44048  11.783   3.937  25.943 -0.1169  0.0759  0.0951
36118DPPC   C4B44049  12.079   4.029  26.363  0.2473 -0.0979 -0.3710
36119DPPC   NC344050   9.944   1.661  25.851  0.0601  0.1534 -0.0338
36119DPPC   PO444051   9.827   2.052  25.782 -0.1257  0.1719  0.1131
36119DPPC   GL144052   9.758   2.238  26.128  0.0938  0.0479  0.0606
36119DPPC   GL244053   9.997   2.144  26.211 -0.0122 -0.0304 -0.6086
36119DPPC   C1A44054   9.683   2.339  26.457  0.1123  0.0735 -0.3999
36119DPPC   C2A44055   9.698   2.370  26.869 -0.1632  0.1125 -0.0521
36119DPPC   C3A44056   9.880   2.457  27.269  0.2758  0.0761 -0.2275
36119DPPC   C4A44057  10.124   2.670  27.662 -0.2167  0.1603 -0.1332
36119DPPC   C1B44058  10.236   2.120  26.542 -0.1451  0.2853  0.0260
36119DPPC   C2B44059  10.207   2.116  26.932  0.4496  0.0078  0.0315
36119DPPC   C3B44060  10.460   2.004  27.360 -0.0802 -0.2299  0.2260
36119DPPC   C4B44061  10.669   2.052  27.727 -0.2632  0.2681 -0.0987
36120DPPC   NC344062  13.334   4.554  21.198 -0.0033  0.0657 -0.0989
36120DPPC   PO444063  12.930   4.461  21.198 -0.1400 -0.0354 -0.0857
36120DPPC   GL144064  13.047   4.264  21.570 -0.3500 -0.0216 -0.0844
36120DPPC   GL244065  13.253   4.141  21.409 -0.2161 -0.0134 -0.0206
36120DPPC   C1A44066  13.174   4.272  21.912 -0.0502  0.2140  0.1405
36120DPPC   C2A44067  13.446   4.302  22.242 -0.1270 -0.0757  0.1047
36120DPPC   C3A44068  13.755   4.313  22.615 -0.1079  0.1826 -0.1543
36120DPPC   C4A44069  14.148   4.264  22.941  0.2561 -0.1079  0.0876
36120DPPC   C1B44070  13.573   4.123  21.560  0.1787 -0.1705  0.0140
36120DPPC   C2B44071  13.841   4.132  21.882  0.0579 -0.1014 -0.0320
36120DPPC   C3B44072  14.107   4.175  22.262 -0.0861 -0.2920 -0.2884
36120DPPC   C4B44073  14.472   4.149  22.600 -0.1013  0.1825  0.0223
36121DPPC   NC344074  11.045   4.100  24.464 -0.3156  0.0078 -0.0325
36121DPPC   PO444075  11.149   3.793  24.693 -0.0884  0.0075  0.1237
36121DPPC   GL144076  11.406   3.782  25.063 -0.0217  0.4051 -0.1009
36121DPPC   GL244077  11.306   3.599  25.153  0.2352 -0.2965 -0.2193
36121DPPC   C1A44078  11.729   3.743  25.156 -0.6522 -0.0850  0.0544
36121DPPC   C2A44079  12.079   3.752  25.402  0.0907 -0.1057 -0.1701
36121DPPC   C3A44080  12.297   3.810  25.827  0.2163  0.2429 -0.0916
36121DPPC   C4A44081  12.521   3.796  26.266  0.2039  0.0974 -0.1670
36121DPPC   C1B44082  11.466   3.475  25.495  0.1842 -0.5468 -0.0159
36121DPPC   C2B44083  11.805   3.448  25.767  0.1505 -0.2093  0.3138
36121DPPC   C3B44084  12.099   3.460  26.174 -0.0558 -0.2693  0.1420
36121DPPC   C4B44085  12.213   3.439  26.617  0.0420  0.1565 -0.0421
36122DPPC   NC344086  10.954   5.232  23.609  0.1530 -0.2259 -0.0225
36122DPPC   PO444087  11.231   5.379  23.366  0.0720 -0.0902 -0.2857
36122DPPC   GL144088  11.634   5.293  23.404  0.1126 -0.0108 -0.1714
36122DPPC   GL244089  11.597   5.355  23.708 -0.0419 -0.2673  0.0375
36122DPPC   C1A44090  11.970   5.227  23.523  0.0986 -0.1933  0.2751
36122DPPC   C2A44091  12.343   5.176  23.704 -0.0596  0.0125 -0.1239
36122DPPC   C3A44092  12.731   5.135  24.001 -0.1494  0.1301 -0.1459
36122DPPC   C4A44093  13.017   5.045  24.385 -0.2155  0.1222  0.1924
36122DPPC   C1B44094  11.931   5.328  23.922  0.2110 -0.4139  0.0145
36122DPPC   C2B44095  12.259   5.251  24.200 -0.0148 -0.3112 -0.0664
36122DPPC   C3B44096  12.555   5.246  24.595 -0.1238 -0.3533  0.2151
36122DPPC   C4B44097  12.974   5.275  24.876  0.1110  0.0152 -0.0653
36123DPPC   NC344098  11.741   6.582  23.201 -0.2830  0.1209 -0.2083
36123DPPC   PO444099  11.735   6.841  22.907 -0.0674  0.1216  0.1279
36123DPPC   GL144100  11.969   7.004  23.143 -0.0661 -0.0960 -0.1983
36123DPPC   GL244101  11.893   7.097  23.391 -0.4069  0.0319  0.3347
36123DPPC   C1A44102  12.182   6.761  23.275 -0.1568 -0.0896  0.0529
36123DPPC   C2A44103  12.400   6.550  23.019  0.0270  0.0933 -0.2024
36123DPPC   C3A44104  12.481   6.115  22.889  0.0806 -0.0355 -0.1575
36123DPPC   C4A44105  12.430   5.618  22.915 -0.0533  0.2665 -0.0725
36123DPPC   C1B44106  12.194   7.108  23.674 -0.0151 -0.4728  0.1193
36123DPPC   C2B44107  12.448   7.052  23.972 -0.1647 -0.0732 -0.1915
36123DPPC   C3B44108  12.677   7.039  24.391  0.2419 -0.0409 -0.1425
36123DPPC   C4B44109  13.070   7.077  24.718 -0.3841 -0.0485 -0.1376
36124DPPC   NC344110  10.953   5.358  24.648  0.0007  0.1275  0.0253
36124DPPC   PO444111  10.931   5.104  24.984 -0.2537 -0.3161  0.3089
36124DPPC   GL144112  11.261   5.058  25.282  0.2301 -0.3063 -0.2359
36124DPPC   GL244113  11.464   4.981  25.116 -0.1494 -0.0235  0.0059
36124DPPC   C1A44114  11.309   4.919  25.640  0.1133  0.0265  0.2880
36124DPPC   C2A44115  11.596   4.986  25.927  0.2077 -0.2285  0.1202
36124DPPC   C3A44116  11.892   5.104  26.264 -0.0531  0.2037  0.0271
36124DPPC   C4A44117  12.118   5.129  26.690 -0.3045 -0.0724  0.1533
36124DPPC   C1B44118  11.722   4.938  25.438 -0.2025  0.1949  0.2761
36124DPPC   C2B44119  12.018   4.853  25.694 -0.0765  0.1462 -0.2966
36124DPPC   C3B44120  12.315   4.873  26.134 -0.3262  0.1815 -0.1427
36124DPPC   C4B44121  12.581   4.916  26.510 -0.1781  0.0323  0.1642
36125DPPC   NC344122  11.918   5.837  22.172  0.0765 -0.2318  0.0852
36125DPPC   PO444123  12.046   5.471  22.261 -0.0491 -0.1419 -0.0059
36125DPPC   GL144124  12.375   5.533  22.412  0.0485  0.1127 -0.1019
36125DPPC   GL244125  12.458   5.809  22.470 -0.1732  0.1065 -0.3821
36125DPPC   C1A44126  12.607   5.302  22.577  0.1617 -0.1698  0.2891
36125DPPC   C2A44127  12.808   5.108  22.851 -0.2066  0.0969  0.1384
36125DPPC   C3A44128  13.097   5.184  23.284 -0.2076 -0.3387 -0.0970
36125DPPC   C4A44129  13.478   5.166  23.617 -0.3026  0.3109 -0.0119
36125DPPC   C1B44130  12.783   5.853  22.685  0.2451  0.1033  0.0660
36125DPPC   C2B44131  12.970   5.815  23.070  0.1154 -0.2248  0.2280
36125DPPC   C3B44132  13.307   5.764  23.415  0.1664  0.0765  0.1969
36125DPPC   C4B44133  13.638   5.704  23.792  0.0509 -0.0528 -0.1159
36126DPPC   NC344134  11.052   4.395  23.891 -0.2748 -0.3849  0.1020
36126DPPC   PO444135  11.050   4.725  23.675 -0.1820 -0.1481  0.2497
36126DPPC   GL144136  11.443   4.930  23.667 -0.1820  0.1005 -0.2699
36126DPPC   GL244137  11.535   4.652  23.613  0.1046 -0.0522 -0.0626
36126DPPC   C1A44138  11.802   4.928  23.793 -0.1197 -0.2116 -0.0891
36126DPPC   C2A44139  12.148   4.828  24.004  0.2033  0.2380 -0.2756
36126DPPC   C3A44140  12.509   4.805  24.373  0.0919 -0.0779  0.1463
36126DPPC   C4A44141  12.880   4.720  24.732  0.0077 -0.1090  0.0604
36126DPPC   C1B44142  11.670   4.549  23.918  0.3227 -0.1430 -0.1064
36126DPPC   C2B44143  11.849   4.527  24.311  0.0336 -0.0110 -0.2097
36126DPPC   C3B44144  12.136   4.400  24.644 -0.1660 -0.0941 -0.1105
36126DPPC   C4B44145  12.468   4.368  24.949 -0.1465 -0.2632  0.0755
36127DPPC   NC344146  10.953   2.570  24.653 -0.1247  0.0613 -0.1346
36127DPPC   PO444147  11.170   2.740  24.983  0.0109  0.1194  0.2947
36127DPPC   GL144148  11.349   2.469  25.210 -0.1485  0.2670 -0.2679
36127DPPC   GL244149  11.357   2.187  25.157  0.2493 -0.1569 -0.0461
36127DPPC   C1A44150  11.598   2.561  25.503  0.0910  0.2404  0.1069
36127DPPC   C2A44151  11.935   2.552  25.779 -0.0741 -0.0265 -0.0530
36127DPPC   C3A44152  12.273   2.527  26.204 -0.1429  0.1539  0.1812
36127DPPC   C4A44153  12.439   2.523  26.576 -0.0746  0.1412 -0.1436
36127DPPC   C1B44154  11.677   2.073  25.373  0.0201  0.0921  0.2176
36127DPPC   C2B44155  11.959   1.991  25.670 -0.0060 -0.3988 -0.0592
36127DPPC   C3B44156  12.239   2.104  25.990  0.2249  0.2793  0.0693
36127DPPC   C4B44157  12.492   2.088  26.423  0.2547 -0.0385 -0.0027
36128DPPC   NC344158  13.150   6.006  21.494 -0.1345  0.1094  0.0153
36128DPPC   PO444159  12.923   6.277  21.671  0.2306  0.0410 -0.0387
36128DPPC   GL144160  13.187   6.563  21.914 -0.0940 -0.0363 -0.0003
36128DPPC   GL244161  13.051   6.492  22.077 -0.1426 -0.0775 -0.3206
36128DPPC   C1A44162  13.488   6.706  21.952  0.2072  0.3686  0.1788
36128DPPC   C2A44163  13.772   6.726  22.192 -0.1079 -0.1120  0.2142
36128DPPC   C3A44164  14.133   6.665  22.580 -0.2194 -0.1476 -0.0032
36128DPPC   C4A44165  14.467   6.572  22.925 -0.0134 -0.1295  0.3303
36128DPPC   C1B44166  13.331   6.429  22.336 -0.0523 -0.0001  0.0761
36128DPPC   C2B44167  13.595   6.318  22.660 -0.1111  0.0218 -0.0515
36128DPPC   C3B44168  13.943   6.401  22.999  0.0236  0.0342 -0.2350
36128DPPC   C4B44169  14.321   6.391  23.348 -0.0486 -0.2473  0.1910
36129DPPC   NC344170  10.320   2.638  25.495 -0.0462  0.3355  0.3537
36129DPPC   PO444171  10.622   2.439  25.684 -0.0771  0.0626 -0.0791
36129DPPC   GL144172  10.914   2.457  25.943  0.0048  0.1069  0.1637
36129DPPC   GL244173  10.909   2.802  25.907 -0.2168 -0.0602  0.0706
36129DPPC   C1A44174  10.905   2.260  26.252  0.0716 -0.1518  0.2851
36129DPPC   C2A44175  11.048   2.191  26.573 -0.0037  0.0459  0.0855
36129DPPC   C3A44176  11.267   2.155  26.997 -0.0463 -0.0236 -0.0285
36129DPPC   C4A44177  11.446   2.045  27.518 -0.2387 -0.1384  0.5420
36129DPPC   C1B44178  11.146   2.952  26.128  0.2181 -0.3798  0.3189
36129DPPC   C2B44179  11.343   2.924  26.468 -0.0448 -0.0357  0.0343
36129DPPC   C3B44180  11.551   2.857  26.875 -0.0773  0.0612 -0.0357
36129DPPC   C4B44181  11.774   2.847  27.314  0.1588  0.1024  0.0867
36130DPPC   NC344182  11.034   6.380  24.202 -0.2913 -0.1698 -0.2445
36130DPPC   PO444183  10.731   6.213  24.408  0.0500 -0.0932  0.0342
36130DPPC   GL144184  10.998   6.218  24.679  0.1391  0.0699 -0.0158
36130DPPC   GL244185  11.285   6.101  24.552  0.1880  0.0071  0.1764
36130DPPC   C1A44186  11.025   6.167  25.062  0.3720 -0.0699 -0.1615
36130DPPC   C2A44187  11.115   6.168  25.451  0.2677  0.1423 -0.0146
36130DPPC   C3A44188  10.954   6.328  25.940 -0.2949 -0.0209  0.0004
36130DPPC   C4A44189  10.719   6.421  26.407 -0.2064  0.0670  0.0696
36130DPPC   C1B44190  11.565   6.163  24.752 -0.1344  0.2701 -0.1591
36130DPPC   C2B44191  11.870   6.175  25.060  0.2229  0.0552 -0.3658
36130DPPC   C3B44192  12.126   6.163  25.471  0.0724 -0.1152  0.0392
36130DPPC   C4B44193  12.456   6.184  25.772  0.1324  0.0587 -0.1727
36131DPPC   NC344194  10.879   2.134  24.393 -0.3080  0.0723 -0.0842
36131DPPC   PO444195  10.900   1.759  24.370  0.2378  0.4550  0.0336
36131DPPC   GL144196  11.372   1.722  24.416  0.3334 -0.0330 -0.4188
36131DPPC   GL244197  11.421   1.889  24.324 -0.0206  0.1305 -0.3577
36131DPPC   C1A44198  11.580   1.498  24.633  0.1754  0.3416 -0.3596
36131DPPC   C2A44199  11.858   1.325  24.862 -0.1212 -0.1945 -0.0768
36131DPPC   C3A44200  12.202   1.370  25.261  0.1791  0.0128 -0.0018
36131DPPC   C4A44201  12.566   1.350  25.594 -0.0322  0.0164 -0.1123
36131DPPC   C1B44202  11.749   1.891  24.547  0.0012 -0.1630  0.4516
36131DPPC   C2B44203  11.895   1.846  24.932 -0.2261 -0.2392  0.1713
36131DPPC   C3B44204  12.278   1.886  25.250 -0.0763  0.0933 -0.0217
36131DPPC   C4B44205  12.458   1.795  25.643  0.1485  0.2351  0.1136
36132DPPC   NC344206  11.607   1.367  23.167  0.1226  0.1477  0.2863
36132DPPC   PO444207  11.682   1.000  23.373 -0.0279  0.3036  0.1568
36132DPPC   GL144208  12.108   1.118  23.571 -0.0790  0.0613  0.2475
36132DPPC   GL244209  12.084   0.878  23.366 -0.1888  0.0547 -0.0729
36132DPPC   C1A44210  12.477   1.162  23.626  0.0166 -0.1597 -0.1420
36132DPPC   C2A44211  12.738   1.279  23.921  0.0467 -0.2647  0.0214
36132DPPC   C3A44212  13.085   1.253  24.288  0.0415 -0.0964 -0.2060
36132DPPC   C4A44213  13.503   1.197  24.641  0.1178  0.5865 -0.0458
36132DPPC   C1B44214  12.421   0.818  23.360 -0.1027 -0.0358  0.2987
36132DPPC   C2B44215  12.683   0.748  23.651  0.2558  0.6455  0.1410
36132DPPC   C3B44216  13.010   0.710  24.023 -0.1045 -0.1589 -0.2075
36132DPPC   C4B44217  13.305   0.820  24.402  0.0342 -0.0381 -0.2731
36133DPPC   NC344218  10.654   5.890  25.494 -0.0540  0.1143 -0.2333
36133DPPC   PO444219  10.300   5.697  25.613 -0.0986  0.0081 -0.2598
36133DPPC   GL144220  10.213   5.620  25.929  0.1607 -0.3159  0.2325
36133DPPC   GL244221   9.941   5.588  26.019  0.0673  0.3587  0.2638
36133DPPC   C1A44222  10.319   5.668  26.251  0.2711 -0.0126 -0.0026
36133DPPC   C2A44223  10.460   5.579  26.631 -0.0367 -0.0346 -0.1571
36133DPPC   C3A44224  10.679   5.547  27.023 -0.3070 -0.0351 -0.2041
36133DPPC   C4A44225  10.902   5.524  27.488  0.1329  0.1702  0.1633
36133DPPC   C1B44226   9.930   5.797  26.311  0.2009 -0.0556  0.0464
36133DPPC   C2B44227   9.719   6.082  26.470  0.2344  0.2056 -0.1578
36133DPPC   C3B44228   9.660   6.565  26.558  0.0221  0.1798 -0.0441
36133DPPC   C4B44229   9.524   7.055  26.659  0.0176 -0.3129  0.0137
36134DPPC   NC344230  11.356   1.225  23.725  0.1598  0.0934 -0.0084
36134DPPC   PO444231  11.318   0.798  23.709 -0.1916 -0.2410  0.0128
36134DPPC   GL144232  11.754   0.632  23.773 -0.2193 -0.0636 -0.4754
36134DPPC   GL244233  11.605   0.412  23.895  0.0762 -0.1149 -0.0906
36134DPPC   C1A44234  12.067   0.836  23.967  0.0573  0.0813  0.1327
36134DPPC   C2A44235  12.425   0.960  24.145 -0.2126 -0.1475  0.0353
36134DPPC   C3A44236  12.794   0.983  24.505  0.1561 -0.1524  0.1547
36134DPPC   C4A44237  13.146   0.964  24.905  0.0891  0.1842 -0.0753
36134DPPC   C1B44238  11.877   0.244  24.090  0.2010  0.5986  0.1343
36134DPPC   C2B44239  12.176   0.157  24.361 -0.0636 -0.1352 -0.1902
36134DPPC   C3B44240  12.488   0.096  24.717 -0.0221 -0.2411 -0.0933
36134DPPC   C4B44241  12.821   0.101  25.039  0.0980 -0.0330  0.1100
36135DPPC   NC344242  12.436   0.682  22.374 -0.0599  0.1449  0.0103
36135DPPC   PO444243  12.697   0.744  22.059 -0.0432  0.0375  0.1013
36135DPPC   GL144244  12.978   0.933  22.114 -0.0221  0.1456 -0.3227
36135DPPC   GL244245  12.999   1.163  22.192 -0.0262 -0.0269  0.0151
36135DPPC   C1A44246  13.250   0.792  22.349  0.0494 -0.2406 -0.4503
36135DPPC   C2A44247  13.491   0.792  22.734  0.0984 -0.0113  0.7277
36135DPPC   C3A44248  13.851   0.757  23.031 -0.0099  0.0255  0.0784
36135DPPC   C4A44249  14.186   0.732  23.386  0.0875 -0.0691  0.1009
36135DPPC   C1B44250  13.205   1.248  22.486 -0.7080 -0.0645 -0.3296
36135DPPC   C2B44251  13.538   1.258  22.855 -0.0121 -0.1809  0.0302
36135DPPC   C3B44252  13.882   1.235  23.179  0.0537 -0.1544 -0.0596
36135DPPC   C4B44253  14.213   1.196  23.542 -0.0033  0.0702 -0.0682
36136DPPC   NC344254   9.470   5.083  25.542  0.1688 -0.1709  0.0605
36136DPPC   PO444255   9.366   4.715  25.580 -0.1214 -0.1307 -0.1142
36136DPPC   GL144256   9.038   4.641  25.789 -0.2205 -0.3464 -0.0001
36136DPPC   GL244257   8.851   4.848  25.806  0.0572  0.0404  0.1762
36136DPPC   C1A44258   9.036   4.480  26.085  0.0677  0.0783  0.0091
36136DPPC   C2A44259   8.964   4.486  26.470 -0.0464  0.0347  0.1925
36136DPPC   C3A44260   8.679   4.467  26.906 -0.3424 -0.4172 -0.0154
36136DPPC   C4A44261   8.404   4.493  27.315 -0.1172  0.0990 -0.0588
36136DPPC   C1B44262   8.678   4.752  26.108 -0.2312  0.2265  0.0110
36136DPPC   C2B44263   8.475   4.629  26.456  0.0332 -0.0619  0.0761
36136DPPC   C3B44264   8.133   4.698  26.803  0.1726  0.1244 -0.2386
36136DPPC   C4B44265   7.801   4.608  27.202  0.2608  0.2043  0.1045
36137DPPC   NC344266  12.527   5.729  21.225  0.0883  0.2488 -0.3627
36137DPPC   PO444267  12.646   5.782  21.583 -0.1740  0.1146  0.0914
36137DPPC   GL144268  13.060   5.683  21.832  0.2292 -0.1461 -0.0303
36137DPPC   GL244269  13.067   5.905  21.998 -0.1578  0.2119  0.2277
36137DPPC   C1A44270  13.204   5.508  22.137 -0.1676  0.0252 -0.0008
36137DPPC   C2A44271  13.475   5.349  22.388 -0.0439 -0.0440  0.2202
36137DPPC   C3A44272  13.801   5.246  22.708 -0.0812  0.2036  0.2701
36137DPPC   C4A44273  14.133   5.327  23.100 -0.0394  0.0310  0.0493
36137DPPC   C1B44274  13.332   5.920  22.269  0.1682  0.0718  0.0085
36137DPPC   C2B44275  13.600   5.837  22.528  0.2514 -0.1984  0.1013
36137DPPC   C3B44276  13.921   5.807  22.920 -0.1057 -0.2646  0.3587
36137DPPC   C4B44277  14.215   5.854  23.289 -0.0621 -0.1037  0.2354
36138DPPC   NC344278  10.467   6.532  25.854  0.1631 -0.1144  0.1917
36138DPPC   PO444279  10.207   6.765  26.061 -0.1918  0.2195 -0.2130
36138DPPC   GL144280  10.275   6.563  26.375 -0.1483  0.5059 -0.1429
36138DPPC   GL244281  10.050   6.367  26.332 -0.1515  0.1949  0.2291
36138DPPC   C1A44282  10.388   6.499  26.726 -0.1484 -0.5325 -0.1370
36138DPPC   C2A44283  10.618   6.490  27.094  0.2263  0.0026 -0.5968
36138DPPC   C3A44284  10.735   6.522  27.592  0.1348 -0.1755  0.1682
36138DPPC   C4A44285  10.889   6.474  28.066  0.1906  0.1517 -0.0332
36138DPPC   C1B44286  10.017   6.291  26.653 -0.1367 -0.1334  0.0001
36138DPPC   C2B44287  10.097   6.375  27.053  0.1738  0.2212 -0.0183
36138DPPC   C3B44288  10.317   6.232  27.493  0.2495  0.0141 -0.1335
36138DPPC   C4B44289  10.420   6.221  27.945 -0.2559  0.0776 -0.0155
36139DPPC   NC344290  10.761   4.200  25.456  0.1079 -0.2145 -0.0507
36139DPPC   PO444291  10.675   4.543  25.696 -0.0190 -0.0101 -0.0802
36139DPPC   GL144292  10.674   4.909  25.948  0.0023 -0.4023  0.2676
36139DPPC   GL244293  10.464   4.820  26.142 -0.0956 -0.1450  0.1652
36139DPPC   C1A44294  10.967   5.163  25.971 -0.1504 -0.1318  0.2526
36139DPPC   C2A44295  11.129   5.531  26.178  0.0340 -0.1761 -0.0480
36139DPPC   C3A44296  11.373   5.789  26.493 -0.2474 -0.0713  0.0549
36139DPPC   C4A44297  11.722   5.800  26.850  0.0540 -0.0689  0.3372
36139DPPC   C1B44298  10.471   5.039  26.446 -0.1367 -0.0982 -0.1897
36139DPPC   C2B44299  10.612   5.092  26.837 -0.2544  0.1134 -0.2810
36139DPPC   C3B44300  10.833   5.067  27.245  0.0198  0.1896  0.0571
36139DPPC   C4B44301  11.133   5.101  27.612  0.3745 -0.1506 -0.1400
36140DPPC   NC344302  10.494   1.104  24.978  0.0605 -0.0421  0.1507
36140DPPC   PO444303  10.831   1.348  24.921  0.0294  0.2180  0.0720
36140DPPC   GL144304  11.228   1.190  24.879 -0.2562  0.0572 -0.3200
36140DPPC   GL244305  11.199   0.982  24.796 -0.1799  0.0347  0.3311
36140DPPC   C1A44306  11.490   1.097  25.119  0.0721 -0.1762 -0.3852
36140DPPC   C2A44307  11.768   1.107  25.410  0.0877  0.2011 -0.0864
36140DPPC   C3A44308  12.170   1.050  25.659  0.2097  0.2168 -0.1368
36140DPPC   C4A44309  12.437   1.029  26.074 -0.0473 -0.2675 -0.1260
36140DPPC   C1B44310  11.331   0.704  25.035  0.1658  0.3617 -0.1217
36140DPPC   C2B44311  11.635   0.546  25.241 -0.1536  0.1791 -0.0290
36140DPPC   C3B44312  11.994   0.493  25.499 -0.0425  0.1849  0.1140
36140DPPC   C4B44313  12.313   0.598  25.882  0.3099  0.0972  0.0319
36141DPPC   NC344314   9.906   0.917  25.649 -0.0764  0.1796 -0.0017
36141DPPC   PO444315   9.719   1.230  25.762 -0.2280 -0.2144  0.4040
36141DPPC   GL144316   9.554   1.471  26.012 -0.2721 -0.2467  0.1976
36141DPPC   GL244317   9.553   1.282  26.211 -0.2181 -0.2236 -0.1622
36141DPPC   C1A44318   9.698   1.748  26.264  0.5229  0.2194 -0.0779
36141DPPC   C2A44319   9.754   1.910  26.652 -0.1270 -0.2840  0.0178
36141DPPC   C3A44320   9.769   1.878  27.103 -0.2461  0.1571  0.4893
36141DPPC   C4A44321   9.804   1.617  27.496 -0.0854 -0.0639  0.0237
36141DPPC   C1B44322   9.502   1.464  26.531 -0.5172 -0.1280 -0.0363
36141DPPC   C2B44323   9.409   1.552  26.954  0.1513 -0.0904  0.0025
36141DPPC   C3B44324   9.319   1.700  27.363 -0.0761  0.0383  0.0406
36141DPPC   C4B44325   9.088   2.055  27.618  0.1834  0.1184  0.2680
36142DPPC   NC344326  11.516   5.759  23.353 -0.0906 -0.0066  0.0124
36142DPPC   PO444327  11.689   6.083  23.335  0.4388 -0.0232  0.0309
36142DPPC   GL144328  12.026   6.275  23.502  0.2464  0.1857  0.0880
36142DPPC   GL244329  12.190   6.266  23.313 -0.0539  0.3250 -0.0410
36142DPPC   C1A44330  12.275   6.156  23.770  0.1288 -0.4339  0.1741
36142DPPC   C2A44331  12.628   6.115  24.043  0.2308  0.2126  0.0663
36142DPPC   C3A44332  12.954   6.019  24.452 -0.0695 -0.0137 -0.0710
36142DPPC   C4A44333  13.268   6.005  24.816  0.1018 -0.2050  0.3581
36142DPPC   C1B44334  12.550   6.390  23.448  0.2898 -0.0238 -0.1335
36142DPPC   C2B44335  12.860   6.410  23.723 -0.0402  0.1003  0.2235
36142DPPC   C3B44336  13.204   6.431  24.063  0.2300 -0.1315 -0.0829
36142DPPC   C4B44337  13.451   6.374  24.451  0.2026  0.0843  0.0643
36143DPPC   NC344338  11.881   0.355  22.365 -0.1214  0.1360  0.1813
36143DPPC   PO444339  11.969   0.719  22.405 -0.0019 -0.0395 -0.0506
36143DPPC   GL144340  12.179   0.573  22.753 -0.1055  0.1214 -0.0784
36143DPPC   GL244341  12.327   0.807  22.843 -0.2199 -0.1163  0.3537
36143DPPC   C1A44342  12.376   0.462  23.064 -0.1421  0.1117 -0.1674
36143DPPC   C2A44343  12.584   0.316  23.404 -0.1496  0.0186  0.1270
36143DPPC   C3A44344  12.880   0.280  23.804 -0.2680 -0.1009 -0.1514
36143DPPC   C4A44345  13.196   0.303  24.204  0.1455 -0.1166  0.2346
36143DPPC   C1B44346  12.671   0.725  22.978  0.4166  0.3878 -0.0828
36143DPPC   C2B44347  12.911   0.656  23.232 -0.2603  0.3276 -0.0170
36143DPPC   C3B44348  13.205   0.588  23.598 -0.1909 -0.1552  0.0401
36143DPPC   C4B44349  13.528   0.573  23.976  0.0439  0.0046  0.0108
36144DPPC   NC344350  11.398   0.633  23.208  0.0442 -0.0795  0.0667
36144DPPC   PO444351  11.463   0.321  23.433  0.0907 -0.0247 -0.1285
36144DPPC   GL144352  11.735   0.153  23.609  0.3729 -0.1920 -0.1937
36144DPPC   GL244353  11.683  -0.126  23.654 -0.0249  0.2660  0.1286
36144DPPC   C1A44354  12.055   0.081  23.623  0.0495  0.1380  0.4199
36144DPPC   C2A44355  12.403  -0.016  23.806  0.1817  0.0821  0.2605
36144DPPC   C3A44356  12.613   0.019  24.185  0.0303  0.2443  0.0278
36144DPPC   C4A44357  12.962  -0.029  24.495  0.0426  0.1400 -0.3748
36144DPPC   C1B44358  11.922  -0.212  23.922 -0.1054  0.2766  0.1184
36144DPPC   C2B44359  12.137  -0.330  24.201 -0.0770  0.2419  0.1575
36144DPPC   C3B44360  12.517  -0.349  24.503  0.1095 -0.0983 -0.1499
36144DPPC   C4B44361  12.825  -0.384  24.894 -0.1270  0.0390 -0.2578
36145DPPC   NC344362  11.131   0.344  23.771  0.2041 -0.0783 -0.1208
36145DPPC   PO444363  11.326   0.061  23.923  0.2107 -0.3506 -0.0414
36145DPPC   GL144364  11.531  -0.217  24.160  0.1595  0.1305 -0.2054
36145DPPC   GL244365  11.434  -0.440  24.103  0.1406  0.2006 -0.3191
36145DPPC   C1A44366  11.735  -0.174  24.422 -0.4303 -0.2474 -0.1282
36145DPPC   C2A44367  12.028  -0.139  24.683  0.2624  0.0392 -0.0073
36145DPPC   C3A44368  12.368  -0.232  25.014  0.2130 -0.1092 -0.3297
36145DPPC   C4A44369  12.693  -0.218  25.381  0.0823  0.0745 -0.1967
36145DPPC   C1B44370  11.582  -0.630  24.321  0.0200  0.2245  0.0337
36145DPPC   C2B44371  11.924  -0.625  24.512  0.1091  0.2991  0.1444
36145DPPC   C3B44372  12.280  -0.715  24.870 -0.0941  0.1140  0.0053
36145DPPC   C4B44373  12.545  -0.656  25.228 -0.2621 -0.0121  0.1895
36146DPPC   NC344374  10.496   4.927  25.279  0.1091 -0.0085  0.1820
36146DPPC   PO444375  10.785   4.687  25.200  0.2333  0.0179 -0.3202
36146DPPC   GL144376  11.066   4.606  25.480  0.1546  0.2440  0.1838
36146DPPC   GL244377  11.273   4.574  25.309 -0.0247 -0.0634  0.2738
36146DPPC   C1A44378  11.212   4.558  25.818  0.0248 -0.0284 -0.1638
36146DPPC   C2A44379  11.311   4.641  26.221 -0.0197 -0.2803 -0.0272
36146DPPC   C3A44380  11.541   4.723  26.677  0.1863 -0.3171 -0.3700
36146DPPC   C4A44381  11.837   4.798  27.063  0.3343 -0.1376 -0.0089
36146DPPC   C1B44382  11.574   4.502  25.464  0.0905 -0.0394  0.1928
36146DPPC   C2B44383  11.941   4.349  25.600  0.0786  0.2239  0.0319
36146DPPC   C3B44384  12.288   4.313  25.940  0.0236  0.0756  0.3574
36146DPPC   C4B44385  12.558   4.298  26.368 -0.0626  0.0860 -0.2231
36147DPPC   NC344386  12.312   5.019  22.378  0.0858 -0.0150 -0.2947
36147DPPC   PO444387  12.092   4.776  22.630 -0.1257 -0.1137  0.2073
36147DPPC   GL144388  12.341   4.812  22.927  0.2843 -0.1066  0.1996
36147DPPC   GL244389  12.299   5.136  22.887  0.2249  0.0016  0.2643
36147DPPC   C1A44390  12.598   4.884  23.216  0.0326  0.1162 -0.0879
36147DPPC   C2A44391  12.871   4.882  23.568  0.2026  0.1253  0.0281
36147DPPC   C3A44392  13.165   4.896  23.875 -0.0694 -0.0093  0.2886
36147DPPC   C4A44393  13.521   4.879  24.233 -0.5108 -0.0988  0.3068
36147DPPC   C1B44394  12.383   5.329  23.229  0.0693  0.2293 -0.0419
36147DPPC   C2B44395  12.717   5.400  23.441 -0.1570 -0.2143 -0.1311
36147DPPC   C3B44396  13.061   5.470  23.761  0.1208 -0.1358 -0.0987
36147DPPC   C4B44397  13.396   5.367  24.121  0.1335  0.2431  0.2047
36148DPPC   NC344398  12.038   5.789  22.645 -0.2571  0.0262  0.2916
36148DPPC   PO444399  11.819   5.676  22.943  0.1037  0.0609 -0.2372
36148DPPC   GL144400  12.090   5.849  23.195  0.4834 -0.1154 -0.0943
36148DPPC   GL244401  12.018   5.662  23.425  0.1837 -0.1022 -0.2130
36148DPPC   C1A44402  12.427   5.881  23.335 -0.3921 -0.0013  0.3081
36148DPPC   C2A44403  12.816   5.929  23.520 -0.1155 -0.0391 -0.2692
36148DPPC   C3A44404  13.129   5.985  23.890 -0.0522  0.0227 -0.1641
36148DPPC   C4A44405  13.455   5.886  24.264  0.0208 -0.2824  0.1614
36148DPPC   C1B44406  12.250   5.697  23.663 -0.1987  0.4112 -0.0378
36148DPPC   C2B44407  12.575   5.604  23.950  0.0276  0.1808 -0.0022
36148DPPC   C3B44408  12.892   5.500  24.285  0.3327  0.0053 -0.1427
36148DPPC   C4B44409  13.232   5.559  24.582 -0.1516  0.2515  0.0133
36149DPPC   NC344410  12.452   3.260  22.049 -0.1791 -0.0504 -0.2460
36149DPPC   PO444411  12.647   3.039  21.788  0.3733  0.0964  0.0075
36149DPPC   GL144412  13.091   3.040  21.863 -0.2045 -0.2148 -0.3645
36149DPPC   GL244413  12.940   2.958  22.060  0.1183 -0.2453  0.1985
36149DPPC   C1A44414  13.348   3.022  22.140  0.1366  0.1030 -0.0948
36149DPPC   C2A44415  13.565   3.056  22.502 -0.0077  0.3481 -0.0035
36149DPPC   C3A44416  13.889   3.037  22.859  0.1963  0.0281  0.1417
36149DPPC   C4A44417  14.328   3.056  23.163 -0.0178 -0.0037 -0.1600
36149DPPC   C1B44418  13.027   2.891  22.382  0.0631 -0.2134 -0.0944
36149DPPC   C2B44419  13.167   2.817  22.752 -0.0948  0.1200  0.6449
36149DPPC   C3B44420  13.472   2.780  23.103 -0.1173  0.2235  0.0934
36149DPPC   C4B44421  13.883   2.677  23.466 -0.1179  0.0845 -0.3272
36150DPPC   NC344422  10.557   5.983  24.869  0.5349  0.0467 -0.1191
36150DPPC   PO444423  10.519   5.613  24.783  0.1075  0.0593  0.0648
36150DPPC   GL144424  10.935   5.662  24.987  0.5272  0.3536  0.0571
36150DPPC   GL244425  11.082   5.787  24.821 -0.4558  0.0671 -0.3362
36150DPPC   C1A44426  11.099   5.543  25.375 -0.2091  0.0165  0.2886
36150DPPC   C2A44427  11.288   5.470  25.726  0.0078 -0.0636  0.0264
36150DPPC   C3A44428  11.587   5.508  26.042 -0.6809 -0.3079  0.0209
36150DPPC   C4A44429  11.886   5.622  26.413 -0.2704 -0.0332 -0.0960
36150DPPC   C1B44430  11.307   5.874  25.064 -0.1018  0.0752  0.4107
36150DPPC   C2B44431  11.488   5.803  25.415 -0.0714  0.1952 -0.1663
36150DPPC   C3B44432  11.790   5.863  25.793 -0.0879 -0.0230  0.1575
36150DPPC   C4B44433  12.247   5.942  26.120 -0.1086  0.0452  0.0142
36151DPPC   NC344434  11.159   3.533  23.869  0.0924  0.1972  0.3487
36151DPPC   PO444435  11.285   3.720  24.204 -0.3603  0.3286  0.0165
36151DPPC   GL144436  11.653   3.716  24.355 -0.0137  0.0720  0.0097
36151DPPC   GL244437  11.589   3.920  24.547  0.1781 -0.2142 -0.2883
36151DPPC   C1A44438  11.812   3.520  24.642  0.2021 -0.2947 -0.2485
36151DPPC   C2A44439  12.150   3.587  24.927 -0.0536  0.1107 -0.2071
36151DPPC   C3A44440  12.520   3.517  25.243 -0.1033 -0.0785  0.1981
36151DPPC   C4A44441  12.789   3.562  25.604 -0.0252  0.0150 -0.1336
36151DPPC   C1B44442  11.809   3.984  24.813  0.0054 -0.1879 -0.2700
36151DPPC   C2B44443  12.042   4.176  25.118  0.0148  0.1539 -0.1074
36151DPPC   C3B44444  12.392   4.145  25.448  0.0724  0.1348  0.1929
36151DPPC   C4B44445  12.752   4.098  25.758 -0.1951  0.0842 -0.0946
36152DPPC   NC344446   9.086   1.306  24.845 -0.1381 -0.2747  0.0339
36152DPPC   PO444447   9.188   1.383  25.212  0.2336  0.1090  0.0977
36152DPPC   GL144448   9.026   1.414  25.581 -0.0902 -0.3064 -0.1126
36152DPPC   GL244449   9.269   1.257  25.640  0.0822  0.1249 -0.1591
36152DPPC   C1A44450   8.746   1.346  25.816 -0.0848  0.0855 -0.0647
36152DPPC   C2A44451   8.563   1.328  26.169 -0.1209  0.3477 -0.1779
36152DPPC   C3A44452   8.345   1.431  26.595  0.0879 -0.1596  0.0070
36152DPPC   C4A44453   8.138   1.407  27.035 -0.1498 -0.2997  0.4494
36152DPPC   C1B44454   9.170   1.189  25.989  0.2037  0.0391 -0.0530
36152DPPC   C2B44455   9.101   1.213  26.416  0.1817 -0.2161  0.1340
36152DPPC   C3B44456   8.925   1.295  26.845  0.1031 -0.0150 -0.0192
36152DPPC   C4B44457   8.650   1.297  27.269  0.0887  0.2151 -0.0693
36153DPPC   NC344458  12.116   5.183  21.803  0.1691  0.1738  0.1366
36153DPPC   PO444459  12.423   5.273  21.518  0.1186 -0.1100 -0.2443
36153DPPC   GL144460  12.610   5.390  21.833 -0.0550 -0.3789  0.2703
36153DPPC   GL244461  12.546   5.555  21.955 -0.2564  0.1611 -0.1276
36153DPPC   C1A44462  12.797   5.267  22.093 -0.2459  0.2629 -0.2504
36153DPPC   C2A44463  12.986   5.066  22.388 -0.3137 -0.0970 -0.0860
36153DPPC   C3A44464  13.286   5.103  22.779  0.0109 -0.2947  0.1352
36153DPPC   C4A44465  13.630   5.037  23.135  0.1568  0.0727  0.0903
36153DPPC   C1B44466  12.777   5.645  22.256 -0.0058 -0.0146 -0.0398
36153DPPC   C2B44467  13.041   5.548  22.564 -0.0293 -0.1510 -0.0020
36153DPPC   C3B44468  13.441   5.553  22.870  0.0093 -0.2141  0.1106
36153DPPC   C4B44469  13.745   5.537  23.281  0.6057 -0.0457  0.1165
36154DPPC   NC344470   9.748   0.108  26.064 -0.0266  0.1026  0.1214
36154DPPC   PO444471   9.833   0.431  25.857 -0.2534 -0.1117 -0.0226
36154DPPC   GL144472   9.592   0.790  26.124 -0.1280  0.2215 -0.0029
36154DPPC   GL244473   9.873   0.893  26.105 -0.0556  0.0121  0.1692
36154DPPC   C1A44474   9.377   0.829  26.415  0.0100 -0.5889 -0.1194
36154DPPC   C2A44475   9.452   1.077  26.770  0.4621 -0.1693  0.2564
36154DPPC   C3A44476   9.346   1.169  27.241 -0.0828  0.2919 -0.2378
36154DPPC   C4A44477   9.208   1.344  27.626  0.0782 -0.4516  0.3327
36154DPPC   C1B44478   9.838   0.914  26.470  0.1326  0.0700  0.0764
36154DPPC   C2B44479   9.876   0.794  26.838  0.0439  0.1366  0.0237
36154DPPC   C3B44480   9.899   0.641  27.299 -0.2268 -0.2262  0.3882
36154DPPC   C4B44481  10.070   0.688  27.779  0.2626  0.1454  0.1315
36155DPPC   NC344482  11.442   4.327  23.222 -0.2984 -0.1030 -0.0528
36155DPPC   PO444483  11.545   4.092  22.940  0.0557  0.1390 -0.2158
36155DPPC   GL144484  11.845   3.825  23.032  0.1391  0.2224  0.2248
36155DPPC   GL244485  12.052   3.998  22.941 -0.0306  0.3759 -0.2320
36155DPPC   C1A44486  12.015   3.821  23.365 -0.0103 -0.0941 -0.0350
36155DPPC   C2A44487  12.113   3.772  23.768  0.1095 -0.0297  0.0004
36155DPPC   C3A44488  12.448   3.781  24.090 -0.0958  0.1877  0.2302
36155DPPC   C4A44489  12.815   3.832  24.396 -0.0283  0.0175 -0.1361
36155DPPC   C1B44490  12.419   3.909  23.040  0.4111 -0.1454 -0.1722
36155DPPC   C2B44491  12.794   3.944  23.237 -0.3324  0.0657  0.2354
36155DPPC   C3B44492  13.153   3.907  23.575 -0.0204 -0.1157  0.1639
36155DPPC   C4B44493  13.531   3.924  23.904 -0.1385  0.3181 -0.2160
36156DPPC   NC344494   9.584   4.215  25.413  0.1578  0.2417 -0.1063
36156DPPC   PO444495   9.456   3.880  25.635  0.1353  0.0034 -0.0152
36156DPPC   GL144496   9.172   3.527  25.777 -0.0387 -0.0599 -0.2520
36156DPPC   GL244497   9.373   3.457  25.979  0.2103 -0.0046  0.2471
36156DPPC   C1A44498   8.891   3.603  25.992  0.1538 -0.0553 -0.1086
36156DPPC   C2A44499   8.793   3.650  26.361  0.0409 -0.3638 -0.0564
36156DPPC   C3A44500   8.439   3.695  26.710 -0.1786  0.1277 -0.2619
36156DPPC   C4A44501   8.199   3.735  27.125  0.0608 -0.0448  0.2813
36156DPPC   C1B44502   9.254   3.436  26.283 -0.0740 -0.1744 -0.4023
36156DPPC   C2B44503   9.097   3.460  26.663 -0.0209  0.0480 -0.1006
36156DPPC   C3B44504   8.811   3.477  27.069  0.0680 -0.1516 -0.0613
36156DPPC   C4B44505   8.524   3.531  27.464  0.2336  0.1301  0.3131
36157DPPC   NC344506  11.217   1.718  24.881 -0.1834 -0.2835  0.2348
36157DPPC   PO444507  11.264   2.102  24.688  0.4917  0.3498 -0.0775
36157DPPC   GL144508  11.532   2.514  24.741  0.1650  0.2741 -0.0786
36157DPPC   GL244509  11.672   2.249  24.753 -0.2236  0.1169 -0.1046
36157DPPC   C1A44510  11.804   2.725  24.900  0.4468  0.4509 -0.1446
36157DPPC   C2A44511  12.015   2.768  25.287  0.1576 -0.2037  0.1137
36157DPPC   C3A44512  12.346   2.778  25.606  0.0345  0.0934 -0.1418
36157DPPC   C4A44513  12.655   2.767  26.009  0.0278 -0.0537 -0.1379
36157DPPC   C1B44514  11.914   2.296  25.020 -0.0928 -0.2970  0.1493
36157DPPC   C2B44515  12.202   2.366  25.301 -0.1198  0.1465  0.1977
36157DPPC   C3B44516  12.494   2.335  25.682  0.0117 -0.2973  0.1028
36157DPPC   C4B44517  12.743   2.291  26.063 -0.0113 -0.2721  0.2005
36158DPPC   NC344518  11.093   3.252  24.811 -0.0726  0.0090 -0.2800
36158DPPC   PO444519  10.958   3.172  25.199  0.0690  0.1386 -0.3939
36158DPPC   GL144520  11.192   3.174  25.458  0.2259 -0.0475 -0.1843
36158DPPC   GL244521  11.447   3.038  25.379  0.0958  0.0549  0.1659
36158DPPC   C1A44522  11.281   3.184  25.816 -0.0485 -0.0845  0.0744
36158DPPC   C2A44523  11.567   3.216  26.103  0.2317 -0.1794 -0.0932
36158DPPC   C3A44524  11.786   3.162  26.454  0.0324 -0.2011 -0.2036
36158DPPC   C4A44525  11.930   3.215  26.939 -0.0960 -0.2184 -0.1688
36158DPPC   C1B44526  11.746   3.010  25.642  0.1147  0.1200 -0.0614
36158DPPC   C2B44527  12.043   3.013  25.935 -0.1450 -0.3226 -0.0428
36158DPPC   C3B44528  12.263   3.022  26.389 -0.1940  0.3146  0.1145
36158DPPC   C4B44529  12.546   3.015  26.862  0.0302  0.0226  0.2155
36159DPPC   NC344530  10.681   0.299  25.212  0.2448  0.4553 -0.0218
36159DPPC   PO444531  10.829   0.517  25.490  0.0305  0.0983  0.2270
36159DPPC   GL144532  11.235   0.640  25.478  0.1088 -0.0329 -0.3343
36159DPPC   GL244533  11.164   0.440  25.677 -0.1785 -0.4717 -0.3111
36159DPPC   C1A44534  11.556   0.697  25.647  0.5559 -0.1999 -0.0529
36159DPPC   C2A44535  11.752   0.768  25.978  0.1068  0.0133  0.1587
36159DPPC   C3A44536  12.097   0.738  26.386  0.3132 -0.2745 -0.0622
36159DPPC   C4A44537  12.389   0.622  26.783  0.4879  0.1261  0.0339
36159DPPC   C1B44538  11.380   0.415  25.969  0.0007 -0.1076  0.0585
36159DPPC   C2B44539  11.576   0.442  26.359 -0.1947  0.0009 -0.1579
36159DPPC   C3B44540  11.864   0.432  26.790  0.0622  0.0198 -0.1515
36159DPPC   C4B44541  12.189   0.539  27.225  0.2312 -0.0808 -0.1662
36160DPPC   NC344542   9.914   2.953  25.713  0.3921  0.1193  0.0369
36160DPPC   PO444543   9.800   2.805  25.382  0.3182  0.1588  0.0376
36160DPPC   GL144544   9.444   2.560  25.521 -0.0196 -0.0037  0.1382
36160DPPC   GL244545   9.611   2.497  25.758 -0.1435  0.0042  0.2453
36160DPPC   C1A44546   9.100   2.640  25.625  0.1294 -0.0707  0.1574
36160DPPC   C2A44547   8.964   2.684  26.027  0.0399  0.1451 -0.2157
36160DPPC   C3A44548   8.689   2.689  26.440  0.2526  0.0203  0.2399
36160DPPC   C4A44549   8.465   2.741  26.863  0.0065 -0.0711  0.1426
36160DPPC   C1B44550   9.417   2.549  26.078 -0.3473 -0.3187  0.0769
36160DPPC   C2B44551   9.262   2.493  26.441  0.0776 -0.2176 -0.3438
36160DPPC   C3B44552   9.035   2.513  26.801 -0.2802  0.0043 -0.1449
36160DPPC   C4B44553   8.879   2.464  27.259  0.1981 -0.0796 -0.0994
36161DPPC   NC344554  11.840   0.837  22.946 -0.1194  0.3238  0.4720
36161DPPC   PO444555  12.016   1.177  22.982  0.1687  0.1474  0.0815
36161DPPC   GL144556  12.422   1.200  23.150  0.2644 -0.2884 -0.0128
36161DPPC   GL244557  12.295   1.438  23.266 -0.2165  0.0762 -0.0209
36161DPPC   C1A44558  12.802   1.125  23.137 -0.0193  0.0524  0.0215
36161DPPC   C2A44559  13.045   1.117  23.455  0.4450  0.1260  0.2999
36161DPPC   C3A44560  13.328   1.045  23.862 -0.5448  0.1399 -0.0610
36161DPPC   C4A44561  13.687   1.082  24.158  0.3140 -0.1094  0.1075
36161DPPC   C1B44562  12.257   1.552  23.624 -0.1454  0.0878  0.1533
36161DPPC   C2B44563  12.228   1.471  24.042  0.0472 -0.0120  0.2909
36161DPPC   C3B44564  12.586   1.440  24.385  0.3186 -0.2000 -0.0529
36161DPPC   C4B44565  12.883   1.441  24.722  0.2323  0.2591 -0.0652
36162DPPC   NC344566  12.268   4.090  22.155 -0.2514  0.4252  0.0137
36162DPPC   PO444567  12.475   3.764  22.104 -0.2710 -0.0355  0.1668
36162DPPC   GL144568  12.794   3.653  22.305 -0.3160 -0.2292 -0.0998
36162DPPC   GL244569  12.775   3.404  22.362 -0.3636  0.0096 -0.0348
36162DPPC   C1A44570  13.032   3.904  22.427 -0.2902  0.1165 -0.0235
36162DPPC   C2A44571  13.363   4.029  22.653  0.0890 -0.1278  0.1146
36162DPPC   C3A44572  13.688   3.994  22.999 -0.0489 -0.1320  0.0650
36162DPPC   C4A44573  14.043   3.992  23.336 -0.3281 -0.0322 -0.2185
36162DPPC   C1B44574  13.006   3.273  22.651 -0.1556 -0.1510  0.2006
36162DPPC   C2B44575  13.282   3.246  22.974  0.0699  0.0200 -0.1705
36162DPPC   C3B44576  13.652   3.184  23.334  0.3409  0.0154  0.0512
36162DPPC   C4B44577  14.027   3.168  23.606 -0.2612  0.1252  0.1959
36163DPPC   NC344578  11.978   2.365  22.967 -0.0539  0.0153 -0.0201
36163DPPC   PO444579  12.004   2.548  22.619  0.1576  0.0068  0.0097
36163DPPC   GL144580  12.331   2.631  22.728 -0.1655  0.2854 -0.1133
36163DPPC   GL244581  12.519   2.518  22.550  0.0003  0.1749  0.0262
36163DPPC   C1A44582  12.476   2.671  23.104  0.0622  0.0306 -0.0736
36163DPPC   C2A44583  12.665   2.550  23.460 -0.1491 -0.1142  0.0986
36163DPPC   C3A44584  12.999   2.569  23.827 -0.0226  0.0978  0.3674
36163DPPC   C4A44585  13.297   2.612  24.139  0.1970  0.0817  0.1601
36163DPPC   C1B44586  12.784   2.420  22.742  0.1023  0.3011  0.1258
36163DPPC   C2B44587  13.027   2.407  23.067  0.0398 -0.1422  0.0674
36163DPPC   C3B44588  13.312   2.363  23.425 -0.0636 -0.0648 -0.0151
36163DPPC   C4B44589  13.594   2.324  23.801  0.0307 -0.3662  0.1776
36164DPPC   NC344590  11.026   1.111  25.315 -0.5726  0.3271 -0.2942
36164DPPC   PO444591  10.762   1.354  25.485 -0.2155  0.2004  0.3660
36164DPPC   GL144592  10.905   1.516  25.821 -0.0068 -0.3184 -0.1142
36164DPPC   GL244593  11.160   1.415  25.854 -0.1188  0.0634 -0.4079
36164DPPC   C1A44594  10.958   1.695  26.164 -0.1434  0.0232 -0.1225
36164DPPC   C2A44595  11.081   1.664  26.520  0.0973 -0.3439 -0.0653
36164DPPC   C3A44596  11.318   1.638  26.961  0.0914 -0.2343  0.1642
36164DPPC   C4A44597  11.468   1.486  27.426  0.0678 -0.2549  0.1108
36164DPPC   C1B44598  11.415   1.514  26.135 -0.1120 -0.0009 -0.0832
36164DPPC   C2B44599  11.644   1.439  26.504 -0.3160  0.0374 -0.2218
36164DPPC   C3B44600  11.849   1.374  26.950 -0.2338 -0.0356  0.2213
36164DPPC   C4B44601  12.080   1.344  27.400 -0.1374  0.2200  0.3900
36165DPPC   NC344602   9.646   0.073  25.280 -0.2728 -0.3371 -0.0982
36165DPPC   PO444603   9.484   0.056  25.630 -0.2833 -0.2063  0.1805
36165DPPC   GL144604   9.389   0.368  25.897  0.2712 -0.1903 -0.1863
36165DPPC   GL244605   9.301   0.149  26.085  0.2121  0.1475 -0.2690
36165DPPC   C1A44606   9.169   0.562  26.182 -0.2326  0.0334  0.0900
36165DPPC   C2A44607   9.030   0.616  26.582  0.1658  0.1704  0.2518
36165DPPC   C3A44608   8.999   0.866  27.041  0.0005  0.2583  0.3143
36165DPPC   C4A44609   9.031   0.754  27.504  0.0088 -0.1481  0.0457
36165DPPC   C1B44610   9.257   0.111  26.435  0.1933 -0.1759  0.1647
36165DPPC   C2B44611   9.066   0.151  26.763  0.1894 -0.3598  0.0382
36165DPPC   C3B44612   8.785   0.373  27.113  0.1719 -0.0003 -0.3754
36165DPPC   C4B44613   8.511   0.720  27.310 -0.1295  0.1134 -0.1720
36166DPPC   NC344614  10.717   1.253  24.213  0.1369 -0.0960 -0.0932
36166DPPC   PO444615  11.049   1.087  24.060 -0.3147 -0.1795 -0.1270
36166DPPC   GL144616  11.549   0.961  24.113  0.0993  0.0065  0.1564
36166DPPC   GL244617  11.459   1.250  24.272  0.1086  0.4567  0.0716
36166DPPC   C1A44618  11.785   0.693  24.256  0.0193  0.1928 -0.2082
36166DPPC   C2A44619  12.176   0.646  24.420  0.1352 -0.2226 -0.0824
36166DPPC   C3A44620  12.497   0.628  24.802  0.2043 -0.0932 -0.1274
36166DPPC   C4A44621  12.880   0.616  25.153  0.0848 -0.0791  0.3556
36166DPPC   C1B44622  11.525   1.047  24.542  0.3277  0.2652 -0.1321
36166DPPC   C2B44623  11.757   0.843  24.797 -0.1039  0.1618 -0.0569
36166DPPC   C3B44624  12.144   0.851  25.084  0.2481  0.1347 -0.0028
36166DPPC   C4B44625  12.499   0.800  25.422  0.0061  0.0082 -0.1640
36167DPPC   NC344626   9.848   5.878  25.697  0.3801 -0.2735  0.1409
36167DPPC   PO444627   9.648   6.176  25.473 -0.0846  0.4641 -0.1786
36167DPPC   GL144628   9.329   6.051  25.748  0.0804  0.0819  0.0406
36167DPPC   GL244629   9.494   6.250  25.851 -0.0544 -0.2185 -0.2331
36167DPPC   C1A44630   9.128   6.013  26.063  0.0615 -0.1754  0.1087
36167DPPC   C2A44631   8.851   6.044  26.356 -0.1762  0.1571 -0.2824
36167DPPC   C3A44632   8.589   5.993  26.758  0.1959  0.0557 -0.1174
36167DPPC   C4A44633   8.315   6.014  27.135  0.0991 -0.1166  0.0542
36167DPPC   C1B44634   9.440   6.286  26.211 -0.0958  0.2033 -0.0768
36167DPPC   C2B44635   9.215   6.225  26.546 -0.0035  0.1678  0.2688
36167DPPC   C3B44636   8.916   6.330  26.883  0.0161 -0.0921 -0.1855
36167DPPC   C4B44637   8.628   6.380  27.263  0.0527  0.1802  0.0844
36168DPPC   NC344638   9.246   5.936  25.289 -0.0610  0.1935  0.1807
36168DPPC   PO444639   9.450   5.664  25.500  0.0512 -0.2326  0.0792
36168DPPC   GL144640   9.492   5.580  25.842  0.0843  0.3233  0.2433
36168DPPC   GL244641   9.538   5.825  26.060 -0.3220  0.4156 -0.1146
36168DPPC   C1A44642   9.190   5.518  26.045  0.1812 -0.0259  0.1979
36168DPPC   C2A44643   8.938   5.489  26.363  0.1613  0.2168 -0.0107
36168DPPC   C3A44644   8.666   5.499  26.748  0.1409 -0.0010 -0.3152
36168DPPC   C4A44645   8.299   5.403  27.055 -0.0949  0.1204 -0.1537
36168DPPC   C1B44646   9.322   5.827  26.381 -0.0795  0.0603 -0.0536
36168DPPC   C2B44647   9.090   5.831  26.759  0.1382  0.0849  0.0951
36168DPPC   C3B44648   8.818   5.815  27.165 -0.1593  0.2385  0.0271
36168DPPC   C4B44649   8.427   5.738  27.555 -0.1983 -0.2347 -0.3364
36169DPPC   NC344650  10.200   4.379  25.998  0.0086  0.1127  0.0428
36169DPPC   PO444651  10.422   4.099  25.834 -0.0430  0.1487  0.0740
36169DPPC   GL144652  10.420   3.858  26.097 -0.1783 -0.0705 -0.0941
36169DPPC   GL244653  10.505   3.616  26.115  0.3238  0.2001  0.4902
36169DPPC   C1A44654  10.599   4.006  26.413  0.2040 -0.1396  0.0788
36169DPPC   C2A44655  10.708   4.086  26.769  0.1565  0.1773 -0.0134
36169DPPC   C3A44656  10.978   4.070  27.253  0.2330  0.0529  0.3047
36169DPPC   C4A44657  11.319   4.075  27.566  0.0910  0.2054  0.0449
36169DPPC   C1B44658  10.702   3.573  26.387 -0.0141  0.2739  0.0161
36169DPPC   C2B44659  10.888   3.612  26.736 -0.2534 -0.2177 -0.0098
36169DPPC   C3B44660  11.107   3.589  27.162 -0.1134 -0.1703 -0.0894
36169DPPC   C4B44661  11.216   3.561  27.636 -0.3414 -0.2891  0.2847
36170DPPC   NC344662  11.978   1.831  22.244  0.1954  0.0606 -0.1467
36170DPPC   PO444663  12.152   2.016  21.956 -0.4592 -0.3651 -0.2092
36170DPPC   GL144664  12.553   2.001  22.132  0.0289 -0.0237 -0.1309
36170DPPC   GL244665  12.679   2.176  21.907  0.1303  0.0260 -0.3128
36170DPPC   C1A44666  12.774   2.071  22.477 -0.1519 -0.0885  0.0194
36170DPPC   C2A44667  12.933   1.958  22.855  0.0537 -0.1822  0.2821
36170DPPC   C3A44668  13.252   1.883  23.275 -0.2619  0.1867 -0.1297
36170DPPC   C4A44669  13.516   1.827  23.666 -0.0350 -0.0843  0.1519
36170DPPC   C1B44670  13.011   2.048  21.862 -0.3863 -0.2464 -0.4829
36170DPPC   C2B44671  13.328   1.995  22.112  0.1060 -0.0580  0.1412
36170DPPC   C3B44672  13.694   2.043  22.391 -0.3053  0.3098  0.0690
36170DPPC   C4B44673  13.938   2.046  22.873  0.1628 -0.0954 -0.0815
36171DPPC   NC344674  11.728   3.797  22.588  0.1721  0.2892 -0.2082
36171DPPC   PO444675  12.128   3.805  22.546  0.1029 -0.2437 -0.1914
36171DPPC   GL144676  12.570   3.753  22.644 -0.2999  0.1770  0.2852
36171DPPC   GL244677  12.639   4.026  22.620  0.3080  0.1766 -0.2269
36171DPPC   C1A44678  12.868   3.664  22.803 -0.0246 -0.0510 -0.0732
36171DPPC   C2A44679  13.205   3.725  23.028  0.2482 -0.1953 -0.2124
36171DPPC   C3A44680  13.608   3.710  23.367 -0.1464 -0.2745  0.1802
36171DPPC   C4A44681  13.968   3.656  23.757  0.0888 -0.1311  0.1745
36171DPPC   C1B44682  12.861   4.216  22.856  0.1574 -0.2260 -0.0119
36171DPPC   C2B44683  13.231   4.230  23.128 -0.1683 -0.0365  0.0928
36171DPPC   C3B44684  13.563   4.201  23.456  0.0351 -0.0840  0.0584
36171DPPC   C4B44685  13.893   4.222  23.817  0.2363  0.0224  0.1496
36172DPPC   NC344686  11.460   2.184  23.525  0.2070  0.2951  0.0987
36172DPPC   PO444687  11.701   2.074  23.255 -0.2753  0.2189 -0.0770
36172DPPC   GL144688  12.101   2.172  23.380  0.0565  0.4304 -0.2861
36172DPPC   GL244689  12.195   1.922  23.373 -0.0327 -0.0356  0.3457
36172DPPC   C1A44690  12.321   2.328  23.650  0.0866 -0.1284 -0.0633
36172DPPC   C2A44691  12.655   2.283  23.979  0.0229 -0.0370  0.0404
36172DPPC   C3A44692  12.942   2.241  24.354 -0.1338 -0.3307  0.4593
36172DPPC   C4A44693  13.327   2.255  24.765 -0.0597 -0.1326  0.1883
36172DPPC   C1B44694  12.502   1.896  23.598  0.4811  0.2531  0.1351
36172DPPC   C2B44695  12.696   1.768  23.907  0.0663  0.0439 -0.0575
36172DPPC   C3B44696  12.989   1.747  24.312 -0.0857 -0.0193  0.0456
36172DPPC   C4B44697  13.312   1.690  24.616 -0.1859  0.0881  0.1303
36173DPPS   CNO44698  11.494   4.876  22.635  0.1798  0.3661  0.1688
36173DPPS   PO444699  11.599   4.543  22.783  0.2114 -0.2493  0.2439
36173DPPS   GL144700  11.889   4.583  23.052  0.0870 -0.0240  0.1193
36173DPPS   GL244701  11.886   4.329  23.156 -0.0976  0.2101  0.0706
36173DPPS   C1A44702  12.149   4.623  23.314  0.0880  0.3718 -0.0736
36173DPPS   C2A44703  12.414   4.655  23.603  0.1142 -0.0003 -0.1437
36173DPPS   C3A44704  12.758   4.578  23.975 -0.1897 -0.1816  0.0636
36173DPPS   C4A44705  13.074   4.540  24.299 -0.0431 -0.1213  0.0783
36173DPPS   C1B44706  12.209   4.207  23.307  0.0008  0.3056  0.1010
36173DPPS   C2B44707  12.496   4.111  23.608 -0.0376  0.1587 -0.1115
36173DPPS   C3B44708  12.869   4.074  23.938 -0.0691 -0.2623  0.0328
36173DPPS   C4B44709  13.218   4.090  24.312  0.0442 -0.4157 -0.0741
36174DPPS   CNO44710  11.234   3.246  23.060 -0.1768 -0.1077 -0.1647
36174DPPS   PO444711  11.381   3.385  23.386 -0.2516  0.1918 -0.0813
36174DPPS   GL144712  11.715   3.469  23.508 -0.0776  0.2087 -0.0761
36174DPPS   GL244713  11.622   3.538  23.814  0.0470 -0.1567  0.1001
36174DPPS   C1A44714  12.049   3.351  23.524  0.0621 -0.3749  0.0585
36174DPPS   C2A44715  12.310   3.301  23.829 -0.4991 -0.1056  0.1058
36174DPPS   C3A44716  12.688   3.348  24.109 -0.0988  0.0644 -0.1173
36174DPPS   C4A44717  13.061   3.283  24.465  0.1137 -0.1512 -0.0880
36174DPPS   C1B44718  11.860   3.482  24.064 -0.2287 -0.1195 -0.3236
36174DPPS   C2B44719  12.166   3.485  24.273 -0.0862 -0.0784 -0.3515
36174DPPS   C3B44720  12.485   3.383  24.625  0.1188 -0.2594  0.1093
36174DPPS   C4B44721  12.799   3.325  24.931  0.1505 -0.3255 -0.2567
36175DPPS   CNO44722  10.818   2.991  24.370 -0.1499  0.0961 -0.0417
36175DPPS   PO444723  11.114   3.184  24.269  0.3457  0.1874 -0.3786
36175DPPS   GL144724  11.540   3.298  24.278 -0.1291  0.0045  0.1437
36175DPPS   GL244725  11.452   3.406  24.622 -0.2962 -0.0475 -0.2935
36175DPPS   C1A44726  11.833   3.111  24.419  0.0128  0.2188  0.1727
36175DPPS   C2A44727  12.069   3.091  24.753 -0.0910  0.1777  0.1622
36175DPPS   C3A44728  12.356   3.121  25.059  0.1953 -0.0869 -0.3083
36175DPPS   C4A44729  12.714   3.064  25.437  0.0141  0.1268  0.0008
36175DPPS   C1B44730  11.630   3.232  24.889  0.1188  0.1837 -0.0800
36175DPPS   C2B44731  11.802   3.296  25.256  0.2271  0.2742  0.0894
36175DPPS   C3B44732  12.211   3.242  25.531 -0.0500 -0.0419  0.1300
36175DPPS   C4B44733  12.518   3.313  25.911  0.1493 -0.0178  0.1721
36176DPPS   CNO44734  11.055   1.907  23.591  0.1673  0.1246 -0.0741
36176DPPS   PO444735  11.368   1.666  23.450  0.0157 -0.1170  0.1166
36176DPPS   GL144736  11.769   1.718  23.515 -0.0146 -0.1639 -0.1647
36176DPPS   GL244737  11.780   1.407  23.665 -0.0079 -0.0134  0.0251
36176DPPS   C1A44738  11.949   1.893  23.742  0.0707 -0.2222  0.0834
36176DPPS   C2A44739  12.228   2.002  24.053 -0.0960 -0.0877 -0.1249
36176DPPS   C3A44740  12.541   1.933  24.439 -0.0415  0.3077  0.1203
36176DPPS   C4A44741  12.868   1.938  24.808  0.1365 -0.0110 -0.0539
36176DPPS   C1B44742  11.813   1.305  24.009 -0.1224 -0.3404  0.1526
36176DPPS   C2B44743  11.964   1.141  24.332 -0.2005 -0.3452 -0.3711
36176DPPS   C3B44744  12.355   1.090  24.656  0.1381 -0.2048  0.0791
36176DPPS   C4B44745  12.642   1.101  25.048 -0.3365  0.2116  0.1198
36177DPPS   CNO44746  10.024   0.000  25.622 -0.2029 -0.1904  0.2455
36177DPPS   PO444747   9.971  -0.271  25.879  0.0350  0.0171  0.0995
36177DPPS   GL144748  10.242  -0.539  26.098 -0.1573 -0.4553 -0.1216
36177DPPS   GL244749  10.465  -0.544  25.888  0.2282 -0.2114  0.2616
36177DPPS   C1A44750  10.394  -0.527  26.453  0.0343  0.0672  0.0780
36177DPPS   C2A44751  10.509  -0.561  26.840  0.2639  0.1475 -0.0137
36177DPPS   C3A44752  10.726  -0.569  27.268 -0.1813 -0.0514  0.0406
36177DPPS   C4A44753  10.855  -0.575  27.708  0.0790 -0.1985 -0.1907
36177DPPS   C1B44754  10.663  -0.682  26.157 -0.1224 -0.2529  0.2872
36177DPPS   C2B44755  10.883  -0.704  26.508 -0.0044 -0.0223  0.2957
36177DPPS   C3B44756  11.099  -0.793  26.946  0.1112 -0.1999  0.1276
36177DPPS   C4B44757  11.329  -0.724  27.384  0.1785 -0.1188 -0.0497
36178DPPS   CNO44758  10.928   4.244  24.972  0.0419  0.0665 -0.1132
36178DPPS   PO444759  10.761   3.890  25.098  0.1988  0.2000  0.3355
36178DPPS   GL144760  11.035   3.820  25.378  0.2044 -0.2741 -0.1283
36178DPPS   GL244761  11.201   4.084  25.303  0.1654 -0.5034 -0.2683
36178DPPS   C1A44762  11.166   3.701  25.677 -0.2124 -0.0675 -0.1004
36178DPPS   C2A44763  11.357   3.680  26.024 -0.0435  0.3039  0.1156
36178DPPS   C3A44764  11.614   3.736  26.416 -0.4057 -0.2548 -0.0321
36178DPPS   C4A44765  11.901   3.718  26.795  0.0951 -0.1722 -0.0215
36178DPPS   C1B44766  11.153   4.159  25.660  0.4257  0.1345 -0.3979
36178DPPS   C2B44767  11.363   4.181  25.999  0.1345  0.0441 -0.4354
36178DPPS   C3B44768  11.553   4.220  26.429  0.1467 -0.3079  0.1973
36178DPPS   C4B44769  11.857   4.290  26.814  0.4615  0.0748  0.0943
36179DPPS   CNO44770  10.799   2.228  23.941  0.2077  0.2676  0.1102
36179DPPS   PO444771  11.167   2.102  24.032 -0.1880 -0.0632  0.0251
36179DPPS   GL144772  11.582   2.136  23.973 -0.2869  0.2129 -0.1433
36179DPPS   GL244773  11.584   1.872  23.925 -0.3669  0.3169 -0.2269
36179DPPS   C1A44774  11.813   2.165  24.196  0.1040 -0.0863 -0.0362
36179DPPS   C2A44775  12.076   2.175  24.517  0.0552 -0.0995  0.2785
36179DPPS   C3A44776  12.417   2.148  24.858 -0.2846  0.0268  0.2290
36179DPPS   C4A44777  12.681   2.128  25.236  0.0029  0.4599  0.3177
36179DPPS   C1B44778  11.844   1.698  24.121 -0.3527  0.0006  0.1684
36179DPPS   C2B44779  12.098   1.613  24.480 -0.1794 -0.0896 -0.2074
36179DPPS   C3B44780  12.404   1.612  24.837 -0.0020 -0.0283 -0.0686
36179DPPS   C4B44781  12.730   1.623  25.192  0.0067 -0.2762 -0.1947
36180DPPS   CNO44782  11.988   1.711  23.028 -0.0117 -0.0180 -0.0740
36180DPPS   PO444783  11.946   1.945  22.746 -0.3696  0.1882  0.0262
36180DPPS   GL144784  12.390   1.938  22.982  0.1248 -0.0143  0.2211
36180DPPS   GL244785  12.419   2.244  23.046  0.4061 -0.2184 -0.3233
36180DPPS   C1A44786  12.666   1.698  23.088  0.3047 -0.2967  0.2430
36180DPPS   C2A44787  12.848   1.612  23.460 -0.1199 -0.0053  0.3025
36180DPPS   C3A44788  13.121   1.559  23.803 -0.1221  0.0007 -0.1325
36180DPPS   C4A44789  13.430   1.565  24.167 -0.2492 -0.0956  0.0602
36180DPPS   C1B44790  12.722   2.106  23.233  0.1091  0.1964 -0.0088
36180DPPS   C2B44791  12.916   2.066  23.578  0.0584  0.0298  0.1421
36180DPPS   C3B44792  13.159   2.105  23.866 -0.1227 -0.0336 -0.1654
36180DPPS   C4B44793  13.495   2.050  24.294  0.2473  0.0845  0.0616
36181DPPS   CNO44794  11.953   3.267  22.129 -0.0752  0.2199  0.2191
36181DPPS   PO444795  11.816   3.348  22.470  0.1711  0.0617 -0.2035
36181DPPS   GL144796  12.095   3.378  22.738  0.1365  0.2511  0.0374
36181DPPS   GL244797  12.321   3.392  22.571  0.2444 -0.3955 -0.1900
36181DPPS   C1A44798  12.152   3.501  23.095 -0.1204 -0.1122 -0.0481
36181DPPS   C2A44799  12.438   3.634  23.382  0.0366 -0.0216 -0.0485
36181DPPS   C3A44800  12.724   3.654  23.687  0.2147 -0.1677  0.1838
36181DPPS   C4A44801  13.093   3.619  23.990  0.1687 -0.1576 -0.4520
36181DPPS   C1B44802  12.575   3.390  22.848  0.0123  0.3452  0.0089
36181DPPS   C2B44803  12.827   3.409  23.177  0.0508  0.1709  0.1028
36181DPPS   C3B44804  13.165   3.366  23.480  0.3905 -0.1682  0.2890
36181DPPS   C4B44805  13.542   3.433  23.774 -0.0169  0.0670  0.0650
36182DPPS   CNO44806  10.647   6.437  25.067  0.1149  0.0493 -0.2261
36182DPPS   PO444807  10.580   6.447  25.408  0.1543  0.2281 -0.2276
36182DPPS   GL144808  10.848   6.682  25.638 -0.0237  0.0887 -0.1942
36182DPPS   GL244809  11.000   6.669  25.437 -0.2681  0.2964 -0.0348
36182DPPS   C1A44810  10.963   6.813  25.967  0.1343 -0.0784 -0.0772
36182DPPS   C2A44811  11.127   6.793  26.312 -0.2018  0.2936  0.0586
36182DPPS   C3A44812  11.372   6.769  26.766  0.2218 -0.0849 -0.0377
36182DPPS   C4A44813  11.573   6.680  27.232 -0.1879  0.1879  0.0064
36182DPPS   C1B44814  11.255   6.623  25.680  0.0820  0.2232  0.0892
36182DPPS   C2B44815  11.428   6.520  26.008 -0.2089 -0.1121 -0.0550
36182DPPS   C3B44816  11.643   6.534  26.431 -0.1104  0.2370 -0.1941
36182DPPS   C4B44817  11.911   6.532  26.851  0.0129 -0.2385 -0.2019
36183DPPS   CNO44818  10.484   3.244  25.205  0.0220 -0.0763 -0.3947
36183DPPS   PO444819  10.592   3.543  25.435  0.1220 -0.0088  0.0527
36183DPPS   GL144820  10.743   3.422  25.802 -0.2504 -0.2242  0.1856
36183DPPS   GL244821  10.748   3.793  25.720 -0.2509  0.1951  0.4123
36183DPPS   C1A44822  11.016   3.356  26.077 -0.1901 -0.2477  0.1679
36183DPPS   C2A44823  11.162   3.420  26.406 -0.1126 -0.0792 -0.1884
36183DPPS   C3A44824  11.465   3.399  26.782 -0.1665 -0.4582  0.1176
36183DPPS   C4A44825  11.647   3.476  27.243  0.4235  0.0933 -0.2914
36183DPPS   C1B44826  10.927   3.894  26.037  0.1623 -0.0653  0.1942
36183DPPS   C2B44827  11.072   3.913  26.396  0.0177 -0.0874 -0.0607
36183DPPS   C3B44828  11.372   3.950  26.827  0.1260  0.0948  0.2434
36183DPPS   C4B44829  11.721   3.951  27.182 -0.3743  0.1595 -0.1060
36184DPPS   CNO44830  10.841   5.019  24.351 -0.1178  0.2253  0.0823
36184DPPS   PO444831  10.963   5.279  24.111  0.1225 -0.2402  0.0352
36184DPPS   GL144832  11.339   5.399  24.317  0.1790  0.0609 -0.1633
36184DPPS   GL244833  11.545   5.229  24.144 -0.0647  0.2193 -0.0109
36184DPPS   C1A44834  11.418   5.628  24.601 -0.0184  0.1695 -0.1578
36184DPPS   C2A44835  11.718   5.692  24.922  0.0662  0.1712  0.0142
36184DPPS   C3A44836  12.064   5.713  25.265 -0.1207 -0.2586 -0.0585
36184DPPS   C4A44837  12.380   5.728  25.644 -0.0016  0.0322  0.2223
36184DPPS   C1B44838  11.769   5.015  24.235 -0.1203 -0.1502 -0.1486
36184DPPS   C2B44839  11.930   4.918  24.612 -0.2229  0.0937 -0.0605
36184DPPS   C3B44840  12.322   4.883  24.896 -0.2369 -0.0622 -0.2746
36184DPPS   C4B44841  12.699   4.958  25.203 -0.0821  0.0076  0.1155
36185DPPS   CNO44842  12.310   2.245  21.361 -0.0509  0.1146 -0.0969
36185DPPS   PO444843  12.445   2.533  21.601 -0.1446  0.3637 -0.0019
36185DPPS   GL144844  12.753   2.590  21.898  0.0931  0.1749  0.2459
36185DPPS   GL244845  12.912   2.521  21.701  0.0469 -0.2224  0.1826
36185DPPS   C1A44846  12.918   2.408  22.219 -0.1532 -0.0506 -0.0718
36185DPPS   C2A44847  13.171   2.271  22.546  0.0067  0.1393  0.0220
36185DPPS   C3A44848  13.498   2.279  22.984 -0.1539  0.0256  0.2015
36185DPPS   C4A44849  13.835   2.183  23.400 -0.0011 -0.0388  0.2444
36185DPPS   C1B44850  13.181   2.521  21.948  0.0089  0.0911  0.2254
36185DPPS   C2B44851  13.453   2.588  22.261  0.2158 -0.3563  0.1442
36185DPPS   C3B44852  13.737   2.469  22.599 -0.0292 -0.3149 -0.2815
36185DPPS   C4B44853  13.969   2.506  23.019  0.1177  0.1210  0.2728
36186DPPS   CNO44854  10.297   2.050  25.676 -0.0990 -0.0827 -0.1676
36186DPPS   PO444855  10.430   1.667  25.698 -0.1707 -0.0367 -0.0575
36186DPPS   GL144856  10.519   1.544  26.101  0.1396 -0.0375 -0.0966
36186DPPS   GL244857  10.313   1.743  26.100  0.2561  0.1056 -0.1001
36186DPPS   C1A44858  10.636   1.508  26.428 -0.0881  0.1414 -0.2721
36186DPPS   C2A44859  10.768   1.341  26.799 -0.3027 -0.3128 -0.2248
36186DPPS   C3A44860  11.013   1.331  27.251 -0.1381 -0.3017  0.1117
36186DPPS   C4A44861  11.132   1.262  27.706 -0.0875  0.0404 -0.2298
36186DPPS   C1B44862  10.240   1.678  26.504 -0.1101  0.4696  0.1379
36186DPPS   C2B44863  10.238   1.531  26.910 -0.0849 -0.3465  0.1229
36186DPPS   C3B44864  10.542   1.527  27.324  0.1532 -0.1041  0.0494
36186DPPS   C4B44865  10.721   1.550  27.787  0.1353  0.1242  0.1842
36187DPPS   CNO44866  11.626   2.967  22.802  0.0975  0.1416  0.0403
36187DPPS   PO444867  11.602   2.922  23.166  0.2042 -0.0639 -0.2742
36187DPPS   GL144868  11.788   2.547  23.388  0.2553  0.0704  0.0210
36187DPPS   GL244869  12.061   2.608  23.343 -0.0592  0.0777 -0.2800
36187DPPS   C1A44870  11.863   2.462  23.714  0.2451 -0.1721 -0.0049
36187DPPS   C2A44871  12.137   2.498  24.069 -0.0567  0.2034 -0.1757
36187DPPS   C3A44872  12.475   2.454  24.456  0.1701  0.2104 -0.3253
36187DPPS   C4A44873  12.826   2.408  24.827  0.0858  0.1394 -0.3448
36187DPPS   C1B44874  12.203   2.797  23.643 -0.2721 -0.2267 -0.2086
36187DPPS   C2B44875  12.533   2.821  23.926 -0.0445  0.0522  0.0639
36187DPPS   C3B44876  12.851   2.795  24.277 -0.0312  0.0020  0.2579
36187DPPS   C4B44877  13.198   2.740  24.621  0.1644  0.0514  0.0842
36188DPPS   CNO44878  11.077   3.771  23.452 -0.0962 -0.4509  0.2802
36188DPPS   PO444879  11.027   4.158  23.471  0.2283 -0.0272 -0.1670
36188DPPS   GL144880  11.414   4.197  23.653 -0.0301 -0.3743 -0.5090
36188DPPS   GL244881  11.395   3.938  23.786  0.2038 -0.2341 -0.1778
36188DPPS   C1A44882  11.698   4.251  23.561  0.1459 -0.0585  0.0453
36188DPPS   C2A44883  12.073   4.317  23.746 -0.1430 -0.0528  0.0401
36188DPPS   C3A44884  12.371   4.309  24.100 -0.0846 -0.1067 -0.0217
36188DPPS   C4A44885  12.624   4.339  24.482  0.1036  0.1504  0.2322
36188DPPS   C1B44886  11.730   3.908  23.915  0.2026  0.1463 -0.0736
36188DPPS   C2B44887  12.004   3.992  24.206  0.0809  0.2711 -0.2103
36188DPPS   C3B44888  12.309   3.913  24.562 -0.0847 -0.0577 -0.0377
36188DPPS   C4B44889  12.597   3.919  24.872  0.0113 -0.0162 -0.0516
36189DPPS   CNO44890  10.215   4.864  25.772 -0.0109 -0.0850  0.2143
36189DPPS   PO444891  10.396   5.209  25.696 -0.1691 -0.1921  0.0388
36189DPPS   GL144892  10.623   5.417  26.118 -0.2266  0.4593  0.1380
36189DPPS   GL244893  10.791   5.550  25.823  0.1895 -0.3050 -0.2627
36189DPPS   C1A44894  10.787   5.332  26.433 -0.4122 -0.0142 -0.0306
36189DPPS   C2A44895  11.069   5.358  26.719  0.1921  0.3085  0.3078
36189DPPS   C3A44896  11.291   5.378  27.124 -0.0226 -0.1327  0.0807
36189DPPS   C4A44897  11.533   5.367  27.554  0.1220 -0.3169  0.0643
36189DPPS   C1B44898  11.052   5.817  25.815 -0.2703  0.0372  0.4053
36189DPPS   C2B44899  11.322   5.998  26.031 -0.0258  0.0667  0.1422
36189DPPS   C3B44900  11.718   6.075  26.263  0.1512  0.0353 -0.2210
36189DPPS   C4B44901  12.069   6.304  26.469 -0.1622 -0.3269 -0.2010
36190DPPS   CNO44902   9.734   4.994  26.394  0.1184 -0.0060  0.1670
36190DPPS   PO444903   9.983   4.759  26.214 -0.1400  0.1381 -0.0620
36190DPPS   GL144904   9.953   4.392  26.570 -0.5800  0.0042 -0.0378
36190DPPS   GL244905   9.801   4.631  26.628  0.0159 -0.2527 -0.0647
36190DPPS   C1A44906  10.201   4.246  26.790 -0.0969 -0.2878 -0.0634
36190DPPS   C2A44907  10.398   4.202  27.155 -0.0536 -0.0600 -0.3598
36190DPPS   C3A44908  10.572   4.163  27.547 -0.1074 -0.2466 -0.0189
36190DPPS   C4A44909  10.762   4.309  28.037  0.0698 -0.0239  0.0562
36190DPPS   C1B44910   9.479   4.669  26.776 -0.4277  0.0171  0.0591
36190DPPS   C2B44911   9.164   4.802  26.994 -0.0001  0.0801 -0.1335
36190DPPS   C3B44912   8.813   4.817  27.319 -0.0501 -0.0479 -0.1748
36190DPPS   C4B44913   8.556   5.249  27.454 -0.0272  0.0006  0.0944
36191DPPS   CNO44914  12.155   1.185  22.441 -0.1568  0.1314 -0.1014
36191DPPS   PO444915  12.551   1.109  22.512 -0.0903  0.3688  0.0215
36191DPPS   GL144916  12.814   0.851  22.603  0.4125 -0.1475 -0.2613
36191DPPS   GL244917  12.877   0.599  22.438 -0.1266 -0.0806  0.2589
36191DPPS   C1A44918  13.064   0.928  22.854 -0.2079  0.0765 -0.1446
36191DPPS   C2A44919  13.373   0.900  23.181  0.2196  0.4347 -0.0022
36191DPPS   C3A44920  13.673   0.823  23.556  0.0855  0.0244  0.3301
36191DPPS   C4A44921  14.056   0.840  23.893  0.0282 -0.2860  0.0261
36191DPPS   C1B44922  13.038   0.455  22.728  0.1421  0.1478  0.0617
36191DPPS   C2B44923  13.311   0.430  23.032  0.0839 -0.0119  0.0914
36191DPPS   C3B44924  13.583   0.370  23.346  0.1079  0.0449  0.0014
36191DPPS   C4B44925  13.901   0.400  23.736  0.2910  0.1010  0.3825
36192DPPS   CNO44926   9.888   5.402  25.593  0.0765  0.0325  0.0250
36192DPPS   PO444927   9.797   5.165  25.891 -0.1963  0.0735  0.0820
36192DPPS   GL144928   9.443   5.185  26.066 -0.2113 -0.1373  0.2228
36192DPPS   GL244929   9.292   4.978  25.988  0.0077 -0.0076  0.6727
36192DPPS   C1A44930   9.339   5.314  26.424  0.5340  0.4104  0.1635
36192DPPS   C2A44931   9.141   5.300  26.778  0.0480  0.2216  0.2601
36192DPPS   C3A44932   8.920   5.322  27.150 -0.1394 -0.1581 -0.1415
36192DPPS   C4A44933   8.943   5.500  27.586 -0.0841  0.0519  0.0655
36192DPPS   C1B44934   9.062   4.957  26.239 -0.1287  0.3102  0.1562
36192DPPS   C2B44935   8.848   4.975  26.534 -0.1813 -0.0073 -0.0911
36192DPPS   C3B44936   8.568   5.022  26.962  0.1769 -0.2043 -0.2387
36192DPPS   C4B44937   8.201   4.958  27.317 -0.0488  0.2464  0.2763
36193DPPS   CNO44938  11.865   6.461  22.272  0.1400 -0.2551 -0.1073
36193DPPS   PO444939  12.157   6.240  22.394  0.1258  0.1494 -0.1846
36193DPPS   GL144940  12.518   6.409  22.481  0.1564 -0.0236 -0.2238
36193DPPS   GL244941  12.656   6.443  22.278  0.3009 -0.3338  0.1885
36193DPPS   C1A44942  12.820   6.349  22.722  0.0943 -0.1305  0.0195
36193DPPS   C2A44943  13.006   6.280  23.125  0.1901  0.1164  0.2641
36193DPPS   C3A44944  13.343   6.237  23.518  0.0999 -0.3724  0.0726
36193DPPS   C4A44945  13.610   6.218  23.909  0.0328 -0.0622 -0.2411
36193DPPS   C1B44946  12.928   6.123  22.333  0.0709 -0.3080 -0.0429
36193DPPS   C2B44947  13.142   6.104  22.659 -0.0983 -0.0330  0.1660
36193DPPS   C3B44948  13.436   6.013  23.023  0.0451 -0.0110  0.0373
36193DPPS   C4B44949  13.752   6.059  23.364 -0.0712  0.0158  0.0771
36194DPPS   CNO44950   9.444   4.331  25.913  0.2383  0.2101 -0.1860
36194DPPS   PO444951   9.711   4.300  26.167  0.0427 -0.0741  0.1462
36194DPPS   GL144952   9.649   4.095  26.515  0.2792  0.1554 -0.4988
36194DPPS   GL244953   9.403   4.247  26.581 -0.3035 -0.1296  0.0363
36194DPPS   C1A44954   9.828   3.983  26.820 -0.2600  0.1774  0.6817
36194DPPS   C2A44955   9.980   3.966  27.176 -0.1828 -0.3352 -0.0940
36194DPPS   C3A44956  10.164   3.917  27.669 -0.1392 -0.1364  0.0676
36194DPPS   C4A44957  10.315   3.924  28.150 -0.2217 -0.1114  0.2804
36194DPPS   C1B44958   9.134   4.302  26.838 -0.0744  0.0027 -0.0533
36194DPPS   C2B44959   9.035   4.359  27.237 -0.0386  0.1055 -0.3995
36194DPPS   C3B44960   8.836   4.458  27.615  0.0346 -0.2408 -0.0482
36194DPPS   C4B44961   8.550   4.406  28.019 -0.1860  0.1732 -0.0644
36195DPPS   CNO44962  12.184   4.465  21.814 -0.0754  0.1034  0.4201
36195DPPS   PO444963  12.120   4.566  22.174  0.0675  0.0252 -0.0580
36195DPPS   GL144964  12.370   4.343  22.503  0.1530 -0.4272  0.2595
36195DPPS   GL244965  12.546   4.633  22.436 -0.2083  0.2213 -0.1731
36195DPPS   C1A44966  12.335   4.357  22.883  0.3480  0.2530  0.0438
36195DPPS   C2A44967  12.589   4.420  23.182 -0.0146 -0.1319 -0.3565
36195DPPS   C3A44968  12.933   4.386  23.500 -0.0276  0.1254 -0.0033
36195DPPS   C4A44969  13.290   4.418  23.865  0.0370 -0.1575  0.1945
36195DPPS   C1B44970  12.808   4.654  22.649  0.1686 -0.2426 -0.2776
36195DPPS   C2B44971  13.009   4.646  23.047  0.2174  0.0838  0.0184
36195DPPS   C3B44972  13.320   4.666  23.446  0.2084 -0.2519  0.1234
36195DPPS   C4B44973  13.715   4.662  23.759  0.2821  0.1451  0.1758
36196DPPS   CNO44974   9.488   3.198  25.592  0.0486 -0.1154 -0.2546
36196DPPS   PO444975   9.770   3.417  25.724  0.0161  0.2571  0.5464
36196DPPS   GL144976   9.709   3.203  26.118 -0.1773 -0.0335  0.2829
36196DPPS   GL244977   9.572   2.977  26.005  0.1669 -0.2071  0.0803
36196DPPS   C1A44978   9.638   3.235  26.475  0.0670 -0.0106  0.1072
36196DPPS   C2A44979   9.506   3.319  26.851 -0.2053 -0.1168 -0.0629
36196DPPS   C3A44980   9.269   3.324  27.227  0.2073 -0.1396  0.2299
36196DPPS   C4A44981   8.949   3.369  27.574  0.0722  0.2013 -0.4465
36196DPPS   C1B44982   9.301   3.000  26.236  0.0752  0.2406 -0.3512
36196DPPS   C2B44983   9.131   2.977  26.636  0.1114  0.0019  0.4140
36196DPPS   C3B44984   8.853   2.988  27.084 -0.2570 -0.4835  0.3553
36196DPPS   C4B44985   8.590   3.057  27.544  0.1578 -0.1566  0.2146
36197DPPS   CNO44986  10.360   0.359  25.649  0.1876  0.0063  0.0152
36197DPPS   PO444987  10.324   0.681  25.888  0.2306 -0.2772  0.3233
36197DPPS   GL144988  10.552   0.528  26.041 -0.1216  0.0022  0.2137
36197DPPS   GL244989  10.794   0.677  26.008 -0.0719  0.0086 -0.0041
36197DPPS   C1A44990  10.644   0.367  26.405 -0.0076  0.0651  0.2418
36197DPPS   C2A44991  10.823   0.225  26.743 -0.0133 -0.0967  0.2396
36197DPPS   C3A44992  11.011   0.219  27.212  0.0353 -0.3112  0.0015
36197DPPS   C4A44993  11.225   0.350  27.665 -0.2160 -0.3254 -0.0123
36197DPPS   C1B44994  11.063   0.605  26.258  0.1938 -0.0892 -0.2824
36197DPPS   C2B44995  11.215   0.615  26.696  0.1526 -0.1268 -0.2351
36197DPPS   C3B44996  11.495   0.550  27.058 -0.0581  0.5865 -0.0069
36197DPPS   C4B44997  11.658   0.543  27.470  0.0665 -0.0544 -0.1850
36198W        W44998  20.319   0.234   6.320 -0.0405  0.0616  0.0360
36199W        W44999  20.382   3.350   4.535  0.0187 -0.1797  0.3975
36200W        W45000  13.117   1.852  35.181  0.4994 -0.0076 -0.1945
36201W        W45001  10.732   1.706  35.332  0.0990 -0.0131 -0.0845
36202W        W45002   2.254   0.685   7.485 -0.0185 -0.1238 -0.0155
36203W        W45003  16.776   6.022  24.409 -0.1787 -0.2368  0.0677
36204W        W45004  17.413   1.881  10.687  0.0134  0.1876  0.2384
36205W        W45005   6.812   2.582  29.849 -0.3232  0.4138  0.1339
36206W        W45006   7.215   5.885  12.613 -0.1763 -0.2439  0.3776
36207W        W45007   5.963   0.324   0.916 -0.1874 -0.0035 -0.1192
36208W        W45008   1.724   4.543  33.232 -0.0981 -0.1127 -0.2022
36209W        W45009  13.456   4.606  37.482  0.0764  0.1015 -0.1462
36210W        W45010   2.166   3.184  26.457 -0.0060 -0.0248 -0.1741
36211W        W45011   4.492   5.450  44.524 -0.1366  0.1201 -0.0989
36212W        W45012  18.614   0.385  10.453  0.2028 -0.0918  0.0372
36213W        W45013  15.763   5.259  32.287 -0.2213  0.0578 -0.0093
36214W        W45014   8.802   2.530  32.349  0.0370  0.0150 -0.1459
36215W        W45015  15.648   3.332  33.398  0.0662  0.1896 -0.1703
36216W        W45016  13.335   3.019  39.253 -0.0532  0.1045  0.2050
36217W        W45017   0.809   5.656  24.695  0.2740 -0.1707 -0.3204
36218W        W45018  17.642   5.796   2.265  0.0776  0.1107 -0.0132
36219W        W45019   1.794   5.876  30.599 -0.1172 -0.1250  0.0027
36220W        W45020   6.833   5.957  31.612 -0.0267 -0.1230 -0.0345
36221W        W45021  14.399   4.534  11.272  0.2752 -0.0389 -0.1253
36222W        W45022   3.416   0.112  30.372 -0.0923 -0.0425 -0.4026
36223W        W45023  19.321   5.854  30.205 -0.0426  0.0266  0.3847
36224W        W45024   4.400   0.672  35.442 -0.1516 -0.1508 -0.2792
36225W        W45025   2.922   1.313  43.805  0.1224  0.3411  0.1364
36226W        W45026   6.827   4.713  37.431 -0.1729  0.0448 -0.0663
36227W        W45027   5.925   1.682   1.183  0.0222 -0.2058 -0.0220
36228W        W45028  20.214   6.599  41.307  0.0960 -0.0307 -0.1728
36229W        W45029   6.846   0.253   9.510 -0.0274  0.0453 -0.1322
36230W        W45030  19.787   3.320  25.129  0.1177 -0.1235  0.0792
36231W        W45031   2.212   4.626  12.842 -0.1557 -0.2156  0.0814
36232W        W45032  14.345   6.141  34.133  0.2560 -0.2813 -0.2166
36233W        W45033  18.911   2.927  22.963 -0.2971 -0.0427  0.0443
36234W        W45034   8.826   4.337  38.454 -0.0807 -0.0268  0.0382
36235W        W45035  15.291   1.901  10.955  0.1379  0.0011  0.0503
36236W        W45036  13.184   5.755   9.277  0.2307 -0.2344  0.0504
36237W        W45037   5.808   1.852  16.375  0.3361  0.0410 -0.0790
36238W        W45038   7.660   2.729   1.780 -0.2403 -0.1316  0.0067
36239W        W45039   6.988   2.264  15.852 -0.2561  0.0149 -0.2432
36240W        W45040   1.114   1.253  37.299  0.2131  0.0263  0.0508
36241W        W45041  19.866   0.174  38.631  0.0815  0.0044  0.1341
36242W        W45042  14.342   4.963   5.721  0.0667 -0.4353 -0.1505
36243W        W45043   6.658   5.807  28.800  0.1485 -0.1908  0.0747
36244W        W45044   6.047   5.501  39.503  0.0082 -0.1161  0.3690
36245W        W45045   6.904   1.087  30.926 -0.2258  0.0113 -0.1346
36246W        W45046   2.393   1.602  43.740 -0.3252  0.1862 -0.0497
36247W        W45047  10.882   1.817   5.429 -0.1061  0.0369  0.0270
36248W        W45048  10.733   2.968  36.634 -0.2095  0.2704  0.0574
36249W        W45049  12.975   4.467  17.643  0.2726 -0.3901 -0.0176
36250W        W45050  12.034   3.711   3.766 -0.1369  0.1613 -0.3028
36251W        W45051  20.400   2.791   9.212 -0.0043  0.0371 -0.0509
36252W        W45052   1.087   1.436  27.881  0.0872  0.1074  0.1474
36253W        W45053   0.320   2.912   3.307 -0.0669  0.3036  0.1049
36254W        W45054  18.502   1.447  36.227  0.0142  0.1637 -0.0168
36255W        W45055   5.673   0.600   8.970  0.0561  0.1009 -0.0150
36256W        W45056   1.040   1.489  25.401 -0.2589 -0.0170 -0.0064
36257W        W45057  16.642   3.163  39.475 -0.0708  0.0219 -0.0949
36258W        W45058   0.040   1.215  38.408 -0.0285 -0.3317 -0.0647
36259W        W45059   1.758   6.339  32.652  0.0276  0.2394  0.2021
36260W        W45060   9.826   5.153   4.840  0.1183 -0.1522 -0.0312
36261W        W45061   2.792   0.806   6.877  0.1982 -0.1812  0.3666
36262W        W45062   0.514   1.140  10.600  0.0842  0.2028 -0.2597
36263W        W45063   4.706   3.005  29.034  0.0594 -0.3589  0.0329
36264W        W45064   4.843   4.932  31.726  0.2904 -0.0728  0.0992
36265W        W45065   3.927   4.566  42.468  0.0219  0.3389 -0.2109
36266W        W45066   2.245   4.750  29.195  0.2275  0.1591 -0.2504
36267W        W45067  16.423   0.612  13.257 -0.1019 -0.3094  0.2384
36268W        W45068  15.777   6.526  25.989  0.0926  0.0807  0.0405
36269W        W45069   3.767   6.122  10.752 -0.3978 -0.2064 -0.0117
36270W        W45070  12.517   5.535  32.538 -0.1368  0.1191 -0.1409
36271W        W45071  20.007   0.316  25.591 -0.1391 -0.3575 -0.1363
36272W        W45072  19.660   1.794  15.512  0.3064 -0.4247 -0.0736
36273W        W45073   9.067   4.712   2.815 -0.0852 -0.0632  0.0569
36274W        W45074   5.686   2.713  41.193  0.0283  0.0223  0.0285
36275W        W45075   8.225   4.830  38.130  0.1645  0.1046 -0.1204
36276W        W45076   3.611   2.315  33.489 -0.2085  0.0489 -0.0479
36277W        W45077  16.902   3.119   3.606  0.0468  0.0184 -0.1873
36278W        W45078   4.889   1.718   3.233 -0.3050 -0.1255 -0.2104
36279W        W45079   1.826   1.408  29.875 -0.0454 -0.1737  0.0775
36280W        W45080   5.912   3.362   7.714  0.1548  0.0223 -0.1824
36281W        W45081  18.999   5.674  42.088 -0.0441  0.0975  0.3020
36282W        W45082  11.456   5.983  30.748  0.1036  0.1271  0.1942
36283W        W45083  20.146   3.997  36.683 -0.0671 -0.2547  0.1185
36284W        W45084   0.574   5.587   8.739  0.1640 -0.0528  0.0006
36285W        W45085  15.551   0.529  30.792 -0.1290 -0.0856  0.0048
36286W        W45086   8.341   3.610  35.476  0.0269 -0.1446  0.1369
36287W        W45087  10.882   4.638   9.694 -0.3099  0.1428 -0.1388
36288W        W45088   2.225   4.754  26.464  0.3999 -0.2010  0.1452
36289W        W45089  14.063   3.207  37.918  0.1839  0.2076 -0.3266
36290W        W45090  14.492   2.257  11.508 -0.2003  0.0709 -0.1268
36291W        W45091  11.553   5.302  12.229  0.2361 -0.0632 -0.0847
36292W        W45092  17.056   2.827  35.460  0.0211 -0.0841  0.0104
36293W        W45093   1.646   5.408  27.159  0.1961 -0.1772 -0.0603
36294W        W45094  17.002   5.339   6.988 -0.0243  0.3087 -0.1246
36295W        W45095  17.458   4.521   9.649  0.3622 -0.0125  0.0904
36296W        W45096   3.674   2.607  41.102 -0.0893 -0.0226  0.0148
36297W        W45097   4.490   1.248  11.751 -0.3269  0.1092 -0.2902
36298W        W45098   0.652   6.344  40.068  0.1036 -0.1182  0.0562
36299W        W45099  14.699   1.319  43.744 -0.2962 -0.1240 -0.0197
36300W        W45100   9.342   1.383   6.239 -0.0807  0.1073 -0.0726
36301W        W45101  10.009   6.125  35.227 -0.2548 -0.3055  0.1383
36302W        W45102   2.677   5.061  10.246  0.1886  0.0577 -0.0246
36303W        W45103  11.414   3.321   6.893 -0.1628 -0.3564 -0.1393
36304W        W45104  19.749   1.481  24.468 -0.0720 -0.0923 -0.1634
36305W        W45105   8.209   0.593  17.067 -0.0363  0.2144 -0.0739
36306W        W45106  13.395   0.245  42.854  0.2348 -0.1919  0.1307
36307W        W45107   2.794   2.170  29.015 -0.2680  0.0301  0.2895
36308W        W45108   8.123   0.844   0.159  0.0495 -0.1336 -0.0903
36309W        W45109   2.199   4.475   8.446  0.0137  0.0599 -0.1067
36310W        W45110   8.487   4.486  16.279  0.3628  0.0244  0.2746
36311W        W45111  15.362   4.358   3.954  0.1416 -0.0831 -0.2917
36312W        W45112   8.319   0.331  38.889 -0.4148  0.1178  0.0787
36313W        W45113  20.591   3.700  36.241 -0.0762  0.0924 -0.1561
36314W        W45114   6.541   0.488  18.198 -0.0680  0.4172 -0.0650
36315W        W45115  10.325   1.706  16.985  0.2127 -0.0010 -0.1278
36316W        W45116  14.413   1.797  36.421  0.0276 -0.1549  0.0338
36317W        W45117   8.950   1.427  42.620 -0.2326 -0.1953 -0.0341
36318W        W45118  18.653   6.094  33.378 -0.2798 -0.4310 -0.0635
36319W        W45119   0.153   6.291  40.083 -0.0672  0.4996  0.0183
36320W        W45120   9.889   4.021   2.605 -0.1188  0.2307 -0.0095
36321W        W45121   3.354   5.030   2.790  0.1062  0.1630 -0.0845
36322W        W45122  11.191   3.181  34.029  0.2157  0.1168  0.0534
36323W        W45123  18.566   2.792  34.025  0.1375 -0.1109  0.1546
36324W        W45124   1.776   2.550   0.204 -0.1604  0.3158 -0.1658
36325W        W45125  10.632   4.153  44.073 -0.1014 -0.1096 -0.1338
36326W        W45126  13.678   1.410   7.237 -0.2315 -0.0391  0.2291
36327W        W45127  12.436   2.338  41.859  0.3443 -0.1638  0.1266
36328W        W45128   9.256   4.949   1.916 -0.0960  0.0521  0.0014
36329W        W45129  15.097   5.536  36.018 -0.0480  0.0921  0.1397
36330W        W45130  10.502   1.652   7.832  0.1623  0.0604  0.2170
36331W        W45131   9.019   2.800  18.199  0.1950 -0.1644  0.0511
36332W        W45132  13.252   5.028  13.441  0.2246 -0.2957  0.0761
36333W        W45133   9.743   2.411   1.858 -0.0228  0.3686  0.1502
36334W        W45134   9.831   1.853  13.347 -0.1538  0.0640  0.1097
36335W        W45135  17.408   4.557   7.096  0.0278 -0.0103 -0.1807
36336W        W45136  15.498   5.005   1.685 -0.0295  0.0273  0.2075
36337W        W45137   5.843   0.129  31.382 -0.1653 -0.2723 -0.0691
36338W        W45138  19.156   6.412  29.845 -0.0257 -0.1949 -0.1263
36339W        W45139  18.300   6.407   5.393 -0.2201  0.0480  0.1638
36340W        W45140   7.499   5.786   7.605  0.2519 -0.1563 -0.0337
36341W        W45141  10.564   5.945  31.081  0.5399  0.0484  0.2577
36342W        W45142  13.843   3.001  34.081  0.1312  0.0047  0.0037
36343W        W45143  18.870   1.853  34.051 -0.3303 -0.0264 -0.0232
36344W        W45144  11.654   1.998   3.792  0.0230  0.1992 -0.0114
36345W        W45145  17.537   0.013  23.301  0.0122 -0.1685 -0.2476
36346W        W45146  13.330   0.521  37.218 -0.2482  0.2317 -0.0561
36347W        W45147  18.163   4.846   5.147  0.2968  0.1499  0.2029
36348W        W45148   6.125   2.741  20.312  0.0224  0.0280 -0.2172
36349W        W45149   9.923   4.720  37.530  0.1298 -0.1912 -0.1098
36350W        W45150   8.057   6.379   9.687  0.5520 -0.1251 -0.0425
36351W        W45151  11.632   3.442  19.383  0.0696 -0.0453  0.3126
36352W        W45152  19.994   3.094  21.846  0.0667  0.1530 -0.0615
36353W        W45153  17.129   3.280  14.399 -0.0128  0.4252 -0.1800
36354W        W45154   7.297   4.819  36.678 -0.1348  0.2280  0.0032
36355W        W45155   6.279   1.195  43.378  0.1377  0.0505  0.0293
36356W        W45156  15.998   4.616  34.176 -0.0864 -0.2606  0.0997
36357W        W45157  11.790   3.584  34.653 -0.1658  0.0252  0.1243
36358W        W45158  19.505   2.389  26.393  0.0027 -0.1624  0.0893
36359W        W45159  11.977   4.398  42.387 -0.1240  0.2190  0.2268
36360W        W45160  17.762   5.593  34.093  0.1900 -0.1128 -0.3270
36361W        W45161   2.091   0.069  32.760 -0.1240  0.0924 -0.0305
36362W        W45162   5.005   0.474  41.599 -0.1767  0.0219 -0.1743
36363W        W45163  12.498   6.129  41.536  0.0194  0.0648  0.3467
36364W        W45164  18.175   3.991  33.251  0.0686  0.0534 -0.1004
36365W        W45165  14.267   3.396  35.821 -0.2973 -0.0518 -0.0487
36366W        W45166   3.208   2.453   2.962  0.1978  0.2914  0.2217
36367W        W45167  12.980   5.648  27.442  0.1790  0.2249  0.0447
36368W        W45168  19.006   4.553  27.455  0.1257  0.1087  0.2239
36369W        W45169   4.614   3.750  36.747 -0.1397  0.0614 -0.0440
36370W        W45170  11.978   2.272  13.993  0.1024 -0.0750  0.2826
36371W        W45171  18.825   0.466   2.280 -0.1609 -0.1210 -0.1384
36372W        W45172  10.920   1.397   7.811  0.2437 -0.2604 -0.3507
36373W        W45173   4.563   1.826  40.971  0.0231 -0.1731  0.2585
36374W        W45174   5.904   4.641   4.535  0.4007  0.3420 -0.0923
36375W        W45175   9.131   0.235   8.260 -0.0404  0.2333 -0.1480
36376W        W45176   3.638   5.601  31.571 -0.3100  0.0886  0.2536
36377W        W45177  14.951   3.905  31.992 -0.1640  0.0350  0.1573
36378W        W45178  15.180   1.059   5.317 -0.0707 -0.2999  0.0809
36379W        W45179   8.816   2.344  23.161 -0.1512  0.1107 -0.1645
36380W        W45180   7.082   2.380   4.105 -0.4346  0.2595  0.0476
36381W        W45181   3.391   1.280  29.335 -0.1273 -0.0391 -0.0190
36382W        W45182   9.401   2.992  38.330  0.1663  0.1591 -0.0719
36383W        W45183   0.395   0.787  13.164 -0.1468 -0.0391 -0.0777
36384W        W45184  14.331   0.128  11.698  0.3574  0.1228 -0.1237
36385W        W45185   5.662   0.277  10.201 -0.0184  0.1782 -0.2449
36386W        W45186  14.179   2.837   2.543  0.0782 -0.0506 -0.2116
36387W        W45187   1.520   0.674  40.660  0.2107 -0.0241 -0.0506
36388W        W45188   9.458   0.820  31.113  0.0470 -0.1188  0.0838
36389W        W45189  12.773   2.301   5.726 -0.0971 -0.2467  0.1897
36390W        W45190  19.572   0.273   7.975 -0.1991 -0.1608  0.0296
36391W        W45191  10.615   0.322  10.400 -0.1057  0.0278 -0.0098
36392W        W45192   7.777   1.650  40.461 -0.1094  0.0413  0.0005
36393W        W45193   9.697   2.631  11.958 -0.1571 -0.0499  0.0821
36394W        W45194  20.570   5.297  24.458 -0.0622  0.0963  0.0196
36395W        W45195   9.330   0.721   1.928 -0.2162  0.0969 -0.0649
36396W        W45196   6.773   3.556  11.056 -0.1959 -0.0822  0.0672
36397W        W45197  17.017   1.916  43.086  0.2605  0.0594  0.1237
36398W        W45198  15.084   5.374  13.755  0.0576  0.0198  0.2245
36399W        W45199  20.446   0.528   0.332  0.1657 -0.0750  0.0602
36400W        W45200  13.356   4.377  16.934  0.0351  0.0942 -0.0344
36401W        W45201   9.513   3.936  24.570  0.0782  0.1364 -0.1949
36402W        W45202   1.136   5.783   4.896 -0.3356 -0.2155  0.1600
36403W        W45203   6.534   0.297  35.637 -0.0114  0.0828 -0.1706
36404W        W45204   4.962   0.043  11.911  0.2489 -0.3405  0.0674
36405W        W45205   0.918   1.156  27.038  0.0359  0.1307  0.3168
36406W        W45206  13.531   3.593  12.162  0.0227  0.1070 -0.1660
36407W        W45207  13.298   3.999  29.818 -0.1625  0.2621  0.1005
36408W        W45208   5.996   4.846  34.752 -0.1313  0.0144 -0.2070
36409W        W45209  17.853   3.769  42.495 -0.0411 -0.2309 -0.1037
36410W        W45210   6.754   1.993  10.053  0.3688 -0.1969 -0.1453
36411W        W45211  15.271   1.923   8.694  0.1315 -0.1333 -0.3384
36412W        W45212   2.303   5.916  30.676  0.4316 -0.0975 -0.0363
36413W        W45213   9.821   1.826  21.779  0.2767 -0.0867 -0.4526
36414W        W45214  20.916   6.524  27.716 -0.1223 -0.0452  0.0102
36415W        W45215  20.485   0.759   4.827 -0.1702  0.2561  0.3642
36416W        W45216  12.791   0.121   3.178 -0.2956 -0.1086  0.0464
36417W        W45217  15.126   1.139  38.878  0.0471  0.1560 -0.2060
36418W        W45218   2.192   4.132  12.717  0.0685 -0.0651  0.0389
36419W        W45219   9.462   6.550   8.501  0.0646 -0.1234 -0.1655
36420W        W45220   1.957   1.220  35.731 -0.2988  0.0388 -0.1826
36421W        W45221   9.698   6.129   8.450 -0.0117  0.1196 -0.1032
36422W        W45222   8.747   0.876   7.696 -0.0003 -0.4083 -0.2537
36423W        W45223   0.767   5.236  30.993 -0.1242 -0.0068 -0.3703
36424W        W45224   6.417   3.104  14.113  0.0640  0.2623  0.2733
36425W        W45225  10.027   4.728  13.555 -0.2550  0.0962 -0.0480
36426W        W45226  14.452   5.121   2.545 -0.1049  0.2400  0.1824
36427W        W45227   3.581   0.222   6.702 -0.0816  0.0284 -0.2753
36428W        W45228   9.711   0.455  34.444 -0.1321 -0.1015 -0.0894
36429W        W45229  18.007   5.351   9.776 -0.1456  0.0219  0.2083
36430W        W45230  17.660   2.165  41.945  0.1496 -0.0740 -0.0669
36431W        W45231   2.503   3.534   0.593 -0.1784 -0.1242  0.1148
36432W        W45232  15.553   6.595   9.698 -0.1132 -0.0241 -0.0709
36433W        W45233   4.342   1.172  33.698  0.1565  0.0795  0.1485
36434W        W45234  13.074   2.836  15.584  0.0351  0.1196 -0.2141
36435W        W45235   2.611   1.131  30.865  0.1135  0.1575  0.1455
36436W        W45236  19.931   0.617   5.978 -0.2938  0.3491  0.2501
36437W        W45237   8.819   3.507  10.824 -0.1206 -0.0547  0.0364
36438W        W45238  18.058   0.396   4.553 -0.1143 -0.3895  0.0391
36439W        W45239  12.577   4.058  33.887  0.1437  0.0313 -0.2629
36440W        W45240   9.676   1.355   8.394  0.0389 -0.0673  0.1809
36441W        W45241  17.101   1.328   8.454  0.0150 -0.1359 -0.0529
36442W        W45242  12.387   5.683  35.131 -0.0938 -0.1287  0.2336
36443W        W45243   1.542   2.488  28.531  0.0229 -0.2659 -0.3620
36444W        W45244   6.983   6.004   9.852  0.1773 -0.1638 -0.0333
36445W        W45245  18.545   3.591  40.921  0.0403  0.0713 -0.1358
36446W        W45246   5.204   2.083  12.506 -0.0585 -0.2324 -0.1648
36447W        W45247  10.847   1.339  38.892 -0.1971  0.2093 -0.0297
36448W        W45248  20.537   3.043   1.484 -0.2038  0.0059 -0.1279
36449W        W45249   8.939   1.499   5.851 -0.0690  0.0034 -0.1823
36450W        W45250  10.849   5.927   6.262  0.1230  0.1375 -0.0041
36451W        W45251   6.103   6.234   0.989 -0.1384  0.0488  0.0291
36452W        W45252  20.284   3.529  30.290 -0.1758 -0.0303  0.0369
36453W        W45253  12.411   6.588  35.427 -0.1579 -0.0922 -0.1763
36454W        W45254  15.761   6.457  38.448 -0.0060  0.3626  0.0871
36455W        W45255   7.181   4.890  14.708 -0.1275  0.0374  0.0590
36456W        W45256   6.382   3.526   1.920 -0.2225 -0.0999  0.0842
36457W        W45257   2.395   6.571  15.279  0.0222 -0.2315  0.1746
36458W        W45258   8.273   0.593  14.900  0.0502 -0.0890 -0.0543
36459W        W45259   3.277   3.492   5.892 -0.2604 -0.0531  0.1990
36460W        W45260   0.888   3.527  14.267 -0.0590  0.0727  0.0681
36461W        W45261  14.167   0.837  42.138 -0.0475 -0.0387 -0.0690
36462W        W45262  17.474   5.775   0.989 -0.0398  0.0958  0.0031
36463W        W45263  14.605   4.681  10.455  0.2048 -0.1851 -0.1974
36464W        W45264  13.324   1.426  29.869 -0.2703  0.0915 -0.1066
36465W        W45265  16.475   2.105  33.757  0.1020  0.1460  0.2619
36466W        W45266  20.757   6.039  39.593  0.0061 -0.2478  0.0003
36467W        W45267   4.173   6.192  34.997 -0.3394  0.0930 -0.0372
36468W        W45268   6.438   5.678   6.115 -0.0533  0.2914  0.0102
36469W        W45269  10.746   4.685  24.669  0.0379  0.3237 -0.1894
36470W        W45270   7.498   0.578  10.176  0.2657  0.3955 -0.0111
36471W        W45271   5.554   4.506  37.943 -0.1326 -0.3288  0.0910
36472W        W45272  20.841   2.199  34.799  0.0614 -0.0336  0.1332
36473W        W45273  17.021   0.157  26.881  0.1129  0.3414  0.0433
36474W        W45274  10.135   5.468   2.931  0.0519  0.3777 -0.0169
36475W        W45275   8.679   6.273   7.637 -0.2094 -0.2929  0.2247
36476W        W45276   3.941   3.532  35.722 -0.3313 -0.3970 -0.5165
36477W        W45277   7.757   2.090  36.767  0.2748  0.4794 -0.1674
36478W        W45278  17.469   5.629   6.089  0.4249 -0.1142 -0.2040
36479W        W45279   5.225   1.821  44.907 -0.1949 -0.1524 -0.0742
36480W        W45280  16.397   3.701  15.653 -0.2800 -0.2245  0.2767
36481W        W45281  18.324   6.157  10.938 -0.0668  0.0700 -0.2820
36482W        W45282   2.371   4.446   0.872 -0.0122  0.1635 -0.0461
36483W        W45283  18.095   1.719  12.466 -0.0889 -0.0388  0.0300
36484W        W45284   1.584   0.032  27.844 -0.1066  0.0985  0.0476
36485W        W45285   6.562   0.548  34.648 -0.0603  0.0409 -0.0166
36486W        W45286  15.734   0.116  25.415 -0.1786  0.1826 -0.1046
36487W        W45287  16.020   6.263  11.956 -0.1046  0.3909  0.0283
36488W        W45288  16.835   1.038  36.297  0.2577 -0.1147 -0.3771
36489W        W45289  19.034   5.915  43.466 -0.0189  0.1610 -0.1583
36490W        W45290   2.882   2.820  41.820  0.1613 -0.0611 -0.0990
36491W        W45291   7.812   4.399  43.372 -0.0473  0.1679 -0.1860
36492W        W45292   3.461   5.918  37.622 -0.0728  0.0987 -0.0376
36493W        W45293  10.397   1.983  24.336 -0.2668  0.1468 -0.0808
36494W        W45294  14.421   5.525  17.733  0.1570 -0.0156 -0.3985
36495W        W45295   9.882   4.025  41.835  0.0221 -0.1186  0.0690
36496W        W45296  14.762   3.415  26.472 -0.1772 -0.1329 -0.4283
36497W        W45297  16.292   5.947  34.905  0.0243 -0.0268 -0.0515
36498W        W45298   0.089   2.191   4.841  0.0323  0.1595  0.0273
36499W        W45299   2.166   2.275  10.497  0.0655 -0.2165  0.1301
36500W        W45300  19.837   3.828  30.870 -0.2176 -0.1369  0.3019
36501W        W45301   3.783   4.939  42.136  0.1733  0.2642  0.0925
36502W        W45302  19.587   6.075  37.717 -0.1219  0.0714  0.0574
36503W        W45303   4.584   2.507  35.385 -0.0863 -0.2110  0.1219
36504W        W45304  17.996   1.771  40.556  0.0574  0.5852 -0.0866
36505W        W45305  19.074   1.186  19.534 -0.0169  0.2322  0.2436
36506W        W45306   7.955   0.844   5.689  0.0668  0.0310  0.0542
36507W        W45307  16.441   2.307  38.324 -0.1562  0.0741  0.1729
36508W        W45308  11.230   6.537  12.539 -0.3052 -0.1298 -0.0070
36509W        W45309  14.305   0.981  33.272  0.0116  0.0857 -0.1161
36510W        W45310   0.144   1.776   3.187 -0.0334 -0.0557  0.0835
36511W        W45311   1.621   4.895   4.999 -0.0161 -0.3573 -0.2221
36512W        W45312   3.765   4.174   5.448 -0.3610 -0.0408 -0.1991
36513W        W45313   5.358   3.939  30.205  0.0718 -0.3522 -0.1027
36514W        W45314  17.706   2.508  44.410 -0.2086  0.1844 -0.0596
36515W        W45315  14.318   0.802  12.491 -0.1161 -0.1661 -0.1827
36516W        W45316   3.455   0.294  28.057  0.3922 -0.2612  0.2463
36517W        W45317   4.923   6.185  44.489  0.0384 -0.1004  0.3315
36518W        W45318   9.542   5.527  12.535 -0.2293  0.1472  0.3296
36519W        W45319   8.012   3.499   4.914 -0.2557 -0.3637 -0.0546
36520W        W45320  10.007   2.084  20.289 -0.1364  0.2928  0.4609
36521W        W45321   0.398   6.410   6.387  0.1862  0.0521 -0.0420
36522W        W45322   1.912   3.809  14.664 -0.1213  0.0661 -0.3799
36523W        W45323  18.685   4.160  13.956 -0.1719  0.2150 -0.0510
36524W        W45324   0.084   0.609   6.482 -0.0820 -0.1451 -0.2362
36525W        W45325   9.159   0.065  14.603 -0.0976  0.0049  0.1632
36526W        W45326   0.427   2.083  29.386 -0.3812  0.3003 -0.1252
36527W        W45327  14.619   0.003  27.739 -0.0050 -0.2290 -0.0260
36528W        W45328  20.924   1.112   3.794  0.1320  0.1466 -0.0522
36529W        W45329  17.990   3.347  25.145 -0.0461 -0.1250  0.1653
36530W        W45330   4.057   2.655  11.342  0.0047 -0.0098  0.0107
36531W        W45331  18.071   5.117  30.581  0.1357  0.1281 -0.0531
36532W        W45332   4.189   3.255  45.079 -0.0412  0.0000  0.1241
36533W        W45333  12.129   4.899  15.527 -0.2591  0.2041  0.0589
36534W        W45334   5.989   4.612  13.620  0.0528  0.3335 -0.0410
36535W        W45335   4.999   2.107   2.373 -0.0371  0.0784 -0.3849
36536W        W45336   9.832   5.557  34.311 -0.0798 -0.0508  0.0994
36537W        W45337  12.065   4.201  34.131 -0.0737  0.0537  0.1442
36538W        W45338   7.099   2.627  19.439  0.1536  0.0292 -0.0223
36539W        W45339   8.939   1.665  41.536  0.0088 -0.0807 -0.1021
36540W        W45340  19.920   3.752  22.750 -0.1139 -0.0319  0.1052
36541W        W45341  17.218   0.606  25.612  0.0216 -0.0774 -0.1693
36542W        W45342   8.592   6.545  38.693  0.1598  0.2347 -0.1752
36543W        W45343  18.746   5.664  37.809  0.0656  0.0892 -0.0682
36544W        W45344  10.965   2.355  43.041  0.0916  0.0885 -0.4342
36545W        W45345   9.006   1.584  40.314 -0.0437 -0.3847  0.1109
36546W        W45346   9.627   2.781  20.936 -0.2960  0.1100  0.1388
36547W        W45347   8.633   0.331   7.591  0.0318  0.1311 -0.3450
36548W        W45348   8.612   2.826  42.238  0.2642 -0.0246  0.0361
36549W        W45349   3.511   1.549  14.591 -0.0811  0.0603 -0.2619
36550W        W45350   5.420   5.195  14.209 -0.1270 -0.2477 -0.0568
36551W        W45351  19.904   0.367  30.731  0.0210  0.0775 -0.1094
36552W        W45352   1.839   1.557  24.731  0.1940 -0.1623  0.3760
36553W        W45353   7.586   6.198   0.601 -0.2849 -0.4043 -0.1546
36554W        W45354   6.503   4.547  15.881 -0.0576  0.0326 -0.0110
36555W        W45355   4.265   3.501  12.122  0.4991  0.0973 -0.0887
36556W        W45356  20.109   6.062  26.322 -0.0131  0.1491 -0.2707
36557W        W45357   7.841   2.869  43.879 -0.0894 -0.1360 -0.2613
36558W        W45358  12.708   2.988  29.915 -0.0165  0.0714 -0.3171
36559W        W45359   1.960   1.078  44.772  0.1204 -0.1502 -0.1751
36560W        W45360  11.097   0.069  38.704  0.4736 -0.2558  0.1789
36561W        W45361  11.918   2.922   9.521 -0.0946 -0.2291  0.2190
36562W        W45362   5.692   5.364   2.463  0.2635 -0.1361  0.1531
36563W        W45363  18.033   2.269  12.306 -0.0409  0.2440 -0.1168
36564W        W45364   9.970   2.939  16.498 -0.0344  0.2562 -0.1446
36565W        W45365   7.107   2.151  33.113 -0.2485  0.1492  0.0756
36566W        W45366  10.120   2.835  22.279 -0.1982  0.1597  0.1008
36567W        W45367  13.620   3.745   3.397 -0.3350 -0.0142 -0.3595
36568W        W45368  10.266   1.049  37.893  0.2413  0.0801  0.4478
36569W        W45369   8.729   5.408  17.957 -0.0399  0.1212  0.4980
36570W        W45370  13.354   4.479  31.826 -0.3409  0.0140  0.0907
36571W        W45371   3.322   3.233  27.688  0.0454 -0.3195  0.3219
36572W        W45372  18.554   5.818  27.150  0.2293 -0.0849  0.2337
36573W        W45373  17.068   4.998   7.773 -0.1120  0.0849 -0.1181
36574W        W45374  18.308   2.347  13.986  0.2158 -0.3059  0.1597
36575W        W45375  10.834   1.987  29.024 -0.0092  0.3254 -0.3448
36576W        W45376  20.927   3.391  24.051  0.3620  0.1400 -0.3035
36577W        W45377   6.273   4.915   9.024 -0.0397  0.1891 -0.0449
36578W        W45378   2.029   5.129   7.819  0.0746 -0.0348 -0.3371
36579W        W45379  15.110   6.058  37.391  0.1486 -0.2286 -0.1805
36580W        W45380   3.483   3.652  42.178 -0.1442  0.1157 -0.1094
36581W        W45381  10.119   4.338  36.976 -0.3297 -0.0750 -0.0372
36582W        W45382  13.312   5.157   3.575 -0.1521 -0.0823 -0.1832
36583W        W45383  19.816   3.852  14.145  0.1323  0.2865  0.0019
36584W        W45384   4.228   2.696  32.211 -0.2200  0.0505  0.0359
36585W        W45385  19.547   0.106   1.938  0.0389  0.2171 -0.4289
36586W        W45386  13.286   1.589  18.537  0.1749 -0.2052  0.2294
36587W        W45387  18.843   4.441   6.208 -0.1284  0.2680  0.1346
36588W        W45388   8.580   0.875  21.244  0.1173  0.0009  0.0495
36589W        W45389  15.801   4.107  12.155  0.4434 -0.5051  0.1228
36590W        W45390  20.516   5.735  10.675 -0.1278  0.0341  0.1077
36591W        W45391  20.908   2.815  35.969  0.0547  0.0943 -0.0469
36592W        W45392   8.701   1.623  13.046  0.0392 -0.4624 -0.1638
36593W        W45393   3.445   0.673  13.619  0.1487  0.0516  0.0956
36594W        W45394  20.356   1.997  25.043  0.1493  0.2461  0.1034
36595W        W45395  11.517   0.576  19.803  0.0423 -0.0406  0.0473
36596W        W45396   4.916   1.894  17.199  0.0890 -0.1009 -0.0712
36597W        W45397   5.548   1.956   0.208 -0.0367  0.0440 -0.0303
36598W        W45398   2.479   2.037  38.114  0.0480  0.0711 -0.2426
36599W        W45399   7.281   3.430  15.174 -0.0785 -0.0105  0.1534
36600W        W45400  16.473   6.367  26.330  0.0263 -0.0572  0.2793
36601W        W45401   2.339   1.521   5.314 -0.0917 -0.0036  0.2603
36602W        W45402   0.525   2.064   7.457  0.0431  0.0226 -0.1802
36603W        W45403   8.543   3.599   7.443  0.1167  0.3283 -0.2398
36604W        W45404   8.486   5.125  12.635 -0.0283  0.0718 -0.0292
36605W        W45405  18.937   3.376  32.306  0.0576 -0.2266 -0.0455
36606W        W45406  13.808   4.333   0.591  0.0058 -0.0338 -0.0226
36607W        W45407  15.184   3.673   5.761 -0.0516 -0.2120  0.1554
36608W        W45408  13.553   3.386  19.158 -0.0312 -0.0983 -0.1022
36609W        W45409  14.517   6.087  39.464  0.4660 -0.0757  0.3714
36610W        W45410  20.044   4.862  12.964 -0.1988  0.0159  0.1460
36611W        W45411  10.364   5.087  20.870  0.1561  0.0593  0.0287
36612W        W45412  18.205   1.178  40.162  0.0116 -0.0923 -0.1666
36613W        W45413   9.622   6.583  16.485  0.0399  0.2353 -0.0999
36614W        W45414  18.198   6.051  26.693 -0.0193 -0.0847 -0.3113
36615W        W45415  21.090   5.430   1.188 -0.0815  0.0740 -0.2130
36616W        W45416   9.910   4.452  17.920 -0.2932  0.0174  0.1493
36617W        W45417   9.876   0.517   0.577 -0.0298  0.1016  0.1900
36618W        W45418   1.556   6.383   6.495  0.1063  0.1046  0.1252
36619W        W45419  13.490   3.375  27.849  0.2613 -0.2187 -0.0347
36620W        W45420  11.470   4.063  20.389 -0.2498  0.5937 -0.0950
36621W        W45421   4.444   3.661   2.354 -0.2115  0.3316  0.3458
36622W        W45422  15.728   2.493  31.368  0.0008  0.1894 -0.0455
36623W        W45423   0.609   1.457  29.333 -0.2937 -0.2997 -0.0880
36624W        W45424  19.736   4.005  21.792  0.5120 -0.3841 -0.1500
36625W        W45425  18.657   2.132  40.852 -0.0544  0.0832 -0.2691
36626W        W45426  15.683   3.385  40.879 -0.1599 -0.1807  0.1511
36627W        W45427  19.181   5.989  22.814  0.1297  0.1717 -0.1951
36628W        W45428  10.974   1.768  30.376 -0.3605  0.1605 -0.0773
36629W        W45429  15.287   3.083   0.786  0.0205 -0.0561  0.0645
36630W        W45430  14.636   6.043   1.886  0.1374  0.2493  0.1040
36631W        W45431  21.074   0.538   9.429  0.0271  0.0556  0.1656
36632W        W45432   5.065   4.261   8.979 -0.1718 -0.2286 -0.1947
36633W        W45433  11.348   1.818  32.557  0.0964 -0.0366 -0.1313
36634W        W45434  19.711   1.049   1.317  0.1102  0.1611  0.2023
36635W        W45435  18.151   2.932   6.514  0.1091 -0.0918  0.0399
36636W        W45436   9.540   1.468  16.185 -0.0663 -0.1673 -0.1783
36637W        W45437   5.896   1.745  31.182  0.3197 -0.1118  0.1368
36638W        W45438   1.199   0.992  36.863  0.1059  0.0592  0.3482
36639W        W45439  14.893   5.127   7.084 -0.2235 -0.0698 -0.2458
36640W        W45440  11.236   3.479  17.826  0.2775 -0.2784 -0.1527
36641W        W45441   9.199   6.124  36.482  0.0122  0.3782  0.0809
36642W        W45442   7.939   6.038  11.674 -0.1235 -0.2545  0.2735
36643W        W45443   0.895   1.585  29.727 -0.5159 -0.2368 -0.1123
36644W        W45444  14.068   1.472  29.340  0.0503  0.0832  0.0810
36645W        W45445   0.251   4.224  25.020 -0.3109  0.3456 -0.4030
36646W        W45446  18.124   2.227  29.195  0.0953 -0.0382 -0.0257
36647W        W45447   0.636   2.620  23.558 -0.1215  0.0134 -0.3937
36648W        W45448   5.452   1.547  43.610 -0.0193 -0.1358  0.1919
36649W        W45449   4.942   3.157  35.951  0.1360 -0.2673 -0.2157
36650W        W45450   6.790   6.553  12.006 -0.0976  0.3154 -0.0649
36651W        W45451  17.421   4.385  32.475  0.1206 -0.1731 -0.2338
36652W        W45452   0.809   1.410  30.727  0.2041  0.1341 -0.0106
36653W        W45453   6.895   5.302  14.853 -0.3299 -0.0217 -0.1188
36654W        W45454  19.320   4.791  23.212 -0.3056  0.0724 -0.0651
36655W        W45455  16.260   2.192   0.849 -0.2458 -0.0643  0.2433
36656W        W45456  11.854   3.636  15.748 -0.0496 -0.0450 -0.2165
36657W        W45457  13.835   6.205  37.849 -0.0603 -0.1221 -0.5932
36658W        W45458   9.965   1.951  22.296  0.0434 -0.3161 -0.1114
36659W        W45459  17.710   2.402  39.143 -0.4360  0.1096  0.1317
36660W        W45460  21.125   2.032  10.871  0.1941  0.0276 -0.0780
36661W        W45461  17.819   4.531  30.470 -0.0587 -0.3179 -0.0520
36662W        W45462   2.045   6.199  40.804  0.1585 -0.2136  0.2707
36663W        W45463   1.353   3.721  29.342  0.0042  0.2482  0.1654
36664W        W45464   5.563   2.959  28.661 -0.1445  0.1329 -0.1308
36665W        W45465  11.288   4.894  15.791 -0.1842  0.0137 -0.2163
36666W        W45466  11.621   3.251  36.210  0.1966  0.1007  0.0698
36667W        W45467   4.845   0.781   8.543 -0.1246 -0.0621  0.0455
36668W        W45468  19.465   2.319  44.647  0.4850  0.0252  0.0251
36669W        W45469   1.698   1.977  12.069  0.1978 -0.0484 -0.0683
36670W        W45470  17.622   6.485  38.530 -0.1084 -0.1755 -0.0918
36671W        W45471  15.865   2.270  35.938  0.2280 -0.1005  0.0753
36672W        W45472  11.527   6.523  14.904 -0.3144 -0.0395  0.0108
36673W        W45473  15.421   5.293   5.569 -0.0877  0.2681  0.1301
36674W        W45474  20.368   6.565  29.312 -0.2654 -0.2562 -0.1459
36675W        W45475  14.196   4.443  34.150  0.0625 -0.0359 -0.1517
36676W        W45476  19.685   0.802  25.926  0.0154  0.2178 -0.0162
36677W        W45477  17.874   5.008  16.855  0.1786 -0.1362  0.0876
36678W        W45478   4.341   0.101  41.779 -0.0276 -0.0818 -0.2200
36679W        W45479   5.289   3.277  16.490 -0.0044  0.0102  0.0729
36680W        W45480   7.372   4.397  41.118  0.0181 -0.2870 -0.1353
36681W        W45481   5.159   5.550   4.832  0.0714 -0.0997 -0.0178
36682W        W45482  10.759   5.646   0.969 -0.1360 -0.1779  0.2571
36683W        W45483   8.654   1.418  30.364  0.1356  0.1006  0.0571
36684W        W45484  19.450   5.967  10.059 -0.0517 -0.0493  0.1699
36685W        W45485   5.282   3.176  31.369 -0.0302 -0.1542 -0.1111
36686W        W45486  10.381   2.174  21.265 -0.2408 -0.0918  0.0006
36687W        W45487   7.889   2.994  12.711  0.2037 -0.3212  0.1132
36688W        W45488   8.442   6.193   4.723 -0.1373  0.0417  0.0683
36689W        W45489  11.586   4.100  29.738 -0.0350 -0.0266 -0.1114
36690W        W45490  10.911   5.804  19.803  0.1440 -0.1608 -0.0199
36691W        W45491   2.342   3.727  23.747  0.3943 -0.0879  0.0236
36692W        W45492   6.046   1.969  13.266 -0.1833  0.0813  0.2349
36693W        W45493  10.655   1.214  28.702 -0.0235  0.0491  0.6292
36694W        W45494  19.345   3.896  39.178  0.0760 -0.0661 -0.1650
36695W        W45495   5.517   2.572  29.084 -0.0267  0.0998 -0.0770
36696W        W45496   9.439   1.629  29.491  0.0354  0.1438 -0.2935
36697W        W45497  16.704   0.204  44.765  0.0564 -0.2115  0.2204
36698W        W45498  15.245   0.282  15.172  0.2417 -0.0313 -0.1129
36699W        W45499  18.343   2.840   3.767 -0.3800  0.1611  0.1678
36700W        W45500   8.532   0.351  19.529  0.0295 -0.0077 -0.1109
36701W        W45501   2.904   5.472   4.480  0.0316  0.1341 -0.0103
36702W        W45502  11.441   4.548  38.225  0.0780 -0.3172  0.2011
36703W        W45503   3.842   3.661  32.330  0.1781  0.2308 -0.1304
36704W        W45504  12.145   3.705  35.590 -0.0734 -0.0344 -0.0170
36705W        W45505  18.861   1.047   8.121 -0.0106 -0.3260  0.1801
36706W        W45506  13.282   0.851  33.270 -0.0478 -0.0557  0.1678
36707W        W45507  13.215   0.800  10.592 -0.3391  0.1745  0.0462
36708W        W45508   4.520   0.276  40.071 -0.2535  0.2333 -0.5986
36709W        W45509   6.391   3.648   6.140  0.1198 -0.1442  0.0838
36710W        W45510   1.867   2.383  43.858 -0.1305 -0.5524  0.2591
36711W        W45511  17.166   0.890  41.870 -0.0257  0.1160  0.1085
36712W        W45512   7.950   5.816   2.552 -0.3201  0.2914 -0.2204
36713W        W45513  20.020   3.608  40.044  0.0398 -0.0576 -0.3714
36714W        W45514  11.468   0.081  40.676  0.0604  0.0467  0.0110
36715W        W45515  12.765   5.880  35.864 -0.3776  0.3263 -0.0646
36716W        W45516   4.619   0.459  38.352 -0.1319  0.4692  0.0088
36717W        W45517  13.277   2.906  37.904  0.3310 -0.2009 -0.0790
36718W        W45518   0.965   1.544  13.674  0.2211 -0.0862 -0.0993
36719W        W45519  16.669   0.975  27.326  0.1199 -0.0367  0.1827
36720W        W45520   2.643   6.184  29.048 -0.1856 -0.1407  0.2072
36721W        W45521   2.522   1.209  44.200  0.1899  0.0949 -0.0097
36722W        W45522   9.027   2.091  22.069  0.3492  0.0705  0.1011
36723W        W45523   8.623   5.538  39.292 -0.3541 -0.2879 -0.0489
36724W        W45524  20.823   2.664  13.238 -0.0345  0.0264 -0.0143
36725W        W45525  14.337   3.911  15.867  0.0845  0.1462  0.0021
36726W        W45526   1.306   2.321  14.903 -0.1741 -0.0053  0.1325
36727W        W45527  21.047   0.799  34.786 -0.1124 -0.1667 -0.1191
36728W        W45528   6.900   1.515  36.974  0.1276  0.0814  0.1366
36729W        W45529   8.981   5.030  23.823  0.1000 -0.0083  0.2324
36730W        W45530  18.076   3.296  40.715 -0.2234  0.5570  0.1669
36731W        W45531  18.742   5.194  35.241 -0.1878  0.1339  0.2157
36732W        W45532  20.924   4.396   3.214 -0.0581  0.1446 -0.0406
36733W        W45533   4.158   5.478   1.293  0.1271 -0.2216 -0.1408
36734W        W45534   6.684   3.498  38.020  0.0929  0.1337 -0.5213
36735W        W45535   1.579   6.415  40.640 -0.0855 -0.3083 -0.3301
36736W        W45536  13.187   5.249  33.557 -0.3262 -0.0897 -0.1395
36737W        W45537   2.878   0.384  11.704  0.0029  0.0623 -0.2586
36738W        W45538  18.979   5.644  16.278  0.1344 -0.0788  0.1480
36739W        W45539   4.842   5.654  17.759 -0.2352  0.1074 -0.3918
36740W        W45540  18.828   4.565  23.916 -0.0458  0.1603 -0.1158
36741W        W45541  12.082   2.683  38.009 -0.0878 -0.1160  0.0985
36742W        W45542  10.921   0.302   3.502  0.0877  0.1342  0.0714
36743W        W45543   8.205   5.236  31.761 -0.1888  0.0613 -0.1118
36744W        W45544  15.516   4.700   4.362 -0.0066  0.1435 -0.3824
36745W        W45545   8.791   3.019  40.062  0.1750 -0.3618 -0.0992
36746W        W45546   0.953   1.132  38.396  0.2215  0.1576  0.0952
36747W        W45547  12.763   2.638  18.159 -0.1178 -0.2724 -0.1410
36748W        W45548  16.016   3.667  43.887 -0.1729 -0.1195  0.0376
36749W        W45549  13.172   1.892   2.778  0.4352  0.0466  0.0554
36750W        W45550   7.409   4.728  12.852  0.1092  0.0340  0.2852
36751W        W45551   5.158   5.741  34.216  0.0117  0.1152 -0.0722
36752W        W45552  20.066   2.733   8.002 -0.0105  0.1022  0.1177
36753W        W45553  13.894   3.623  44.156 -0.2360 -0.1516  0.2208
36754W        W45554   1.106   2.966  24.283  0.2347 -0.3611  0.0386
36755W        W45555  11.516   4.560  37.476  0.0877 -0.0703  0.1098
36756W        W45556   0.115   3.123   9.044  0.0996 -0.0872  0.2370
36757W        W45557   5.905   6.319   8.123 -0.2529 -0.1690  0.0759
36758W        W45558   7.835   3.646   7.257 -0.1343  0.0034  0.0843
36759W        W45559  10.069   0.880  17.218 -0.2092  0.3368 -0.4436
36760W        W45560  14.738   6.245  27.364 -0.1137 -0.1844  0.0768
36761W        W45561  14.331   1.369  38.474  0.2686 -0.0149 -0.0475
36762W        W45562  20.056   2.736  12.312 -0.1013 -0.0516  0.3001
36763W        W45563  10.091   4.527  42.586  0.2794 -0.0605  0.0873
36764W        W45564   6.658   5.923  37.808  0.1093 -0.0142  0.2014
36765W        W45565  19.394   3.372  39.163  0.2004  0.3578 -0.0592
36766W        W45566   4.444   6.187  17.216  0.0193 -0.1309  0.2968
36767W        W45567   6.043   4.953   6.739  0.2206  0.2219  0.1013
36768W        W45568  11.017   3.828  18.664 -0.1498 -0.2707  0.1272
36769W        W45569  20.992   2.006   5.699  0.0291 -0.2686  0.2415
36770W        W45570   4.761   1.903  38.835  0.1907 -0.4413 -0.0677
36771W        W45571  16.459   4.819  13.931  0.0620  0.0842 -0.1626
36772W        W45572  17.884   3.982  26.497 -0.1197  0.0093 -0.0127
36773W        W45573   9.436   0.293  16.067 -0.1046  0.0521  0.2398
36774W        W45574  14.446   3.214  17.096 -0.2881 -0.2311 -0.1451
36775W        W45575  14.560   6.397  43.918  0.1116 -0.0033  0.2234
36776W        W45576  17.890   0.547  13.601  0.0677  0.0451 -0.3904
36777W        W45577  11.760   2.147  37.327 -0.2340 -0.3781  0.2111
36778W        W45578  12.093   3.570  14.066  0.2244  0.3056  0.0157
36779W        W45579   9.702   2.782  44.887  0.1011 -0.0571  0.1353
36780W        W45580   0.659   3.283  12.499 -0.1700  0.2099 -0.3833
36781W        W45581   4.672   0.172  15.033  0.0935  0.2083 -0.0179
36782W        W45582   2.158   6.078  10.790  0.1150 -0.1334  0.0784
36783W        W45583   2.943   5.525  32.223  0.0108 -0.2214  0.1126
36784W        W45584   6.062   4.982  19.033  0.0648  0.0731 -0.0769
36785W        W45585   9.946   3.711  30.812  0.0032 -0.2062  0.2750
36786W        W45586  15.716   5.490  43.429 -0.4318  0.2060  0.1816
36787W        W45587   1.545   4.288  30.028 -0.0184 -0.0837  0.4894
36788W        W45588   2.512   2.056  28.300 -0.0036 -0.0009  0.0386
36789W        W45589  20.757   3.388  11.988  0.0122  0.0304 -0.0837
36790W        W45590   7.008   4.936  32.228  0.2717 -0.0925 -0.0563
36791W        W45591  17.883   1.890  29.516  0.1167  0.0775  0.2204
36792W        W45592   6.192   6.039   7.854 -0.0648 -0.1818  0.1496
36793W        W45593  12.525   2.743  17.170 -0.1424  0.2066 -0.0410
36794W        W45594  13.605   3.989  36.285  0.0836 -0.0412  0.1923
36795W        W45595   5.839   3.731   8.503  0.1077 -0.3415 -0.0363
36796W        W45596   1.774   3.874   1.954  0.4498  0.1048 -0.1330
36797W        W45597   9.139   2.220  30.054  0.0442  0.0583 -0.1907
36798W        W45598  12.401   4.513  41.697  0.0685 -0.2454  0.1755
36799W        W45599   9.910   5.376  21.515 -0.1200  0.1074  0.0356
36800W        W45600   6.345   0.245   9.402 -0.1357  0.2473  0.1916
36801W        W45601  17.452   1.069   0.226  0.0245  0.1970  0.0776
36802W        W45602  19.520   4.931  24.082 -0.3124  0.1615  0.2936
36803W        W45603  14.167   5.789  17.260  0.1458 -0.4061 -0.1352
36804W        W45604  16.156   4.918  40.048 -0.1044  0.0021 -0.1409
36805W        W45605   4.391   1.219  36.898  0.0549  0.1391 -0.0141
36806W        W45606   9.238   4.637  10.465 -0.1828  0.0412 -0.0295
36807W        W45607  15.647   1.676  10.560 -0.0117  0.0910 -0.2247
36808W        W45608  10.981   2.489  10.259  0.0355  0.1207  0.3285
36809W        W45609   1.283   1.084  39.763 -0.2109 -0.1354 -0.3029
36810W        W45610   2.052   3.172  25.249  0.0952  0.0629 -0.1993
36811W        W45611   7.349   3.413  42.017 -0.1485 -0.1703 -0.1191
36812W        W45612   8.235   2.908   4.594 -0.3096 -0.1488  0.1649
36813W        W45613  15.982   2.675  10.378  0.0014 -0.1131 -0.0683
36814W        W45614  16.614   1.010   6.327 -0.0690 -0.2226  0.1665
36815W        W45615   1.657   1.349  35.270 -0.4325  0.2330  0.2624
36816W        W45616  19.219   5.303  15.414 -0.1434 -0.0960  0.1519
36817W        W45617   8.814   6.490   1.814 -0.2548 -0.2301  0.2221
36818W        W45618   3.239   3.037  36.799 -0.0912  0.2488  0.0271
36819W        W45619   1.048   4.373  27.936 -0.0055  0.3403  0.3332
36820W        W45620  10.512   1.656   3.065 -0.0308  0.1730 -0.1367
36821W        W45621   3.016   1.734  33.400  0.0153 -0.0741  0.0630
36822W        W45622  17.305   6.241  37.736 -0.0121  0.1083  0.2068
36823W        W45623  13.218   0.705  30.155 -0.3570  0.1928  0.2050
36824W        W45624  12.275   2.698  18.364  0.0565 -0.2614 -0.0016
36825W        W45625  15.477   3.621  38.147  0.1294 -0.0952  0.2144
36826W        W45626  16.879   2.734  39.501 -0.2514 -0.0830 -0.1990
36827W        W45627  17.804   1.548  26.497 -0.1988 -0.3033 -0.0927
36828W        W45628  16.187   2.469  36.881  0.1368  0.1369 -0.3537
36829W        W45629   7.263   0.124   1.455 -0.1316  0.1342 -0.1081
36830W        W45630  16.431   4.209  15.847  0.2482  0.1736  0.2224
36831W        W45631  14.871   4.896   2.363  0.0054  0.0945 -0.2315
36832W        W45632  14.026   2.031  12.993  0.1395 -0.1773  0.1355
36833W        W45633   0.521   0.318  33.727  0.0095 -0.1439  0.0331
36834W        W45634   0.387   4.230  13.028 -0.1109  0.1776  0.0397
36835W        W45635  20.607   6.315  15.668  0.0035  0.0207  0.1340
36836W        W45636  12.874   3.688  14.456  0.0553  0.1991 -0.0418
36837W        W45637   2.815   5.678  44.548  0.1647 -0.0563 -0.0115
36838W        W45638  13.757   4.933  42.913  0.0490 -0.2634  0.1150
36839W        W45639  15.234   4.435  15.631 -0.1108 -0.1342 -0.3464
36840W        W45640  10.327   4.609  15.564  0.1175  0.3765  0.4033
36841W        W45641   1.165   4.635  33.196  0.1181  0.1459  0.0512
36842W        W45642  11.611   3.277  10.576 -0.1430  0.2812 -0.0847
36843W        W45643   0.895   5.497   7.334 -0.1394  0.2167 -0.2133
36844W        W45644   7.136   3.967  35.887 -0.1420 -0.1508  0.3483
36845W        W45645  20.201   3.971  21.592 -0.1184 -0.2028  0.0364
36846W        W45646  13.993   2.060  18.991  0.1518 -0.1037  0.0629
36847W        W45647  19.273   5.092   8.921  0.0984 -0.1671  0.0117
36848W        W45648   4.522   4.219   1.044  0.0660 -0.1191  0.0345
36849W        W45649   9.131   6.243  18.267  0.0162 -0.1522  0.1025
36850W        W45650  13.775   4.117  14.187 -0.1308  0.1385 -0.2309
36851W        W45651   3.554   5.018  43.640  0.0175 -0.0909 -0.1506
36852W        W45652  15.957   1.135  30.013 -0.0365 -0.1886 -0.2158
36853W        W45653  15.562   1.691  30.043 -0.2006  0.0353 -0.3441
36854W        W45654   1.338   6.498  38.094  0.0213 -0.4000 -0.1806
36855W        W45655  13.071   4.487  42.404  0.1331  0.0479  0.0194
36856W        W45656   9.801   4.871  42.971 -0.0859  0.0307 -0.0123
36857W        W45657  11.493   6.598   9.025 -0.3679 -0.2901 -0.0368
36858W        W45658  18.081   4.915  29.642  0.2790 -0.0108 -0.0807
36859W        W45659  14.346   3.831  27.565  0.2312 -0.0991 -0.0224
36860W        W45660  17.641   2.219   7.444 -0.1764  0.1335 -0.0688
36861W        W45661  13.982   2.068  11.315  0.1362 -0.0772  0.0524
36862W        W45662  19.264   2.421  25.161  0.0448  0.0418 -0.2532
36863W        W45663   7.878   4.759   3.139  0.0262 -0.2031 -0.1106
36864W        W45664  10.627   6.524  31.043  0.2051  0.0903 -0.0068
36865W        W45665   9.648   6.098  43.199 -0.3305  0.2523  0.0379
36866W        W45666  19.773   3.996  21.170  0.0714  0.3069  0.0238
36867W        W45667   1.872   5.536  44.729  0.1132  0.0598  0.2095
36868W        W45668  15.695   0.528  29.354 -0.3192 -0.0127  0.0572
36869W        W45669  11.190   4.282  42.091  0.0740 -0.2567 -0.0428
36870W        W45670  14.628   4.594   3.474  0.0514  0.2168  0.0243
36871W        W45671   1.965   1.158  33.478 -0.1754  0.1990 -0.1011
36872W        W45672  20.722   2.784  14.050 -0.2345  0.2890  0.0607
36873W        W45673   2.922   5.370  34.342 -0.2180 -0.0976 -0.2272
36874W        W45674  14.521   2.837  34.904  0.2002  0.0118 -0.1609
36875W        W45675   4.378   2.699   0.698 -0.2240 -0.2023  0.0571
36876W        W45676   0.625   1.868  37.916 -0.0210 -0.0756 -0.2284
36877W        W45677  12.901   2.838  44.399  0.0907 -0.0178  0.0759
36878W        W45678   8.370   4.570  39.896  0.0013 -0.1003  0.1727
36879W        W45679  15.288   2.237  40.970 -0.0330  0.0999 -0.0443
36880W        W45680   3.354   5.991  35.371 -0.0431  0.1323  0.0512
36881W        W45681   0.035   1.567   4.460  0.0643  0.0785 -0.1391
36882W        W45682   6.883   1.639  11.337  0.0143 -0.0400 -0.0841
36883W        W45683  14.423   5.384  29.475 -0.0324 -0.0770  0.3426
36884W        W45684  17.362   3.394  23.740 -0.1336  0.2303 -0.1692
36885W        W45685   0.990   4.426  40.982  0.0962  0.2320 -0.3678
36886W        W45686  12.870   1.706  28.262  0.2132  0.0924  0.0040
36887W        W45687  13.843   0.242  36.450  0.3669 -0.0005  0.0423
36888W        W45688   6.213   6.333  11.722  0.1253  0.0722  0.2546
36889W        W45689   5.748   6.110  37.041 -0.0419  0.2554 -0.0877
36890W        W45690   3.709   2.316  37.602  0.1863 -0.0513 -0.0650
36891W        W45691   1.976   6.170  40.305  0.1629 -0.2745  0.1168
36892W        W45692   6.773   1.610  42.167  0.0885 -0.0832 -0.2765
36893W        W45693  10.960   6.029  31.412 -0.0073  0.0403  0.1090
36894W        W45694  13.144   6.268  20.261  0.1189  0.1869 -0.1625
36895W        W45695  10.088   1.253  33.336 -0.1383 -0.1762  0.1901
36896W        W45696   7.473   2.794  13.792 -0.0991  0.1898  0.1570
36897W        W45697  10.014   0.578  13.077 -0.1604  0.0098  0.1856
36898W        W45698  14.104   5.908  37.589 -0.0205 -0.1569 -0.0412
36899W        W45699   5.766   5.590  37.404 -0.2686  0.2027 -0.2162
36900W        W45700   4.369   0.113  43.162 -0.2870  0.1239 -0.2739
36901W        W45701  12.254   0.604  34.552 -0.2322  0.2594 -0.2990
36902W        W45702   7.461   3.325   3.073 -0.1280 -0.1595 -0.2551
36903W        W45703  10.533   4.869  13.269 -0.0664 -0.0358  0.0206
36904W        W45704  19.933   1.038  12.254  0.1486  0.1414 -0.0693
36905W        W45705   4.185   5.179  18.130 -0.0039 -0.1322 -0.0662
36906W        W45706  16.333   1.697  13.114  0.0186  0.1483 -0.1880
36907W        W45707  18.743   2.866  36.089 -0.1724  0.0260  0.1489
36908W        W45708   5.400   3.678  16.239 -0.0019 -0.2113  0.2863
36909W        W45709   1.744   2.846  37.682 -0.3091  0.0612 -0.1000
36910W        W45710   3.351   5.512  17.027 -0.1871 -0.0366  0.0672
36911W        W45711  15.081   2.682  16.459  0.1017  0.0451 -0.3574
36912W        W45712   5.764   3.592  13.720 -0.2032  0.0739 -0.0517
36913W        W45713  10.096   3.311  13.206 -0.4705 -0.3860  0.2129
36914W        W45714   2.295   3.125  36.570  0.2432 -0.2253 -0.0195
36915W        W45715   2.123   1.764  42.456  0.0649  0.0847  0.0085
36916W        W45716   6.531   1.047  11.895 -0.1892 -0.0481 -0.1186
36917W        W45717  17.674   4.837  29.355  0.3021  0.1459 -0.2341
36918W        W45718  12.868   2.386  20.795 -0.0241  0.1149  0.0965
36919W        W45719  17.444   1.584  37.200 -0.0273 -0.0667  0.1813
36920W        W45720  18.361   4.736  13.729 -0.0249 -0.1967  0.1572
36921W        W45721   7.485   2.540  32.932  0.2545 -0.2303 -0.3129
36922W        W45722   8.076   1.703  42.744 -0.0955 -0.0022  0.0237
36923W        W45723  17.661   3.168  28.098  0.2566  0.0272 -0.0918
36924W        W45724  16.817   0.198   5.135  0.2792 -0.0335  0.2212
36925W        W45725  16.071   2.153  31.487  0.2434 -0.1283  0.0520
36926W        W45726   0.007   2.362  22.295  0.0305  0.3705 -0.0218
36927W        W45727  10.464   4.386  33.298 -0.0039 -0.0922  0.0593
36928W        W45728  20.565   4.883   1.912 -0.0778 -0.0327 -0.2095
36929W        W45729  18.125   5.438  32.739 -0.1216  0.4371  0.1158
36930W        W45730   1.958   3.172   8.084  0.2346  0.0989  0.0787
36931W        W45731  12.887   3.943  32.372  0.0168 -0.0715 -0.2867
36932W        W45732   6.160   5.049  40.400 -0.1876  0.0624 -0.0838
36933W        W45733  18.931   2.468  40.655 -0.1778 -0.1069  0.1293
36934W        W45734   2.122   0.621  39.914  0.1191  0.3115  0.0839
36935W        W45735   7.845   5.033  39.070  0.0418 -0.1780  0.1642
36936W        W45736  14.705   0.391  17.726 -0.1084 -0.0280 -0.1340
36937W        W45737  16.166   3.087  14.628 -0.0115 -0.2859 -0.0436
36938W        W45738  19.152   5.276  15.883  0.2405  0.0402  0.0858
36939W        W45739  20.906   5.701  29.420 -0.0495 -0.1987  0.0837
36940W        W45740  14.843   6.369  31.022 -0.1400  0.2074  0.2445
36941W        W45741  20.610   1.321  43.812  0.0198  0.0748 -0.0259
36942W        W45742  13.012   2.366  31.314 -0.1478  0.3324 -0.1363
36943W        W45743  15.394   5.257   8.488  0.0189  0.1051 -0.1491
36944W        W45744   4.952   0.969  41.932  0.0538  0.0080  0.1674
36945W        W45745  18.674   0.077  24.531 -0.0091 -0.3914 -0.0702
36946W        W45746   4.508   1.664  17.440 -0.1281  0.0874  0.2179
36947W        W45747   0.348   5.081  35.174 -0.1363  0.2179  0.0093
36948W        W45748  10.179   2.938  42.142  0.1587 -0.4637  0.2757
36949W        W45749   0.835   0.512  26.282  0.0316 -0.0612  0.0175
36950W        W45750   4.918   5.490  28.896 -0.0508  0.0150  0.0176
36951W        W45751   8.721   6.105   3.975  0.1528 -0.1474 -0.1879
36952W        W45752  11.789   0.302   0.528 -0.2614  0.1271  0.0682
36953W        W45753   0.919   4.960   3.066  0.2076  0.1949 -0.2364
36954W        W45754  14.294   3.081  28.040 -0.2254 -0.0952  0.0876
36955W        W45755  13.114   2.949  35.118 -0.2292 -0.1425  0.3800
36956W        W45756   6.462   3.670   5.196  0.1391 -0.0118  0.0331
36957W        W45757  11.520   6.564  18.915  0.1421 -0.3034 -0.0226
36958W        W45758  16.402   6.398  13.646  0.2793 -0.0645  0.0918
36959W        W45759   6.117   4.351  29.441  0.1163  0.0322 -0.0740
36960W        W45760  15.282   4.148  28.649 -0.2390 -0.0702 -0.3064
36961W        W45761  15.573   5.444   3.069 -0.0699 -0.0387 -0.0656
36962W        W45762  10.262   2.166  13.266 -0.0213 -0.0830 -0.1756
36963W        W45763   4.026   0.295  37.513 -0.0651  0.1113 -0.0912
36964W        W45764  19.660   4.864  25.705 -0.0819  0.0475  0.2617
36965W        W45765  18.303   4.791  15.637  0.3238  0.1112 -0.3200
36966W        W45766   8.880   3.846  43.330 -0.1886 -0.0218 -0.2105
36967W        W45767   6.709   3.041  34.139 -0.0429 -0.0328  0.2188
36968W        W45768   8.603   4.210  13.986  0.0009  0.2618  0.0936
36969W        W45769  18.781   6.576  15.548 -0.1262  0.1769 -0.0560
36970W        W45770  13.860   5.899  17.820 -0.1287  0.2313 -0.0726
36971W        W45771   6.609   3.734  42.519  0.0801  0.0459  0.0610
36972W        W45772  16.445   2.660  14.922 -0.1323 -0.1618 -0.0582
36973W        W45773  18.479   2.185   7.200 -0.2636  0.1431  0.0395
36974W        W45774  13.089   6.117  12.554 -0.2410  0.1793  0.0417
36975W        W45775   0.689   2.546  31.279  0.0118 -0.2391  0.0451
36976W        W45776   6.869   1.422  18.111 -0.0705 -0.0385  0.1065
36977W        W45777  16.937   5.044  16.633 -0.2916  0.3804 -0.0575
36978W        W45778   6.606   4.550   5.244 -0.2311  0.0769  0.3137
36979W        W45779   1.429   1.720  27.717 -0.1135  0.0760 -0.1986
36980W        W45780   9.005   0.403  32.681  0.0109  0.0297 -0.2543
36981W        W45781  18.875   4.222  21.171  0.0657  0.2765 -0.1327
36982W        W45782  11.878   5.640  33.796 -0.2952  0.2128  0.1304
36983W        W45783  15.358   0.431  34.002  0.3931 -0.0345  0.0339
36984W        W45784  14.488   0.172   8.994 -0.0525 -0.1607  0.4221
36985W        W45785   6.359   2.809  33.850  0.3452  0.1130 -0.3467
36986W        W45786  11.923   2.121   7.359  0.1247  0.2850 -0.1169
36987W        W45787   1.795   1.349  13.341 -0.4136  0.0722 -0.2401
36988W        W45788   4.002   0.712   6.003 -0.3188 -0.0560 -0.4181
36989W        W45789   0.023   1.670  10.062 -0.2213  0.0720  0.1173
36990W        W45790  14.790   4.079   1.272 -0.0726 -0.0801 -0.2103
36991W        W45791   8.504   2.726  13.581 -0.1542 -0.3108 -0.1481
36992W        W45792  17.270   3.157  38.127  0.2147  0.3423 -0.1426
36993W        W45793   9.498   4.618  17.110 -0.1239 -0.0780  0.3938
36994W        W45794  16.784   3.619  10.128  0.0692  0.0088 -0.1847
36995W        W45795   6.378   1.080   9.874  0.1003  0.2604 -0.0845
36996W        W45796  17.002   0.481  30.101 -0.1915  0.1651 -0.1782
36997W        W45797  13.563   3.273  37.739 -0.2353 -0.1569 -0.1049
36998W        W45798   1.871   6.186  31.898 -0.0671  0.3547  0.2595
36999W        W45799   4.875   1.262  13.160  0.0032 -0.0903  0.2477
37000W        W45800  19.097   4.359   5.046  0.0379  0.2019 -0.2536
37001W        W45801   0.085   0.955  30.725 -0.0997  0.3670  0.1951
37002W        W45802   5.872   2.397  34.987 -0.2496 -0.0409  0.0798
37003W        W45803   0.545   1.213  34.248 -0.0670 -0.0632 -0.3562
37004W        W45804  15.125   3.395  34.152  0.0898 -0.2068 -0.0789
37005W        W45805   7.299   0.800  11.632 -0.1088 -0.2327  0.2039
37006W        W45806  15.888   3.444  10.445 -0.1139 -0.1846  0.1697
37007W        W45807   7.619   1.236  11.707 -0.1623  0.2835 -0.0218
37008W        W45808  17.373   3.238  24.842  0.1053  0.1464  0.1265
37009W        W45809   9.643   2.936  23.941 -0.0482 -0.1771  0.0834
37010W        W45810   9.549   0.796   4.145  0.1965 -0.1301 -0.0672
37011W        W45811   1.317   1.555   6.068  0.1528 -0.2587 -0.0667
37012W        W45812   9.883   6.219   6.054  0.3089 -0.0591 -0.1516
37013W        W45813  14.162   6.220  40.975  0.1936  0.1530 -0.2277
37014W        W45814  18.033   5.130  32.295  0.1672  0.3741  0.0055
37015W        W45815   2.813   5.190   0.234  0.2367 -0.2221  0.0144
37016W        W45816   9.163   4.160  19.984  0.1767  0.2069  0.0977
37017W        W45817   2.331   4.471   3.049  0.1125 -0.1394  0.1666
37018W        W45818   7.032   0.200  16.302  0.2221 -0.1640  0.2246
37019W        W45819  18.048   3.213  40.192 -0.0860  0.1507  0.1609
37020W        W45820  15.413   5.217  35.794  0.2051  0.0541  0.1054
37021W        W45821  18.553   3.819  28.223 -0.0064 -0.1937  0.1322
37022W        W45822   0.956   2.267  25.750 -0.0788 -0.1122  0.1120
37023W        W45823   1.320   6.349  10.490  0.0590  0.2804 -0.1481
37024W        W45824   0.358   3.634  24.380 -0.4428 -0.1676 -0.0804
37025W        W45825  11.154   6.415  11.394 -0.1365 -0.4065  0.2075
37026W        W45826   6.334   5.120   8.142  0.0948  0.1166  0.1234
37027W        W45827   5.176   6.172  29.131 -0.2422  0.0741 -0.2441
37028W        W45828   1.046   1.608  31.113 -0.0413 -0.2564 -0.0456
37029W        W45829  18.614   3.751   8.824 -0.0635 -0.1123 -0.0910
37030W        W45830  12.221   4.611   2.811 -0.0409  0.0023  0.1581
37031W        W45831  13.241   2.758  11.594  0.2117 -0.0342  0.0583
37032W        W45832  12.160   5.638   8.427 -0.1590 -0.2746 -0.2367
37033W        W45833   2.136   0.386  30.602  0.0330  0.2464  0.1905
37034W        W45834  12.726   1.853  30.584 -0.0664 -0.0171  0.0851
37035W        W45835  15.029   1.498  14.041  0.0215 -0.1044  0.0172
37036W        W45836   9.892   4.958  19.154 -0.0141  0.1202 -0.1678
37037W        W45837  16.857   3.773  15.861 -0.2684  0.1669 -0.0876
37038W        W45838  18.628   2.724   0.973 -0.1411  0.1527  0.2013
37039W        W45839   9.747   5.171   1.082 -0.1947  0.4482  0.0520
37040W        W45840  14.154   2.812  29.795  0.0341  0.0490 -0.0613
37041W        W45841   4.005   2.330  14.224  0.2856  0.0256  0.0741
37042W        W45842  18.570   1.734  41.124 -0.1657 -0.5586  0.0996
37043W        W45843  16.558   0.217  30.726  0.0015 -0.0860 -0.0985
37044W        W45844  19.321   4.292  33.801 -0.0259  0.1860 -0.1873
37045W        W45845   0.137   5.149  29.957 -0.2641 -0.2091 -0.1250
37046W        W45846  17.300   4.292  31.734 -0.0140 -0.1136 -0.1159
37047W        W45847  18.354   0.689  35.768 -0.0785 -0.0236 -0.0330
37048W        W45848  10.006   4.412  34.227 -0.1715 -0.0256  0.0075
37049W        W45849  19.203   1.276  37.521 -0.3286  0.0287 -0.0372
37050W        W45850   8.672   1.360  32.596  0.0407 -0.0086  0.0578
37051W        W45851   3.820   4.917   7.393 -0.1761  0.0586 -0.3299
37052W        W45852  13.804   5.184  32.014  0.1495  0.2712 -0.0982
37053W        W45853  18.094   5.989  35.673 -0.0163  0.1965 -0.1168
37054W        W45854   9.290   1.495   2.304 -0.1617  0.1172 -0.0537
37055W        W45855   6.961   0.271  14.833  0.2714  0.1911  0.0375
37056W        W45856   1.019   1.533   3.725  0.0576  0.0397 -0.3458
37057W        W45857   5.459   1.200  39.806  0.1292 -0.2949  0.0271
37058W        W45858  15.886   3.728  42.034 -0.1347  0.0413  0.0656
37059W        W45859   9.299   6.459  31.582  0.1625 -0.0244 -0.1263
37060W        W45860   6.046   4.711  37.870  0.0340 -0.2380  0.1676
37061W        W45861  10.847   1.745  33.076 -0.1821 -0.3228  0.2836
37062W        W45862  14.126   1.007  41.650  0.0576 -0.2911  0.1297
37063W        W45863  17.769   0.426  30.692  0.1879 -0.1401 -0.0940
37064W        W45864  11.852   3.096  11.988 -0.0634  0.1627 -0.2094
37065W        W45865  16.486   0.710  11.440  0.0327  0.2814 -0.0427
37066W        W45866   2.577   0.204   4.891 -0.0651  0.1861 -0.1390
37067W        W45867   2.211   5.240   9.858  0.0916  0.1316  0.0060
37068W        W45868  12.497   3.921  13.654 -0.1045 -0.1315 -0.1619
37069W        W45869   9.945   5.764  32.882  0.3494 -0.0174 -0.0859
37070W        W45870  11.714   0.872   1.422 -0.0837 -0.1621 -0.1702
37071W        W45871  19.325   3.913   8.325  0.1225  0.1220  0.0827
37072W        W45872   1.944   6.000  45.055 -0.0578  0.2923 -0.1583
37073W        W45873  14.007   6.120  12.993  0.0230  0.2034  0.0029
37074W        W45874  16.551   2.763  43.922  0.3310 -0.0207  0.0696
37075W        W45875   2.692   0.240  43.498 -0.1083 -0.4384  0.3212
37076W        W45876   8.163   3.297   3.655 -0.3606 -0.1247 -0.3352
37077W        W45877   3.327   0.530   8.885  0.0366  0.0274  0.2730
37078W        W45878  16.449   4.440  40.865  0.1148 -0.0171 -0.0552
37079W        W45879  17.023   5.439  37.297  0.0100 -0.0607  0.0169
37080W        W45880  11.819   6.474   2.716 -0.0278  0.2961  0.1162
37081W        W45881   8.792   0.251  12.328  0.0610  0.1023  0.0779
37082W        W45882   7.562   4.432  22.783 -0.3642 -0.1009  0.0537
37083W        W45883  18.465   6.240  34.353  0.2645  0.1630  0.0898
37084W        W45884  11.203   2.776  33.318  0.2009  0.0886  0.0863
37085W        W45885  18.795   2.590   2.826  0.0192  0.1215  0.1774
37086W        W45886  17.959   2.278  41.493 -0.1741  0.1819  0.1204
37087W        W45887  18.661   3.490   1.638 -0.3099 -0.0421 -0.1715
37088W        W45888   9.338   3.647  34.789  0.1280 -0.2906 -0.1746
37089W        W45889   4.147   4.291  30.705 -0.1092  0.2603  0.2318
37090W        W45890   8.078   1.105  39.275 -0.0854 -0.1154  0.0561
37091W        W45891   3.659   0.034  42.043 -0.0302  0.2850  0.2107
37092W        W45892  21.078   4.933  44.104 -0.0782  0.0234  0.0288
37093W        W45893   2.564   4.827  12.525 -0.2220 -0.2456  0.1063
37094W        W45894   6.876   0.713   1.078 -0.2545  0.2041  0.1066
37095W        W45895   3.084   3.822  15.603  0.0656 -0.0847 -0.1560
37096W        W45896   1.115   3.899  44.569 -0.1538 -0.1305  0.0718
37097W        W45897   2.486   4.128  27.158 -0.2285 -0.5550  0.3909
37098W        W45898  15.687   0.825   7.594 -0.0915  0.0663 -0.2121
37099W        W45899  16.143   2.043   7.340 -0.1421  0.0772 -0.0137
37100W        W45900   0.431   5.887   2.926  0.1033  0.2417 -0.2519
37101W        W45901   6.744   2.444   0.917  0.1557  0.0018  0.2086
37102W        W45902  20.592   6.280  21.040 -0.1426  0.0296  0.2316
37103W        W45903   3.169   5.659  16.494 -0.0936  0.0112  0.0607
37104W        W45904   9.056   0.578  32.191 -0.1564  0.1889 -0.2663
37105W        W45905  14.112   3.564  34.618 -0.3026  0.3390 -0.2374
37106W        W45906   2.967   4.811  25.902 -0.0296  0.2153 -0.0260
37107W        W45907   2.791   2.240  39.436 -0.1246 -0.4091  0.1831
37108W        W45908   9.618   3.429  13.041  0.1244  0.3581 -0.0337
37109W        W45909   9.917   5.111  22.839  0.1658  0.1743 -0.0877
37110W        W45910  18.562   0.123  11.694 -0.2036 -0.1181  0.0503
37111W        W45911  20.455   1.380   1.940  0.2154 -0.1828  0.2352
37112W        W45912   0.752   2.232  36.661  0.3075  0.1709  0.3783
37113W        W45913  12.054   0.217  30.502 -0.1048  0.0612 -0.0912
37114W        W45914  15.896   0.789  42.145 -0.0735 -0.0524 -0.1701
37115W        W45915   4.665   5.047   5.153  0.0212  0.2709  0.0911
37116W        W45916   7.379   0.470   4.901 -0.2176 -0.1712 -0.0007
37117W        W45917   0.427   0.687  31.270 -0.3396  0.0210 -0.1659
37118W        W45918   2.472   1.696  37.063 -0.1469 -0.0450  0.1866
37119W        W45919  12.387   6.196  13.830  0.0187  0.0872  0.2213
37120W        W45920   3.688   6.269  41.724 -0.0111 -0.3673 -0.0893
37121W        W45921   7.847   2.162  15.727  0.0227  0.2403 -0.1094
37122W        W45922   9.599   3.692  16.401  0.1546 -0.0553  0.1623
37123W        W45923  14.931   2.627   8.921  0.1311  0.0224 -0.0224
37124W        W45924  11.161   4.468  17.506  0.0523 -0.3639 -0.3678
37125W        W45925  18.575   5.005  21.561  0.0148  0.0715  0.1476
37126W        W45926   2.430   3.095  37.010  0.2760  0.2495  0.0846
37127W        W45927  20.423   5.232   5.369  0.3694  0.0080  0.0763
37128W        W45928  17.867   6.281  11.194  0.1314  0.0315  0.2070
37129W        W45929   0.658   1.600   7.282  0.0975 -0.0297 -0.1316
37130W        W45930  10.283   0.299  39.069 -0.0141  0.0221 -0.2645
37131W        W45931  14.396   5.218  39.613  0.1830  0.1264  0.0313
37132W        W45932  17.417   0.344  41.671 -0.0133  0.1170  0.0811
37133W        W45933   3.405   5.906  11.346  0.3633  0.0817  0.1677
37134W        W45934  17.962   3.253  27.171  0.2398 -0.1810  0.2010
37135W        W45935  10.061   6.259  14.541  0.1651  0.0274  0.2591
37136W        W45936   1.883   1.903  27.565 -0.2316 -0.1833 -0.1303
37137W        W45937   2.124   5.564   1.333  0.1494 -0.3334 -0.2421
37138W        W45938   2.842   0.699  39.693 -0.2801  0.2029 -0.1229
37139W        W45939   6.127   1.700  20.392 -0.1817  0.0220 -0.1800
37140W        W45940   9.221   6.297  14.093  0.1061  0.4308  0.0242
37141W        W45941  10.321   4.035  25.347  0.0327 -0.3920 -0.0144
37142W        W45942   4.503   4.050  31.853  0.1013 -0.1749 -0.0284
37143W        W45943   5.893   5.173  37.676 -0.0253 -0.2899 -0.1509
37144W        W45944  11.730   6.213  38.301 -0.0550 -0.0842  0.2565
37145W        W45945  11.566   6.489  10.600 -0.0392  0.2880  0.1823
37146W        W45946   7.042   5.621   0.317  0.1907 -0.0762 -0.2208
37147W        W45947  19.065   4.661  32.406  0.3284 -0.0047 -0.1683
37148W        W45948  19.191   5.483  39.700 -0.0433 -0.1448  0.1536
37149W        W45949  15.897   4.776  25.624 -0.1472  0.1037 -0.1420
37150W        W45950   9.167   5.070  22.388  0.2336 -0.1017  0.4590
37151W        W45951   9.285   5.350  37.541  0.1383 -0.0545 -0.2828
37152W        W45952   8.704   5.090  42.678 -0.2469  0.0521 -0.0789
37153W        W45953  10.097   0.674  23.103 -0.2295 -0.0443  0.3075
37154W        W45954   7.215   4.741   7.600 -0.0874  0.1687  0.2702
37155W        W45955  10.860   0.893   3.751  0.0178 -0.2055 -0.1434
37156W        W45956  17.060   1.991  11.468 -0.4122 -0.0725  0.0357
37157W        W45957  12.689   4.007   1.343 -0.2481  0.2137  0.2610
37158W        W45958  14.772   0.264   3.961 -0.0277 -0.1788 -0.0030
37159W        W45959  16.829   4.016  38.222 -0.0384  0.0726  0.3327
37160W        W45960  15.341   1.249  11.329  0.0476  0.1755 -0.0127
37161W        W45961  17.804   6.211  23.155 -0.0027 -0.0310  0.1849
37162W        W45962   3.832   2.145  28.225  0.0821 -0.3127  0.3552
37163W        W45963   4.220   0.858   7.212  0.0596  0.1875  0.1036
37164W        W45964  12.042   1.279  17.248 -0.1650 -0.0646  0.1612
37165W        W45965  14.300   1.591   3.648 -0.1774 -0.0922 -0.2509
37166W        W45966  11.728   4.210  13.228 -0.0164 -0.0839  0.4021
37167W        W45967   8.611   0.372  34.174 -0.0107  0.0035 -0.2152
37168W        W45968  12.267   6.166  38.606 -0.1946  0.0900 -0.0111
37169W        W45969  18.756   4.385  28.568  0.0958 -0.1468  0.1279
37170W        W45970   0.137   2.801   9.482  0.0836  0.0061 -0.0709
37171W        W45971   2.020   4.963  12.524  0.6616 -0.2514  0.1310
37172W        W45972   5.702   2.252  44.027 -0.2805 -0.0223 -0.0861
37173W        W45973   7.837   0.434  39.692 -0.0167  0.0272  0.1310
37174W        W45974  19.216   2.906  35.711 -0.1233  0.1139  0.0421
37175W        W45975  13.517   3.929  32.927  0.0587  0.0192 -0.2303
37176W        W45976   1.712   3.598   5.246  0.0426  0.2288  0.0343
37177W        W45977  17.172   1.238   6.193  0.0280  0.4296  0.2742
37178W        W45978  14.770   0.811   2.683  0.2962  0.2039 -0.2060
37179W        W45979   3.876   6.135   7.892 -0.3569 -0.0651  0.1023
37180W        W45980   1.545   0.233  10.540 -0.0731  0.1211 -0.2717
37181W        W45981   4.681   2.623  17.729  0.0630 -0.1327 -0.1639
37182W        W45982   4.928   4.226  11.874  0.1021 -0.1946 -0.2278
37183W        W45983   8.347   1.388  10.443  0.0203  0.1668 -0.0976
37184W        W45984  11.127   2.974  21.038 -0.2753  0.0367  0.2039
37185W        W45985  16.832   6.250  29.988  0.2563  0.0544  0.0636
37186W        W45986   5.218   2.600   9.997 -0.1840 -0.0880 -0.0290
37187W        W45987   7.035   1.578  12.601  0.1188  0.1469 -0.1967
37188W        W45988  18.105   3.015  32.078 -0.0167 -0.2311 -0.0757
37189W        W45989  19.731   3.181  10.589 -0.3900 -0.0425  0.2428
37190W        W45990   1.096   6.079  12.700 -0.2246  0.1619  0.1654
37191W        W45991  19.204   6.112   4.455  0.2432  0.0170 -0.0149
37192W        W45992  10.624   2.375  32.051  0.0559  0.0432  0.0463
37193W        W45993  10.740   3.709   6.114 -0.1737  0.0287  0.2734
37194W        W45994   1.846   2.301  32.608 -0.0756  0.1224 -0.1550
37195W        W45995  10.339   0.418  12.686  0.1790 -0.0932  0.0036
37196W        W45996  14.773   3.352   0.901  0.2603  0.1651 -0.2000
37197W        W45997  20.545   4.836   3.453  0.1224 -0.1105  0.1798
37198W        W45998   5.773   4.784  38.336 -0.2158 -0.2085 -0.0106
37199W        W45999   5.730   6.032   7.627  0.0503  0.0565  0.0782
37200W        W46000   7.573   4.281  12.031 -0.0509  0.2120 -0.0420
37201W        W46001   0.869   4.419  24.871  0.2042 -0.1614  0.2635
37202W        W46002   2.390   2.412  28.673  0.1078  0.0317  0.2251
37203W        W46003  20.128   5.474   7.460  0.3113 -0.1261 -0.0064
37204W        W46004  20.204   5.162  41.617 -0.3760  0.0533 -0.0758
37205W        W46005   7.913   5.736  42.319  0.0215  0.0842 -0.2790
37206W        W46006  13.239   2.111   9.967  0.0141  0.0273 -0.0145
37207W        W46007  12.057   5.094  18.026 -0.0891 -0.1005 -0.1063
37208W        W46008  13.055   4.223  41.962 -0.1711  0.0465  0.1607
37209W        W46009   8.388   5.560  41.929 -0.0041  0.2191 -0.3422
37210W        W46010   4.611   1.518  44.769 -0.0125 -0.0549  0.2229
37211W        W46011   0.764   6.288  29.790  0.0878 -0.3002 -0.3120
37212W        W46012   8.733   6.584  16.920  0.0571  0.0120  0.0493
37213W        W46013  12.637   0.176   6.163  0.0008  0.2238 -0.2440
37214W        W46014   8.385   5.756  36.287 -0.0211  0.1303  0.1226
37215W        W46015   0.846   0.891  22.969  0.2190  0.4189  0.1502
37216W        W46016  19.139   3.192  13.826  0.1035  0.1547  0.3119
37217W        W46017  14.956   3.145  11.619  0.2673 -0.0039  0.2314
37218W        W46018  18.960   3.941   3.778  0.1135  0.0951 -0.0934
37219W        W46019   4.564   5.969  31.189 -0.2225  0.0075  0.2628
37220W        W46020  12.505   2.431   8.279 -0.3693  0.2463 -0.1838
37221W        W46021  13.326   5.025  38.740 -0.1156  0.1364 -0.0632
37222W        W46022  15.331   1.057   0.797  0.2086  0.0499  0.2100
37223W        W46023  15.495   0.625  31.314 -0.3330 -0.1449  0.1764
37224W        W46024  19.023   0.605   0.798 -0.2179  0.1798 -0.2260
37225W        W46025   8.263   5.328  37.274 -0.0732 -0.3276  0.1050
37226W        W46026   5.534   2.749  44.231 -0.2769 -0.3172  0.1139
37227W        W46027  14.490   2.613   1.711  0.0650  0.0803  0.2142
37228W        W46028  10.445   1.017  34.297 -0.0226  0.0979  0.1203
37229W        W46029  20.073   0.985   4.013 -0.0863 -0.3395  0.1682
37230W        W46030  18.025   2.638  22.474 -0.0420 -0.0967 -0.0732
37231W        W46031   4.686   2.003   4.934  0.1318 -0.3797 -0.1066
37232W        W46032   6.260   2.118  41.479  0.0965  0.3009 -0.1038
37233W        W46033  19.029   5.331  42.436  0.0772  0.2707 -0.3288
37234W        W46034   3.154   1.975   7.593 -0.3313  0.0366  0.0409
37235W        W46035  17.587   5.969  27.325  0.1100  0.1414 -0.0116
37236W        W46036  21.016   1.804  44.437 -0.1281  0.1408 -0.1904
37237W        W46037  14.268   4.547  16.937  0.0171 -0.0038  0.5933
37238W        W46038   9.194   1.161  38.103  0.0910 -0.0315  0.4323
37239W        W46039   7.747   0.642   5.267 -0.2966  0.1539 -0.2574
37240W        W46040  17.200   0.770  24.369 -0.1164 -0.1067  0.1799
37241W        W46041  15.131   0.948   1.827 -0.0489 -0.2656 -0.1471
37242W        W46042  19.617   6.469  36.760  0.1178  0.0483 -0.0349
37243W        W46043  17.494   1.948   5.528 -0.1117  0.0872  0.2323
37244W        W46044  18.842   2.300  22.330  0.2584 -0.1269 -0.2122
37245W        W46045  20.704   4.192   2.836 -0.1192 -0.1243 -0.0289
37246W        W46046  20.890   4.718  41.168  0.2384  0.0262  0.4431
37247W        W46047   2.336   2.654   9.469  0.1006 -0.0027  0.0467
37248W        W46048  20.938   3.198  36.380 -0.0651  0.2230  0.2419
37249W        W46049   8.907   2.062  11.272 -0.0434 -0.0295 -0.0320
37250W        W46050  19.777   5.419  29.457 -0.2325 -0.0531 -0.0287
37251W        W46051  16.189   2.552  33.788 -0.1758  0.2413 -0.0499
37252W        W46052  12.154   3.014  21.678 -0.0788 -0.2253 -0.4355
37253W        W46053  14.245   4.453  13.480 -0.1349 -0.2496  0.2047
37254W        W46054  17.935   2.708  28.166  0.2967 -0.2232  0.1401
37255W        W46055   9.987   3.948  44.580 -0.1448 -0.3262  0.1845
37256W        W46056  16.321   2.345  32.860  0.3076 -0.3251  0.0325
37257W        W46057  16.011   0.136  14.534  0.2161  0.1150 -0.0503
37258W        W46058  15.096   1.198  33.587 -0.2116  0.1862 -0.0666
37259W        W46059  15.862   2.425  11.506  0.4337  0.2228  0.2129
37260W        W46060   1.911   1.964   1.830 -0.0603  0.0968 -0.0448
37261W        W46061   7.302   2.873  12.877 -0.2208 -0.0368  0.1106
37262W        W46062  15.825   6.011  37.672  0.0408 -0.6117  0.2787
37263W        W46063   7.187   2.342  13.986  0.1460 -0.1211  0.0294
37264W        W46064  20.710   0.388  13.571 -0.2173 -0.3106  0.1105
37265W        W46065  10.696   1.306  37.520 -0.2086 -0.3227  0.1074
37266W        W46066   5.265   1.292  35.119  0.0171 -0.0157 -0.1081
37267W        W46067  10.303   4.470  30.421  0.0081 -0.2343  0.1308
37268W        W46068  19.306   0.811  14.640  0.3743  0.2925 -0.2558
37269W        W46069   5.695   4.624  29.308  0.0302  0.2516 -0.0405
37270W        W46070  18.374   0.712  30.159 -0.1856 -0.1628 -0.2654
37271W        W46071   5.172   1.175   3.961 -0.1027 -0.0444 -0.2246
37272W        W46072   5.374   0.862   3.573 -0.1460  0.0788 -0.1430
37273W        W46073  19.393   6.287  24.077 -0.0481 -0.1888  0.2313
37274W        W46074   8.173   6.414  18.748 -0.0213  0.1216  0.0536
37275W        W46075  16.620   6.372  32.449  0.1200 -0.3267 -0.1553
37276W        W46076   3.131   0.601  27.485  0.1185  0.1757 -0.2314
37277W        W46077   1.677   5.884   8.357  0.0732  0.0974 -0.1161
37278W        W46078   5.401   4.211   6.061  0.0554 -0.2430 -0.3294
37279W        W46079  17.387   6.162  41.757  0.1928 -0.1875 -0.1940
37280W        W46080  20.701   2.222  19.769  0.2662  0.3413  0.0744
37281W        W46081  14.231   0.480   0.947  0.0919 -0.0056  0.0614
37282W        W46082   5.146   0.516  16.267 -0.1024 -0.1180 -0.0270
37283W        W46083   5.966   6.209  33.192  0.3284 -0.2524 -0.3695
37284W        W46084  20.602   1.396  13.498  0.4601  0.1752 -0.2699
37285W        W46085   1.929   3.756  12.585  0.1696  0.0315 -0.0025
37286W        W46086   0.815   4.901  44.347 -0.0704 -0.0702  0.3349
37287W        W46087   0.861   1.429  42.352 -0.1761  0.1618 -0.1998
37288W        W46088   0.905   4.734  25.229 -0.0760 -0.3607 -0.3045
37289W        W46089   8.306   0.203  44.627  0.1530 -0.0569  0.1266
37290W        W46090   8.433   0.489  36.704 -0.0527  0.0565 -0.0119
37291W        W46091  11.530   2.599  16.194 -0.2930  0.4288 -0.1024
37292W        W46092   2.014   4.353  25.927 -0.1775 -0.1059  0.1803
37293W        W46093  13.616   2.703  19.967  0.1833  0.1675 -0.0787
37294W        W46094  19.332   4.286   8.012 -0.0370 -0.0461 -0.0185
37295W        W46095  17.117   6.402  28.304 -0.1106  0.0856 -0.0535
37296W        W46096   7.243   4.086  36.788 -0.2176 -0.1175  0.1943
37297W        W46097  10.914   5.670  39.241 -0.0111 -0.2612  0.0309
37298W        W46098  20.880   3.423   8.159 -0.2363  0.2596 -0.0728
37299W        W46099   9.050   2.253   8.462 -0.1325  0.2102  0.0589
37300W        W46100   6.648   5.217   9.753  0.0130  0.2349  0.0449
37301W        W46101  15.489   5.654  13.622 -0.2753  0.0133  0.1997
37302W        W46102  17.511   5.112  26.505 -0.0272 -0.0809  0.2200
37303W        W46103   7.479   5.426  22.069 -0.1700  0.0786 -0.2133
37304W        W46104   1.307   6.468  43.858 -0.0513 -0.2023  0.1023
37305W        W46105  12.894   0.232  44.254  0.2882  0.0462 -0.1648
37306W        W46106  11.169   5.783  29.563 -0.1022 -0.0638 -0.2722
37307W        W46107  14.288   0.050  36.123  0.0917  0.1002  0.1951
37308W        W46108   1.410   5.522   8.092  0.1216  0.3253  0.0075
37309W        W46109  19.231   3.335  20.664 -0.0552  0.0901 -0.0771
37310W        W46110  20.078   5.967  14.243 -0.0903  0.4402  0.0971
37311W        W46111  13.954   0.963  15.197 -0.1035 -0.3625  0.0328
37312W        W46112   6.856   2.207   7.774  0.0198 -0.0313 -0.2302
37313W        W46113  13.222   1.786   1.683  0.1823  0.0855 -0.0722
37314W        W46114   7.705   2.467  38.242  0.3587  0.3450 -0.0295
37315W        W46115   3.422   3.341   7.307 -0.2497 -0.1257 -0.2396
37316W        W46116  12.323   1.250  12.984 -0.0796  0.2911 -0.0659
37317W        W46117   4.346   6.020  18.069 -0.3228  0.1693  0.2904
37318W        W46118  12.510   1.225  19.593 -0.2024  0.4416 -0.0675
37319W        W46119   4.089   4.016  32.189  0.1184  0.2055  0.0399
37320W        W46120   6.796   3.553  21.643  0.0772 -0.0776  0.0948
37321W        W46121  11.058   5.168  37.074  0.1151 -0.0428  0.2461
37322W        W46122   8.435   1.813  11.442  0.1503  0.1675 -0.4188
37323W        W46123   4.647   1.554  28.338  0.0374  0.0981  0.2012
37324W        W46124  15.172   0.071  39.765  0.3378  0.0498 -0.2259
37325W        W46125   5.347   3.053  15.808 -0.2153 -0.1019 -0.0853
37326W        W46126  14.502   3.671   1.130  0.1926 -0.0968  0.0648
37327W        W46127   6.975   3.552  18.465  0.0999  0.1095 -0.2697
37328W        W46128   1.534   6.371  15.222  0.1272 -0.1672 -0.4793
37329W        W46129   3.067   6.311  12.309 -0.0122 -0.2012 -0.4234
37330W        W46130   1.685   2.534  44.774  0.0347  0.3786  0.1307
37331W        W46131  15.814   5.899   1.392 -0.1356 -0.0427 -0.1126
37332W        W46132  16.621   1.343  29.952  0.0016  0.0366  0.0803
37333W        W46133  13.627   0.932  10.798 -0.1697  0.1932  0.0909
37334W        W46134  12.578   0.656  32.530  0.2034  0.2359  0.2672
37335W        W46135  14.265   3.816   6.474  0.2076  0.0298  0.1461
37336W        W46136  10.724   5.467   0.506  0.1608  0.1535  0.3113
37337W        W46137  11.068   0.229  13.763  0.0402 -0.0043  0.0069
37338W        W46138  17.526   3.518  32.384 -0.1933 -0.2022 -0.1598
37339W        W46139   6.028   1.228  37.289 -0.1223  0.0578 -0.4089
37340W        W46140  14.842   5.805   6.875 -0.2519  0.0549 -0.0968
37341W        W46141   5.531   2.147  13.673  0.0609 -0.0773 -0.0623
37342W        W46142  17.884   2.595  23.889  0.0733  0.3654 -0.0170
37343W        W46143  13.502   2.245  29.595 -0.0900  0.2311 -0.1754
37344W        W46144  10.290   0.826  18.463 -0.2310 -0.0017 -0.2638
37345W        W46145  16.104   0.792  44.904 -0.1554  0.0583 -0.3559
37346W        W46146  10.588   2.716   7.578 -0.0965  0.0278 -0.1812
37347W        W46147   0.678   1.876   5.523 -0.2537  0.2125 -0.1492
37348W        W46148  13.641   6.391   8.875 -0.0128  0.1559  0.1202
37349W        W46149   8.717   1.699  39.545  0.0399 -0.3277 -0.3436
37350W        W46150   3.135   1.166  42.778  0.2861  0.2378 -0.1663
37351W        W46151   1.022   4.789   1.049  0.1360  0.1108 -0.1119
37352W        W46152   8.403   5.390  29.546  0.2268  0.0365 -0.0092
37353W        W46153   1.674   1.183  37.198 -0.0196 -0.0179  0.0815
37354W        W46154  21.107   0.514  32.108  0.1655  0.0098  0.2104
37355W        W46155  14.147   5.902  38.101  0.0644 -0.0902  0.1203
37356W        W46156   5.731   4.194  44.780  0.1382  0.0860  0.1034
37357W        W46157   9.978   2.073  10.631 -0.2114  0.0837 -0.0110
37358W        W46158   9.614   6.089  23.226  0.1868 -0.1578 -0.2910
37359W        W46159   6.550   0.728  30.883 -0.0644  0.0115 -0.0539
37360W        W46160  13.684   5.300  18.290  0.1352 -0.3803 -0.0173
37361W        W46161   8.454   4.149  35.493 -0.1655  0.0384 -0.3938
37362W        W46162   1.625   6.110  13.486 -0.1378 -0.2230 -0.2766
37363W        W46163  20.909   6.357   9.388  0.3188  0.2017  0.1663
37364W        W46164   5.123   4.082  16.266  0.1304 -0.4513  0.2669
37365W        W46165  11.481   0.922   9.214  0.1837 -0.1259  0.0590
37366W        W46166  16.733   2.990  44.733  0.1175 -0.0490  0.0056
37367W        W46167   3.709   1.452   6.499  0.0315  0.0350  0.0012
37368W        W46168   9.327   3.187   8.097  0.4404  0.1129  0.1640
37369W        W46169  12.101   4.394  17.384 -0.1919  0.0292 -0.2090
37370W        W46170  19.290   3.143  32.002 -0.2162  0.0593  0.1306
37371W        W46171   1.614   4.182   3.948  0.0252 -0.0780  0.0373
37372W        W46172   8.711   6.483  16.440  0.3594  0.0429  0.0287
37373W        W46173   7.607   1.466  30.962 -0.2365  0.2736  0.1043
37374W        W46174   4.492   0.966   4.663 -0.1785 -0.1686 -0.0388
37375W        W46175  19.048   4.803  35.377 -0.0335 -0.0856  0.0143
37376W        W46176   2.845   0.778  26.743 -0.1080  0.0526 -0.1603
37377W        W46177  10.208   0.361  20.309  0.3132 -0.0348 -0.1945
37378W        W46178   7.997   4.288  42.398 -0.0633 -0.0589  0.2090
37379W        W46179  20.597   4.086  13.119 -0.1252 -0.2037 -0.0655
37380W        W46180   5.931   4.157  41.510 -0.0393 -0.1861  0.0368
37381W        W46181  13.422   0.005   6.524 -0.1156  0.2062 -0.0069
37382W        W46182  14.841   1.732   0.485 -0.0207  0.0985  0.0962
37383W        W46183  11.180   2.978   8.885 -0.0732 -0.1210 -0.1121
37384W        W46184  20.634   1.948  33.093 -0.1353 -0.0903  0.1193
37385W        W46185   2.538   4.375  29.283  0.1462 -0.3197  0.4792
37386W        W46186   5.141   1.651   0.297 -0.0592 -0.3364 -0.2178
37387W        W46187   0.012   1.819   3.677  0.1601  0.0491  0.2703
37388W        W46188  19.610   1.504   3.880 -0.2963 -0.1583 -0.1267
37389W        W46189  14.919   3.446   3.603 -0.2644 -0.3805  0.1833
37390W        W46190  10.564   5.916  39.524 -0.2609  0.2146 -0.0125
37391W        W46191   9.631   3.921  23.018  0.2361  0.0069 -0.0017
37392W        W46192   0.047   1.602  39.652 -0.1763  0.0471  0.0566
37393W        W46193   4.558   4.743  18.744 -0.0358 -0.0936  0.0257
37394W        W46194  11.904   0.008   8.797  0.2338 -0.0806  0.1221
37395W        W46195  11.526   4.990  13.658 -0.0082  0.5190 -0.0953
37396W        W46196  12.289   4.226  18.389  0.0861 -0.1576  0.1605
37397W        W46197  17.986   1.900  24.897 -0.0171 -0.0309  0.0326
37398W        W46198  11.112   4.218   8.985  0.0343 -0.0447 -0.5914
37399W        W46199  15.113   0.251   3.020 -0.0451  0.0154 -0.2665
37400W        W46200  10.239   4.549  34.677 -0.0608 -0.1853 -0.1172
37401W        W46201  15.191   4.045  15.155 -0.0455  0.2167  0.1794
37402W        W46202  15.481   3.808  16.199  0.1319  0.1570  0.1151
37403W        W46203   9.705   5.250  35.627 -0.0059  0.1376  0.0189
37404W        W46204   6.380   1.202   0.048 -0.2967  0.2884  0.0607
37405W        W46205   9.473   0.642  32.384 -0.2953  0.0199 -0.0462
37406W        W46206   8.095   2.458  31.295 -0.1178  0.0718 -0.0254
37407W        W46207   8.365   6.577  19.858  0.0148  0.3947  0.0756
37408W        W46208   1.183   6.092  33.336  0.0333  0.0151  0.2185
37409W        W46209   1.584   1.807   9.978 -0.0506 -0.0642 -0.1819
37410W        W46210  11.154   0.489  38.247 -0.1331 -0.1426 -0.0630
37411W        W46211   5.280   6.400  40.994 -0.0312  0.1553 -0.2243
37412W        W46212  13.447   4.450  35.822 -0.0296  0.0997 -0.0109
37413W        W46213   1.777   0.441  42.009  0.1412 -0.0573  0.3604
37414W        W46214  11.866   6.079  19.688  0.1225 -0.0228  0.0543
37415W        W46215  19.799   5.914  25.439 -0.4768  0.0691  0.2084
37416W        W46216   3.672   2.328  39.693  0.1166 -0.0204 -0.2034
37417W        W46217  16.068   0.553  13.929  0.0037 -0.2935  0.0587
37418W        W46218  12.772   1.707  16.769  0.1217  0.0495  0.1328
37419W        W46219  17.810   4.392  38.490 -0.2603 -0.1837  0.0817
37420W        W46220   1.568   2.818   5.644 -0.4002  0.0180 -0.2388
37421W        W46221   1.840   4.169  43.148  0.1198  0.3412 -0.0681
37422W        W46222   0.876   2.548   8.230  0.2186  0.0704 -0.0492
37423W        W46223   4.728   3.952   6.813 -0.0760  0.0119  0.0761
37424W        W46224  13.225   1.129   9.416  0.0877  0.0469  0.2262
37425W        W46225   4.810   1.738  33.480 -0.1867 -0.1359 -0.0029
37426W        W46226  18.039   4.883  25.340 -0.1026 -0.0220 -0.1679
37427W        W46227  19.088   0.066  40.754 -0.1875  0.1145 -0.0725
37428W        W46228  11.632   6.176  41.964  0.2192 -0.0199  0.1277
37429W        W46229   2.031   6.393  39.775  0.1112  0.2452 -0.3069
37430W        W46230   9.276   5.325  40.438  0.1862 -0.1602  0.0962
37431W        W46231   6.839   1.595  21.670 -0.2002  0.0873 -0.1927
37432W        W46232   9.835   5.679  35.979  0.1966 -0.0618  0.0990
37433W        W46233   3.110   2.107   4.757  0.2735  0.0317 -0.2457
37434W        W46234  20.943   5.213   6.095 -0.1590 -0.4435 -0.1944
37435W        W46235   0.123   3.767  41.967  0.1755  0.6101  0.2071
37436W        W46236   3.274   5.036   7.188  0.1103  0.0676  0.0577
37437W        W46237   9.246   2.524  13.121 -0.0874 -0.0446  0.2895
37438W        W46238  17.262   2.433  42.210  0.1809 -0.0493  0.2257
37439W        W46239   8.464   0.551  36.040  0.1144 -0.0898 -0.0229
37440W        W46240   9.172   6.313   3.662  0.0913  0.2014  0.0364
37441W        W46241  10.733   2.908   8.547  0.0710 -0.0289 -0.0620
37442W        W46242  15.683   4.272  35.733  0.2236  0.0595  0.2113
37443W        W46243  20.214   5.617  39.191  0.2486 -0.1617 -0.3468
37444W        W46244   1.684   2.963   9.962 -0.1911  0.1943  0.0380
37445W        W46245  13.375   0.505   0.068 -0.0411  0.1104  0.2143
37446W        W46246  10.450   4.646  38.725 -0.1587 -0.0032 -0.0807
37447W        W46247  11.404   3.831   9.269  0.0004 -0.1622  0.1522
37448W        W46248  10.911   5.557  29.892 -0.0502 -0.2660  0.2341
37449W        W46249  19.771   6.342   2.226  0.1473 -0.3232 -0.1179
37450W        W46250  12.078   0.031  42.227 -0.1192  0.0689 -0.2286
37451W        W46251  15.609   0.916   8.061  0.0212 -0.1972 -0.1093
37452W        W46252  15.678   3.601   1.352 -0.3510 -0.0344 -0.2228
37453W        W46253   4.691   3.471  36.273  0.1605 -0.2964 -0.0705
37454W        W46254  10.576   2.454   4.515 -0.0973  0.0510 -0.0487
37455W        W46255   5.396   1.643  30.844 -0.1907 -0.1206 -0.1638
37456W        W46256   1.066   2.100  39.599  0.0857  0.2227  0.0848
37457W        W46257   3.918   2.441  13.353  0.2344 -0.0861  0.4076
37458W        W46258   0.158   1.382   4.049  0.2135  0.1292  0.2243
37459W        W46259   6.300   0.043  41.652 -0.2555  0.1688 -0.0726
37460W        W46260  21.086   4.468  12.351 -0.1096  0.0853  0.1787
37461W        W46261  16.993   1.725   5.228 -0.1994 -0.0319 -0.0228
37462W        W46262   2.143   4.883  30.794  0.0266 -0.0482  0.3919
37463W        W46263   2.361   3.894  38.159  0.1423  0.1020  0.3396
37464W        W46264  15.883   2.694  39.088  0.4208 -0.1334 -0.1394
37465W        W46265   8.975   3.292   8.458  0.1246  0.0427  0.1301
37466W        W46266  11.484   1.798  22.933 -0.0163 -0.0200  0.2349
37467W        W46267   2.400   0.393  11.868 -0.0491  0.0223  0.0640
37468W        W46268  13.964   1.811  31.305  0.1776  0.2689 -0.0948
37469W        W46269   2.553   6.421  17.637 -0.2184  0.0763  0.1122
37470W        W46270  13.995   2.128   2.072 -0.1813  0.1214  0.1180
37471W        W46271   5.383   0.769  34.052 -0.0152 -0.2056 -0.0391
37472W        W46272  13.818   5.809  37.201 -0.0685  0.0118  0.0367
37473W        W46273   4.906   0.775  28.771  0.0005 -0.1834  0.1274
37474W        W46274   8.982   5.541   6.892 -0.2131  0.2713  0.0472
37475W        W46275  12.401   5.259  45.076  0.0065 -0.0070  0.1631
37476W        W46276   4.518   2.897   9.021 -0.1222  0.0167 -0.1218
37477W        W46277   5.175   5.645  43.915  0.0350 -0.0016  0.0184
37478W        W46278  20.273   0.401   1.300 -0.0677  0.0967  0.2685
37479W        W46279   0.752   4.398  10.360 -0.0814  0.2470 -0.1815
37480W        W46280  15.066   4.514   9.983 -0.0311 -0.3960  0.3913
37481W        W46281   9.078   3.701   7.336 -0.0468  0.2187 -0.1722
37482W        W46282  16.748   4.611   3.468  0.2320 -0.1332 -0.1612
37483W        W46283   3.316   2.920  44.841 -0.1327 -0.2587  0.1937
37484W        W46284  20.492   0.725  39.741 -0.2804 -0.1349 -0.4487
37485W        W46285   6.151   1.562  38.541 -0.0552  0.1042 -0.1815
37486W        W46286  14.007   6.513  36.839  0.0884 -0.0491 -0.2331
37487W        W46287   0.994   5.484  38.509 -0.1359  0.1097  0.0808
37488W        W46288  20.582   2.906  35.185 -0.1425  0.0360 -0.0870
37489W        W46289  16.818   3.360   4.107 -0.0323  0.2351  0.4567
37490W        W46290   7.814   5.571   1.188  0.0071 -0.3060 -0.0993
37491W        W46291  18.986   4.029  19.514  0.0728  0.0791 -0.1606
37492W        W46292   3.622   6.496  26.570  0.0376  0.1678  0.2289
37493W        W46293   8.485   5.917  10.286  0.0898 -0.1401  0.0177
37494W        W46294   4.693   6.184  39.066  0.0864 -0.3289 -0.3216
37495W        W46295  11.618   6.469  38.711  0.3397 -0.1100  0.0119
37496W        W46296  13.983   5.961  31.498 -0.0043  0.3499  0.0431
37497W        W46297   6.175   2.583  35.356  0.1531 -0.1438 -0.2442
37498W        W46298   4.765   6.027  34.068  0.2938 -0.2070  0.2355
37499W        W46299   9.805   2.066  24.976  0.2436  0.2074  0.1776
37500W        W46300   7.883   1.535  38.734  0.1857 -0.0441  0.1781
37501W        W46301   7.286   3.560  40.011  0.0223 -0.0799 -0.2083
37502W        W46302  17.256   3.092  29.713  0.1417 -0.0733  0.1422
37503W        W46303   9.661   0.930  44.281 -0.0467 -0.3200 -0.1388
37504W        W46304  21.102   0.248  25.539 -0.0635 -0.1139  0.1014
37505W        W46305  14.334   2.299  31.667  0.2460  0.0707 -0.0534
37506W        W46306   6.289   1.056  32.211 -0.1786 -0.0821 -0.1225
37507W        W46307   2.223   1.391   3.376  0.2058  0.1233 -0.1693
37508W        W46308  13.773   3.787   5.177  0.1586  0.1226 -0.2143
37509W        W46309   9.331   1.848   5.554  0.1974 -0.1347  0.3794
37510W        W46310   2.179   3.926  29.449  0.2759 -0.0358  0.0534
37511W        W46311   7.807   2.375  19.406 -0.0053  0.0600 -0.2264
37512W        W46312  12.740   3.093  32.222 -0.1408  0.3203  0.1097
37513W        W46313   9.035   5.022  42.073 -0.0769  0.2026  0.2439
37514W        W46314  14.182   2.182   3.668 -0.2179  0.1414 -0.1232
37515W        W46315  15.132   1.294   3.386  0.2242 -0.1880 -0.0801
37516W        W46316   8.036   0.314  19.634 -0.0563 -0.3479  0.0309
37517W        W46317  21.103   3.025   6.099 -0.0764 -0.0244  0.0591
37518W        W46318  12.623   5.153  43.162  0.2634 -0.0624 -0.1201
37519W        W46319  20.904   2.328  15.026 -0.2369  0.0205  0.0210
37520W        W46320  13.870   4.873  36.883  0.2775  0.3443  0.0048
37521W        W46321  10.542   4.338  42.445  0.0975  0.0584  0.1110
37522W        W46322   0.551   6.327  29.233 -0.0891 -0.2275  0.3045
37523W        W46323  11.932   3.861  43.965  0.1040  0.3029  0.3761
37524W        W46324   0.189   4.583  26.990 -0.0314 -0.0989  0.1510
37525W        W46325   4.702   1.662  19.049 -0.2321  0.0437 -0.0208
37526W        W46326   3.467   3.375  42.571  0.0311 -0.1712 -0.0466
37527W        W46327   6.627   5.933  41.097  0.0336 -0.1346  0.0012
37528W        W46328   5.752   1.906  36.301  0.2170 -0.0196 -0.1736
37529W        W46329   7.636   4.779  21.642  0.1211 -0.1781 -0.1722
37530W        W46330   0.229   5.075   5.483 -0.0230  0.0577 -0.0018
37531W        W46331  17.826   2.587   1.596  0.0990  0.2095 -0.1279
37532W        W46332   5.672   2.482   0.083  0.1510  0.1563 -0.0934
37533W        W46333  16.650   5.799  40.432  0.1069  0.0913  0.0281
37534W        W46334  13.020   6.154  29.185  0.0944  0.0076  0.2803
37535W        W46335  19.952   3.780   1.470  0.0116  0.0001 -0.1810
37536W        W46336  10.551   2.248  10.435  0.0140  0.2931 -0.0931
37537W        W46337   7.813   5.282   6.155  0.1674 -0.2909 -0.0510
37538W        W46338   2.367   4.593  42.628 -0.1184  0.0108  0.1504
37539W        W46339   1.786   1.082  16.096 -0.1861 -0.0008  0.2752
37540W        W46340   6.581   0.787  17.418 -0.0441  0.1275  0.2077
37541W        W46341  19.874   2.865   6.968 -0.0492 -0.3026 -0.4136
37542W        W46342   8.671   2.405  23.708 -0.1496 -0.4101 -0.4544
37543W        W46343  20.406   0.820  32.571 -0.0032 -0.0379  0.2159
37544W        W46344   5.979   2.844  13.827  0.3556 -0.0690 -0.0129
37545W        W46345   8.147   4.886  11.882  0.0356  0.0556 -0.0404
37546W        W46346  20.776   1.238  30.667 -0.0628 -0.1153 -0.1550
37547W        W46347   2.191   6.062  14.476  0.1144 -0.0837  0.3240
37548W        W46348  20.472   4.248  41.623  0.2573  0.1316 -0.3462
37549W        W46349  10.827   2.010  37.048 -0.3478  0.0130 -0.0581
37550W        W46350  12.861   2.964  10.047 -0.2270 -0.0172 -0.0406
37551W        W46351  14.342   1.081   2.805 -0.2541  0.0221  0.0833
37552W        W46352   0.569   6.089  11.734  0.3343  0.4682 -0.2535
37553W        W46353  20.683   6.539  42.152  0.0753 -0.1686  0.0368
37554W        W46354   3.177   1.932  29.914  0.2990 -0.2550 -0.0995
37555W        W46355   4.445   3.652   2.940 -0.2704  0.1294  0.0264
37556W        W46356  18.244   5.115   6.623  0.0806  0.1758 -0.1021
37557W        W46357  10.098   6.560   1.161  0.0711 -0.0767  0.1546
37558W        W46358  13.257   3.689  28.300 -0.0872 -0.2038 -0.0927
37559W        W46359  20.792   2.088   7.943 -0.1806  0.0912  0.2429
37560W        W46360  10.236   1.572   2.684 -0.2903 -0.0710 -0.1841
37561W        W46361  14.329   4.911  10.941  0.1139  0.0294 -0.1812
37562W        W46362   0.521   6.536  38.938  0.1181  0.1596  0.0368
37563W        W46363  13.896   4.599  30.210  0.2673  0.1334 -0.0530
37564W        W46364   0.320   2.880   8.154 -0.2833 -0.2353  0.1459
37565W        W46365  15.654   0.805  11.530 -0.0441  0.1866 -0.2362
37566W        W46366  14.987   3.627  29.295 -0.2321  0.0774 -0.3412
37567W        W46367  14.423   1.145  39.332 -0.3844 -0.2833  0.1355
37568W        W46368   7.684   6.336  15.620 -0.0001  0.1622  0.0988
37569W        W46369  12.923   4.768  39.015 -0.1422 -0.2767  0.1454
37570W        W46370   5.503   0.717   6.955 -0.3156  0.0823  0.0248
37571W        W46371  15.342   2.932   8.594  0.0673 -0.0097  0.3965
37572W        W46372  11.806   5.823   0.439  0.3440  0.1508 -0.1513
37573W        W46373   7.036   1.463  44.513  0.0755  0.2663 -0.1838
37574W        W46374  17.706   2.911   3.020 -0.0659 -0.0581  0.0237
37575W        W46375  13.649   1.827  32.624 -0.1777  0.0797  0.1837
37576W        W46376  16.170   1.055  41.737 -0.0470  0.4283 -0.0476
37577W        W46377  20.960   4.450  24.990  0.1892  0.0778  0.0624
37578W        W46378   5.547   5.176  19.423 -0.1972  0.2128 -0.1433
37579W        W46379  14.500   4.546   2.408  0.3453  0.1322  0.1519
37580W        W46380   2.716   5.582  37.267  0.2943 -0.1544  0.1501
37581W        W46381   2.630   4.387  16.833 -0.4089 -0.0289  0.1972
37582W        W46382   3.835   4.938  36.270 -0.0105 -0.1903 -0.1015
37583W        W46383   3.149   1.009   8.847  0.1320  0.2179  0.2920
37584W        W46384  10.747   4.427  10.425  0.0151  0.2817  0.3464
37585W        W46385   3.483   0.667  44.053 -0.1844  0.1698  0.0610
37586W        W46386  17.943   4.825   0.201  0.1750 -0.1636  0.2556
37587W        W46387   7.392   0.580  17.055 -0.1486 -0.0233 -0.0646
37588W        W46388  15.708   3.213  13.119 -0.1009  0.1048  0.1503
37589W        W46389  14.112   5.014   5.212 -0.2782 -0.3800 -0.0163
37590W        W46390  10.875   0.400   1.828  0.0498 -0.2360  0.2208
37591W        W46391   9.647   2.604   9.952 -0.2217 -0.0257  0.3224
37592W        W46392   2.935   4.588   0.878 -0.0016  0.0647 -0.1795
37593W        W46393   7.074   0.148  33.029  0.0129  0.3726 -0.0650
37594W        W46394  12.479   5.457   5.968 -0.3879 -0.1089  0.0010
37595W        W46395  12.429   0.707  12.395  0.0357 -0.1013 -0.2254
37596W        W46396   7.090   0.309  10.581 -0.1539  0.0183 -0.1170
37597W        W46397  16.549   3.836  41.768 -0.0225 -0.1739 -0.2421
37598W        W46398  19.513   1.845  30.693 -0.1132 -0.0622  0.3162
37599W        W46399   7.679   5.117  30.352  0.1150  0.0605  0.2040
37600W        W46400  14.485   4.822  35.634 -0.0457  0.3381  0.2950
37601W        W46401  11.348   1.570   3.956 -0.0598  0.0398  0.0924
37602W        W46402  17.407   4.204   2.721  0.4483 -0.0066 -0.1235
37603W        W46403   1.155   6.064   6.343 -0.0377 -0.0623  0.1479
37604W        W46404   5.202   1.826  16.312 -0.0188  0.1242 -0.2573
37605W        W46405  18.203   6.236  10.250 -0.1301 -0.1583  0.0811
37606W        W46406   3.142   1.449  42.294  0.0410  0.0380  0.1123
37607W        W46407   1.269   1.016  36.333  0.2868 -0.0207  0.0304
37608W        W46408  11.706   1.876  38.830 -0.0259  0.1309  0.1626
37609W        W46409   5.267   4.475  16.060  0.0850  0.1135  0.2882
37610W        W46410  13.111   0.603  29.291 -0.1269 -0.0012 -0.1215
37611W        W46411   7.120   0.872   8.039 -0.0676 -0.2294  0.1314
37612W        W46412   4.538   3.166  30.509 -0.2015 -0.1290 -0.2641
37613W        W46413  12.389   4.781   9.949  0.0225 -0.0160 -0.0006
37614W        W46414  11.708   5.510  30.432 -0.3741  0.2049 -0.0291
37615W        W46415  18.521   4.997  15.124 -0.0561  0.0445  0.3256
37616W        W46416  13.418   0.466  10.222 -0.1432 -0.0109 -0.1379
37617W        W46417  16.098   3.728  15.267  0.1936 -0.0839  0.1025
37618W        W46418  13.837   3.647  13.147 -0.2803 -0.1054 -0.1203
37619W        W46419  15.921   6.273  10.921 -0.0796 -0.0887 -0.1345
37620W        W46420  11.392   0.499   5.679  0.1764 -0.3077 -0.1050
37621W        W46421  11.210   3.406  21.372  0.2470 -0.3913 -0.0512
37622W        W46422   6.207   3.366  43.627 -0.0785 -0.2519  0.3412
37623W        W46423  11.691   1.436  11.939  0.3250 -0.2453  0.2049
37624W        W46424  16.320   0.764  16.312 -0.1411  0.2016  0.1293
37625W        W46425   0.250   1.334  38.942 -0.0703 -0.1283 -0.0309
37626W        W46426  11.132   2.147   7.807  0.2324 -0.0288  0.0797
37627W        W46427   2.917   1.158  35.980  0.0814 -0.0183 -0.1465
37628W        W46428  19.354   5.430  40.196 -0.0955 -0.0493 -0.2960
37629W        W46429  18.333   0.840  25.894 -0.0200 -0.0646 -0.0934
37630W        W46430  16.426   4.191  30.519  0.1009 -0.2795 -0.1908
37631W        W46431   4.141   6.084  43.697  0.0419 -0.0983  0.3686
37632W        W46432   9.160   4.234   8.780  0.0868  0.1733 -0.0356
37633W        W46433  10.376   0.671  31.281 -0.1171 -0.0626 -0.3044
37634W        W46434   0.549   2.150  34.945  0.0510  0.0847  0.0364
37635W        W46435  16.819   5.789  37.868 -0.0388  0.0354 -0.2635
37636W        W46436   3.081   2.335  12.213  0.2993 -0.4812  0.2847
37637W        W46437   5.078   6.036   3.236 -0.0555  0.4128  0.1600
37638W        W46438   8.647   5.576  14.507 -0.1520  0.4624  0.1462
37639W        W46439   4.283   1.026  32.439  0.0532 -0.3843  0.0015
37640W        W46440   2.832   0.081  29.652 -0.0709 -0.2803 -0.3822
37641W        W46441  18.605   3.166  26.550 -0.0938  0.0919 -0.1568
37642W        W46442   3.311   4.705   4.129 -0.2239 -0.0755 -0.1875
37643W        W46443   8.880   0.139  10.024 -0.1653 -0.0502  0.0586
37644W        W46444  13.956   0.132   4.698 -0.1369 -0.0237 -0.0267
37645W        W46445   6.462   3.141   0.877 -0.1383 -0.0699 -0.0512
37646W        W46446   8.752   6.545   5.609 -0.0595  0.1958 -0.1261
37647W        W46447  19.378   4.268   2.116 -0.1210 -0.0012 -0.1492
37648W        W46448   6.036   2.264   2.643 -0.2577 -0.1932 -0.0383
37649W        W46449   9.071   2.719  38.520  0.4815  0.0229 -0.3157
37650W        W46450  18.633   4.629   8.830  0.0183 -0.3798 -0.1249
37651W        W46451   0.935   3.540  42.248 -0.3124 -0.3131  0.0965
37652W        W46452  20.495   4.213  39.396 -0.2076 -0.0680 -0.0190
37653W        W46453  12.021   0.500  13.839  0.2600 -0.0515  0.4089
37654W        W46454  20.988   2.112  12.583 -0.0085 -0.1253 -0.2379
37655W        W46455  12.031   5.886  41.609 -0.1313  0.0379 -0.4163
37656W        W46456  19.415   2.659   3.480  0.0827  0.0181 -0.2696
37657W        W46457  14.190   1.855  35.200 -0.1361  0.1004 -0.1422
37658W        W46458   4.854   1.921  15.895  0.2575  0.2098 -0.1428
37659W        W46459  16.205   6.332  35.748 -0.2188  0.0381 -0.2281
37660W        W46460   9.639   2.133  23.124  0.1321 -0.3106  0.2207
37661W        W46461  15.403   2.975  15.047 -0.0022  0.0739 -0.4181
37662W        W46462   8.861   6.042  12.766 -0.1879 -0.0958 -0.0968
37663W        W46463   1.722   0.178   7.328  0.1544  0.1078 -0.2319
37664W        W46464  16.044   6.008  41.796 -0.0959  0.1930  0.0430
37665W        W46465   4.534   2.318  16.050  0.0281 -0.0075 -0.0990
37666W        W46466   7.541   0.105  10.398  0.5331  0.0303  0.2181
37667W        W46467   7.101   3.583  38.891  0.2816 -0.0749  0.1300
37668W        W46468  13.794   4.340  42.719  0.1621 -0.1358 -0.2291
37669W        W46469  19.960   1.003  28.854  0.2712  0.0339  0.1411
37670W        W46470   2.491   6.233  28.385  0.1427 -0.2062 -0.0911
37671W        W46471  20.160   1.153  42.304 -0.2977  0.3016  0.0462
37672W        W46472   0.841   5.883   2.683 -0.0524 -0.0989  0.0707
37673W        W46473   8.664   2.202  36.727 -0.2783 -0.0916  0.2862
37674W        W46474  12.767   0.857  19.968  0.1410 -0.0491  0.0265
37675W        W46475  20.935   0.324  27.441  0.3303  0.0911  0.0881
37676W        W46476  21.112   4.466  42.446  0.1788 -0.1925 -0.0305
37677W        W46477  20.499   0.528  12.603  0.0514 -0.0368  0.0711
37678W        W46478   6.306   3.991  15.776 -0.0816  0.2895 -0.0628
37679W        W46479   2.173   1.868  36.607 -0.1140 -0.0361 -0.0763
37680W        W46480   1.123   2.832  25.815 -0.0140  0.1150  0.3859
37681W        W46481  13.774   4.394   5.922 -0.1087  0.0308  0.1395
37682W        W46482   5.589   6.207  38.086 -0.0060  0.2787 -0.0095
37683W        W46483   8.278   4.964  13.841 -0.0359  0.1119 -0.1893
37684W        W46484   6.941   2.468  32.244 -0.1302 -0.1035 -0.1000
37685W        W46485   3.419   0.386  25.398  0.1862  0.0021  0.0581
37686W        W46486  21.058   1.902  27.150  0.0402 -0.0135  0.3243
37687W        W46487   6.823   0.137  34.665 -0.4390  0.2356  0.1807
37688W        W46488   1.672   4.045  26.190 -0.2205  0.1312 -0.2441
37689W        W46489   8.148   3.913  12.190  0.0374 -0.0955 -0.1369
37690W        W46490   1.995   5.644  29.362 -0.0662 -0.0483  0.2107
37691W        W46491  19.518   3.238  19.574 -0.2039  0.0346  0.0925
37692W        W46492   6.785   6.228   5.055 -0.0758  0.2488 -0.1278
37693W        W46493  19.867   2.801  12.839  0.0086  0.1860  0.0370
37694W        W46494  17.668   0.725  38.296  0.3044  0.2539 -0.0838
37695W        W46495  10.988   3.596  33.791  0.0146  0.1144 -0.2070
37696W        W46496  19.316   0.264  44.538  0.0579  0.1439  0.0207
37697W        W46497   2.669   0.880  15.900 -0.0947 -0.0458 -0.0809
37698W        W46498  20.465   5.734  27.092 -0.3098  0.0723  0.1980
37699W        W46499   7.214   0.368  17.908 -0.0952 -0.0018 -0.0675
37700W        W46500   2.874   3.443  29.574  0.0770 -0.2120 -0.1267
37701W        W46501   4.945   3.811  44.106 -0.0955 -0.3153 -0.2470
37702W        W46502   2.311   1.164  10.617 -0.1109 -0.2863  0.0871
37703W        W46503   1.692   3.530  25.317  0.0195  0.2371  0.0234
37704W        W46504   1.210   0.580   9.881 -0.0993 -0.0576 -0.1438
37705W        W46505  16.359   3.286  27.575  0.0572 -0.1532  0.1550
37706W        W46506   4.415   4.882   5.533  0.0645 -0.1334 -0.2248
37707W        W46507   8.063   6.325  30.809 -0.3757 -0.0080 -0.0037
37708W        W46508   1.513   2.652  34.145 -0.0796  0.2724  0.0011
37709W        W46509  16.739   0.327  39.838 -0.0340 -0.0359  0.5440
37710W        W46510  17.304   0.662  43.475  0.0613 -0.1769  0.2496
37711W        W46511   8.839   0.300   8.729  0.0711  0.3400 -0.3609
37712W        W46512   7.948   4.833  42.265  0.1030  0.0534  0.0951
37713W        W46513   7.827   3.904  44.956 -0.3059  0.0677  0.1642
37714W        W46514  16.777   4.173  11.419 -0.0993  0.2372  0.2367
37715W        W46515  13.420   1.200  42.495  0.3767 -0.1115  0.4012
37716W        W46516  11.823   4.987  22.162 -0.1090  0.2388  0.0135
37717W        W46517  11.481   0.648  11.182  0.0379 -0.1657  0.3374
37718W        W46518   8.709   3.434  20.444 -0.0248 -0.0324 -0.1117
37719W        W46519   5.952   2.172  17.577  0.2042 -0.1449  0.1608
37720W        W46520  18.437   0.980  14.821 -0.0234  0.0287  0.1924
37721W        W46521   1.425   6.080   5.162 -0.2621 -0.3461  0.1718
37722W        W46522  14.913   4.655  14.356  0.1010 -0.2753  0.2339
37723W        W46523   3.234   5.039  26.274  0.0542  0.1373  0.0983
37724W        W46524   2.340   5.105  14.321 -0.0559  0.1220 -0.0798
37725W        W46525   0.068   0.181  35.865 -0.1442 -0.1464 -0.0794
37726W        W46526  13.595   5.862  17.396 -0.0077  0.1342  0.1292
37727W        W46527  13.653   0.932  45.034  0.2133 -0.0661 -0.0034
37728W        W46528  11.364   5.182  40.910 -0.1756 -0.1702  0.2265
37729W        W46529  15.980   1.906  33.024 -0.2792  0.0911 -0.0859
37730W        W46530   0.724   0.543  25.355  0.3258  0.0620 -0.1748
37731W        W46531  13.111   5.010  15.959 -0.1039 -0.0409 -0.2071
37732W        W46532  19.879   1.246  43.319  0.2215  0.0933  0.0072
37733W        W46533   6.438   4.602  20.473 -0.3596  0.0774  0.1698
37734W        W46534   0.338   2.869  30.791  0.1165  0.1189 -0.0074
37735W        W46535   0.537   2.900  10.764  0.0706  0.1884 -0.0981
37736W        W46536   9.439   1.420  23.368  0.1164  0.1096 -0.0490
37737W        W46537  20.886   5.888  25.169  0.0198  0.2383  0.2585
37738W        W46538   0.665   5.856   9.718  0.0686  0.0409  0.1530
37739W        W46539   2.866   2.051  43.125  0.3776  0.0822 -0.2997
37740W        W46540   1.293   0.550  14.428 -0.0387 -0.3872 -0.0836
37741W        W46541   5.156   3.089  38.763  0.2349  0.1878  0.2548
37742W        W46542  13.864   1.565   2.303  0.1054 -0.0276  0.3154
37743W        W46543   2.976   4.284  41.694  0.0351 -0.4179 -0.1960
37744W        W46544  15.796   3.984  28.684 -0.3126  0.3053  0.3747
37745W        W46545   1.014   1.931  31.987 -0.1553  0.0831 -0.1010
37746W        W46546   3.980   0.377  14.441  0.1395  0.3975  0.2225
37747W        W46547  10.024   0.573  39.491  0.4043 -0.3102  0.2966
37748W        W46548  20.626   4.709  26.856  0.0564 -0.1405  0.0431
37749W        W46549  20.737   3.162  25.614 -0.2256 -0.1801  0.5134
37750W        W46550   8.036   1.247   0.600 -0.1552  0.2433 -0.0331
37751W        W46551  13.738   0.409  13.016 -0.1781 -0.3904 -0.0328
37752W        W46552   3.514   1.810  34.101 -0.0407 -0.3280 -0.0952
37753W        W46553  14.526   2.428   2.887 -0.2284  0.1337  0.3915
37754W        W46554  19.069   1.973  31.968  0.4512  0.1710 -0.2159
37755W        W46555   3.184   1.823  15.748 -0.0581 -0.3177 -0.1494
37756W        W46556  13.142   1.298  44.616  0.1882 -0.0984 -0.2966
37757W        W46557  12.825   3.218  31.610  0.0668 -0.2958  0.2630
37758W        W46558  16.351   3.019  33.841 -0.3288 -0.0376  0.0491
37759W        W46559  14.075   5.650  34.118  0.0185  0.0374  0.1571
37760W        W46560   6.132   1.436  10.817  0.0106  0.1461  0.0777
37761W        W46561  16.763   2.125   3.278 -0.0084 -0.1860  0.1944
37762W        W46562  14.398   0.819  27.880  0.4237  0.1220 -0.1477
37763W        W46563   9.782   5.627  32.379 -0.0590 -0.1841  0.0733
37764W        W46564   2.630   3.683   7.520  0.0570 -0.0217  0.1548
37765W        W46565   4.853   2.367  42.006  0.0040  0.0640  0.3828
37766W        W46566  12.649   5.905  20.766  0.0987  0.1500 -0.0228
37767W        W46567  18.970   0.995   1.751  0.3082 -0.0012  0.1195
37768W        W46568  15.576   5.188  13.486  0.1455  0.0908 -0.0199
37769W        W46569  10.723   3.061  19.210  0.0282 -0.0771  0.0943
37770W        W46570  15.308   1.101  14.780  0.0661  0.2617  0.1314
37771W        W46571  18.091   6.099  40.003 -0.1639 -0.1196 -0.0700
37772W        W46572   6.989   4.125   1.887  0.0478 -0.5315  0.0287
37773W        W46573   4.823   6.287  15.041 -0.1991  0.1870 -0.0316
37774W        W46574   2.505   1.471  36.546 -0.2672  0.0177 -0.1088
37775W        W46575  18.991   1.376  37.948 -0.1885 -0.1135  0.0953
37776W        W46576   0.931   6.100  24.334  0.2646  0.1710  0.0257
37777W        W46577  16.006   3.068  25.693 -0.1063  0.0864 -0.1581
37778W        W46578   3.633   0.996   3.050  0.0605  0.1772  0.1169
37779W        W46579  12.441   3.305  44.708  0.2386  0.1500  0.1977
37780W        W46580  11.226   1.059  29.933 -0.1674 -0.3237  0.0144
37781W        W46581  13.089   5.855  28.263  0.0344  0.0500 -0.0359
37782W        W46582  16.669   0.696  11.971 -0.1175  0.1721 -0.1004
37783W        W46583  13.414   0.132   7.088 -0.0371 -0.0607  0.1867
37784W        W46584  14.606   6.423  14.629 -0.1172 -0.2241 -0.2504
37785W        W46585  20.630   4.276  13.557  0.0007 -0.1181  0.1255
37786W        W46586  12.507   2.435  34.815 -0.0868  0.0541 -0.0421
37787W        W46587   1.031   5.659  36.916  0.0557  0.1110  0.4654
37788W        W46588  14.509   3.178  36.571 -0.0162 -0.0127 -0.1249
37789W        W46589   0.059   5.158  39.966  0.1234  0.0140 -0.0174
37790W        W46590  12.707   3.696  31.462 -0.1585  0.0172 -0.2121
37791W        W46591  10.934   0.823  39.158  0.0690 -0.1449  0.1533
37792W        W46592  16.882   5.390  10.133 -0.0737 -0.3102  0.2585
37793W        W46593   6.025   6.425   2.010 -0.0934  0.0666  0.2630
37794W        W46594   7.514   3.272  34.343 -0.0877  0.0563  0.1609
37795W        W46595  13.291   0.669   4.371  0.0404  0.4430  0.2177
37796W        W46596   5.141   1.100  16.833  0.1750  0.3086  0.0691
37797W        W46597  20.665   1.551  27.885  0.0220  0.0612 -0.2195
37798W        W46598   5.230   1.973   8.358  0.1809  0.0344 -0.1137
37799W        W46599   1.541   2.401   4.258  0.1818 -0.3672  0.3458
37800W        W46600  18.722   2.360  42.089 -0.0638  0.0724 -0.2257
37801W        W46601  12.282   1.898  16.750  0.1004  0.2829 -0.0837
37802W        W46602   6.153   1.713  30.720 -0.0111  0.0122 -0.1625
37803W        W46603   0.210   0.122  28.957  0.1836 -0.2644 -0.0345
37804W        W46604  13.981   0.334  42.382 -0.4028  0.1723 -0.2756
37805W        W46605   4.576   4.035  42.283  0.1049  0.0103  0.0072
37806W        W46606   0.798   6.362   6.092  0.0319 -0.2523  0.1980
37807W        W46607  16.741   2.021   0.710  0.0113  0.2655  0.0709
37808W        W46608  20.415   3.242   8.999 -0.2702  0.0230 -0.0619
37809W        W46609  11.029   2.234  32.661 -0.1024 -0.0162  0.3148
37810W        W46610   6.748   4.500  18.649 -0.0296  0.3200  0.0972
37811W        W46611  10.092   0.297  30.128 -0.0714 -0.0712 -0.3540
37812W        W46612  13.200   1.488  32.564 -0.2185  0.1915 -0.0587
37813W        W46613  19.712   5.791  24.974 -0.0370  0.2399 -0.2806
37814W        W46614   7.195   4.108   2.872  0.3501  0.0526  0.0482
37815W        W46615   4.046   3.614  17.422  0.2617 -0.0944 -0.1494
37816W        W46616   9.393   3.575   3.764  0.3109 -0.0218  0.0547
37817W        W46617   1.011   4.193  24.050 -0.1184  0.0917  0.0231
37818W        W46618  13.333   6.601  37.340  0.2814 -0.0995  0.2512
37819W        W46619  12.833   1.814  20.806 -0.1387  0.1233 -0.1547
37820W        W46620   7.050   3.364  34.587  0.1964  0.1988 -0.1380
37821W        W46621  10.989   2.893  28.567  0.2644  0.1222 -0.0046
37822W        W46622  19.077   1.409   9.856 -0.1498 -0.1195 -0.1858
37823W        W46623   2.838   4.985  27.316 -0.0402 -0.0665 -0.1175
37824W        W46624   3.884   1.100  13.406  0.1697  0.4412 -0.2729
37825W        W46625  13.736   4.382  10.561  0.0284  0.1681  0.0795
37826W        W46626   8.829   2.308   6.903  0.0926  0.2475 -0.1997
37827W        W46627  20.587   4.206  24.758  0.2551 -0.3496 -0.0803
37828W        W46628  11.200   0.467  39.948 -0.0631  0.3025 -0.2178
37829W        W46629  12.964   5.985   5.570 -0.1546  0.0917 -0.1012
37830W        W46630   0.123   4.932  32.788 -0.1653  0.1301  0.0355
37831W        W46631  19.442   5.225  25.321  0.0514 -0.0071 -0.2274
37832W        W46632   6.968   3.703  12.607  0.4192 -0.3564  0.1290
37833W        W46633   9.668   5.198  32.678  0.0263 -0.2050  0.0500
37834W        W46634   6.195   5.936  17.112  0.3026 -0.3079  0.1590
37835W        W46635  11.716   2.692  41.436  0.1324  0.1309 -0.2438
37836W        W46636   3.158   4.729  16.175  0.2354  0.2372 -0.2039
37837W        W46637   5.335   3.289   3.049  0.2135  0.1121  0.0681
37838W        W46638  18.458   0.887   9.897 -0.4277  0.1101  0.4250
37839W        W46639   6.934   3.450  22.137  0.1446 -0.0130 -0.0854
37840W        W46640  15.632   2.403  38.725 -0.2101 -0.1034  0.1351
37841W        W46641  12.077   0.725  38.010  0.0182  0.1319 -0.0256
37842W        W46642   0.400   4.627  33.697  0.0753 -0.1743 -0.0204
37843W        W46643   6.799   6.150  21.974 -0.4154  0.1988 -0.1033
37844W        W46644  17.144   1.446   7.427 -0.3795  0.1761 -0.0200
37845W        W46645   6.359   0.118  34.875  0.1905  0.1093  0.0776
37846W        W46646  13.568   6.367  43.598 -0.0697 -0.0767  0.0153
37847W        W46647   0.065   4.029  35.661 -0.1654  0.2950  0.2549
37848W        W46648  10.886   4.086   6.365  0.4271 -0.2207 -0.0937
37849W        W46649   6.885   4.959  20.556 -0.0380 -0.3820 -0.0400
37850W        W46650   4.929   5.158  33.983 -0.1285 -0.0239 -0.2509
37851W        W46651  11.771   2.244   8.990 -0.1922  0.0237 -0.0413
37852W        W46652   1.005   3.997   4.019  0.2938 -0.2436  0.0578
37853W        W46653  15.344   4.995  15.651 -0.2459  0.0750  0.4909
37854W        W46654   0.833   1.260  34.601 -0.5049  0.3420  0.2111
37855W        W46655  21.096   2.723  35.315  0.1831  0.0853 -0.0169
37856W        W46656  18.080   0.147  28.439 -0.0115  0.1916 -0.0897
37857W        W46657  20.828   1.850  14.515  0.1853 -0.1077 -0.1966
37858W        W46658  17.229   6.175  33.769  0.0037  0.1686 -0.0692
37859W        W46659   6.280   2.202   0.712  0.5242  0.0049  0.3637
37860W        W46660   4.566   5.139   4.006 -0.1032 -0.0886 -0.0276
37861W        W46661  15.768   0.676  28.277 -0.0906 -0.5431  0.1938
37862W        W46662  14.188   2.071  41.534  0.1476  0.0757 -0.0323
37863W        W46663  12.351   3.235  33.859 -0.0039 -0.0898  0.0429
37864W        W46664   8.296   1.667  42.190 -0.0509 -0.1301  0.3490
37865W        W46665   7.767   6.547  43.909 -0.0533 -0.2813 -0.1220
37866W        W46666  18.473   0.387  44.100 -0.0129  0.0975  0.2626
37867W        W46667  20.759   2.327  35.249  0.1290  0.0995 -0.0145
37868W        W46668  11.132   2.489  34.212 -0.0148 -0.1905  0.3894
37869W        W46669   0.606   3.291  40.371 -0.0245  0.0423  0.0262
37870W        W46670  14.630   4.028  13.478  0.2175  0.1235  0.0027
37871W        W46671  21.114   0.872  29.783 -0.2074  0.0260  0.2995
37872W        W46672  17.564   2.865  38.872 -0.4440 -0.2095 -0.0067
37873W        W46673  11.114   3.240   3.068  0.1951  0.2801 -0.3829
37874W        W46674   4.745   0.874   9.138 -0.1125  0.1058 -0.1675
37875W        W46675  16.696   3.066  28.028  0.0341 -0.2569  0.0648
37876W        W46676  12.760   3.180  29.438  0.1512 -0.0960 -0.1681
37877W        W46677  20.872   2.160  37.306 -0.2662  0.1014  0.1854
37878W        W46678  20.882   6.171   0.482 -0.0324 -0.4063 -0.1506
37879W        W46679  13.032   6.504  32.550 -0.1002 -0.0756  0.2614
37880W        W46680   6.692   4.890  34.463 -0.0146  0.0730 -0.1215
37881W        W46681  10.469   2.080   3.327 -0.2644 -0.0020 -0.0709
37882W        W46682   8.424   6.489  12.487 -0.1182  0.1719 -0.0998
37883W        W46683   5.749   4.122  29.220  0.0148  0.1187 -0.0766
37884W        W46684  18.928   1.643  14.560 -0.0328  0.2323  0.0749
37885W        W46685  18.294   0.922  36.197  0.3512  0.1606  0.1534
37886W        W46686   5.668   0.658  43.416 -0.1047 -0.2368 -0.0569
37887W        W46687  12.751   0.680  31.630  0.2175 -0.0230 -0.1427
37888W        W46688  10.401   4.906  19.784  0.3441 -0.1443  0.1048
37889W        W46689  18.367   3.606  42.640  0.1004 -0.2869 -0.1905
37890W        W46690  14.065   5.716  35.781  0.0044  0.1023  0.1702
37891W        W46691   2.788   5.461   9.256  0.0424  0.0713  0.2912
37892W        W46692   5.639   0.502  30.248 -0.0459 -0.1519 -0.1834
37893W        W46693  20.787   2.506  26.348 -0.1515  0.1243  0.0507
37894W        W46694   2.863   5.240  44.803 -0.3754  0.1326 -0.3186
37895W        W46695   5.591   4.606   3.547  0.0104 -0.0381  0.1497
37896W        W46696   6.495   1.396   8.210  0.1540  0.1486  0.0827
37897W        W46697  21.055   5.974   3.910  0.1903 -0.0324 -0.0120
37898W        W46698  20.746   3.164  10.041  0.0748 -0.1622 -0.4667
37899W        W46699   6.851   2.538   7.308 -0.2272  0.1999  0.1429
37900W        W46700   3.205   3.215   9.278 -0.0875 -0.2067 -0.2459
37901W        W46701  15.738   2.612  26.923 -0.2260 -0.1710 -0.0355
37902W        W46702  16.263   0.421   0.103 -0.1775 -0.0809 -0.1571
37903W        W46703  13.991   2.613  17.095  0.0782  0.0047  0.0567
37904W        W46704   3.701   2.274  34.824  0.1973  0.0468  0.0147
37905W        W46705  20.857   5.346   0.602 -0.1946 -0.2699 -0.0221
37906W        W46706  18.238   3.500   7.336 -0.0149  0.1287  0.1825
37907W        W46707  20.895   1.285  31.417 -0.2216 -0.2471 -0.0503
37908W        W46708   4.490   4.783   0.232 -0.1744 -0.0295 -0.0803
37909W        W46709  15.143   4.860  13.738  0.0654 -0.5269 -0.1489
37910W        W46710  14.209   5.090  39.080  0.2177  0.0672 -0.2656
37911W        W46711  18.611   3.826  14.650  0.2283  0.3074 -0.3491
37912W        W46712   5.816   2.464  17.193 -0.1049  0.3713  0.0874
37913W        W46713   3.553   4.077  13.753 -0.1307 -0.1217  0.1620
37914W        W46714   7.540   0.490   7.250  0.1670  0.1243  0.1776
37915W        W46715   6.648   0.343   9.068  0.1057 -0.0488 -0.0685
37916W        W46716   0.674   2.856  42.752  0.1500 -0.0401  0.0171
37917W        W46717   6.588   1.976   6.426  0.2235  0.0944 -0.0442
37918W        W46718  15.682   4.621  36.844  0.0952 -0.1240 -0.0548
37919W        W46719  11.341   3.441  13.875  0.1137 -0.0159 -0.1472
37920W        W46720  14.341   4.210   1.498  0.2033  0.1808 -0.0173
37921W        W46721  15.547   0.107  37.607  0.0605  0.0960 -0.1491
37922W        W46722  19.846   3.695  41.483  0.0243  0.2130  0.0806
37923W        W46723   0.221   5.837  25.397  0.2549 -0.2066  0.1604
37924W        W46724   7.782   2.450  37.096  0.1418 -0.1918 -0.0691
37925W        W46725  17.995   2.486   3.092  0.0082 -0.2028 -0.2244
37926W        W46726  11.607   4.489   9.991 -0.1358 -0.0223 -0.1102
37927W        W46727   3.618   6.102   5.365  0.0605  0.1815 -0.2068
37928W        W46728  18.071   0.669  22.564  0.2582 -0.1525 -0.0397
37929W        W46729  14.962   3.245  40.168  0.1392  0.0063  0.1069
37930W        W46730   5.701   6.371  32.349 -0.0558  0.1232 -0.0461
37931W        W46731  10.493   5.138   7.452  0.1835 -0.2269  0.1231
37932W        W46732   1.986   2.679  23.906  0.1050 -0.1939 -0.3174
37933W        W46733  20.378   0.517  44.152 -0.0253  0.2777  0.1268
37934W        W46734   1.601   2.855  26.065 -0.5661  0.1608  0.4209
37935W        W46735   3.322   6.289  27.609  0.3086  0.0149  0.0639
37936W        W46736   9.069   5.606  30.218 -0.1658  0.0186 -0.1235
37937W        W46737   4.352   0.068  42.317 -0.0298 -0.0342  0.1392
37938W        W46738  18.331   0.726  42.774  0.0039 -0.0440  0.1237
37939W        W46739  11.320   2.132  29.223 -0.0669 -0.1285 -0.1040
37940W        W46740  20.112   2.840  20.458  0.4324 -0.1466  0.4370
37941W        W46741   1.047   4.125  11.719 -0.1797  0.0854 -0.1601
37942W        W46742   0.949   2.896   6.865 -0.1583 -0.1024  0.0172
37943W        W46743  17.461   6.207  42.735  0.0023  0.0903 -0.0468
37944W        W46744  13.104   0.649  31.280 -0.1505  0.0218 -0.0946
37945W        W46745  13.390   2.727  42.228  0.1562 -0.2529  0.1835
37946W        W46746  12.898   2.210  33.575 -0.2791 -0.1414  0.4442
37947W        W46747   2.973   6.140  43.909  0.1063 -0.0999 -0.2962
37948W        W46748   0.395   1.035   7.972  0.2073 -0.0801  0.2365
37949W        W46749  15.172   5.434  13.241  0.2322 -0.0206  0.1013
37950W        W46750  15.561   3.187  27.529  0.0293 -0.2146 -0.1060
37951W        W46751  14.831   2.763  40.019  0.3224  0.1681 -0.1184
37952W        W46752  17.241   5.595   3.811 -0.4590  0.1565 -0.0422
37953W        W46753   5.362   4.267  16.704  0.1768 -0.0334 -0.0701
37954W        W46754  17.023   4.836  36.721  0.1912  0.0783  0.0362
37955W        W46755  18.272   2.174  12.775  0.0745 -0.0548  0.1057
37956W        W46756   3.953   3.103  34.832  0.1010 -0.0771  0.3637
37957W        W46757  20.393   2.697  10.163  0.0154 -0.1275 -0.0814
37958W        W46758  11.005   2.592  12.328  0.0387  0.0420 -0.3804
37959W        W46759  10.705   1.851  22.845 -0.0452 -0.0842 -0.2408
37960W        W46760   7.146   6.160  20.014 -0.1122  0.0090 -0.0528
37961W        W46761  12.319   0.197  14.974  0.0594  0.2389  0.0958
37962W        W46762  10.375   3.554  20.080  0.1647  0.0259 -0.1733
37963W        W46763   7.037   0.690  22.368 -0.4184 -0.1464  0.1801
37964W        W46764  16.267   3.904  37.985  0.0356 -0.3165  0.1746
37965W        W46765   2.063   0.510  31.798 -0.0166 -0.2253  0.1003
37966W        W46766  20.537   1.208  39.106  0.0178  0.2650 -0.0763
37967W        W46767   6.551   2.332  18.136  0.1347  0.0553  0.1657
37968W        W46768  16.526   6.594   8.964 -0.2045  0.0721  0.1106
37969W        W46769  18.623   2.676  10.521  0.2288  0.1561 -0.0086
37970W        W46770  16.619   5.898  35.610 -0.1979  0.1717 -0.2864
37971W        W46771   0.233   0.468  10.710 -0.0840  0.0163  0.1881
37972W        W46772   0.430   5.618  35.337  0.1257  0.2340 -0.0088
37973W        W46773  19.769   6.455  25.592 -0.0925 -0.1606  0.0882
37974W        W46774  18.104   5.097  25.890  0.0254 -0.1357 -0.1403
37975W        W46775  18.646   6.551  12.184 -0.1041 -0.0292  0.1087
37976W        W46776   0.505   3.423   2.421 -0.0277 -0.1154 -0.0730
37977W        W46777  14.683   6.572  10.800  0.0515  0.0916 -0.0708
37978W        W46778  12.902   6.185   7.087 -0.0665  0.2179 -0.1129
37979W        W46779   7.689   3.002  20.240  0.3906  0.1315  0.0697
37980W        W46780  15.436   3.515  40.061  0.0003  0.1858 -0.0057
37981W        W46781   5.558   3.392  38.967 -0.0488  0.0371 -0.0487
37982W        W46782  17.033   1.832   9.482  0.1532  0.0072 -0.0609
37983W        W46783  15.156   4.201  35.876  0.2302 -0.1244  0.1923
37984W        W46784   9.752   4.312   3.650 -0.1086  0.1909  0.2370
37985W        W46785  15.673   4.008  33.566  0.0194 -0.0129  0.0910
37986W        W46786  12.749   4.564   6.839 -0.0214 -0.1414  0.0374
37987W        W46787  15.153   5.933  40.139  0.3321  0.0594 -0.0617
37988W        W46788  20.453   4.490  15.293 -0.3756 -0.1248 -0.1248
37989W        W46789  15.361   1.645  40.232 -0.0560  0.0504  0.2626
37990W        W46790  20.494   2.271  25.952 -0.3267  0.2624  0.1642
37991W        W46791  20.714   3.883  31.088  0.2143 -0.0842  0.1074
37992W        W46792   2.516   0.184  16.561  0.2803 -0.2279 -0.0641
37993W        W46793  21.005   5.253   2.855  0.0714 -0.0877  0.2174
37994W        W46794   2.170   5.513  13.141 -0.0270 -0.0527  0.3652
37995W        W46795  14.964   1.398  35.207  0.0635 -0.1432 -0.1843
37996W        W46796  12.581   6.332   7.419 -0.0695 -0.0586 -0.0881
37997W        W46797   6.572   3.765  10.149  0.2865  0.0090  0.0451
37998W        W46798  19.348   4.801   8.484  0.0759 -0.0770 -0.0759
37999W        W46799   0.094   5.091  30.604 -0.0367  0.2254 -0.1317
38000W        W46800  17.541   5.628  30.028  0.1344 -0.2718 -0.0074
38001W        W46801  12.492   3.025  19.787  0.1291 -0.1537  0.1510
38002W        W46802  15.681   0.426   6.869  0.1109  0.1947  0.0738
38003W        W46803  16.497   3.082  13.461 -0.0879 -0.0916 -0.2442
38004W        W46804  19.750   1.042  28.400  0.2604 -0.3664 -0.0217
38005W        W46805  13.602   2.524  11.860  0.0459 -0.0295 -0.1379
38006W        W46806  13.460   0.387  39.275  0.1070  0.1823 -0.1380
38007W        W46807  17.748   1.515  38.649  0.0598  0.0057 -0.1769
38008W        W46808   3.396   3.640  37.427 -0.0110 -0.0451 -0.0592
38009W        W46809  13.349   5.463   6.984 -0.0347  0.2111 -0.1924
38010W        W46810  10.967   1.581  22.502 -0.0779 -0.1598  0.0286
38011W        W46811   9.664   0.448   4.611  0.0388 -0.0524 -0.1671
38012W        W46812  15.367   1.997  36.686  0.0614 -0.3214  0.1558
38013W        W46813  17.961   6.175  28.248  0.2583 -0.0474 -0.2073
38014W        W46814  12.311   0.701   6.178 -0.2179  0.1220  0.0130
38015W        W46815   6.789   5.089  32.726 -0.0909 -0.0793 -0.3314
38016W        W46816  19.726   0.170  24.110 -0.2394 -0.0670 -0.3101
38017W        W46817  15.069   0.517  42.527 -0.1717 -0.0299 -0.0580
38018W        W46818   3.003   5.784  10.981 -0.2077  0.3267  0.0122
38019W        W46819  10.295   0.716   8.003 -0.0074  0.1096  0.1186
38020W        W46820  12.792   2.519  12.116  0.1046  0.1320 -0.1631
38021W        W46821   2.235   2.371  32.032 -0.0169  0.2296 -0.0243
38022W        W46822   5.645   4.770  10.699 -0.3324 -0.3327 -0.0133
38023W        W46823   8.746   4.956  16.096  0.0170  0.2347 -0.2962
38024W        W46824   4.072   0.440  12.097  0.2627 -0.3370  0.0442
38025W        W46825  13.426   1.730  15.600  0.1197 -0.0842  0.0585
38026W        W46826  19.093   2.140  20.728  0.0719 -0.1804  0.0194
38027W        W46827   1.336   1.737  28.963 -0.1301  0.1673 -0.0817
38028W        W46828  17.674   1.505   8.643  0.0957 -0.0186 -0.0692
38029W        W46829   9.256   6.017  31.209  0.3581  0.3901 -0.0758
38030W        W46830   8.179   6.459   5.101 -0.1174 -0.1491  0.1648
38031W        W46831  17.325   3.746  25.103  0.0048  0.1486  0.0988
38032W        W46832   9.410   0.880  42.923  0.0846 -0.1705 -0.1392
38033W        W46833   1.498   2.276  26.083 -0.1206  0.1960  0.0673
38034W        W46834  11.216   3.951   4.082  0.3051  0.2355  0.1510
38035W        W46835   8.958   1.935   4.225  0.1263 -0.0352  0.0877
38036W        W46836  15.736   4.139  39.142 -0.2002 -0.2366 -0.0254
38037W        W46837  17.633   2.420   9.839 -0.2333 -0.0617 -0.4088
38038W        W46838  10.444   0.467   5.233  0.1435  0.0902 -0.2460
38039W        W46839   3.535   5.173  33.793  0.0040 -0.3883  0.0200
38040W        W46840   6.670   1.377  13.366 -0.0766  0.2727 -0.1275
38041W        W46841  18.235   3.213  42.992 -0.0414  0.0748 -0.0973
38042W        W46842   6.566   3.736  29.863 -0.0125  0.1362  0.0968
38043W        W46843  17.758   2.275  27.136  0.0310 -0.4782 -0.1071
38044W        W46844   8.821   1.552  29.928 -0.0264  0.2690 -0.2747
38045W        W46845   8.449   1.809   6.156 -0.1603 -0.2584 -0.3227
38046W        W46846   8.209   6.210  13.910 -0.0178  0.4369  0.0262
38047W        W46847   9.675   6.424  40.993 -0.0363 -0.0608 -0.0200
38048W        W46848  13.969   0.894  28.696  0.2974 -0.0497 -0.2206
38049W        W46849  12.242   6.425  19.690  0.0034 -0.2015 -0.0350
38050W        W46850  15.338   2.643  26.661  0.1045 -0.1738 -0.0490
38051W        W46851  15.610   3.656  17.697  0.0407 -0.2791  0.0243
38052W        W46852  11.470   2.638  21.875  0.2939 -0.3489  0.2153
38053W        W46853  19.467   3.401   2.223  0.1063 -0.0618 -0.0485
38054W        W46854  19.518   2.345  34.465 -0.0665 -0.0036 -0.0935
38055W        W46855  13.226   0.530  19.050 -0.0601 -0.1575  0.1933
38056W        W46856   2.584   5.189  26.078 -0.2548 -0.1432 -0.0639
38057W        W46857   4.810   1.444  17.939 -0.1538  0.2157 -0.0664
38058W        W46858  13.851   6.109  42.792  0.2801  0.1921 -0.3127
38059W        W46859  10.573   3.424  31.676 -0.0015  0.0310  0.0900
38060W        W46860  17.313   2.367  16.724  0.0295 -0.3683 -0.0282
38061W        W46861  15.138   1.237   5.891 -0.2622  0.1209 -0.0907
38062W        W46862  15.283   3.255  41.236  0.1254  0.0449  0.0151
38063W        W46863  13.883   3.236  12.313  0.1932 -0.2535 -0.0923
38064W        W46864   4.652   2.439   6.184 -0.0429  0.1682  0.0734
38065W        W46865   6.309   5.476  40.584  0.0931 -0.0365 -0.0655
38066W        W46866  11.229   5.591  23.816  0.1081  0.1918  0.1687
38067W        W46867  19.471   5.167  21.105 -0.0500  0.0377 -0.2354
38068W        W46868   2.339   2.802  38.815 -0.1313  0.0561 -0.1390
38069W        W46869  11.338   6.460   1.044 -0.4072  0.3959  0.2390
38070W        W46870  14.883   2.815  38.366  0.0615 -0.1007 -0.3090
38071W        W46871  20.239   2.665  15.085 -0.1721 -0.0606  0.0091
38072W        W46872  10.443   6.050   3.727  0.1186 -0.0261  0.1519
38073W        W46873   5.457   1.045  38.812  0.1246 -0.0102 -0.0466
38074W        W46874  18.083   1.941   1.977 -0.0684 -0.1763 -0.0000
38075W        W46875  19.667   2.510   2.050  0.0121 -0.1423  0.0076
38076W        W46876   4.639   0.245  40.600 -0.0657  0.1889 -0.1867
38077W        W46877   4.812   1.928  17.735  0.0148  0.1198  0.0198
38078W        W46878  19.761   2.649  13.910  0.0396 -0.1763  0.0739
38079W        W46879   3.182   6.201   9.616 -0.2358  0.0524  0.3130
38080W        W46880  12.624   5.883  41.003  0.1193 -0.2355 -0.2831
38081W        W46881   2.616   6.359   3.985  0.3184 -0.2511 -0.0123
38082W        W46882   5.030   2.865  44.491 -0.3555  0.2547 -0.1261
38083W        W46883  14.034   1.706  34.010 -0.2118  0.2033 -0.1334
38084W        W46884   6.881   1.663  13.713 -0.2657 -0.0518  0.1526
38085W        W46885   9.879   2.985  33.138 -0.0078 -0.2243  0.1846
38086W        W46886  18.344   5.342  14.758  0.1730  0.3695  0.1631
38087W        W46887  16.611   6.424  25.361  0.0609 -0.0528  0.0564
38088W        W46888  16.826   0.808   1.333 -0.1917 -0.0240 -0.1618
38089W        W46889   6.098   3.628  30.019  0.0287 -0.0009  0.2853
38090W        W46890  18.489   0.065   6.703 -0.1827  0.0947 -0.1179
38091W        W46891   2.367   3.622  36.429  0.1732  0.1877 -0.1072
38092W        W46892   1.606   0.250   8.446  0.1257  0.0552  0.2202
38093W        W46893   6.592   1.443  36.619  0.0203  0.2838 -0.0084
38094W        W46894  20.955   6.487  32.574 -0.3975  0.1923  0.2032
38095W        W46895  19.552   0.043  14.187  0.1573 -0.0842  0.0683
38096W        W46896  14.923   4.991   8.422  0.0663 -0.0589  0.1060
38097W        W46897  14.652   1.051  13.288  0.0063  0.1992 -0.0256
38098W        W46898  15.060   5.101  12.857  0.0240 -0.0953 -0.2985
38099W        W46899   5.727   3.886  16.556  0.0336  0.2369  0.1547
38100W        W46900   4.516   3.032  36.293 -0.0199 -0.0977  0.1549
38101W        W46901  19.679   1.847  27.068  0.1621  0.1764  0.2276
38102W        W46902  15.083   1.996  11.821 -0.3081  0.0137 -0.0095
38103W        W46903  11.341   0.953  28.927 -0.2641 -0.0841  0.0882
38104W        W46904  12.395   5.208  29.906 -0.1217  0.0872 -0.0751
38105W        W46905  20.119   3.918  10.890  0.1380  0.2078  0.1937
38106W        W46906  17.928   4.287  45.016  0.1593  0.1787  0.1452
38107W        W46907   6.215   1.766  41.155  0.1146  0.1786 -0.1343
38108W        W46908   8.062   2.851   6.883  0.1776 -0.1462 -0.2461
38109W        W46909   5.496   5.439  20.155  0.2625  0.3202 -0.1253
38110W        W46910  13.384   6.417  35.637  0.0319 -0.0810 -0.0617
38111W        W46911   2.118   3.022  37.973 -0.0505 -0.0302  0.4215
38112W        W46912   2.419   4.840  27.025 -0.1896  0.1712  0.2058
38113W        W46913  18.354   4.060  30.102 -0.0725 -0.3208  0.1792
38114W        W46914  14.013   4.533   6.904  0.1275  0.1481  0.0496
38115W        W46915   2.350   6.582  28.882  0.0297 -0.0026 -0.0505
38116W        W46916  19.110   1.036  33.875  0.1084  0.2081  0.1068
38117W        W46917  18.336   5.596  37.064  0.1456 -0.1786  0.0808
38118W        W46918  12.764   5.067   5.881 -0.4356 -0.0607 -0.2212
38119W        W46919  15.156   5.034   3.002 -0.0609  0.1175  0.0588
38120W        W46920   6.466   4.850  40.735 -0.0672  0.4242  0.1141
38121W        W46921   4.379   3.212   2.092  0.2618  0.0131 -0.2328
38122W        W46922   6.378   1.002  40.684 -0.1485 -0.1267 -0.1695
38123W        W46923  13.210   2.497   7.119  0.0044 -0.1397  0.0891
38124W        W46924   6.024   0.151  19.637 -0.0883  0.1363  0.2159
38125W        W46925  19.262   6.034  32.238  0.1061  0.1849 -0.0355
38126W        W46926  16.703   3.219  36.518 -0.0511 -0.3166  0.1969
38127W        W46927  12.416   6.472  39.496  0.1404 -0.2657 -0.2381
38128W        W46928  10.197   5.008  16.374  0.0128 -0.0530 -0.2200
38129W        W46929   9.631   4.163  11.574 -0.4131  0.1668  0.2430
38130W        W46930   7.345   1.205  31.626 -0.1928 -0.1014 -0.1254
38131W        W46931   9.479   1.050  35.036  0.1249  0.2512 -0.3294
38132W        W46932  18.881   1.264  35.425  0.0450  0.0815  0.0106
38133W        W46933  17.175   0.464  32.670 -0.1581  0.0269 -0.1165
38134W        W46934   8.786   5.607  37.089  0.1895  0.0511  0.1805
38135W        W46935  11.404   5.033   2.644 -0.1084  0.0732 -0.2608
38136W        W46936   8.809   3.720   6.853 -0.3213  0.0870  0.2015
38137W        W46937   3.714   3.040  43.881  0.0401  0.2862 -0.2100
38138W        W46938  13.112   4.239   6.598 -0.1651  0.0737  0.0217
38139W        W46939  16.410   6.296  34.525  0.0955  0.0488 -0.0912
38140W        W46940   8.890   2.009  15.908 -0.0694 -0.2791 -0.0931
38141W        W46941  16.647   3.795   1.880 -0.1818 -0.2315 -0.3647
38142W        W46942   7.047   3.284   8.845 -0.2098  0.0779  0.0460
38143W        W46943  15.927   3.250   7.437 -0.0159  0.0287 -0.1438
38144W        W46944   2.370   2.895  11.203  0.0858  0.4282 -0.0039
38145W        W46945  17.937   4.345  22.708  0.0297 -0.1617 -0.0321
38146W        W46946  20.183   5.892   5.799 -0.1197 -0.0096  0.2912
38147W        W46947  19.102   6.107  33.139 -0.1197  0.0723 -0.3476
38148W        W46948   8.703   5.386  13.169 -0.2808 -0.0669  0.0144
38149W        W46949   4.410   5.261  11.435 -0.2167 -0.5674 -0.0355
38150W        W46950   1.616   1.553  38.991 -0.2287 -0.1039 -0.0665
38151W        W46951  11.289   5.660  14.344 -0.1747 -0.1059  0.2131
38152W        W46952  19.447   3.722   0.214 -0.1107  0.0419 -0.1315
38153W        W46953  17.927   1.175  33.800 -0.0283  0.2731 -0.1500
38154W        W46954   4.527   6.460   7.449  0.1552  0.3212  0.4821
38155W        W46955   2.153   3.259  44.945 -0.4237  0.2104  0.1458
38156W        W46956   6.471   2.674  16.282  0.0179  0.0276 -0.0671
38157W        W46957   9.072   4.028  45.009 -0.0121  0.3850  0.0858
38158W        W46958   9.686   4.941  10.588 -0.0586  0.3019 -0.1099
38159W        W46959  13.063   0.221   0.332 -0.0841 -0.4729 -0.0086
38160W        W46960   9.886   3.863  18.224  0.2148  0.2194  0.1743
38161W        W46961  12.171   4.780   0.068 -0.3161 -0.0502  0.4709
38162W        W46962   1.324   0.528  27.901 -0.2660 -0.2514  0.0212
38163W        W46963  15.695   0.636   1.157  0.2831 -0.0665  0.0191
38164W        W46964   0.253   1.670  29.048 -0.0718 -0.0567  0.0424
38165W        W46965  18.084   5.918   2.103 -0.1427  0.2480 -0.1912
38166W        W46966   3.101   0.036  44.056  0.1505 -0.2688 -0.0001
38167W        W46967   6.918   4.490  36.845  0.1557  0.0902 -0.0233
38168W        W46968   2.204   3.881  15.166 -0.0134 -0.1100  0.0831
38169W        W46969   2.896   2.137  32.140  0.0418 -0.0112  0.1863
38170W        W46970  14.423   3.580  39.565 -0.3579 -0.0297  0.4505
38171W        W46971   1.910   2.047  36.086  0.0175 -0.0325  0.1033
38172W        W46972  15.287   3.087  43.586  0.0509  0.1210 -0.1432
38173W        W46973  13.175   1.043   5.683  0.0811 -0.1064 -0.1794
38174W        W46974   7.511   4.451  31.695  0.2283 -0.0929  0.0289
38175W        W46975   2.577   1.750  29.290 -0.3122 -0.1695 -0.1011
38176W        W46976  20.670   0.260   4.739 -0.0483  0.0272 -0.2817
38177W        W46977   7.526   2.789  21.444 -0.2177  0.2129 -0.0789
38178W        W46978  20.229   5.209   9.791 -0.1126  0.0225  0.3450
38179W        W46979   5.836   2.712   6.322  0.1591  0.0813 -0.2132
38180W        W46980   3.232   5.143  17.734 -0.0245  0.1926  0.2220
38181W        W46981   9.439   2.684   7.900 -0.1123  0.0402  0.1827
38182W        W46982   8.258   0.676  34.443  0.3389  0.0672 -0.3194
38183W        W46983  19.220   0.935  35.088 -0.0241 -0.4006 -0.0947
38184W        W46984  10.142   6.103  44.871  0.1685 -0.0762 -0.0060
38185W        W46985   3.869   0.747  30.435  0.0627 -0.0225 -0.0275
38186W        W46986  16.010   5.285  44.371  0.1801 -0.1270 -0.1668
38187W        W46987  12.477   1.011  32.158  0.0854 -0.1002 -0.1791
38188W        W46988  10.963   3.943  16.613 -0.1105 -0.1771 -0.0089
38189W        W46989   4.744   2.308  42.695  0.0641 -0.1154 -0.0609
38190W        W46990  19.599   1.621  32.869  0.0039  0.0920  0.1916
38191W        W46991  17.617   6.201  35.870  0.0067 -0.1180  0.2137
38192W        W46992   5.880   3.162  20.168  0.1126  0.1524 -0.3962
38193W        W46993   7.657   0.833  21.143  0.4311  0.0010  0.2273
38194W        W46994   4.173   3.915   9.873  0.1998 -0.2004 -0.0112
38195W        W46995   8.143   1.189   9.912  0.0720  0.1455  0.1786
38196W        W46996  10.637   0.780  22.514  0.2167  0.1163 -0.0582
38197W        W46997  19.204   3.903  34.862  0.1793 -0.0666 -0.1132
38198W        W46998   2.969   1.632   4.958  0.0352 -0.0944 -0.1210
38199W        W46999  16.245   6.127   8.499  0.2292 -0.2778  0.2445
38200W        W47000  16.248   5.493   3.672  0.1062 -0.1078 -0.0652
38201W        W47001   7.257   2.787   8.262  0.0078 -0.1941  0.1088
38202W        W47002  10.173   0.848  12.384  0.2015 -0.2468  0.1551
38203W        W47003   0.669   0.600  41.121  0.0437 -0.4125 -0.2538
38204W        W47004  19.679   2.017  36.111 -0.0807 -0.1716  0.0029
38205W        W47005   9.222   3.211   8.905  0.2098  0.0260  0.1943
38206W        W47006  19.521   3.852  29.493  0.3567  0.2846  0.0758
38207W        W47007  15.615   6.185  26.398 -0.0069  0.1430  0.0945
38208W        W47008   7.987   3.623   9.590  0.3229 -0.3138 -0.1626
38209W        W47009  13.311   4.664  38.304  0.1236  0.0624 -0.3046
38210W        W47010  12.573   3.986   8.973 -0.1394  0.1173 -0.0195
38211W        W47011  20.908   3.960  36.623  0.2141  0.1120  0.0848
38212W        W47012  10.246   2.508  16.475  0.0679 -0.2741 -0.2492
38213W        W47013   2.896   1.468  40.544 -0.3208  0.0023 -0.1365
38214W        W47014   3.123   0.338   1.325 -0.2963  0.0465 -0.0970
38215W        W47015   0.142   0.976   5.778 -0.2823 -0.0658 -0.1076
38216W        W47016  17.936   4.535  14.206  0.0389 -0.0115  0.0556
38217W        W47017  15.734   4.699  29.518 -0.0405  0.0763 -0.0026
38218W        W47018  12.932   1.583   2.097 -0.1017 -0.2048 -0.0935
38219W        W47019   8.625   5.568   3.984 -0.0821  0.3040  0.2597
38220W        W47020  14.558   1.355  29.270 -0.0374  0.0368 -0.1143
38221W        W47021   2.389   5.890  40.347  0.2180  0.1599  0.1656
38222W        W47022  16.226   2.912  10.804  0.0097  0.1045 -0.0897
38223W        W47023  16.621   4.730  24.667 -0.0738  0.0570 -0.2099
38224W        W47024   5.048   0.037  16.285  0.1360  0.0374 -0.2494
38225W        W47025   1.297   2.690  10.767  0.1702  0.0764 -0.2136
38226W        W47026   8.666   1.036  23.347  0.2202 -0.1346  0.1914
38227W        W47027   9.074   4.993   0.019  0.0481  0.0044 -0.0294
38228W        W47028  13.959   0.798  12.133 -0.0848 -0.0648 -0.0426
38229W        W47029  18.706   5.929  11.189  0.1255 -0.1172 -0.1846
38230W        W47030  12.462   2.179  16.384  0.0936 -0.0379 -0.0927
38231W        W47031  11.867   1.430  11.040  0.5441 -0.1267  0.4159
38232W        W47032  14.110   5.340  28.953 -0.0149 -0.1768  0.0323
38233W        W47033  16.065   1.518  29.294 -0.0364  0.1498 -0.0843
38234W        W47034  10.365   0.467  13.794  0.3623  0.2049 -0.0715
38235W        W47035   9.597   6.338  17.280 -0.2121 -0.0549  0.1221
38236W        W47036   4.345   2.728  42.671  0.0385  0.1564  0.2658
38237W        W47037  11.345   2.092   2.093  0.1092  0.3667 -0.0488
38238W        W47038  15.405   1.754   2.211 -0.1256 -0.1306  0.1011
38239W        W47039  13.695   3.431  44.580  0.3264 -0.0156  0.3196
38240W        W47040  13.083   6.170   2.715  0.1381  0.0064  0.1844
38241W        W47041   3.240   1.399  37.808 -0.2713 -0.1663  0.2121
38242W        W47042   0.212   6.492   1.690  0.1278  0.1585 -0.0486
38243W        W47043   5.571   5.680  12.821 -0.0466 -0.0637  0.1436
38244W        W47044   2.775   2.651  32.013 -0.1175 -0.0847 -0.1372
38245W        W47045   0.158   2.010  43.427 -0.1314 -0.1016 -0.0958
38246W        W47046  20.583   1.849   9.259  0.2129  0.3410  0.1835
38247W        W47047  13.093   0.273  13.105  0.1451 -0.0439  0.1703
38248W        W47048  15.987   1.774  42.242 -0.1602 -0.0346 -0.2683
38249W        W47049  17.357   3.710  28.849 -0.0526 -0.3476 -0.0796
38250W        W47050  15.204   0.583   2.644 -0.2052  0.2426  0.3140
38251W        W47051  12.703   6.399  10.429  0.1711 -0.0126  0.2158
38252W        W47052   6.011   2.167   3.370 -0.0042  0.0437  0.0767
38253W        W47053   7.635   0.084   1.856 -0.0433 -0.2158  0.1190
38254W        W47054   0.949   4.157   0.529  0.0333  0.1564  0.0333
38255W        W47055  17.522   3.974  30.856  0.0990  0.0704  0.1616
38256W        W47056  20.288   5.368  23.990 -0.1473  0.1945  0.1196
38257W        W47057   5.744   1.652  12.907 -0.1949 -0.3172 -0.3092
38258W        W47058   4.106   0.015  14.085 -0.2244  0.0654  0.0028
38259W        W47059   1.890   3.430  35.707 -0.0154  0.2539  0.0265
38260W        W47060  20.436   4.963  23.080 -0.0725  0.0311  0.0646
38261W        W47061   0.228   0.636  25.280 -0.2044 -0.1556  0.5337
38262W        W47062   1.953   1.017  14.620  0.1878  0.0560 -0.0653
38263W        W47063   0.511   5.040  36.662  0.1142 -0.3538  0.0544
38264W        W47064   7.438   5.009   3.219 -0.1122  0.1182 -0.2509
38265W        W47065  12.483   1.775  21.235 -0.3830  0.1591 -0.2776
38266W        W47066  16.542   4.554  34.867  0.1006  0.1592  0.1491
38267W        W47067  14.653   0.277  30.934  0.0046 -0.0030  0.0491
38268W        W47068   5.430   1.252  29.164 -0.0315 -0.2693 -0.0644
38269W        W47069  10.838   0.935  24.577  0.0178 -0.2690  0.0495
38270W        W47070  10.702   4.861  42.481  0.2407  0.0635  0.0766
38271W        W47071   1.895   6.554   6.120 -0.1480 -0.0462  0.1194
38272W        W47072  15.646   2.852  13.969 -0.1065 -0.2435 -0.0773
38273W        W47073   9.403   0.809  11.656  0.2208 -0.2212  0.1228
38274W        W47074  17.906   4.953  32.937 -0.0780 -0.0751 -0.2515
38275W        W47075  18.060   5.000   6.167 -0.0447  0.0676  0.0326
38276W        W47076  20.574   4.537   5.836 -0.0506  0.1191 -0.1050
38277W        W47077  11.081   2.577  31.817  0.2120 -0.1663 -0.0756
38278W        W47078  15.240   0.518  37.560 -0.1255  0.1550  0.1421
38279W        W47079  15.615   3.550  29.199 -0.1396 -0.2047 -0.0224
38280W        W47080  17.630   3.331   1.498  0.1385 -0.1170 -0.0762
38281W        W47081   7.727   1.698  14.051 -0.0907  0.0753 -0.0358
38282W        W47082   1.725   5.548  30.160 -0.0246 -0.0535 -0.0170
38283W        W47083  11.638   4.937  10.287  0.3879  0.1026 -0.1709
38284W        W47084   4.015   4.755  12.469  0.1204 -0.3106  0.2618
38285W        W47085  11.723   5.254  17.396 -0.3249 -0.0654 -0.2294
38286W        W47086  13.926   5.424   5.872  0.3670 -0.3346  0.2100
38287W        W47087   5.184   1.961  43.333  0.0546 -0.0426 -0.1077
38288W        W47088   6.539   0.477  38.041  0.1284 -0.0008  0.0141
38289W        W47089  19.956   6.406  28.293  0.2217  0.1970  0.0836
38290W        W47090  19.996   1.469  41.259  0.0824 -0.0909  0.0927
38291W        W47091   1.881   4.193  17.190  0.2335 -0.0271 -0.1488
38292W        W47092   6.273   1.003  38.712  0.2291  0.1109  0.0604
38293W        W47093  15.788   1.194  35.520  0.0917  0.1948  0.0054
38294W        W47094  20.043   0.652  40.843 -0.2880 -0.0972 -0.0847
38295W        W47095  16.404   4.255   7.712 -0.1221 -0.0589  0.0820
38296W        W47096   8.217   0.495  31.547  0.0573  0.0706 -0.0471
38297W        W47097   8.677   1.653  15.615  0.1794 -0.0658  0.1599
38298W        W47098   8.726   3.014  34.887  0.0508 -0.0834  0.3120
38299W        W47099   9.223   0.300  31.389 -0.2859  0.1144 -0.2076
38300W        W47100  21.094   1.168  37.093  0.2748  0.0579  0.0914
38301W        W47101  19.985   0.792   0.521 -0.2655 -0.1842  0.1971
38302W        W47102   3.282   4.210  35.899 -0.2240 -0.0676 -0.0444
38303W        W47103  14.270   5.713  39.803  0.0711  0.1329  0.0633
38304W        W47104  11.686   3.530  11.445 -0.2313 -0.2817 -0.1795
38305W        W47105   9.699   1.085   2.016 -0.2264 -0.2345 -0.1381
38306W        W47106   0.717   5.107   5.362  0.1833  0.0270 -0.2716
38307W        W47107  17.711   5.346  26.072  0.1797  0.0803 -0.0980
38308W        W47108   3.001   2.498  31.332 -0.1765 -0.1557 -0.2161
38309W        W47109   9.215   3.180  34.815 -0.0909  0.2890  0.1603
38310W        W47110  13.671   4.000  44.763  0.1798 -0.0701 -0.1749
38311W        W47111  17.380   0.921   3.500  0.3385  0.0667 -0.0547
38312W        W47112   4.716   4.125  42.772  0.0396 -0.2362 -0.1556
38313W        W47113   0.288   3.820  12.532 -0.2031 -0.1003  0.2404
38314W        W47114  13.014   6.244  39.626  0.4170  0.1529 -0.2759
38315W        W47115   2.485   4.030  39.520 -0.1317 -0.2785  0.0272
38316W        W47116  18.832   5.401  14.323 -0.2243  0.0237  0.0120
38317W        W47117  19.870   2.429  11.355 -0.5101 -0.1488 -0.3024
38318W        W47118   5.109   1.057   8.248 -0.1535  0.1114 -0.3087
38319W        W47119   6.831   6.556  18.132  0.0200 -0.0306  0.1258
38320W        W47120   7.687   4.601   5.721 -0.1298  0.0684 -0.1517
38321W        W47121   4.759   6.120  10.503 -0.2923 -0.0518  0.1223
38322W        W47122  14.035   2.217  32.637  0.0831 -0.0384  0.1155
38323W        W47123  14.706   0.753  16.584  0.1657 -0.0404 -0.2500
38324W        W47124   1.664   1.313  27.831 -0.1038  0.2355  0.0924
38325W        W47125  18.938   0.388  22.904 -0.1839 -0.1794  0.4413
38326W        W47126  10.369   1.426  10.207  0.2414 -0.2218  0.0770
38327W        W47127   4.360   2.432  33.533 -0.0322 -0.0365  0.1148
38328W        W47128   9.697   5.787   9.659 -0.2631  0.0972 -0.0905
38329W        W47129  18.734   3.879  24.628 -0.1739 -0.1126  0.0117
38330W        W47130  12.960   0.556  36.114  0.0218 -0.2216  0.1515
38331W        W47131  11.372   4.041  16.215 -0.2331  0.1342  0.2407
38332W        W47132   2.033   1.201   6.330 -0.2646  0.0105 -0.0961
38333W        W47133  14.270   5.478  36.655 -0.1656 -0.3849  0.1795
38334W        W47134  20.382   3.519  10.018 -0.1735 -0.0164  0.0851
38335W        W47135  15.857   5.671  42.117  0.1170  0.3685 -0.0823
38336W        W47136   2.536   1.178   0.943 -0.3991 -0.2095 -0.0344
38337W        W47137   7.519   0.945  12.110 -0.0154 -0.2142 -0.0026
38338W        W47138  10.937   5.116   0.796  0.0058 -0.0320 -0.2896
38339W        W47139  13.308   0.271  37.918  0.0495  0.2021  0.1130
38340W        W47140   6.297   4.987   7.552  0.1102 -0.1804  0.0380
38341W        W47141  18.908   5.990  12.037  0.0689  0.0408 -0.2205
38342W        W47142  15.958   4.199  11.732  0.1562  0.0927 -0.3110
38343W        W47143   2.128   5.757  38.502  0.0943  0.0616  0.0184
38344W        W47144  15.585   2.463  14.891  0.1578  0.0643 -0.0581
38345W        W47145  15.916   4.205  31.974 -0.2240  0.1655 -0.4098
38346W        W47146   4.202   0.345  38.823 -0.2627 -0.0015  0.2391
38347W        W47147  15.926   5.792  27.152 -0.1176 -0.0445  0.1529
38348W        W47148  17.338   6.547   0.647 -0.0077  0.1910 -0.1548
38349W        W47149   0.551   6.026  27.880  0.0538 -0.3088 -0.2402
38350W        W47150   1.144   4.121   4.777  0.1634  0.1554  0.1687
38351W        W47151  16.851   2.402  16.851 -0.0354 -0.3473 -0.0902
38352W        W47152   8.063   1.758  11.126 -0.2310 -0.0755  0.0383
38353W        W47153   9.182   2.124   3.792 -0.4336  0.0719  0.0345
38354W        W47154  20.229   5.700  33.309  0.1990  0.1582 -0.2726
38355W        W47155   3.025   3.336   4.994  0.1412  0.1099  0.3374
38356W        W47156  18.047   2.736  34.076 -0.2203  0.0184  0.1784
38357W        W47157  13.234   1.386  35.206  0.1433 -0.1843  0.0014
38358W        W47158   9.235   3.470  17.675 -0.1115  0.0441 -0.2315
38359W        W47159  10.019   0.594  30.805  0.3744 -0.1288 -0.1332
38360W        W47160   5.490   3.128  10.831 -0.0671  0.2024 -0.0531
38361W        W47161   9.095   1.224   1.960  0.1459  0.3840 -0.1259
38362W        W47162   7.897   5.591  36.462 -0.2559 -0.2188 -0.0436
38363W        W47163  20.552   4.533   4.937  0.4659  0.0755 -0.2424
38364W        W47164   0.327   0.063  14.682 -0.0932  0.1152 -0.1335
38365W        W47165   9.252   2.959  30.286 -0.0400 -0.0499  0.0707
38366W        W47166  11.191   4.034  33.812  0.0294 -0.2293  0.0221
38367W        W47167  14.125   4.767  41.561  0.1026  0.1555 -0.1037
38368W        W47168  20.057   3.091  30.211  0.0299 -0.3175 -0.0268
38369W        W47169  14.704   5.928   2.464  0.1857 -0.2084  0.0846
38370W        W47170   4.620   4.937  27.931  0.0738 -0.0075 -0.2759
38371W        W47171   8.572   1.373  32.014  0.1492  0.1266  0.3216
38372W        W47172   5.933   5.613  14.507 -0.2390  0.0709  0.1354
38373W        W47173   7.903   0.824  42.142 -0.1390  0.1462  0.0545
38374W        W47174  13.104   2.382  40.466 -0.0805 -0.2229 -0.2706
38375W        W47175   9.397   1.118  33.800 -0.1960 -0.4736  0.4361
38376W        W47176   5.336   0.055  16.675  0.0883 -0.0097 -0.2009
38377W        W47177   9.095   4.435   9.463  0.0261  0.0360 -0.5404
38378W        W47178   4.373   4.352  10.226  0.1296 -0.3455 -0.0278
38379W        W47179  14.132   5.194  31.120 -0.0683  0.2164 -0.0744
38380W        W47180   4.977   1.398  41.753  0.1172  0.1531 -0.1697
38381W        W47181  14.026   2.517   9.514  0.2828 -0.0572 -0.0263
38382W        W47182   2.581   0.153  26.048  0.0523  0.0738  0.1171
38383W        W47183  18.996   5.268  38.074 -0.0730  0.1073 -0.0409
38384W        W47184   0.236   0.972  13.597 -0.3462  0.0905  0.1308
38385W        W47185   6.726   6.479  11.122  0.1094  0.1011 -0.1896
38386W        W47186  11.228   5.247  38.709 -0.0208  0.0683  0.1522
38387W        W47187   4.413   2.204  17.462 -0.5504 -0.1017  0.1620
38388W        W47188   3.268   4.773  38.214 -0.1423  0.0002 -0.1878
38389W        W47189   5.629   0.032   1.750  0.0366 -0.0354  0.2630
38390W        W47190   0.145   4.930   9.371  0.3221  0.0726  0.1806
38391W        W47191  15.236   1.383  27.361 -0.3475 -0.1511  0.3071
38392W        W47192   2.300   2.870  16.338  0.1417 -0.1744  0.0474
38393W        W47193  17.005   6.034  14.891 -0.3669  0.1182 -0.2001
38394W        W47194  11.713   0.723  38.932  0.1924 -0.0905 -0.2453
38395W        W47195  18.461   5.137  38.215 -0.2085  0.0009  0.2486
38396W        W47196  15.696   5.453  43.989 -0.0740  0.3052  0.0054
38397W        W47197   3.242   2.354   9.415 -0.1467  0.0337  0.3678
38398W        W47198  16.403   0.688  31.445 -0.1449  0.1990  0.0111
38399W        W47199   6.925   2.252  38.497  0.0368  0.0473  0.0369
38400W        W47200  14.864   3.963  43.861 -0.1736  0.2517  0.0842
38401W        W47201   0.556   3.136  26.927 -0.1417 -0.2564  0.1930
38402W        W47202  15.352   4.091  12.318 -0.1882 -0.1747  0.1257
38403W        W47203  18.374   6.312  36.152  0.2567 -0.1755  0.1269
38404W        W47204  17.790   2.433  37.136 -0.1232  0.0485 -0.2562
38405W        W47205  15.752   0.685  35.545  0.1030 -0.1364  0.2775
38406W        W47206   4.843   1.606   6.984 -0.0258  0.0661 -0.1769
38407W        W47207   1.731   0.276   6.464  0.1095 -0.4057 -0.0011
38408W        W47208   0.610   2.066  28.829 -0.3824 -0.1325  0.2509
38409W        W47209   7.480   0.254  20.990 -0.4082  0.0444 -0.4205
38410W        W47210   4.865   3.724   4.333  0.0731 -0.1491 -0.3640
38411W        W47211  10.268   3.136  31.391  0.2823 -0.0550 -0.1317
38412W        W47212   0.955   5.016  26.946  0.1283 -0.0864 -0.1797
38413W        W47213   7.638   0.532   3.006  0.1376  0.1531  0.0471
38414W        W47214  16.370   5.759   9.317 -0.1391 -0.0074 -0.0872
38415W        W47215  17.289   5.887  38.146 -0.2672  0.1013  0.0289
38416W        W47216   4.133   2.639  41.907  0.2678  0.1774 -0.1153
38417W        W47217   8.255   3.120  36.307  0.1863 -0.3139  0.0943
38418W        W47218  15.943   0.976  28.887 -0.1044 -0.1690  0.1261
38419W        W47219  11.252   2.768  33.786 -0.1023  0.1104  0.1141
38420W        W47220   4.561   2.581   7.975 -0.3271 -0.0470 -0.0630
38421W        W47221   8.702   4.362  32.855 -0.1479  0.0815  0.0837
38422W        W47222  18.855   6.272  36.284  0.2312  0.3629  0.4894
38423W        W47223   1.579   3.623  15.693  0.2772  0.1066  0.0144
38424W        W47224   3.029   0.828   1.179 -0.2935 -0.0234  0.0900
38425W        W47225  10.860   5.061  43.026 -0.3282 -0.0344 -0.1383
38426W        W47226  14.496   1.461  35.254  0.0870  0.0305 -0.2223
38427W        W47227   3.712   4.430  41.395  0.1016  0.4278 -0.1526
38428W        W47228  20.510   4.355  21.831 -0.1906  0.0420  0.0914
38429W        W47229   1.402   3.512  37.882 -0.0456  0.0345 -0.1851
38430W        W47230   5.322   2.598  13.364 -0.3552  0.0514 -0.3385
38431W        W47231  15.930   6.196  14.293 -0.3216 -0.1382 -0.0426
38432W        W47232   7.638   0.670   9.507 -0.2098 -0.0860 -0.0522
38433W        W47233   3.753   4.137   4.551  0.1074  0.3748  0.2827
38434W        W47234  20.044   4.475  29.952  0.1054 -0.5625 -0.3121
38435W        W47235   3.485   2.055  16.911 -0.1690  0.0061 -0.0749
38436W        W47236  17.204   6.056   8.460  0.2028 -0.2340 -0.3187
38437W        W47237   9.839   1.923   8.321  0.0705 -0.2038 -0.1313
38438W        W47238  20.038   0.368   5.323 -0.0661 -0.3515  0.0936
38439W        W47239  20.073   6.168  40.487 -0.1803 -0.3758 -0.0211
38440W        W47240  12.237   2.271   7.017 -0.3510  0.1170 -0.1998
38441W        W47241   5.854   4.071  33.537  0.1777 -0.3843  0.0601
38442W        W47242  19.837   4.808  15.192 -0.3253 -0.0600  0.1512
38443W        W47243  18.194   2.403  31.411 -0.0262  0.0945 -0.0340
38444W        W47244  15.300   3.251  28.440 -0.0406 -0.0599 -0.2482
38445W        W47245   5.102   5.579  13.827  0.1095 -0.1378 -0.1584
38446W        W47246  15.512   3.887  34.825  0.1337  0.2214  0.0109
38447W        W47247   9.294   6.010  15.182 -0.3604 -0.1393 -0.1082
38448W        W47248   2.218   3.905  37.652 -0.3945 -0.2600  0.1439
38449W        W47249  20.865   4.538  28.750  0.0686  0.1716  0.0779
38450W        W47250   2.410   0.652  39.332 -0.1743  0.1109  0.0462
38451W        W47251  15.022   3.527  41.581  0.2464  0.1715  0.2255
38452W        W47252  18.126   3.642  37.366 -0.1156  0.0474 -0.4162
38453W        W47253  13.806   5.973  43.800 -0.0511  0.0243  0.0433
38454W        W47254  13.288   2.297  33.246 -0.1487 -0.1690 -0.1312
38455W        W47255  17.688   2.243  34.826  0.2186 -0.1696 -0.1448
38456W        W47256   0.229   1.455  23.267 -0.0125 -0.1825  0.0970
38457W        W47257   8.904   3.749   3.903 -0.1662  0.0855  0.0947
38458W        W47258  11.682   1.985  21.851 -0.2754 -0.0023 -0.0112
38459W        W47259   9.022   3.538  31.774 -0.0393 -0.0722 -0.1255
38460W        W47260  15.745   3.262  16.765 -0.1581 -0.1554  0.0076
38461W        W47261  12.685   1.403  42.009  0.0863 -0.0478 -0.1504
38462W        W47262  11.393   1.500  12.860  0.1703 -0.4440 -0.0018
38463W        W47263   1.274   3.889  16.150 -0.0304 -0.1142  0.1832
38464W        W47264   7.881   1.799  32.466 -0.1154  0.3133 -0.0495
38465W        W47265   3.226   1.253  41.373 -0.0306 -0.0561  0.2203
38466W        W47266  20.854   4.092  27.915 -0.2223  0.1135 -0.0390
38467W        W47267  17.536   5.844  36.489  0.2478 -0.0179 -0.1102
38468W        W47268   7.063   5.618  41.097 -0.1675 -0.2203  0.0440
38469W        W47269   6.601   2.381  41.682 -0.1687  0.0261 -0.1540
38470W        W47270  14.139   2.581  34.200  0.1654  0.1548  0.0700
38471W        W47271  11.441   2.055  12.087 -0.0626 -0.2116 -0.1029
38472W        W47272   6.697   6.118  44.998 -0.0187  0.2052 -0.0835
38473W        W47273   0.148   0.542   5.990  0.1284 -0.0179 -0.1967
38474W        W47274  14.245   4.502  15.891  0.0796 -0.0608 -0.3436
38475W        W47275   8.333   2.415   4.406  0.0544  0.2593 -0.0479
38476W        W47276  10.166   6.010  14.072  0.0929  0.2048 -0.1773
38477W        W47277   8.760   4.918  39.842  0.0210 -0.2197 -0.1588
38478W        W47278  20.082   4.138  11.380  0.2849 -0.1856  0.0784
38479W        W47279   4.891   1.909  11.093 -0.1531  0.0575 -0.1832
38480W        W47280   2.936   1.797  10.665 -0.1246  0.1396  0.0414
38481W        W47281   9.990   6.181  37.896 -0.1459 -0.1691  0.0237
38482W        W47282   6.061   3.782  34.998  0.1558 -0.0255 -0.1348
38483W        W47283  12.935   2.426  12.572 -0.0094  0.0631 -0.0208
38484W        W47284  12.976   3.959  15.296 -0.1999  0.2622 -0.1412
38485W        W47285  16.120   0.881  33.457 -0.0144  0.1348  0.1818
38486W        W47286  10.227   0.537  43.345  0.2800 -0.2137 -0.3622
38487W        W47287   2.746   3.949  40.183 -0.0741 -0.0571 -0.1398
38488W        W47288  17.939   1.512  37.022 -0.0539  0.0276 -0.0544
38489W        W47289  18.695   2.107  37.500 -0.0890  0.0428 -0.0837
38490W        W47290  10.227   2.877  25.099  0.3170 -0.0638 -0.1072
38491W        W47291  20.552   3.788  29.147  0.1061 -0.1138 -0.1309
38492W        W47292  13.792   2.117  15.812  0.2587  0.0251  0.1196
38493W        W47293   7.721   5.277  31.643  0.1631 -0.0363  0.1671
38494W        W47294   6.295   0.122   0.613  0.0108 -0.1422 -0.2094
38495W        W47295  17.182   2.393  12.691 -0.2215  0.0387  0.1644
38496W        W47296  12.139   0.654   1.721  0.2156 -0.2331  0.1410
38497W        W47297   8.428   1.890  44.619 -0.0863  0.0141  0.0997
38498W        W47298  16.129   4.116   2.812  0.1966 -0.1331  0.0635
38499W        W47299   9.102   3.921  30.189  0.0491  0.3940  0.1171
38500W        W47300   7.928   6.207   2.845 -0.3570 -0.0352 -0.0455
38501W        W47301  12.280   6.046  29.938  0.0991 -0.2078  0.1105
38502W        W47302   1.761   0.695  43.620 -0.2936  0.2227 -0.0179
38503W        W47303  20.040   4.954   3.557  0.1164 -0.1130 -0.0066
38504W        W47304  11.352   4.449   9.581  0.0711 -0.1057  0.0517
38505W        W47305  20.325   2.820   8.733 -0.0970  0.1441  0.0916
38506W        W47306   9.343   0.828  31.883  0.0742  0.0493  0.0201
38507W        W47307   2.015   1.408  33.023  0.3021 -0.1558 -0.1410
38508W        W47308   3.745   3.280  44.637 -0.2340 -0.1147  0.3361
38509W        W47309  18.115   3.108  24.674  0.2486  0.0359 -0.1733
38510W        W47310  19.772   4.320  20.539 -0.0549  0.0727  0.3986
38511W        W47311   0.868   3.270   0.870  0.2632 -0.1335  0.1229
38512W        W47312  11.943   0.927   9.525  0.0809  0.1964  0.3575
38513W        W47313  16.944   5.008  29.436 -0.0113 -0.2982  0.0833
38514W        W47314   5.504   0.203  19.795  0.0833  0.0472  0.0841
38515W        W47315   1.438   1.982  34.484  0.3048 -0.0065  0.2057
38516W        W47316   3.137   5.725  44.175  0.2715  0.0613 -0.1494
38517W        W47317   0.395   5.727  24.402  0.1651  0.1404 -0.0965
38518W        W47318  16.815   6.338  43.081  0.2157 -0.4120  0.0624
38519W        W47319  10.677   4.246   4.818 -0.1835  0.0511 -0.1879
38520W        W47320  15.439   2.490  14.335  0.0344  0.1281  0.3059
38521W        W47321   4.879   1.074  35.496 -0.0064 -0.0342  0.2118
38522W        W47322  12.864   5.654   6.335  0.0084 -0.2091 -0.0211
38523W        W47323  10.499   2.751   9.607  0.0095 -0.0466  0.0273
38524W        W47324   2.414   4.345  34.444 -0.2163  0.0865  0.0543
38525W        W47325  19.338   1.923   9.040 -0.0898 -0.0790 -0.0388
38526W        W47326  12.709   6.213  35.219  0.1063  0.2519  0.4354
38527W        W47327  20.850   3.826   3.127 -0.1381  0.1288 -0.0891
38528W        W47328   7.943   2.410  33.447 -0.1925  0.1937  0.1562
38529W        W47329  15.301   0.881  12.323  0.0248 -0.1539 -0.0455
38530W        W47330  15.927   6.553   3.028 -0.4315  0.0745 -0.0161
38531W        W47331  14.445   4.850  30.137  0.1490  0.3422 -0.1056
38532W        W47332   4.928   3.239   9.803  0.1314 -0.1352 -0.1019
38533W        W47333  12.535   0.926  38.052  0.0882  0.2128 -0.1879
38534W        W47334   9.646   3.724  17.395  0.0247  0.2832 -0.0048
38535W        W47335  15.899   4.484  39.999  0.0662 -0.2158 -0.0325
38536W        W47336  10.776   3.309  14.150 -0.1919  0.0069  0.0486
38537W        W47337  11.044   4.771  37.337 -0.2098  0.1094  0.1091
38538W        W47338   0.597   5.385  30.040  0.0540 -0.2910 -0.0713
38539W        W47339  19.842   2.706  26.585 -0.0246  0.1568  0.0115
38540W        W47340  16.036   2.334   8.243 -0.0712 -0.2283 -0.0377
38541W        W47341   1.023   4.641  22.868 -0.1282 -0.0402  0.1611
38542W        W47342   1.420   4.280   3.464 -0.1862  0.1195 -0.1472
38543W        W47343  13.257   3.242  36.539  0.0916 -0.3435 -0.4505
38544W        W47344   2.838   2.925   1.776 -0.1151  0.3124 -0.1232
38545W        W47345   2.864   5.515  16.012 -0.2411 -0.1116 -0.1042
38546W        W47346   3.183   0.139   9.726 -0.3629 -0.0342 -0.0060
38547W        W47347  18.083   6.454  35.025 -0.0951 -0.1015 -0.0141
38548W        W47348  15.013   1.332  37.871  0.0465 -0.3734  0.1460
38549W        W47349  15.332   1.329  36.838 -0.1962  0.0188 -0.1257
38550W        W47350   1.627   5.979   7.875 -0.1699  0.2168  0.2510
38551W        W47351   8.990   2.783   7.380  0.6126  0.0473 -0.0178
38552W        W47352  10.026   1.330  17.087  0.2708  0.1842  0.2062
38553W        W47353  15.220   4.706  16.050 -0.0452  0.1245 -0.1204
38554W        W47354  14.868   2.990  15.097  0.0659  0.2332  0.0467
38555W        W47355   1.324   1.098  38.780  0.0492  0.2557 -0.1025
38556W        W47356  17.320   2.957  42.254  0.1252 -0.0225  0.1801
38557W        W47357  13.992   0.856  39.412 -0.0349  0.1973  0.1457
38558W        W47358   6.418   1.059  36.401  0.2967 -0.2601 -0.0198
38559W        W47359  10.119   4.530   6.377  0.0409  0.1402 -0.2185
38560W        W47360  19.998   5.202  13.752 -0.0163 -0.2163 -0.4414
38561W        W47361  20.564   2.283  14.626 -0.2829 -0.2244 -0.0995
38562W        W47362   4.373   3.493  32.455  0.0799 -0.1147  0.1289
38563W        W47363  12.330   4.384  43.245  0.3324  0.0224  0.1346
38564W        W47364   6.929   5.546  38.007 -0.1786 -0.1613 -0.2385
38565W        W47365   0.321   3.029  31.914 -0.3374  0.1070 -0.0191
38566W        W47366  13.665   5.520  29.816 -0.0138  0.0850  0.1324
38567W        W47367   8.270   3.226  39.904  0.2768  0.2850 -0.1165
38568W        W47368   3.291   3.251  15.440  0.1273 -0.1971  0.0051
38569W        W47369  15.921   3.140   6.582 -0.0820 -0.1799  0.0026
38570W        W47370  15.722   4.475  42.352  0.0777 -0.4167  0.0181
38571W        W47371   3.954   0.683   8.044 -0.0768  0.0089  0.0248
38572W        W47372  13.297   6.476  39.238 -0.0001  0.3489  0.0297
38573W        W47373  12.851   2.724   2.329 -0.2148 -0.1047  0.2924
38574W        W47374  17.475   1.181   4.360  0.2519 -0.0402 -0.1288
38575W        W47375  18.116   4.818  22.763 -0.2915  0.1583  0.0828
38576W        W47376   8.484   2.727  41.424 -0.1236  0.1814 -0.0372
38577W        W47377  20.913   1.451  32.915 -0.1084  0.0425 -0.2311
38578W        W47378   1.304   5.160  28.395 -0.3873  0.1690 -0.4836
38579W        W47379   4.347   3.912  33.642 -0.0081 -0.0903 -0.1856
38580W        W47380   3.723   4.723   6.095  0.4709  0.0762 -0.2588
38581W        W47381   3.760   6.436  10.365 -0.1559 -0.0547 -0.3129
38582W        W47382  15.638   2.709  35.399 -0.2114 -0.2339  0.1125
38583W        W47383  14.139   6.427  10.149 -0.0145  0.0276  0.0051
38584W        W47384   6.729   1.477  44.104  0.1808 -0.2013 -0.1320
38585W        W47385  13.951   2.293  15.339 -0.2740 -0.1142 -0.0001
38586W        W47386   5.822   5.245  40.666 -0.0076  0.1676 -0.3539
38587W        W47387  19.281   5.661  33.273 -0.2717 -0.1252  0.1814
38588W        W47388  11.720   6.129  19.181  0.0501  0.1198 -0.0343
38589W        W47389  14.850   6.172  44.635 -0.1064 -0.1529 -0.0194
38590W        W47390   5.353   3.321  29.530 -0.0969 -0.0899 -0.1687
38591W        W47391  10.446   0.718  39.245  0.0801 -0.0466  0.0280
38592W        W47392  15.525   0.718  16.520  0.2941  0.1461 -0.0936
38593W        W47393  10.022   5.715  38.886 -0.0081  0.3254 -0.1240
38594W        W47394  12.743   5.742  35.423 -0.2069 -0.2914 -0.1174
38595W        W47395  19.406   6.551   4.296  0.2989 -0.1022 -0.2521
38596W        W47396  21.119   1.493  41.447  0.4333  0.0972  0.1501
38597W        W47397  10.710   6.281   8.652 -0.0295 -0.4068 -0.0498
38598W        W47398  11.089   5.378  12.991 -0.1120 -0.3876 -0.0196
38599W        W47399   4.705   2.194  36.725 -0.1278 -0.2694 -0.3662
38600W        W47400   6.234   0.273  13.901  0.2580 -0.0853 -0.0018
38601W        W47401   1.384   0.906  30.234  0.1123 -0.0612 -0.2123
38602W        W47402  15.212   2.242  27.500 -0.1311 -0.2658  0.1099
38603W        W47403   8.253   2.545   5.261 -0.0476 -0.0813  0.2873
38604W        W47404   5.816   4.183  31.711  0.0125  0.4215  0.0233
38605W        W47405  20.545   3.545  19.466 -0.0477  0.0756  0.0835
38606W        W47406  16.038   5.937  12.881  0.0167 -0.2477 -0.1750
38607W        W47407  15.344   5.876  17.676 -0.0662  0.1376  0.1202
38608W        W47408  12.130   0.563  40.267  0.3099  0.2929  0.0226
38609W        W47409   6.331   2.270   4.026 -0.2395 -0.0713 -0.0266
38610W        W47410  20.585   1.041  26.724 -0.2156  0.2136 -0.2125
38611W        W47411   1.205   5.354  38.992 -0.1171 -0.0569 -0.2920
38612W        W47412   8.020   1.051   2.388 -0.2261  0.2264  0.0539
38613W        W47413  17.791   0.166  43.677  0.0238 -0.1318 -0.1206
38614W        W47414  21.106   5.495   7.202  0.2247 -0.1974  0.4037
38615W        W47415   8.879   0.006  34.519  0.2748 -0.0575 -0.3062
38616W        W47416  13.390   4.682  36.819 -0.0236 -0.1425 -0.0631
38617W        W47417   2.469   4.009  25.292  0.2623 -0.1470  0.2272
38618W        W47418   2.185   3.252  43.246  0.0920 -0.0741 -0.2641
38619W        W47419  12.771   4.971   1.487  0.2965 -0.3888  0.1527
38620W        W47420   2.967   4.002   6.745  0.0903 -0.2195  0.0556
38621W        W47421   8.678   6.029  11.286 -0.0739 -0.0186 -0.1863
38622W        W47422   7.575   2.659  35.682  0.2353 -0.1797 -0.1790
38623W        W47423   6.566   1.624   3.238 -0.1860  0.1448  0.2388
38624W        W47424  11.986   1.172   7.577  0.1216 -0.0080 -0.2185
38625W        W47425   2.667   2.932  34.742 -0.0463  0.2008 -0.5212
38626W        W47426  15.669   3.769  41.350 -0.1524  0.2232 -0.0464
38627W        W47427   6.150   4.360   0.841  0.1171  0.0990 -0.1668
38628W        W47428  17.870   5.633  23.759 -0.1917 -0.0941  0.0144
38629W        W47429  19.941   2.967  37.611  0.0074 -0.0900  0.0992
38630W        W47430   5.698   1.826  39.365  0.0023 -0.3170 -0.1439
38631W        W47431  16.569   0.330  26.573 -0.4320  0.2114  0.2489
38632W        W47432  16.826   3.266  30.231 -0.0410  0.1616 -0.1093
38633W        W47433   8.747   5.373  19.314 -0.1716  0.0339  0.0103
38634W        W47434  17.593   3.717  24.131 -0.0477 -0.3135 -0.0965
38635W        W47435  19.684   2.137   1.661  0.0074 -0.2403  0.0547
38636W        W47436  10.897   1.296  30.248  0.0824 -0.0656 -0.4451
38637W        W47437  16.204   4.170  26.387  0.1753  0.1956  0.0963
38638W        W47438   1.044   4.452  43.465  0.0358 -0.0678  0.2779
38639W        W47439   5.866   5.050   2.823  0.1021 -0.1339  0.0880
38640W        W47440   3.951   4.818  42.887 -0.0824  0.0643 -0.0261
38641W        W47441   8.231   5.527  33.447  0.0148 -0.1542  0.0410
38642W        W47442  14.877   4.099  43.267  0.2654 -0.1003 -0.3328
38643W        W47443  15.754   6.097  35.042  0.1305  0.0285 -0.4964
38644W        W47444   1.443   1.720  39.440 -0.2901  0.2697 -0.0686
38645W        W47445   1.750   3.446  39.164  0.3186  0.1499  0.0682
38646W        W47446   3.898   5.628  29.418 -0.1780 -0.0293  0.1786
38647W        W47447  16.427   0.540  27.511  0.1178 -0.1011 -0.1340
38648W        W47448  20.108   6.260  12.607 -0.3234 -0.0280  0.0807
38649W        W47449  16.528   6.532  42.197  0.0037 -0.0089 -0.1167
38650W        W47450  13.106   4.607  18.292 -0.0368 -0.1844  0.1512
38651W        W47451   6.903   1.918  34.830 -0.1312  0.2653 -0.2475
38652W        W47452  14.970   1.589  42.834  0.1780 -0.1517  0.1680
38653W        W47453  12.905   1.765  37.630 -0.3939 -0.0565  0.0467
38654W        W47454   2.565   0.600  11.392 -0.3981 -0.0599 -0.1971
38655W        W47455  16.672   2.303  25.791 -0.1697 -0.1287 -0.0313
38656W        W47456  10.343   3.145  38.550 -0.0769  0.2099  0.0667
38657W        W47457  15.696   6.192  26.892 -0.3458  0.1299  0.0182
38658W        W47458   8.348   4.053  43.270 -0.1073 -0.3109 -0.0880
38659W        W47459  19.773   0.195   8.885 -0.0448  0.1289  0.0392
38660W        W47460   2.131   4.437  26.855  0.2167  0.0755  0.1409
38661W        W47461  10.121   3.471  12.221  0.1695 -0.1080 -0.0673
38662W        W47462  10.231   4.659  11.601  0.2634  0.1057 -0.0527
38663W        W47463   8.826   2.018  19.416  0.0700 -0.1510  0.0317
38664W        W47464  19.071   6.317   6.377  0.1557  0.1587 -0.3557
38665W        W47465   5.253   0.263  35.144 -0.1164 -0.0882  0.0413
38666W        W47466   9.851   4.777  10.064 -0.1124  0.1201  0.0325
38667W        W47467  16.774   4.142  30.052  0.0057 -0.2356 -0.0141
38668W        W47468   4.350   0.732   7.731  0.3031  0.1464 -0.0165
38669W        W47469  13.888   4.478  35.076 -0.0141 -0.2149  0.0231
38670W        W47470  12.819   2.855  42.121 -0.1722  0.2040  0.2958
38671W        W47471  10.689   3.649   8.676  0.0480 -0.0929 -0.1543
38672W        W47472  11.946   3.889   8.558  0.0895  0.1970 -0.1540
38673W        W47473   3.061   4.217   7.217 -0.5085  0.1598  0.2290
38674W        W47474   7.330   3.557  21.033 -0.0601 -0.1639 -0.0180
38675W        W47475  15.643   3.132   2.186 -0.1601 -0.2365 -0.2071
38676W        W47476  10.323   4.892  35.491 -0.0718  0.0777 -0.4902
38677W        W47477   4.919   4.619  42.944 -0.0752 -0.2030 -0.1457
38678W        W47478  16.924   3.464  16.230 -0.0329  0.0755 -0.0688
38679W        W47479  19.238   1.954  25.323  0.1180  0.1089 -0.0344
38680W        W47480  13.376   4.641   7.876 -0.0010 -0.0463  0.3076
38681W        W47481   6.547   1.289  31.816 -0.0228  0.2224 -0.1249
38682W        W47482   3.712   0.328  30.759 -0.0222 -0.0590  0.0033
38683W        W47483  18.254   6.068  42.887 -0.1611  0.0453  0.0558
38684W        W47484   2.109   3.152  32.373  0.2206 -0.0369  0.0740
38685W        W47485   5.153   0.261  34.190 -0.0168  0.0789 -0.0417
38686W        W47486   9.185   0.286  37.577 -0.0109  0.1347 -0.0716
38687W        W47487   9.764   1.898  34.004  0.0434  0.1323  0.0354
38688W        W47488   3.785   5.963  14.441  0.0062  0.5150  0.1382
38689W        W47489  16.941   5.077   2.414  0.0584  0.0742 -0.2985
38690W        W47490   8.056   2.777  29.905 -0.0181 -0.0309 -0.2578
38691W        W47491   8.402   5.846  42.442 -0.2502 -0.0888 -0.0943
38692W        W47492   8.772   1.803  29.046 -0.2146  0.0939 -0.1093
38693W        W47493  18.701   3.863  22.305 -0.2010 -0.1220  0.1587
38694W        W47494   4.496   3.299  36.700  0.3252  0.0785 -0.2145
38695W        W47495  12.853   1.673   7.696 -0.1032 -0.0025 -0.1560
38696W        W47496  10.312   0.348   0.873 -0.0587  0.0561  0.0131
38697W        W47497  18.372   0.525  45.005  0.0820 -0.0688 -0.0584
38698W        W47498  18.779   1.930  25.858 -0.1630 -0.2204 -0.1106
38699W        W47499  15.529   6.519  15.686  0.2419 -0.0940 -0.1500
38700W        W47500   4.197   5.953  42.359  0.1655  0.0762 -0.1191
38701W        W47501  15.867   3.088  34.629  0.1867 -0.4431  0.0748
38702W        W47502   7.623   0.735  43.634 -0.1433 -0.1004 -0.1949
38703W        W47503   6.922   2.350  30.341 -0.0913  0.0419  0.0969
38704W        W47504   5.189   0.551  11.105 -0.1912 -0.0812  0.0548
38705W        W47505  10.527   2.411  42.010 -0.2471 -0.0884  0.0562
38706W        W47506   9.781   2.705  29.868 -0.0408 -0.4682 -0.1516
38707W        W47507  20.017   3.188   8.266 -0.4696 -0.2838  0.3130
38708W        W47508   2.600   1.407   6.241 -0.0106  0.3061 -0.3088
38709W        W47509  14.798   1.207  37.471  0.0047 -0.0434  0.0954
38710W        W47510   4.181   2.444   5.679  0.1977  0.0669  0.1478
38711W        W47511   8.125   0.324  42.140  0.0958  0.2236  0.1663
38712W        W47512   7.253   6.239   7.174 -0.1856 -0.0907  0.1614
38713W        W47513   0.364   6.372  13.141  0.1902  0.1073 -0.0475
38714W        W47514  11.892   0.253  10.419 -0.0320 -0.0752 -0.0638
38715W        W47515   3.649   4.478   6.503 -0.0873  0.1842 -0.0454
38716W        W47516  18.603   0.521  38.663 -0.0248  0.1530 -0.0406
38717W        W47517  19.832   2.173   4.832 -0.1701  0.1496  0.0376
38718W        W47518  14.976   2.735  43.208 -0.0275  0.1187 -0.0727
38719W        W47519   2.907   5.632  10.204  0.0444  0.2748 -0.2578
38720W        W47520   8.645   5.799  43.546 -0.1551  0.4452  0.1237
38721W        W47521  11.010   1.237   0.806  0.0441  0.1413  0.1051
38722W        W47522  11.341   2.172  38.077 -0.0363  0.4317 -0.1745
38723W        W47523  14.457   2.292  41.100  0.2611  0.0820 -0.1039
38724W        W47524   4.095   5.733  40.775 -0.1924  0.1315 -0.0339
38725W        W47525  13.360   1.299   9.985  0.0789  0.2275  0.1372
38726W        W47526  14.279   5.449   4.523  0.3167 -0.4082  0.2790
38727W        W47527   6.843   2.049  42.487 -0.1705 -0.2001 -0.1006
38728W        W47528   5.671   6.363   9.428  0.0448 -0.1391 -0.0151
38729W        W47529  16.816   3.257  29.522 -0.0561  0.0522  0.0828
38730W        W47530   9.118   2.528  24.180  0.3219  0.2191 -0.1412
38731W        W47531  17.378   3.039  13.439 -0.1499  0.1330 -0.2740
38732W        W47532   7.102   0.952  41.543 -0.1663  0.0543  0.0591
38733W        W47533   4.930   2.728  42.467 -0.1028 -0.1638 -0.0385
38734W        W47534  10.281   1.830  13.667 -0.0338 -0.1278 -0.1115
38735W        W47535  13.655   2.179   3.027  0.1484 -0.2384 -0.0298
38736W        W47536  15.735   5.174  29.778  0.2883  0.2088 -0.0885
38737W        W47537   9.160   5.671  12.996  0.0838 -0.0025  0.3484
38738W        W47538  19.110   3.783   9.066  0.0718  0.0188 -0.1941
38739W        W47539  14.698   1.508  32.643  0.0974  0.1138  0.2589
38740W        W47540  14.552   5.055   9.586 -0.1459 -0.0018 -0.2117
38741W        W47541  12.227   5.523  20.339  0.0483 -0.1643 -0.0778
38742W        W47542   1.021   4.183  29.192  0.2964 -0.1286 -0.0288
38743W        W47543  11.719   1.568  42.945 -0.0423 -0.0524 -0.1879
38744W        W47544   2.091   2.620   6.946 -0.0850 -0.0162 -0.1248
38745W        W47545   4.957   5.783  13.372  0.1964 -0.2711  0.1070
38746W        W47546  12.450   6.588  41.850  0.1851  0.2215 -0.3145
38747W        W47547   3.862   5.349  40.479 -0.2589  0.3287  0.0139
38748W        W47548   4.847   5.670  35.992  0.1539  0.1921 -0.2405
38749W        W47549  11.948   0.403  20.218  0.3364  0.2322 -0.1346
38750W        W47550  17.312   5.545   0.232  0.1831 -0.1543  0.1177
38751W        W47551   0.047   0.990  24.297  0.2237 -0.1684 -0.0919
38752W        W47552  14.556   4.533  44.428  0.1179  0.0226 -0.1097
38753W        W47553  17.298   3.139  43.158  0.0900 -0.4098 -0.0782
38754W        W47554   9.199   6.031   7.707  0.3792 -0.5149  0.0428
38755W        W47555   6.700   2.710  38.390  0.1745 -0.0524 -0.0332
38756W        W47556  13.814   4.793  43.788 -0.2523  0.0685 -0.0433
38757W        W47557   2.093   2.200   2.745  0.0431  0.0799  0.1753
38758W        W47558  13.102   2.065  17.592  0.1146 -0.0023  0.0245
38759W        W47559  19.963   2.571  11.821 -0.0112 -0.0854  0.3027
38760W        W47560  15.663   4.869  10.877  0.0246  0.0944 -0.4309
38761W        W47561   6.755   4.461  35.020 -0.3340  0.1394  0.2738
38762W        W47562   9.220   3.989   6.640 -0.0172  0.1496  0.0111
38763W        W47563   1.850   0.140  26.740  0.1202  0.0162  0.2467
38764W        W47564   2.999   1.790  26.988  0.1803  0.0454  0.2464
38765W        W47565  12.214   5.928  11.709  0.0309  0.5566  0.3197
38766W        W47566   4.964   0.827   4.801 -0.4990  0.1433 -0.0651
38767W        W47567   4.545   2.209   1.153 -0.0096  0.2640  0.0376
38768W        W47568   6.169   0.369   7.293  0.3207  0.0647 -0.1591
38769W        W47569   4.280   0.763   4.269  0.5185 -0.1722  0.1137
38770W        W47570  13.498   5.282  12.572  0.1129  0.0393 -0.2460
38771W        W47571   5.832   0.029  20.162 -0.0416  0.1497  0.0220
38772W        W47572   1.516   6.421  26.443 -0.2857 -0.3066  0.4415
38773W        W47573   3.919   2.917   0.397 -0.2104  0.0893  0.0428
38774W        W47574   9.689   3.935   8.604 -0.1447 -0.1725 -0.0171
38775W        W47575  20.946   2.948   8.240 -0.0030  0.1192 -0.2938
38776W        W47576   5.602   2.535  40.730  0.0328  0.0847  0.2801
38777W        W47577   8.256   5.267  39.081  0.1707 -0.1051 -0.0482
38778W        W47578   8.089   2.830   6.160  0.3217  0.4035  0.2323
38779W        W47579  17.204   1.623  39.325  0.0711 -0.0973 -0.0526
38780W        W47580   6.458   1.769  34.999 -0.0283 -0.0779 -0.0573
38781W        W47581   3.998   0.970  18.152 -0.2336  0.2799 -0.0808
38782W        W47582  18.667   6.460  35.763  0.3134 -0.0257  0.0162
38783W        W47583  21.060   0.558  43.522 -0.1530  0.1538  0.0062
38784W        W47584   7.200   5.193  13.454 -0.1795 -0.1782  0.0815
38785W        W47585   5.381   2.147  34.414  0.1780  0.0567 -0.1622
38786W        W47586  19.923   0.193  35.559  0.0894  0.0348 -0.1562
38787W        W47587  11.349   1.711  10.078 -0.0297 -0.1201  0.1856
38788W        W47588   6.170   0.970  44.623 -0.0372  0.0589  0.2731
38789W        W47589   2.138   2.306  37.731 -0.2417 -0.3774 -0.2970
38790W        W47590  20.033   2.624   0.309  0.0480  0.0979  0.3020
38791W        W47591  19.603   5.237  10.871  0.2514  0.0341 -0.3758
38792W        W47592  17.351   3.319  30.128  0.0578 -0.1922 -0.1365
38793W        W47593   8.417   2.122  17.322  0.3116  0.2238  0.0475
38794W        W47594  15.584   5.800  10.888 -0.1653 -0.1361  0.1586
38795W        W47595  19.670   5.217   7.611  0.0798  0.1000 -0.0622
38796W        W47596  19.578   2.948  40.325  0.1504  0.0396  0.1742
38797W        W47597  20.546   4.755  35.225  0.1670 -0.2020 -0.1510
38798W        W47598  15.495   5.103  27.080  0.0342  0.0085  0.4043
38799W        W47599   3.475   4.337  28.948  0.0434 -0.0157 -0.1217
38800W        W47600   9.768   2.809  35.587 -0.2687 -0.0307 -0.3523
38801W        W47601   6.311   2.063  36.205 -0.1758  0.2779  0.0469
38802W        W47602  18.210   3.473  20.861  0.3274 -0.0561 -0.2597
38803W        W47603   2.707   3.458  33.546  0.2626  0.1191  0.2390
38804W        W47604   9.807   1.475   3.449  0.3589  0.1477  0.2015
38805W        W47605  19.865   1.809  10.078 -0.0594  0.0282 -0.0730
38806W        W47606  17.341   4.866  27.849 -0.3426  0.1936 -0.1287
38807W        W47607  18.687   2.415  37.158  0.0457 -0.2249 -0.0453
38808W        W47608   2.942   5.175  40.512 -0.1306  0.4610 -0.1214
38809W        W47609  12.957   2.011  16.291 -0.2734 -0.1194  0.1239
38810W        W47610   7.093   4.136  11.301 -0.0237  0.5552 -0.0098
38811W        W47611  10.571   4.781  33.621 -0.2849 -0.3444  0.1233
38812W        W47612  20.085   4.642   1.139 -0.2142 -0.0696 -0.0379
38813W        W47613   7.857   2.467  44.214 -0.2025  0.2387  0.0886
38814W        W47614   2.430   1.200   9.636 -0.3411 -0.0919  0.2690
38815W        W47615   3.563   2.022  42.100  0.1104  0.0598 -0.0577
38816W        W47616   6.811   6.177   1.683 -0.1209  0.1460 -0.0738
38817W        W47617  19.262   1.675  13.905 -0.0228 -0.0931  0.1560
38818W        W47618   5.436   2.629   7.977  0.1377 -0.0772 -0.1986
38819W        W47619   6.147   3.313   5.434  0.0999  0.0221 -0.1589
38820W        W47620   8.993   3.078  34.050 -0.1614 -0.2046 -0.3577
38821W        W47621  11.303   4.259   8.337  0.2029  0.0860 -0.1857
38822W        W47622   1.741   2.751  30.792 -0.2888 -0.1910 -0.0735
38823W        W47623  12.939   3.975  17.518  0.1270 -0.0665 -0.0608
38824W        W47624  11.809   4.126  17.062  0.0272 -0.0448 -0.0594
38825W        W47625  17.697   1.418  40.150 -0.0174 -0.1071 -0.0223
38826W        W47626  15.982   0.057  30.172  0.0635 -0.0384  0.1245
38827W        W47627  14.460   0.699  11.594  0.0301  0.0152  0.3107
38828W        W47628  10.201   0.432  36.975  0.1356  0.0393  0.0842
38829W        W47629   6.261   2.946  41.545 -0.1463  0.1523 -0.2372
38830W        W47630   5.621   5.046   9.867  0.0190  0.0465  0.3133
38831W        W47631   4.846   3.004   2.290 -0.1805 -0.1004 -0.1472
38832W        W47632   4.366   0.586  12.614 -0.0310 -0.0542  0.1063
38833W        W47633  19.035   4.498  12.850 -0.1360 -0.3117 -0.1316
38834W        W47634   4.401   4.971  15.894  0.0443  0.0094 -0.0132
38835W        W47635   9.909   0.398  23.484 -0.1821  0.0672 -0.0757
38836W        W47636  19.997   4.713  28.998 -0.4668  0.1007  0.2064
38837W        W47637   3.532   1.893   4.700  0.1593 -0.2062  0.0844
38838W        W47638  15.620   0.796  33.378  0.3377  0.0705 -0.2339
38839W        W47639   2.890   2.173   4.237 -0.2305  0.2833 -0.1244
38840W        W47640  20.885   2.803  27.399 -0.0031 -0.2837 -0.1892
38841W        W47641  17.999   2.847  23.417 -0.0502 -0.1862 -0.0947
38842W        W47642   2.691   0.200  34.073 -0.2528 -0.2277  0.1787
38843W        W47643  21.080   0.951  23.271  0.0512  0.1911 -0.0003
38844W        W47644  16.555   6.302  11.620 -0.1121  0.2426  0.3179
38845W        W47645  18.608   0.157  13.621  0.2277  0.2192  0.2979
38846W        W47646  21.023   0.536  12.719 -0.2025  0.1026  0.1989
38847W        W47647   5.660   1.423   2.953  0.0133  0.1490 -0.1026
38848W        W47648   0.578   1.865   8.610 -0.0300  0.0654  0.1629
38849W        W47649   3.214   3.270  36.297  0.2787 -0.2809  0.0550
38850W        W47650   3.851   5.404  35.480 -0.3200  0.0782 -0.2238
38851W        W47651  17.670   3.604  34.176  0.2042 -0.0594 -0.0933
38852W        W47652   4.358   3.952  18.526  0.1224  0.0590  0.1360
38853W        W47653   7.071   2.881   0.754 -0.1974 -0.1311 -0.0471
38854W        W47654   9.957   6.040   9.370  0.4211 -0.2392 -0.0559
38855W        W47655   9.313   2.054  19.354 -0.2366  0.2173  0.0323
38856W        W47656  18.246   6.005  44.896 -0.1799  0.0681  0.1438
38857W        W47657   7.682   1.449   7.034  0.3034 -0.1475  0.2092
38858W        W47658  17.278   2.865   9.579  0.0755  0.0964 -0.0399
38859W        W47659   0.629   0.751   2.763 -0.1752 -0.4911 -0.1184
38860W        W47660   1.152   5.284  28.851 -0.1816  0.1086  0.0976
38861W        W47661   9.741   5.784   0.453 -0.4140 -0.0638  0.0254
38862W        W47662   3.030   4.578  15.625  0.2636  0.2067 -0.2814
38863W        W47663   8.831   0.049  19.834 -0.1355 -0.0404  0.1251
38864W        W47664  11.129   2.620   3.062  0.1499 -0.0420  0.2898
38865W        W47665  12.726   2.623  45.069 -0.1705  0.0387 -0.0539
38866W        W47666   4.539   4.722  28.647  0.0849 -0.3520  0.1727
38867W        W47667   9.860   5.845  15.991  0.2101 -0.0482 -0.2679
38868W        W47668   9.727   1.213  14.267  0.0866 -0.0026  0.0834
38869W        W47669   0.735   6.182  32.241  0.0761  0.1900  0.0946
38870W        W47670   3.886   5.315  40.990  0.3857 -0.1673  0.1636
38871W        W47671   2.489   3.749  44.048  0.2125  0.1876  0.2841
38872W        W47672  14.907   5.739   1.435  0.2178  0.0220  0.0733
38873W        W47673  19.702   6.396  12.257 -0.0193 -0.2078  0.0883
38874W        W47674   4.156   2.126  11.497  0.1668 -0.0300 -0.0518
38875W        W47675  11.264   5.810  34.332 -0.1123  0.2838  0.0390
38876W        W47676  15.175   2.199  31.996 -0.1659 -0.0890  0.0056
38877W        W47677   6.645   5.352  35.082  0.0201  0.2624  0.1026
38878W        W47678  12.959   2.719  15.127 -0.0517  0.0962  0.2252
38879W        W47679  11.363   6.534  43.418 -0.4176  0.0177  0.0869
38880W        W47680   8.138   0.236  44.115  0.1049  0.0521  0.2046
38881W        W47681  10.531   1.871  40.396  0.1043 -0.1944 -0.0956
38882W        W47682  14.715   3.170   8.386 -0.0793 -0.1197  0.2047
38883W        W47683   0.605   1.734  14.637  0.1541 -0.0791 -0.0353
38884W        W47684   4.410   1.262   3.405 -0.1417 -0.0260 -0.2146
38885W        W47685   7.946   6.285   2.313  0.0658  0.0127  0.3981
38886W        W47686  10.249   6.541  12.522 -0.0958  0.1570 -0.2241
38887W        W47687   7.828   3.377  15.144 -0.0537  0.2927  0.1723
38888W        W47688  15.599   3.218  34.141 -0.1045 -0.3169  0.0997
38889W        W47689   9.818   3.039  32.605 -0.2190 -0.1313 -0.1798
38890W        W47690  17.571   2.858  39.988  0.0128  0.0281 -0.1210
38891W        W47691  12.363   4.292   9.893 -0.3135  0.1092 -0.1124
38892W        W47692   9.452   4.648  13.645  0.1475 -0.1107 -0.1280
38893W        W47693   1.066   4.730  28.300 -0.1394 -0.0590  0.0080
38894W        W47694   2.949   5.739   0.721  0.0525  0.1251 -0.0706
38895W        W47695   6.700   0.213  31.837  0.0041 -0.0912  0.0990
38896W        W47696  19.412   4.729  44.623  0.4586  0.2256  0.3095
38897W        W47697  17.949   4.987   8.280 -0.1048  0.2764 -0.0482
38898W        W47698   8.794   4.612   6.728  0.1280 -0.1441  0.0846
38899W        W47699  10.179   3.926  16.096 -0.0556 -0.2688  0.0603
38900W        W47700   1.592   2.577   3.428 -0.1941  0.1069  0.0373
38901W        W47701  20.053   4.725  35.128 -0.0105  0.0611 -0.0457
38902W        W47702   3.340   3.872  31.489 -0.2662 -0.0450 -0.0328
38903W        W47703   9.963   5.723   3.636  0.3048 -0.0124 -0.0834
38904W        W47704  15.544   2.089  31.586 -0.2938  0.1332  0.0884
38905W        W47705   8.666   4.344  30.737 -0.1318  0.0507  0.0910
38906W        W47706  15.536   2.258  30.143  0.1320 -0.1601 -0.1847
38907W        W47707   6.981   3.362   3.149  0.2100 -0.1177  0.0225
38908W        W47708   8.004   5.957   6.713 -0.3527 -0.0057  0.0776
38909W        W47709   6.872   5.068  13.789  0.1887  0.1246 -0.0141
38910W        W47710   2.691   2.431   5.085 -0.1482  0.1462 -0.1824
38911W        W47711  17.313   4.299   9.188  0.2441 -0.0662 -0.0896
38912W        W47712   4.565   4.883  39.885  0.0572 -0.1198 -0.0812
38913W        W47713  13.683   2.260  13.346  0.1183 -0.4514  0.0580
38914W        W47714   7.706   3.906  13.790 -0.1460 -0.1305  0.1274
38915W        W47715   6.108   4.042  14.111 -0.0784 -0.0937  0.0065
38916W        W47716  12.546   5.414   1.339 -0.0750  0.1185  0.0284
38917W        W47717  12.467   5.827  18.311 -0.1782 -0.2852 -0.0504
38918W        W47718  12.906   3.923  19.675  0.0378  0.0120 -0.0895
38919W        W47719   9.987   5.420  15.595 -0.2019 -0.0487  0.1036
38920W        W47720   8.286   1.024  17.290  0.2757 -0.3103 -0.0515
38921W        W47721  16.614   0.780   0.074  0.0031  0.0806  0.0263
38922W        W47722   4.973   5.209  38.401  0.2435 -0.0953 -0.2332
38923W        W47723   3.883   4.654  40.362  0.2340 -0.0176 -0.2843
38924W        W47724   2.165   2.676  36.803  0.1792  0.0414  0.1549
38925W        W47725  15.073   0.359  16.876 -0.0886 -0.0946  0.0999
38926W        W47726  12.105   3.928  15.412 -0.0017 -0.0949 -0.2300
38927W        W47727   4.996   5.834  18.521  0.2094  0.1939  0.0582
38928W        W47728  14.049   3.412   7.593 -0.0482 -0.3346 -0.0907
38929W        W47729  13.852   1.751  42.731  0.0968  0.0438 -0.1217
38930W        W47730   9.783   6.043   4.847 -0.0985  0.0247  0.1648
38931W        W47731   7.339   6.429  16.021 -0.1414 -0.4057 -0.1836
38932W        W47732   3.423   2.956  18.261  0.0003 -0.0230 -0.0502
38933W        W47733  14.599   2.309  39.175  0.0509 -0.0225  0.0396
38934W        W47734   1.416   1.283  24.710 -0.1650 -0.1573  0.2243
38935W        W47735  12.937   3.955   6.994 -0.0977 -0.2504 -0.0251
38936W        W47736   2.947   0.989  25.879 -0.1159 -0.1214  0.0084
38937W        W47737  13.036   3.755  38.159  0.0188  0.2988 -0.1164
38938W        W47738  16.889   3.347  27.096 -0.0601 -0.0382  0.0224
38939W        W47739  13.611   3.736  15.312 -0.1815 -0.2564  0.1351
38940W        W47740   2.147   4.710   5.835 -0.0048 -0.4421  0.1021
38941W        W47741   7.081   6.521   9.854  0.1846  0.2929 -0.0110
38942W        W47742  16.812   1.413   2.636  0.1902 -0.3595 -0.0208
38943W        W47743  14.342   2.170  34.806 -0.0678 -0.1115 -0.0992
38944W        W47744   2.622   2.221  13.665 -0.0518  0.1067  0.0912
38945W        W47745   8.215   0.082  37.829  0.1785  0.0427  0.1812
38946W        W47746  16.449   2.739  11.246 -0.0168 -0.0837 -0.2560
38947W        W47747  17.313   6.003  11.802 -0.2839 -0.2109 -0.1515
38948W        W47748  12.436   1.438  39.106 -0.0918  0.2593 -0.0465
38949W        W47749  14.695   2.719  30.235  0.0518  0.1125  0.1896
38950W        W47750  13.263   2.305  33.948 -0.1101  0.0373  0.3073
38951W        W47751   3.954   0.858   1.096 -0.3140 -0.1082  0.0964
38952W        W47752   5.583   6.418  12.775 -0.1928  0.0216 -0.3135
38953W        W47753   0.888   6.328   2.958  0.1450  0.2591  0.0198
38954W        W47754  20.618   4.813  21.998 -0.0840 -0.1042  0.0518
38955W        W47755   8.156   0.910   5.229  0.1249 -0.1618  0.2075
38956W        W47756   2.266   3.569  35.349 -0.0304  0.1421 -0.1599
38957W        W47757   7.489   3.379  30.037  0.1049 -0.3617 -0.1114
38958W        W47758   5.246   5.923  41.135 -0.0471 -0.3917 -0.0705
38959W        W47759   0.591   2.137  28.319 -0.1600  0.1488 -0.0664
38960W        W47760   8.894   2.466  19.288 -0.2804  0.2572  0.0879
38961W        W47761   2.943   4.238  41.106  0.0252  0.3028 -0.6126
38962W        W47762   1.800   1.177  14.160  0.0304  0.1724 -0.2832
38963W        W47763  13.499   4.753  27.641 -0.0677  0.3399  0.1051
38964W        W47764   8.853   4.658  22.241 -0.0218  0.1236 -0.3811
38965W        W47765  14.839   2.937  44.920  0.0943 -0.3645  0.3754
38966W        W47766   1.222   1.433   0.427 -0.0094  0.0558 -0.0028
38967W        W47767   7.292   2.415  36.022 -0.2348 -0.1473 -0.2258
38968W        W47768   9.441   2.892   5.152 -0.1459  0.0156  0.1360
38969W        W47769   4.833   4.577   3.877  0.0703 -0.4076 -0.0926
38970W        W47770   9.295   6.533  21.694  0.2814 -0.1338 -0.1725
38971W        W47771   7.459   6.086  34.207  0.2594 -0.1801 -0.2421
38972W        W47772   9.795   1.496   7.245 -0.2431 -0.2175 -0.0776
38973W        W47773   0.701   2.561   3.368  0.0199  0.0824  0.1826
38974W        W47774  20.089   0.866   3.125 -0.2209  0.1465  0.1150
38975W        W47775  17.399   3.020  27.712  0.0199  0.2197  0.0502
38976W        W47776   9.595   5.924  18.222  0.0599 -0.1460 -0.1201
38977W        W47777  19.047   4.784   2.055  0.1434  0.1647 -0.2163
38978W        W47778   3.950   1.899  41.757 -0.2506  0.2405 -0.1248
38979W        W47779  15.128   5.886  27.595 -0.1451 -0.1095  0.1119
38980W        W47780  18.548   1.189   7.198 -0.2592  0.2395 -0.0211
38981W        W47781   6.153   6.033  42.972  0.1538  0.0611 -0.0475
38982W        W47782   6.918   0.997  44.338  0.1785  0.0117 -0.1260
38983W        W47783   0.234   3.567  44.570  0.1353  0.1862 -0.3554
38984W        W47784   8.395   5.328  40.624  0.1805 -0.2218  0.1301
38985W        W47785  12.301   2.006  39.752  0.0294 -0.1131  0.1053
38986W        W47786   7.346   6.381  42.657 -0.1388 -0.0798 -0.1256
38987W        W47787   3.890   3.733  38.475  0.2264 -0.0046 -0.3063
38988W        W47788   2.186   2.845  44.679 -0.1033  0.0095 -0.2431
38989W        W47789   0.626   3.202  11.184 -0.1005  0.2639  0.1336
38990W        W47790   9.150   2.433  14.942 -0.0006  0.0047 -0.0263
38991W        W47791  18.462   5.435  39.571 -0.1474 -0.0103  0.0894
38992W        W47792   0.747   5.317  39.366  0.0678  0.0226  0.0075
38993W        W47793   3.013   4.207  35.485  0.1427  0.2893 -0.1550
38994W        W47794  16.394   6.217  23.933 -0.1733  0.2675  0.5138
38995W        W47795   3.518   5.798   8.255  0.0817  0.0275 -0.0471
38996W        W47796  14.356   4.008  34.155 -0.3164  0.1299 -0.0938
38997W        W47797   4.706   2.971  44.884 -0.1618 -0.1350 -0.0197
38998W        W47798  17.573   2.708  28.548  0.2047  0.0815 -0.1696
38999W        W47799   6.544   3.720  13.272  0.0084  0.0288 -0.0541
39000W        W47800  12.917   4.190  14.249  0.1107  0.3624 -0.1038
39001W        W47801   0.858   5.704  12.006  0.1196  0.3739 -0.1558
39002W        W47802  10.540   5.108  31.691  0.0361 -0.1999  0.1564
39003W        W47803  14.648   5.740  44.633  0.0140  0.2096  0.1298
39004W        W47804   9.448   1.053  43.385 -0.0961  0.1382  0.2552
39005W        W47805  12.074   1.905  31.901 -0.1444  0.2750 -0.2927
39006W        W47806   1.756   5.883  15.231  0.5074 -0.3375  0.1055
39007W        W47807   3.250   2.070  15.321  0.0504 -0.1210 -0.1157
39008W        W47808  10.254   2.450   5.870  0.0923 -0.0848  0.2046
39009W        W47809  15.632   4.688  25.095  0.1907  0.1988 -0.0273
39010W        W47810   1.660   5.973  31.524 -0.2556  0.0812  0.0280
39011W        W47811  17.211   1.670   2.531 -0.2384  0.2472 -0.1176
39012W        W47812   6.248   0.365  16.044 -0.1332  0.4463 -0.0175
39013W        W47813  21.114   2.298  36.813  0.0470 -0.0511 -0.2704
39014W        W47814  15.873   6.541   7.650 -0.2266  0.4024 -0.3840
39015W        W47815  21.066   2.269  24.025  0.1763  0.1180  0.0739
39016W        W47816  15.174   4.008  41.346  0.2003 -0.0005  0.0735
39017W        W47817  11.903   1.566  19.913  0.1918 -0.0806  0.1224
39018W        W47818  20.449   1.562  15.882 -0.1126 -0.1081  0.0716
39019W        W47819   3.050   5.126   9.512  0.0036 -0.3102 -0.1337
39020W        W47820  21.047   2.673  30.507 -0.1605  0.2337  0.1171
39021W        W47821  11.352   2.113   8.770  0.1202  0.0249  0.0421
39022W        W47822  15.987   2.345  15.236  0.1083 -0.1007 -0.0423
39023W        W47823   5.232   2.049  38.787  0.1183 -0.1658  0.1449
39024W        W47824  14.870   6.311  13.245 -0.0902 -0.1421 -0.0855
39025W        W47825  15.503   2.542  40.451  0.2376 -0.2275  0.2283
39026W        W47826  14.575   1.839  16.745 -0.0139  0.3077 -0.0190
39027W        W47827  14.638   5.793  35.912 -0.1449  0.1132 -0.2389
39028W        W47828  20.613   3.615  27.086 -0.0275  0.0970 -0.4792
39029W        W47829  17.961   0.965  39.848  0.2779  0.0623  0.1538
39030W        W47830  15.341   5.412  14.771 -0.1711 -0.1871  0.0258
39031W        W47831   9.350   3.674  19.933 -0.0124  0.2953 -0.2782
39032W        W47832   1.971   6.136   6.412  0.1284  0.0418  0.2276
39033W        W47833  17.624   0.070  24.746  0.1102  0.0740 -0.2965
39034W        W47834  17.874   1.900  36.146 -0.1157 -0.4260  0.0607
39035W        W47835   8.934   1.978  13.317  0.2678  0.1037 -0.1436
39036W        W47836   1.020   1.138  34.141  0.1008 -0.3631 -0.1574
39037W        W47837  17.121   4.541  37.094 -0.0770  0.1117  0.1478
39038W        W47838   4.143   5.847  41.786 -0.1052  0.0789  0.1526
39039W        W47839   2.582   5.412  39.317  0.1630 -0.3583  0.2150
39040W        W47840  18.305   0.683  26.853  0.4151  0.2929  0.1544
39041W        W47841   0.503   1.792  29.831  0.0339  0.1010  0.0691
39042W        W47842  15.383   2.135   8.126 -0.3727 -0.0985 -0.1939
39043W        W47843  16.747   4.352  42.012  0.0379  0.3837 -0.0197
39044W        W47844   3.091   6.558  24.580 -0.0467  0.2602  0.2285
39045W        W47845  20.157   2.587   4.084  0.2171 -0.1261  0.1305
39046W        W47846   7.333   1.621   9.006  0.2050 -0.0626  0.3147
39047W        W47847   6.425   0.225  42.124 -0.1304 -0.0662  0.0298
39048W        W47848   2.864   2.404  37.149  0.1336  0.0298 -0.0341
39049W        W47849   0.464   5.300  35.725 -0.0460  0.0469  0.4546
39050W        W47850   6.764   4.347  35.522  0.1018  0.0577  0.1933
39051W        W47851  11.815   1.981  18.163  0.3261  0.2607  0.0239
39052W        W47852  13.193   5.400   3.105  0.0362  0.0347 -0.2358
39053W        W47853   8.738   2.594  18.548  0.2710  0.0577  0.1573
39054W        W47854  11.635   0.627   9.983  0.1578  0.0045  0.0058
39055W        W47855  14.290   1.604  41.613  0.3779  0.1995 -0.0226
39056W        W47856  16.061   5.829  31.126  0.0446  0.0233  0.4073
39057W        W47857  11.650   4.232  40.627 -0.2956  0.1260  0.1204
39058W        W47858  11.153   1.684  40.301  0.2782  0.2243 -0.0082
39059W        W47859  20.336   0.442  11.953 -0.1109  0.2875  0.1968
39060W        W47860   7.105   0.650   9.707 -0.0897 -0.4073  0.0460
39061W        W47861   7.988   3.748  18.373  0.0107  0.3123 -0.0508
39062W        W47862  16.843   2.409  30.916  0.3474  0.0396 -0.0821
39063W        W47863   6.948   0.007   7.012  0.2811  0.2158 -0.2544
39064W        W47864  17.811   6.405  30.325  0.1218 -0.0484 -0.0737
39065W        W47865   5.648   1.996   9.363  0.3107 -0.1875  0.0522
39066W        W47866   8.180   6.228   8.973  0.0845  0.1146 -0.2975
39067W        W47867   2.523   4.287  33.244 -0.1978 -0.0748  0.1068
39068W        W47868  15.148   3.948  13.540 -0.1411 -0.2054  0.0036
39069W        W47869   7.174   1.466  30.724  0.0882  0.1556  0.1084
39070W        W47870  13.348   4.434  29.354 -0.6024 -0.0870 -0.0873
39071W        W47871  14.464   5.614   0.123  0.1127  0.0255 -0.1003
39072W        W47872   0.141   4.694  27.757  0.1195  0.0173  0.0437
39073W        W47873  10.988   2.480  19.236  0.0546  0.0017  0.2343
39074W        W47874   9.886   2.958  29.349  0.1662  0.2714 -0.1249
39075W        W47875   6.045   5.173   1.840 -0.1525  0.0963 -0.0353
39076W        W47876   4.511   2.381   8.447 -0.3289  0.1399 -0.1229
39077W        W47877  15.695   3.384  31.469  0.2750  0.0176  0.0828
39078W        W47878  14.483   5.103   0.196  0.1514 -0.1065 -0.2872
39079W        W47879  19.471   6.269  20.146 -0.0927 -0.0223 -0.3764
39080W        W47880   0.814   0.927  35.086  0.0608 -0.2510 -0.0920
39081W        W47881   7.272   4.439  37.197 -0.0868  0.3088  0.3778
39082W        W47882   6.600   2.251  31.465 -0.1279  0.5363 -0.0668
39083W        W47883  17.639   2.691  30.573 -0.0522  0.1162  0.4003
39084W        W47884   1.955   6.154  43.401 -0.0568 -0.0132  0.1278
39085W        W47885  15.432   3.790  35.992 -0.1153  0.1187  0.1674
39086W        W47886  11.465   4.577  20.307  0.4664 -0.0512 -0.2133
39087W        W47887   0.056   5.031   6.996  0.2006 -0.0644  0.0620
39088W        W47888   4.497   3.518   3.446  0.1853  0.0815 -0.0461
39089W        W47889   1.998   1.931  31.177 -0.1347 -0.2681  0.0012
39090W        W47890  12.992   5.302  12.715 -0.3616 -0.2596  0.1337
39091W        W47891  11.321   0.930  12.193 -0.0588  0.2207 -0.0452
39092W        W47892  18.032   1.791  43.997  0.1026 -0.0332 -0.3697
39093W        W47893  17.257   3.322  43.949 -0.0370  0.0369  0.1771
39094W        W47894   1.501   4.447   9.347  0.0371 -0.0222 -0.0450
39095W        W47895   9.145   5.547  12.253  0.0688 -0.0718  0.2087
39096W        W47896  10.461   2.218  38.278 -0.1538  0.1375 -0.1568
39097W        W47897   3.335   1.321  33.305  0.1764  0.0296  0.2802
39098W        W47898  10.873   1.131  22.773 -0.0436  0.1289  0.0660
39099W        W47899  20.753   2.201  30.522 -0.2208  0.1773  0.2287
39100W        W47900   6.715   4.604   7.424  0.1432 -0.0399  0.1610
39101W        W47901   7.852   3.041  21.115  0.5173 -0.3103 -0.3902
39102W        W47902  18.389   3.490  43.424 -0.1872  0.0113  0.3561
39103W        W47903  18.979   3.273   9.009  0.0829  0.2584  0.1916
39104W        W47904   4.531   3.260  28.620 -0.0496  0.0278  0.0628
39105W        W47905  18.556   5.350  30.386  0.0314 -0.0520  0.0068
39106W        W47906  15.415   0.220   0.749  0.0419  0.1696  0.2377
39107W        W47907   8.966   0.368  43.596 -0.0755 -0.3197  0.1454
39108W        W47908   0.156   3.841  32.913  0.3379  0.1608 -0.1893
39109W        W47909  15.288   0.761  34.348 -0.2503  0.0553 -0.0016
39110W        W47910  12.411   3.138  12.145 -0.1098 -0.3324  0.0053
39111W        W47911  15.212   5.271  26.025  0.0836  0.1045  0.3185
39112W        W47912  19.071   5.607  32.474 -0.0848  0.1821 -0.2240
39113W        W47913   6.721   3.322  40.998  0.0092  0.0057  0.1571
39114W        W47914  20.656   4.411  42.608 -0.0865  0.0060 -0.0617
39115W        W47915   0.826   5.532  24.193  0.0662  0.0468  0.2867
39116W        W47916   0.573   0.551   7.593 -0.1627  0.1716  0.1450
39117W        W47917   6.298   2.096   8.961 -0.1357 -0.1106  0.0758
39118W        W47918  17.890   0.784  30.170 -0.0767  0.1246  0.3579
39119W        W47919  18.571   6.233   0.290 -0.1204  0.2219  0.0405
39120W        W47920  13.965   3.233   4.655 -0.2291  0.0455 -0.0666
39121W        W47921  12.619   0.080   0.065  0.1961  0.0470 -0.2963
39122W        W47922  13.685   0.883  18.147 -0.1464  0.0631  0.0510
39123W        W47923   7.676   3.013  19.002 -0.3027 -0.2113 -0.3135
39124W        W47924   5.219   6.047  12.611  0.0386 -0.4340  0.0433
39125W        W47925  18.625   5.400  36.306 -0.4429  0.0192 -0.2018
39126W        W47926  18.729   4.040   2.055  0.1601 -0.1523  0.1048
39127W        W47927  11.215   5.645  37.297 -0.0353  0.0353 -0.2918
39128W        W47928  12.369   2.496  38.426  0.0540  0.3224  0.0580
39129W        W47929   1.078   5.626   8.469 -0.0426  0.3077  0.3281
39130W        W47930  11.104   0.379  34.946  0.0232  0.0081  0.0710
39131W        W47931  19.553   3.018  20.829  0.2422 -0.0169  0.3653
39132W        W47932   9.186   3.140   7.612 -0.0772 -0.1727 -0.2382
39133W        W47933  14.165   2.565  39.476  0.0869  0.1336  0.0966
39134W        W47934  20.415   5.511  13.366  0.4624  0.0036  0.2172
39135W        W47935  11.006   4.603   1.942 -0.1290 -0.3443  0.1211
39136W        W47936  20.389   2.206  29.281  0.1992 -0.0082  0.1465
39137W        W47937  20.213   5.665  44.973  0.1448 -0.0863  0.0722
39138W        W47938   9.615   3.138  17.621  0.1502  0.0174  0.0329
39139W        W47939  20.442   1.603  23.613 -0.2362  0.3172  0.0841
39140W        W47940  20.714   2.080   2.574 -0.1038 -0.0414 -0.0830
39141W        W47941  17.372   4.125  29.760  0.0166 -0.1310  0.0477
39142W        W47942   1.169   2.234   2.633  0.1229  0.1755 -0.0830
39143W        W47943  11.141   5.793  32.410 -0.1904 -0.1808 -0.1084
39144W        W47944   3.845   0.130  40.797  0.3423  0.1614  0.3440
39145W        W47945  15.467   3.161   7.716  0.1893  0.1960  0.2335
39146W        W47946   3.955   4.582  33.020  0.1531 -0.0765  0.1169
39147W        W47947   0.506   1.080  14.090 -0.4109  0.1082 -0.3033
39148W        W47948   1.432   0.788  15.271 -0.2539  0.1484  0.1666
39149W        W47949   6.455   0.589  16.940 -0.2106 -0.1426 -0.0486
39150W        W47950  13.087   4.297  41.130  0.0441  0.2287 -0.0133
39151W        W47951  13.017   2.233   6.658 -0.1026  0.1098 -0.0804
39152W        W47952  14.981   1.827   5.094 -0.0796  0.0390  0.4211
39153W        W47953  12.195   6.515  44.890  0.3149 -0.0597 -0.2249
39154W        W47954   0.007   3.460  24.684  0.2888 -0.1462  0.0696
39155W        W47955  12.613   4.348  35.351  0.0485 -0.1976  0.1828
39156W        W47956  16.780   3.002   5.518  0.0581  0.0610 -0.0331
39157W        W47957   0.912   5.161  23.811  0.0444 -0.0932  0.2800
39158W        W47958  17.458   4.267  44.815 -0.2448 -0.2488 -0.1163
39159W        W47959  10.642   0.673  16.660 -0.1977 -0.0876  0.0555
39160W        W47960  16.161   3.513  38.750  0.0458 -0.3576 -0.0753
39161W        W47961  16.669   5.318  37.639 -0.1048  0.0344 -0.2948
39162W        W47962  13.218   6.343  35.178  0.0917 -0.1276  0.0329
39163W        W47963   7.678   3.213  13.586 -0.0387 -0.3210 -0.2315
39164W        W47964   5.022   0.805  36.610  0.1540 -0.1185 -0.1417
39165W        W47965  15.945   2.950  31.286  0.1009 -0.2697 -0.3080
39166W        W47966   8.849   4.175  31.344 -0.2434  0.1265  0.0524
39167W        W47967  20.993   4.925  31.029 -0.0814 -0.1338  0.2153
39168W        W47968  17.290   2.019   6.373  0.0164 -0.1133 -0.0530
39169W        W47969   4.183   4.039   9.396 -0.1042 -0.1573  0.1958
39170W        W47970   3.499   6.019  17.064  0.3677 -0.1436 -0.2300
39171W        W47971   6.565   0.982  34.398 -0.0365  0.0618  0.1740
39172W        W47972   6.227   1.271  41.083 -0.1934 -0.0279 -0.0770
39173W        W47973  16.367   0.007   7.744  0.2149 -0.0422  0.0322
39174W        W47974   6.363   4.431  21.144 -0.0504 -0.3151  0.1708
39175W        W47975   2.102   2.611  35.986 -0.0480  0.1054 -0.1114
39176W        W47976  14.234   2.321  40.623  0.0752 -0.0394 -0.1096
39177W        W47977   1.775   2.452  11.983 -0.1681  0.0061 -0.0116
39178W        W47978  20.600   5.930  26.536  0.2232  0.1491  0.0527
39179W        W47979  12.802   1.509   8.153  0.1105 -0.1200 -0.1839
39180W        W47980   9.687   6.296  21.296 -0.2505 -0.0149  0.0014
39181W        W47981  10.543   5.764  36.544  0.0307  0.0876 -0.1956
39182W        W47982   0.161   2.351   7.008 -0.0495 -0.2820  0.1621
39183W        W47983  12.089   4.173  29.811 -0.4398 -0.0755  0.2291
39184W        W47984  14.777   1.650   6.032 -0.1081 -0.0259 -0.2008
39185W        W47985  16.543   0.222  41.362 -0.1831 -0.0189 -0.0009
39186W        W47986   6.555   1.423  17.616  0.0965 -0.3288  0.0890
39187W        W47987   8.624   4.506  35.186 -0.3256  0.0452 -0.1800
39188W        W47988  12.213   3.771  29.019  0.0788  0.4426 -0.1705
39189W        W47989   5.931   5.580  11.932 -0.0552  0.0421 -0.0991
39190W        W47990  17.893   0.131  23.006 -0.0157 -0.3280 -0.1788
39191W        W47991   8.895   2.112  18.537 -0.0632 -0.1407  0.0282
39192W        W47992   4.824   1.362  27.257  0.0825  0.1673 -0.2126
39193W        W47993  18.478   3.057  44.241  0.0831  0.0288 -0.4692
39194W        W47994  14.048   0.893   0.774 -0.0471  0.2344 -0.0714
39195W        W47995  11.167   0.664  18.003 -0.0468  0.1806  0.1165
39196W        W47996  17.479   1.675   6.065 -0.1292  0.0311 -0.1735
39197W        W47997  17.896   0.153  11.072 -0.2843  0.2235  0.1037
39198W        W47998  16.862   3.383  41.732 -0.0729  0.2821  0.0455
39199W        W47999   1.612   4.115  29.377  0.0488 -0.0365 -0.1363
39200W        W48000  18.725   5.564  12.782 -0.1570  0.2131  0.1209
39201W        W48001  17.781   4.126  32.972  0.0295  0.1228 -0.2312
39202W        W48002   1.633   1.698  15.470  0.2378  0.1666 -0.1309
39203W        W48003   1.784   5.831  14.235  0.0984 -0.0368 -0.0960
39204W        W48004   4.654   3.793  43.191  0.2355  0.0579  0.0996
39205W        W48005  12.316   4.293  11.706 -0.2998  0.1137  0.0418
39206W        W48006  15.927   1.821  31.848  0.3075 -0.3890 -0.1381
39207W        W48007  12.024   1.789  41.364 -0.0845  0.0728 -0.0989
39208W        W48008  17.717   3.339  38.278  0.2153 -0.0774 -0.2348
39209W        W48009   1.656   0.124  24.143  0.1096 -0.3349  0.0038
39210W        W48010  14.912   5.811  15.768  0.2417 -0.2431 -0.0953
39211W        W48011  20.428   5.053  10.504 -0.1323  0.3252  0.1551
39212W        W48012  16.677   3.697  29.831  0.0010  0.1176  0.1573
39213W        W48013  14.546   6.151  10.456  0.0488  0.0570  0.0097
39214W        W48014  20.529   1.169  39.987  0.1405 -0.3207 -0.2616
39215W        W48015   1.656   3.102  31.962 -0.0428 -0.0053 -0.0451
39216W        W48016   7.483   4.301  19.811  0.2391  0.0646  0.0243
39217W        W48017  18.936   5.984   5.697 -0.1343  0.1461  0.0291
39218W        W48018   5.273   5.134  14.668  0.1473  0.2261 -0.0588
39219W        W48019  13.785   0.957   5.021  0.1619  0.2426  0.1036
39220W        W48020   9.264   0.915   6.490  0.1173  0.1937 -0.2879
39221W        W48021  13.093   1.686  18.955 -0.0435 -0.0219 -0.1266
39222W        W48022   4.001   3.064  32.566  0.2223  0.0734 -0.1780
39223W        W48023   2.421   6.215  39.987 -0.1173 -0.1796  0.0081
39224W        W48024   7.621   6.324  22.734 -0.2227 -0.2011 -0.1207
39225W        W48025  16.172   2.345   9.601  0.1512 -0.0991  0.2281
39226W        W48026   7.534   5.645   5.955 -0.0792 -0.0105 -0.2116
39227W        W48027  10.367   0.442  21.314 -0.1048  0.0155  0.1856
39228W        W48028  17.066   5.573  15.107  0.0358 -0.1132 -0.1188
39229W        W48029  12.133   4.814  42.162 -0.4216 -0.2847 -0.0084
39230W        W48030  14.428   4.032  17.634 -0.2549 -0.1291  0.0140
39231W        W48031   4.251   5.823  38.911  0.1023  0.3043 -0.0276
39232W        W48032  20.854   2.827  38.388  0.4501  0.2363  0.1507
39233W        W48033  10.348   2.835  29.527  0.0295  0.2066 -0.1838
39234W        W48034  10.271   3.143  31.931 -0.1187  0.0997  0.4943
39235W        W48035  21.052   6.013  23.768  0.1650 -0.0311 -0.0283
39236W        W48036   9.208   4.449   6.472  0.1276 -0.1735  0.3200
39237W        W48037   4.585   2.595  16.509  0.0051 -0.0125 -0.1704
39238W        W48038  17.747   5.284  38.948  0.0230  0.1318 -0.3921
39239W        W48039  10.031   6.457   2.819 -0.4455 -0.2067 -0.2563
39240W        W48040  15.798   5.624  12.658  0.0400  0.1770 -0.1156
39241W        W48041   3.522   3.285  35.859 -0.0490 -0.0112  0.1209
39242W        W48042   1.411   4.688  23.188  0.1277 -0.1953  0.2983
39243W        W48043  20.405   3.682  37.666 -0.1485  0.0558  0.0868
39244W        W48044  10.733   0.031   3.087 -0.0970  0.1516 -0.2728
39245W        W48045   5.990   0.807  19.810 -0.5050 -0.1633  0.1434
39246W        W48046  19.731   0.429   4.851 -0.0173 -0.1534 -0.1698
39247W        W48047   8.919   3.034  11.683  0.5177 -0.2595 -0.1579
39248W        W48048  17.521   2.899  29.291  0.0496 -0.3147 -0.2122
39249W        W48049  13.292   4.816  42.108 -0.1495  0.2545 -0.1663
39250W        W48050  10.804   4.854  21.361  0.1753  0.0129 -0.0218
39251W        W48051  13.737   4.103   1.618 -0.1268 -0.1078  0.2176
39252W        W48052  20.700   2.161  31.802  0.0231 -0.0595  0.1079
39253W        W48053   7.720   4.379  30.853  0.1537 -0.4647 -0.1252
39254W        W48054  10.756   2.365  16.518 -0.0287  0.1807 -0.2372
39255W        W48055  16.521   4.888  36.801 -0.1596 -0.0353  0.0751
39256W        W48056   0.439   4.740   7.380  0.0599 -0.2424  0.0487
39257W        W48057  13.798   6.153  14.328 -0.0629  0.0744 -0.0015
39258W        W48058  12.987   3.335  39.459 -0.1353  0.0597  0.0327
39259W        W48059   8.088   4.643   5.176  0.0333 -0.0721  0.1613
39260W        W48060   0.209   0.030  33.300 -0.0904 -0.0916  0.0987
39261W        W48061  17.505   6.277  12.631  0.2295 -0.2706 -0.0587
39262W        W48062   5.868   1.646  35.621 -0.1012 -0.3608  0.3843
39263W        W48063   0.796   1.333  38.850  0.1550  0.0979 -0.3274
39264W        W48064   9.783   0.142  17.408  0.1560  0.0333  0.1164
39265W        W48065  12.629   2.886  41.111 -0.0594 -0.2126  0.0519
39266W        W48066  18.903   3.585  41.670  0.3669  0.2590  0.0477
39267W        W48067   5.688   0.289  35.538  0.2341 -0.2890  0.0638
39268W        W48068   4.098   4.406  17.795 -0.4489  0.1739 -0.3102
39269W        W48069  16.365   2.220   4.614  0.0498 -0.1394 -0.2231
39270W        W48070   8.214   2.677  10.311  0.2655  0.2495 -0.0239
39271W        W48071  19.854   4.256  11.822 -0.1929  0.0882  0.0065
39272W        W48072  17.008   1.496   7.965  0.0338  0.1938  0.1562
39273W        W48073   4.666   2.506  40.295 -0.0963 -0.0019  0.0904
39274W        W48074   0.529   6.161  24.747  0.3137 -0.3245  0.2930
39275W        W48075  20.572   0.183  28.525  0.1891 -0.1009 -0.0182
39276W        W48076   3.597   1.191  18.869 -0.0658  0.0784 -0.0428
39277W        W48077  14.899   2.251   3.281  0.3496 -0.2129  0.1906
39278W        W48078  19.752   2.882  37.153 -0.2115  0.0458  0.1196
39279W        W48079   7.479   0.702  22.477 -0.3202  0.1844  0.2276
39280W        W48080  18.460   1.918  33.740 -0.1227 -0.3505 -0.2764
39281W        W48081   8.564   5.874   1.151  0.1715  0.2892 -0.1808
39282W        W48082  13.180   0.228  44.761 -0.1079 -0.0609 -0.0219
39283W        W48083   0.044   5.734  41.887  0.1701 -0.1859  0.1724
39284W        W48084   1.835   6.246   1.903 -0.1032 -0.3790 -0.0205
39285W        W48085   1.330   1.908  10.820 -0.1121  0.0385 -0.1332
39286W        W48086  16.386   3.468  42.139 -0.2942 -0.2464 -0.0014
39287W        W48087   9.775   1.644   1.416  0.4043 -0.0241  0.3248
39288W        W48088  17.985   2.546  15.768 -0.0277  0.2054 -0.0870
39289W        W48089   7.297   4.910  15.686  0.1551 -0.1962  0.1110
39290W        W48090  20.487   2.608  31.914 -0.0254  0.0995 -0.2053
39291W        W48091  15.595   1.533  29.559  0.0354 -0.1215 -0.0821
39292W        W48092   6.191   4.415  32.585  0.0749 -0.2626  0.1391
39293W        W48093  14.146   4.529  44.044  0.4494  0.1252 -0.2665
39294W        W48094  10.856   1.014  40.730 -0.3567 -0.4283  0.2203
39295W        W48095   8.139   0.559  32.398 -0.1340 -0.2136 -0.0509
39296W        W48096  14.529   5.118  41.294  0.1993 -0.1904  0.0255
39297W        W48097  15.315   1.412  42.499 -0.2990  0.0404  0.4122
39298W        W48098   5.168   2.318  37.501  0.1099  0.1378  0.0233
39299W        W48099   8.968   1.968  39.902 -0.1274  0.1779 -0.2658
39300W        W48100   6.054   1.772  44.216 -0.0949  0.1131 -0.0650
39301W        W48101   1.394   0.937   9.473 -0.3717  0.0232 -0.3372
39302W        W48102   2.476   2.634  37.955 -0.0862  0.0509 -0.0032
39303W        W48103   2.954   0.797  41.483  0.4235  0.0333  0.0349
39304W        W48104  16.115   0.864  25.655 -0.3702 -0.0703 -0.0431
39305W        W48105   0.514   0.610  32.764 -0.1173  0.2154 -0.0336
39306W        W48106  14.957   5.224  42.138 -0.0007  0.0462  0.3209
39307W        W48107  15.627   1.111  41.674  0.1443 -0.2218  0.0892
39308W        W48108  19.872   5.864  32.035 -0.0992  0.2095 -0.0669
39309W        W48109  19.544   3.811   7.678 -0.0940 -0.1368 -0.1721
39310W        W48110   3.884   6.541  31.639 -0.3209  0.0329  0.0220
39311W        W48111  13.196   2.991  18.515  0.1227 -0.0921 -0.3338
39312W        W48112  19.064   4.050  38.771  0.1543  0.0300 -0.1836
39313W        W48113   6.361   1.495  41.551 -0.4636 -0.2032  0.1780
39314W        W48114   3.955   5.265   2.247  0.1780  0.2484 -0.0466
39315W        W48115  12.777   4.447  33.604 -0.0482  0.0874 -0.0280
39316W        W48116   3.468   2.052  12.263  0.0481 -0.0839 -0.1375
39317W        W48117  12.119   5.330  35.556  0.0635  0.0930 -0.0096
39318W        W48118   0.088   5.290  44.923 -0.1431 -0.0400  0.1464
39319W        W48119   6.313   5.713  15.311 -0.3007  0.0806 -0.3675
39320W        W48120   7.026   4.187  19.736  0.2556  0.2303  0.0871
39321W        W48121  17.236   4.796  23.385  0.2170 -0.1524  0.0782
39322W        W48122   8.195   4.023  12.704  0.1227 -0.1955  0.2323
39323W        W48123   0.248   1.705   6.405 -0.0619 -0.2525 -0.0853
39324W        W48124   9.753   1.084  30.680  0.0140 -0.0698  0.1733
39325W        W48125   6.983   0.906   4.170  0.3736 -0.2099  0.1515
39326W        W48126  17.209   3.348  36.277  0.0739 -0.0376  0.3424
39327W        W48127  13.845   0.734  37.304 -0.2613  0.0848 -0.1947
39328W        W48128  13.766   4.224  34.028  0.2077 -0.1186  0.0210
39329W        W48129   9.136   5.056  13.724 -0.0606 -0.2424 -0.2377
39330W        W48130   8.868   0.331   2.355 -0.1268 -0.0877 -0.2014
39331W        W48131  18.827   4.537  45.051  0.0908  0.0867  0.2008
39332W        W48132   7.123   1.864  12.128  0.2797 -0.1472  0.0920
39333W        W48133   0.812   3.837  27.353 -0.2629 -0.0410 -0.1402
39334W        W48134   6.612   4.024   2.617  0.3788  0.0075  0.1897
39335W        W48135  17.542   6.162   1.834  0.0735  0.0677  0.1405
39336W        W48136  21.068   0.435  10.177  0.1098  0.2120  0.0684
39337W        W48137  16.826   3.884  42.243  0.0578  0.1940  0.0050
39338W        W48138  14.673   2.300  38.669  0.1643 -0.3187 -0.1399
39339W        W48139  15.706   4.371   1.615  0.1449  0.1111 -0.0316
39340W        W48140  18.094   2.918  43.338  0.2861 -0.0195 -0.1834
39341W        W48141  14.420   3.085  13.738  0.2047 -0.3056 -0.2807
39342W        W48142   6.732   4.171  15.709 -0.2735 -0.2830  0.0790
39343W        W48143  14.231   0.276   2.044 -0.0361  0.2708 -0.0160
39344W        W48144   9.284   3.504   6.911  0.0588  0.2162  0.1621
39345W        W48145  17.587   4.022  40.605 -0.1875 -0.0576  0.2190
39346W        W48146   7.278   1.413  21.292 -0.1838 -0.1086 -0.2600
39347W        W48147   1.973   5.469  26.690  0.2910  0.2807  0.4461
39348W        W48148  18.149   4.631   3.122 -0.1203 -0.2317  0.0639
39349W        W48149   5.597   0.863  36.545 -0.0421 -0.0831 -0.0368
39350W        W48150  11.314   3.347   0.855  0.0519  0.2090  0.0512
39351W        W48151   9.426   6.334   1.588  0.0706  0.2468  0.1233
39352W        W48152  18.982   5.770  38.348  0.0539 -0.0848  0.2692
39353W        W48153  12.296   0.347  43.562 -0.1963  0.0631  0.3055
39354W        W48154   2.387   1.513  35.571  0.0798 -0.2061 -0.3490
39355W        W48155  16.713   2.401  28.172  0.0879  0.1441 -0.1287
39356W        W48156  16.647   4.480  38.373 -0.5524 -0.0586  0.4108
39357W        W48157   4.309   0.883   9.910 -0.2054 -0.0994 -0.1676
39358W        W48158  20.610   6.573   0.145 -0.0161 -0.4657 -0.0157
39359W        W48159   5.425   3.309   7.509  0.0563 -0.2364 -0.0302
39360W        W48160   8.095   5.387   8.503 -0.1274  0.3032  0.0462
39361W        W48161   5.762   3.400  14.490 -0.1310  0.0442 -0.0754
39362W        W48162   2.167   0.602  30.166 -0.1117 -0.0167 -0.0116
39363W        W48163   1.713   6.257  42.608 -0.0400 -0.4198  0.0681
39364W        W48164   0.908   0.712  14.715 -0.0635 -0.0566 -0.1505
39365W        W48165   1.995   3.789  10.726 -0.3794 -0.2169 -0.2178
39366W        W48166   8.757   1.390  10.142  0.0433 -0.0107 -0.2813
39367W        W48167  16.203   0.111  14.058 -0.0384  0.2375 -0.0534
39368W        W48168   0.055   5.051   0.877  0.0090  0.0808 -0.1177
39369W        W48169   7.486   4.739  18.948  0.4128 -0.0381 -0.1211
39370W        W48170  11.957   1.344  33.929 -0.1974  0.0223 -0.0524
39371W        W48171   6.547   4.341  42.653 -0.1967 -0.0591  0.0182
39372W        W48172  17.799   2.509  43.356 -0.0034  0.2706  0.2082
39373W        W48173   8.112   2.003  21.029  0.1387  0.0124 -0.2730
39374W        W48174   0.865   5.494   2.181  0.0609 -0.0533 -0.1942
39375W        W48175   2.392   1.307  32.109 -0.0113  0.1717 -0.0553
39376W        W48176  10.490   5.001   9.630 -0.0478  0.0497 -0.0183
39377W        W48177  19.579   1.772  32.378  0.0301  0.0906 -0.0269
39378W        W48178   5.761   6.087  33.642 -0.4362  0.0280  0.1650
39379W        W48179   7.805   2.417  42.430 -0.1795 -0.0510 -0.0444
39380W        W48180  13.144   4.828  37.886  0.2812 -0.0659  0.3414
39381W        W48181   8.837   2.404  34.196  0.1797 -0.0319 -0.2009
39382W        W48182  16.194   2.180  28.357 -0.0369  0.0118  0.1674
39383W        W48183   7.906   0.557  13.071  0.1243 -0.1767  0.0119
39384W        W48184   4.461   6.235  35.413 -0.0929 -0.0069  0.2450
39385W        W48185  14.694   1.141  16.947 -0.2074 -0.1618  0.0063
39386W        W48186  18.135   2.632  10.250  0.0993  0.0265 -0.2688
39387W        W48187  18.571   4.571   3.358  0.1176  0.2105 -0.0558
39388W        W48188  13.523   1.256  19.396  0.0357  0.1423 -0.1296
39389W        W48189  18.951   2.613  11.023 -0.0404 -0.3727  0.1166
39390W        W48190   5.801   1.375  18.130  0.0408  0.1621 -0.2815
39391W        W48191   7.237   3.985  39.663  0.0120 -0.0549  0.4624
39392W        W48192  16.964   4.044   3.445  0.5335  0.2049 -0.2342
39393W        W48193  20.919   5.795   8.037 -0.1147  0.1063  0.0031
39394W        W48194   7.007   0.458  16.772 -0.0998 -0.0800 -0.0354
39395W        W48195  17.401   5.757  35.681  0.0254  0.1485  0.0310
39396W        W48196  11.560   0.187  37.507 -0.0147  0.0340  0.1564
39397W        W48197   0.941   1.908   4.580 -0.1552 -0.0826 -0.1918
39398W        W48198  10.911   1.638  29.817  0.3855  0.0557 -0.3398
39399W        W48199  15.030   3.490   4.088 -0.0394  0.1258 -0.0986
39400W        W48200   0.965   3.252  34.338 -0.1440 -0.0936 -0.2218
39401W        W48201  15.822   3.106   5.433 -0.3626 -0.2013 -0.1414
39402W        W48202   2.277   4.949  43.098 -0.3945 -0.1196 -0.0534
39403W        W48203   4.027   0.434  42.034 -0.2594 -0.0211  0.1057
39404W        W48204  18.444   4.258  22.062 -0.0232  0.1693  0.1385
39405W        W48205  18.670   3.610  19.927  0.2442  0.0519  0.0098
39406W        W48206   4.285   4.912  40.297  0.2144  0.0857  0.1690
39407W        W48207  10.413   6.361  16.831  0.2203 -0.0886  0.2717
39408W        W48208  19.246   3.949  25.521  0.0058  0.3211  0.2412
39409W        W48209   6.193   3.906   8.874  0.0907 -0.1613 -0.1394
39410W        W48210   3.051   5.050  35.231 -0.0339 -0.3996 -0.1833
39411W        W48211   7.357   2.666   9.784 -0.0803 -0.0993  0.2374
39412W        W48212   8.690   3.754  14.652  0.1475 -0.1119 -0.2559
39413W        W48213  13.027   0.538  13.499 -0.0243  0.0105  0.0201
39414W        W48214  16.836   2.344  35.520 -0.0950 -0.1978  0.2528
39415W        W48215  20.534   6.140   7.814 -0.1308  0.2079 -0.0364
39416W        W48216  16.132   1.384  28.004  0.0677 -0.1077 -0.1098
39417W        W48217   8.288   0.590  39.829  0.2054 -0.0216  0.2396
39418W        W48218   4.910   5.447  41.276  0.1246  0.0143  0.2505
39419W        W48219   5.258   4.643   7.748 -0.2083  0.2700  0.3266
39420W        W48220   4.104   3.113  40.769  0.1364  0.2347  0.0387
39421W        W48221   5.498   5.276  39.746 -0.1148  0.1060 -0.0179
39422W        W48222  14.742   1.816  33.452 -0.4021 -0.0551  0.3674
39423W        W48223  20.364   0.615  25.292  0.1126 -0.1949 -0.1761
39424W        W48224   1.271   5.136   9.557  0.1611  0.1697  0.0504
39425W        W48225  10.239   1.838  20.952 -0.0717  0.0295 -0.1117
39426W        W48226   9.896   0.843  43.138  0.0631 -0.1607  0.5694
39427W        W48227   9.559   3.313  41.258  0.0239 -0.2236  0.1971
39428W        W48228  18.016   3.787  11.718 -0.1965  0.2121 -0.0152
39429W        W48229  17.938   5.797  37.403 -0.0434  0.0166 -0.3372
39430W        W48230  10.612   0.576  34.435  0.0941 -0.3221 -0.2325
39431W        W48231   6.603   1.509  12.842 -0.4732 -0.2842 -0.0841
39432W        W48232   7.612   4.197  18.764 -0.0152  0.4423 -0.0812
39433W        W48233   3.451   1.297  15.073 -0.2359 -0.0011  0.3483
39434W        W48234   9.544   6.056  16.400 -0.1015  0.0609  0.0517
39435W        W48235  19.859   1.917  36.970  0.1802  0.1803 -0.0072
39436W        W48236  18.181   3.983  37.717 -0.1039  0.2186 -0.1103
39437W        W48237   7.756   3.254   7.619  0.0889 -0.0636 -0.0422
39438W        W48238  18.201   1.362  10.404  0.2758  0.2407  0.2318
39439W        W48239  12.211   1.594  39.582 -0.0568  0.1208 -0.2771
39440W        W48240  16.320   1.722   0.613  0.1753  0.1493 -0.2662
39441W        W48241   7.626   5.623   0.653  0.2892 -0.1835 -0.0695
39442W        W48242  16.405   5.488  31.134  0.0038  0.0096  0.1283
39443W        W48243  16.347   2.782  40.295 -0.2579 -0.1332 -0.1725
39444W        W48244   2.913   6.166  13.254  0.2510  0.0914 -0.1407
39445W        W48245   2.832   4.752  37.100  0.1423  0.2385 -0.0142
39446W        W48246  20.532   0.433  27.869 -0.0490  0.2142  0.2044
39447W        W48247  10.103   3.300  29.912  0.0204 -0.0353  0.0520
39448W        W48248   5.559   5.841  10.603  0.2177  0.0150 -0.0311
39449W        W48249  14.931   5.186  29.978  0.0793 -0.1343  0.2556
39450W        W48250   2.009   2.073  38.286 -0.1931 -0.0336 -0.0457
39451W        W48251  20.188   4.748  36.953 -0.1441 -0.0430  0.0746
39452W        W48252  18.168   2.505  13.086 -0.0863 -0.3228 -0.0718
39453W        W48253   9.626   5.653  17.825 -0.1691  0.2346  0.3440
39454W        W48254   5.752   6.118  39.282 -0.0356 -0.1077 -0.1922
39455W        W48255   9.246   4.240  42.342 -0.1955 -0.0703  0.3173
39456W        W48256  17.896   2.167  33.656 -0.2729 -0.3026  0.0071
39457W        W48257   1.794   3.012  33.334  0.2281 -0.0154  0.2577
39458W        W48258   1.321   0.843  29.623 -0.0157  0.0823 -0.2210
39459W        W48259  19.704   4.060  38.106  0.0428  0.0422 -0.1148
39460W        W48260  13.270   0.760  15.826  0.2489 -0.2046 -0.0067
39461W        W48261  10.161   2.421   9.664  0.1767 -0.0300  0.0929
39462W        W48262  14.414   0.510  13.438  0.2799  0.1151  0.2728
39463W        W48263  15.690   1.232  26.365  0.3147 -0.1180 -0.0163
39464W        W48264   9.761   0.655  17.549 -0.3068 -0.1054 -0.0398
39465W        W48265   9.543   3.854  41.098 -0.0127 -0.0303  0.0965
39466W        W48266  17.925   2.285  30.444  0.0569  0.4154 -0.0055
39467W        W48267   5.507   4.437  17.697 -0.1266 -0.2362  0.0680
39468W        W48268   0.177   1.914  24.760 -0.0931 -0.3078 -0.1178
39469W        W48269  20.392   4.592  36.065  0.0330 -0.1571  0.1779
39470W        W48270   6.131   6.532  35.593 -0.0130  0.0505  0.0019
39471W        W48271  16.743   1.841  14.373 -0.1322 -0.1913 -0.0608
39472W        W48272  19.942   0.787  32.243 -0.1208 -0.0530 -0.1106
39473W        W48273  11.066   1.921  36.497  0.0061  0.0443  0.0642
39474W        W48274  12.195   2.905  31.120  0.1649 -0.4603 -0.0474
39475W        W48275  12.429   0.387  10.295 -0.1193 -0.2471  0.2703
39476W        W48276  10.274   2.361  30.223 -0.0973  0.1289 -0.1023
39477W        W48277   4.096   2.495  40.649  0.0878 -0.1064 -0.1262
39478W        W48278   5.701   0.025  32.974 -0.0031 -0.3294 -0.2611
39479W        W48279   7.860   0.062  41.811  0.1717 -0.0279  0.1141
39480W        W48280   5.070   5.850  28.606  0.1427 -0.0126  0.0073
39481W        W48281  11.106   2.831   5.283  0.0493  0.2720  0.1883
39482W        W48282  11.983   3.454  17.294  0.0140  0.3487  0.1286
39483W        W48283  10.963   2.027  12.165  0.0457  0.1116 -0.0704
39484W        W48284   0.412   2.296  37.505 -0.0934  0.1164 -0.2337
39485W        W48285   4.143   2.761   3.210 -0.1927 -0.2740 -0.1320
39486W        W48286   1.453   0.327  39.366  0.1506 -0.0811 -0.2030
39487W        W48287  20.065   2.829  39.005 -0.0641 -0.1080 -0.1384
39488W        W48288   1.407   1.130   5.889  0.2386 -0.1301  0.3498
39489W        W48289  15.992   0.891  32.245 -0.0969 -0.1233  0.2469
39490W        W48290   8.282   1.038   4.134 -0.2227 -0.2162 -0.3160
39491W        W48291  11.704   5.726  29.658  0.2808  0.1483  0.1082
39492W        W48292  13.821   1.458  29.936 -0.6048 -0.1429  0.3583
39493W        W48293  17.561   0.316  36.230  0.0977 -0.1931 -0.1489
39494W        W48294   4.504   1.564   4.891 -0.2562  0.0438 -0.0459
39495W        W48295   6.777   0.280  17.214  0.0667 -0.1915  0.0026
39496W        W48296  13.202   0.899  29.711 -0.0702 -0.0412  0.1453
39497W        W48297   3.214   5.921  29.876 -0.0246 -0.0670  0.1483
39498W        W48298  19.077   2.055  21.874  0.3002 -0.1676 -0.1525
39499W        W48299  12.410   2.679  10.039  0.1497 -0.0049  0.0110
39500W        W48300   2.124   3.708  42.468 -0.0509  0.0887 -0.4295
39501W        W48301  14.753   3.909   7.802  0.0872  0.0697 -0.0757
39502W        W48302  20.424   1.920  22.793  0.1130 -0.0587 -0.2161
39503W        W48303  13.132   2.353   3.696 -0.0575 -0.3135 -0.0315
39504W        W48304  15.961   6.411   9.502 -0.2333  0.3770 -0.3656
39505W        W48305   0.863   0.175  14.649 -0.0459 -0.0526 -0.0927
39506W        W48306  21.029   2.954  13.722  0.1405 -0.3103 -0.0096
39507W        W48307   1.873   2.181   8.206 -0.0543  0.0412 -0.1809
39508W        W48308  19.191   0.194  32.572  0.1654  0.0528  0.2191
39509W        W48309  15.269   4.873  13.252 -0.0348 -0.1984  0.2179
39510W        W48310   9.540   2.283  38.015 -0.0849  0.0981  0.3029
39511W        W48311  20.405   5.794  30.217  0.3883 -0.0424 -0.0504
39512W        W48312  13.810   5.663  18.644  0.2238 -0.2453 -0.0946
39513W        W48313   7.241   4.061  12.328  0.2025  0.1217  0.1627
39514W        W48314   5.900   6.228  40.512  0.0370  0.0741 -0.3116
39515W        W48315   9.352   1.291  18.952  0.1378  0.1944 -0.1643
39516W        W48316   7.951   4.123  42.931 -0.2513 -0.2447  0.2093
39517W        W48317   1.835   4.272  44.082  0.2631 -0.1273  0.3927
39518W        W48318   4.105   5.764   7.682 -0.0605 -0.1438  0.3472
39519W        W48319  14.950   5.847  13.887 -0.0115 -0.0967 -0.1150
39520W        W48320  19.742   3.615   8.208  0.0361  0.0169  0.1071
39521W        W48321   4.007   5.811  44.638  0.2185 -0.0592  0.3813
39522W        W48322  18.240   1.662   2.445  0.1658 -0.2137 -0.0073
39523W        W48323   9.140   4.795   0.558 -0.0828 -0.0484  0.0782
39524W        W48324  11.289   3.854   6.634  0.2633 -0.2060  0.1583
39525W        W48325  19.540   4.765  14.762 -0.1228 -0.1165 -0.0104
39526W        W48326  20.977   4.749  41.932 -0.0284  0.2888 -0.1771
39527W        W48327   9.008   1.607  16.187  0.0656 -0.2171  0.1273
39528W        W48328   7.955   1.580  16.549  0.4146  0.0390 -0.0697
39529W        W48329   2.227   5.393  32.063 -0.0186  0.1532 -0.0199
39530W        W48330   6.660   5.578  10.583 -0.1521 -0.3360  0.1683
39531W        W48331  15.474   2.057  44.899  0.0328 -0.2144  0.0248
39532W        W48332   2.034   1.181   2.926  0.3057  0.0277  0.2693
39533W        W48333   8.591   3.539  41.478  0.2493  0.1853  0.1551
39534W        W48334   4.764   5.839  15.215  0.0764 -0.1737  0.2512
39535W        W48335   2.620   2.156  16.337  0.0497 -0.0911  0.1032
39536W        W48336   6.184   2.141  11.792  0.0898 -0.0882 -0.0817
39537W        W48337  16.430   1.134  42.934 -0.0448 -0.0545  0.0318
39538W        W48338   9.190   4.784  30.624  0.2745  0.1119  0.0614
39539W        W48339   0.140   3.073  44.818 -0.2576 -0.1576 -0.2283
39540W        W48340   9.930   3.418   4.139  0.0552  0.0629 -0.0127
39541W        W48341   5.672   0.872  37.902  0.1204 -0.2343 -0.0973
39542W        W48342   3.048   0.441  14.092 -0.2764  0.2177  0.0394
39543W        W48343   5.494   1.778   2.013 -0.0295 -0.1258  0.2855
39544W        W48344  12.738   4.868  33.167  0.0584 -0.1646  0.0461
39545W        W48345   5.660   2.328  31.870 -0.1912 -0.0362 -0.0155
39546W        W48346   6.382   2.743   8.060  0.3535  0.0478 -0.2123
39547W        W48347   2.454   3.437  32.776 -0.0547  0.2228 -0.2490
39548W        W48348  10.184   6.288  36.179 -0.1317  0.1828  0.0249
39549W        W48349  12.734   1.459   8.647  0.1610  0.2605  0.2033
39550W        W48350  10.354   1.053  13.108  0.1402 -0.0935 -0.1244
39551W        W48351  15.216   1.028  14.216  0.1639 -0.0504  0.1024
39552W        W48352  19.765   4.647  33.824  0.0149  0.0942 -0.0671
39553W        W48353   0.509   4.026   3.309  0.1452  0.2563  0.1716
39554W        W48354  10.309   5.316  35.871  0.0326  0.3015  0.1200
39555W        W48355  17.593   4.601  38.114 -0.3435  0.3433 -0.0693
39556W        W48356   8.894   2.290  41.409 -0.0180  0.0402 -0.0499
39557W        W48357  19.143   4.311  30.396  0.0371  0.0304  0.0105
39558W        W48358   9.527   4.017   0.167  0.0096  0.4190 -0.1291
39559W        W48359  13.417   1.169  41.546 -0.1521 -0.2483  0.0212
39560W        W48360  15.635   5.742  30.981  0.0713  0.1237 -0.0401
39561W        W48361   0.091   5.822  21.734  0.0596  0.1441  0.1960
39562W        W48362   6.056   4.550  44.961  0.0458 -0.1618  0.1566
39563W        W48363  15.026   6.181  11.699 -0.4586 -0.0438  0.0274
39564W        W48364   2.718   1.955   1.173  0.1077  0.1781  0.1312
39565W        W48365  20.312   6.484  13.859 -0.1063 -0.2605 -0.1164
39566W        W48366  16.215   4.702   5.949  0.1512 -0.0905 -0.2145
39567W        W48367  20.131   0.294  28.249 -0.0748  0.0372  0.2963
39568W        W48368  17.282   1.024  29.126 -0.3053 -0.1654  0.2057
39569W        W48369   3.578   5.874   9.749  0.0722 -0.1405  0.1338
39570W        W48370  16.420   5.139   2.670 -0.0529 -0.1481  0.1218
39571W        W48371   6.157   0.622   5.654  0.3571  0.0210  0.3505
39572W        W48372  18.781   1.179   9.143 -0.2399  0.3540 -0.2808
39573W        W48373   0.861   4.287  37.670  0.2551 -0.2472  0.0160
39574W        W48374   6.751   3.998   9.749 -0.0863  0.0962 -0.1093
39575W        W48375   4.414   5.859   5.255 -0.2547 -0.0648 -0.1443
39576W        W48376  11.549   5.939  17.433 -0.1093 -0.2511  0.2184
39577W        W48377   9.233   6.315  42.452 -0.0460  0.0536  0.1908
39578W        W48378   2.488   2.965  40.966 -0.2593 -0.2186  0.2311
39579W        W48379   5.662   5.591   4.987 -0.0267  0.3065 -0.1272
39580W        W48380  16.099   0.329  16.274  0.2805  0.0609 -0.0849
39581W        W48381   1.654   4.728   3.665  0.1769  0.0777  0.0852
39582W        W48382  13.345   3.485  38.530  0.2343 -0.1019 -0.2539
39583W        W48383   3.610   2.537  35.476 -0.2381  0.1095  0.0889
39584W        W48384  13.287   4.824  32.242  0.1147 -0.0752  0.1402
39585W        W48385  20.274   4.731   7.078 -0.0018  0.1218 -0.0225
39586W        W48386   4.713   4.364  17.592  0.0499 -0.2250  0.0329
39587W        W48387  16.531   3.688  13.428 -0.0363 -0.0272 -0.1496
39588W        W48388   6.512   3.993  12.353 -0.0647  0.2115  0.2542
39589W        W48389  18.046   0.575   4.117 -0.0912 -0.1008  0.3326
39590W        W48390  17.504   3.065   0.704  0.1082  0.0723  0.2097
39591W        W48391  15.143   6.252   0.260 -0.1794  0.3627  0.2660
39592W        W48392   2.368   3.640  27.270  0.0118 -0.0877  0.1854
39593W        W48393   6.933   1.834  38.040  0.2033 -0.2935 -0.3796
39594W        W48394  11.457   1.253  32.004 -0.2067 -0.1892  0.0570
39595W        W48395   6.975   1.321   1.845  0.1223 -0.1800  0.0079
39596W        W48396  10.743   4.475  41.396 -0.0235  0.2405  0.1946
39597W        W48397  14.003   1.466  13.093  0.1414 -0.1190  0.0860
39598W        W48398   2.472   5.527  37.708  0.1607 -0.2910 -0.2286
39599W        W48399  10.023   1.700  30.120  0.2148  0.2083 -0.0422
39600W        W48400  19.683   0.522  29.551 -0.0092  0.2866  0.1893
39601W        W48401   8.958   4.173  15.007 -0.3033 -0.3361 -0.2304
39602W        W48402  11.981   0.689  39.822  0.0393  0.0534 -0.2200
39603W        W48403  14.705   3.988  26.069 -0.2667  0.1174  0.0536
39604W        W48404   5.215   5.615  31.918 -0.2034  0.2777 -0.3480
39605W        W48405  16.173   1.519  11.280 -0.2092 -0.1089 -0.1432
39606W        W48406  11.553   4.405   1.272  0.0330 -0.1855 -0.3195
39607W        W48407   3.432   1.402   1.813 -0.1855  0.0972 -0.0148
39608W        W48408  17.228   5.993  44.816 -0.1591  0.0642 -0.0950
39609W        W48409   7.319   3.001   1.131 -0.0013  0.2226 -0.0641
39610W        W48410  21.051   3.228  32.258  0.0252  0.0545 -0.2864
39611W        W48411  18.118   1.430   3.729 -0.2251 -0.1341 -0.1280
39612W        W48412   2.520   6.440  32.891 -0.1374 -0.1754 -0.0678
39613W        W48413   7.528   1.852   4.871  0.1586  0.1298 -0.2827
39614W        W48414   9.050   4.321  30.453  0.1725  0.2233  0.0257
39615W        W48415   5.542   4.263  29.716  0.0742  0.1281 -0.1183
39616W        W48416   4.907   6.510   9.305  0.0896 -0.1235 -0.1879
39617W        W48417  15.835   4.021  10.439  0.0344 -0.0822 -0.1934
39618W        W48418  14.005   2.695   0.730  0.1047 -0.1636 -0.1077
39619W        W48419  11.497   4.836  43.250 -0.0887  0.1457 -0.0470
39620W        W48420  10.451   2.582  35.384  0.3570  0.2227 -0.2466
39621W        W48421  10.991   1.568   6.715  0.0153  0.2246  0.1776
39622W        W48422   5.530   3.209  41.309  0.1698  0.1800  0.0072
39623W        W48423   3.337   4.994  40.199  0.2904 -0.0659  0.2437
39624W        W48424  12.054   3.063  28.131 -0.2421  0.1066  0.1840
39625W        W48425  20.168   3.683  11.428 -0.0538  0.2811 -0.1916
39626W        W48426  10.309   1.672   7.338  0.1276 -0.2598 -0.1801
39627W        W48427  11.032   2.172  12.621  0.1901 -0.0933  0.2555
39628W        W48428   1.567   1.159  32.688  0.1240 -0.1634  0.3869
39629W        W48429   7.635   2.362   9.450 -0.0608 -0.1140 -0.0067
39630W        W48430   0.690   4.069  28.838  0.2072 -0.0205 -0.0387
39631W        W48431  17.934   3.329   0.967 -0.0447  0.0500 -0.0310
39632W        W48432  10.337   4.623  21.186  0.2033  0.0364 -0.0065
39633W        W48433   7.563   6.575   0.988 -0.2098  0.1525 -0.2561
39634W        W48434   9.646   0.185  37.558 -0.0890  0.2707  0.0194
39635W        W48435  10.983   4.940   2.936  0.0506  0.0299 -0.2332
39636W        W48436   0.590   3.883  24.038 -0.2060 -0.2099  0.1847
39637W        W48437  15.952   5.671  34.431  0.1429 -0.0874 -0.0519
39638W        W48438  13.250   4.409  12.695  0.0256 -0.1206  0.0314
39639W        W48439   3.408   5.832   0.781  0.1497 -0.2731 -0.1004
39640W        W48440   0.150   1.051  14.946  0.0732 -0.0624  0.0387
39641W        W48441  13.578   1.885  34.322 -0.2280 -0.1483 -0.0431
39642W        W48442  12.686   6.356  20.005 -0.0178  0.1609  0.1745
39643W        W48443  12.090   5.328  34.188  0.0835 -0.1959 -0.1535
39644W        W48444  19.794   3.694  11.792  0.0270 -0.1265 -0.3135
39645W        W48445  12.503   2.584  43.030 -0.0937  0.1673  0.2752
39646W        W48446   5.231   5.353   2.233  0.1910  0.0813  0.3119
39647W        W48447   8.350   2.282  11.296  0.2197 -0.0089  0.0672
39648W        W48448  20.390   1.200  36.416 -0.2044 -0.0341  0.1183
39649W        W48449   7.202   5.702  22.416 -0.0448 -0.0728  0.0622
39650W        W48450   2.953   1.545   1.832  0.0039  0.0340  0.2073
39651W        W48451  16.387   2.014  34.634  0.0733  0.2895 -0.0674
39652W        W48452  12.116   4.422   1.325  0.2161 -0.0760 -0.0551
39653W        W48453  10.521   3.812  42.546 -0.3281 -0.2230  0.0750
39654W        W48454   9.799   6.232  18.528 -0.1325 -0.4190 -0.1216
39655W        W48455  19.181   2.926  33.136  0.0436  0.1602  0.3133
39656W        W48456  15.417   1.128  25.167  0.0749  0.3213  0.2204
39657W        W48457   3.138   2.706  34.623 -0.0580 -0.0735  0.1667
39658W        W48458   4.720   4.846   6.910 -0.0887  0.1177 -0.0678
39659W        W48459  20.949   5.422   5.347 -0.2470 -0.2134  0.1879
39660W        W48460   9.017   1.395  12.423  0.0055  0.2365 -0.0140
39661W        W48461   7.491   1.037  22.939  0.0794 -0.3883 -0.3414
39662W        W48462  16.700   1.568   0.914  0.1161 -0.0352  0.1462
39663W        W48463  18.605   2.180  34.805 -0.0992  0.2085 -0.1044
39664W        W48464   0.725   3.652  34.558  0.2492  0.1123 -0.0416
39665W        W48465  19.756   0.203  27.231  0.0742  0.3297 -0.0640
39666W        W48466   0.097   0.250  35.084 -0.0027  0.1944  0.0720
39667W        W48467  10.580   2.298   9.913  0.0899  0.0199 -0.0723
39668W        W48468   1.837   4.699  43.209 -0.1021 -0.1210 -0.1414
39669W        W48469   6.452   0.799  35.407  0.0369 -0.3143  0.2336
39670W        W48470   8.595   4.190   6.984  0.0941  0.0169 -0.1357
39671W        W48471  18.694   4.622   1.459 -0.3749  0.0784 -0.2565
39672W        W48472  11.060   3.400  29.420  0.0377  0.2186  0.4836
39673W        W48473  10.570   4.251  15.901  0.0661 -0.2083  0.3937
39674W        W48474   6.566   3.565   4.364  0.1911  0.1548  0.0650
39675W        W48475   2.612   1.815  38.939  0.2231 -0.2279 -0.2902
39676W        W48476  18.274   2.845  16.666  0.0143  0.2343  0.0781
39677W        W48477   9.353   4.259  31.367  0.3379 -0.1818 -0.1876
39678W        W48478  11.729   5.607   4.801  0.1721  0.0182 -0.2339
39679W        W48479  17.315   6.182   2.320  0.0867 -0.3148 -0.3509
39680W        W48480   4.918   1.305   1.149 -0.1733 -0.0713  0.0261
39681W        W48481  19.873   3.445  42.153 -0.0625 -0.0019  0.0422
39682W        W48482  16.605   4.227  31.006 -0.0276 -0.2134 -0.0793
39683W        W48483  14.267   3.586  41.550 -0.2110 -0.2084  0.0009
39684W        W48484  20.010   5.547  23.600  0.0060 -0.1591  0.1282
39685W        W48485  19.567   1.413   9.797 -0.2956  0.3529 -0.0067
39686W        W48486  14.668   5.128  33.462 -0.0145  0.2071  0.0217
39687W        W48487   0.006   1.092   0.374 -0.4085 -0.0133  0.1453
39688W        W48488   5.518   4.454  36.637  0.3029  0.0749  0.2755
39689W        W48489   5.299   3.139   0.517  0.2331 -0.0694  0.0373
39690W        W48490  20.593   0.665  37.662 -0.1453  0.0500 -0.1404
39691W        W48491   3.098   4.449  15.107 -0.3395 -0.0711  0.0381
39692W        W48492   5.986   0.405  32.801 -0.0373 -0.1922  0.1304
39693W        W48493   3.218   2.178  34.642  0.2040  0.1780 -0.0134
39694W        W48494  10.035   3.872  42.505 -0.0460  0.1738  0.2684
39695W        W48495   6.162   2.348  44.156 -0.0566  0.0148  0.2067
39696W        W48496  20.717   2.564  29.208 -0.2228  0.0311 -0.0891
39697W        W48497   5.565   3.427   3.568  0.2693 -0.0558 -0.2690
39698W        W48498  12.675   3.112  42.962  0.3639 -0.1208 -0.0988
39699W        W48499  19.409   3.948  11.601 -0.2004  0.0974 -0.3019
39700W        W48500  10.110   5.570   2.382  0.0817  0.1935  0.1795
39701W        W48501  13.485   0.938  43.844 -0.1243  0.2603  0.1457
39702W        W48502   8.416   3.917  36.352 -0.2707 -0.0993 -0.4052
39703W        W48503  11.274   4.427  29.990  0.0649 -0.0989  0.3186
39704W        W48504   1.089   5.931   9.005  0.2061 -0.0899 -0.1871
39705W        W48505  18.287   5.767   7.152  0.4373 -0.1518  0.0574
39706W        W48506   7.424   4.184  43.642  0.0794 -0.1204 -0.0792
39707W        W48507  19.546   1.540   4.378  0.2850 -0.1561 -0.0124
39708W        W48508  13.339   3.176  20.820 -0.0487  0.1287 -0.0083
39709W        W48509   1.280   2.924   0.651 -0.1049 -0.0728 -0.3049
39710W        W48510   5.698   6.585  37.794 -0.1549  0.2155 -0.3031
39711W        W48511   9.806   4.594  16.565  0.0358  0.1009  0.0157
39712W        W48512  18.881   4.231  39.279 -0.1796  0.1247  0.2671
39713W        W48513  18.177   4.109  14.124  0.1180 -0.1104 -0.0884
39714W        W48514   1.984   6.469  13.042 -0.3217 -0.0300 -0.0180
39715W        W48515  10.077   3.460   4.608 -0.0531  0.1936  0.0246
39716W        W48516  18.228   0.113  10.369  0.0595  0.1933  0.1062
39717W        W48517   0.165   1.430   5.595 -0.0309  0.1101  0.1558
39718W        W48518   2.603   6.035  38.680 -0.0840 -0.2784  0.0868
39719W        W48519   1.730   2.364  40.124  0.0039 -0.2749  0.0885
39720W        W48520   3.883   4.284  27.122 -0.0232 -0.2599 -0.3409
39721W        W48521  12.005   4.179   7.190  0.1681 -0.0976 -0.0916
39722W        W48522  13.244   2.205   4.700 -0.0050  0.2388 -0.0808
39723W        W48523   2.442   1.460  44.667  0.2904 -0.0838 -0.1003
39724W        W48524  15.268   3.318  12.069 -0.0247 -0.1492  0.2796
39725W        W48525   3.859   4.151  35.780  0.4265  0.3699  0.1544
39726W        W48526   7.155   5.168  18.925  0.0915 -0.0051 -0.2300
39727W        W48527  13.517   3.413  37.294 -0.2350 -0.3777 -0.0701
39728W        W48528   6.257   1.917   5.603  0.3622 -0.0708  0.2823
39729W        W48529  13.821   1.749   3.389 -0.3640 -0.0399  0.1774
39730W        W48530  14.866   5.674   5.672 -0.1233 -0.0835  0.0579
39731W        W48531  19.805   0.864  30.533  0.2351  0.0106 -0.0186
39732W        W48532  17.535   4.684  16.582 -0.0067 -0.2928  0.2676
39733W        W48533   0.631   0.253  35.031 -0.1612 -0.0735  0.1934
39734W        W48534   0.707   1.171  33.132  0.1929  0.3109 -0.0601
39735W        W48535   7.592   1.452   5.746  0.1396 -0.1887 -0.2429
39736W        W48536  10.102   3.378  15.779  0.2071  0.2853  0.0020
39737W        W48537   1.763   4.732  44.440 -0.0265 -0.1336 -0.0849
39738W        W48538  11.511   5.752   9.273 -0.0761  0.2409 -0.6368
39739W        W48539  11.031   0.618  29.710  0.0232 -0.1758  0.0143
39740W        W48540  15.099   2.061  30.705  0.1721 -0.2337 -0.1590
39741W        W48541  12.462   1.227  32.593  0.2547 -0.1832  0.0481
39742W        W48542  17.663   6.558  44.158 -0.2478 -0.0529 -0.1431
39743W        W48543  19.836   4.896  37.903  0.2132  0.3541  0.0896
39744W        W48544   5.083   3.627  31.344 -0.0099 -0.2952 -0.0504
39745W        W48545   8.949   5.012  12.197  0.0718 -0.2800 -0.0599
39746W        W48546  15.477   4.594   2.041  0.1561  0.1970  0.2082
39747W        W48547   1.021   1.657   9.903 -0.0474 -0.0189 -0.0140
39748W        W48548   0.351   2.655   1.325  0.1347  0.3786 -0.0404
39749W        W48549   1.441   1.472  15.849 -0.0319  0.0449 -0.0713
39750W        W48550  15.780   1.627  12.353  0.0295 -0.0646 -0.1407
39751W        W48551   9.311   5.909  29.323 -0.0248 -0.0372  0.0916
39752W        W48552  16.071   0.413   7.491 -0.1192 -0.0205  0.1835
39753W        W48553  14.325   5.531   1.679 -0.3400 -0.1122  0.2995
39754W        W48554  12.941   2.422  40.979 -0.2508  0.2533  0.2010
39755W        W48555  17.631   3.598  39.532  0.1164 -0.2054 -0.1274
39756W        W48556   0.063   3.364   2.708  0.2437 -0.1000 -0.0922
39757W        W48557   1.476   5.192   5.361 -0.0969 -0.1569  0.0393
39758W        W48558   7.699   3.327  40.109  0.1510  0.0045 -0.1836
39759W        W48559  19.396   5.529  11.294  0.1472 -0.1432 -0.0117
39760W        W48560   4.412   4.649   7.887 -0.0962 -0.2887  0.0558
39761W        W48561   4.354   4.711  17.212 -0.0894 -0.2797  0.0191
39762W        W48562  11.914   4.473  40.051  0.0017  0.2865 -0.1218
39763W        W48563   2.457   4.247   6.593  0.1843  0.0478 -0.0497
39764W        W48564   6.782   0.709  11.569  0.2974  0.2685 -0.2531
39765W        W48565   6.420   0.988   1.146 -0.0262 -0.0301  0.0270
39766W        W48566   3.900   2.337  29.122 -0.0769  0.0951  0.0475
39767W        W48567   8.458   2.510  39.236 -0.5446 -0.1419 -0.0710
39768W        W48568  15.587   2.788  42.156 -0.0799  0.1858  0.2013
39769W        W48569   5.785   3.182   3.149  0.1448 -0.0418 -0.0945
39770W        W48570  18.595   4.876   6.249  0.0245  0.5748 -0.1101
39771W        W48571   0.097   6.033  28.647 -0.0125  0.0656 -0.0954
39772W        W48572   2.568   0.652   5.041 -0.0885 -0.2538 -0.1847
39773W        W48573   3.622   0.493   9.748 -0.0407  0.2133 -0.0376
39774W        W48574  12.072   4.553   9.094 -0.0673  0.2279 -0.3853
39775W        W48575  10.336   4.815   8.785  0.1756  0.1358  0.0251
39776W        W48576  14.772   2.432  31.843  0.0887 -0.1060  0.0868
39777W        W48577  13.734   2.578  38.752  0.1438  0.0341  0.0811
39778W        W48578  17.245   5.326  28.916  0.0067 -0.1223 -0.0231
39779W        W48579   1.741   6.597   4.130  0.0855 -0.0277 -0.1541
39780W        W48580  17.503   0.909   4.913 -0.0711 -0.0880  0.1788
39781W        W48581  12.493   4.320  45.078  0.3250 -0.0168 -0.0571
39782W        W48582  10.609   3.704  12.317  0.0184  0.1551 -0.1257
39783W        W48583   1.954   5.697  14.690 -0.4807 -0.0159  0.2223
39784W        W48584   5.524   4.294   1.993  0.1253  0.0167  0.0341
39785W        W48585   7.754   3.541  11.625 -0.2077  0.0796  0.0005
39786W        W48586  17.763   6.405  15.507 -0.4589 -0.2240  0.3070
39787W        W48587   2.616   4.821  10.706  0.1958 -0.0431  0.1769
39788W        W48588   3.140   4.710  29.081 -0.0372 -0.0279  0.1967
39789W        W48589  14.058   6.462  38.804 -0.0479  0.1976  0.1182
39790W        W48590  10.357   2.594  36.430 -0.0372  0.1904  0.0618
39791W        W48591   7.129   0.476  14.213  0.1083  0.0893  0.0302
39792W        W48592   5.761   1.019  30.182  0.1483  0.1069  0.3167
39793W        W48593   3.834   4.686  29.201 -0.0208 -0.3342  0.0139
39794W        W48594   4.912   1.520   9.458 -0.0098  0.2518  0.3093
39795W        W48595   3.132   1.686  36.215 -0.2604  0.1749 -0.0547
39796W        W48596   2.651   5.127  40.943  0.1432 -0.2744 -0.3195
39797W        W48597   5.904   1.574   6.812 -0.1893 -0.0895 -0.1019
39798W        W48598   1.684   5.900  41.021 -0.1864  0.1479  0.0705
39799W        W48599   3.412   0.853   4.622 -0.0481  0.1298  0.1053
39800W        W48600   1.827   4.736  37.288 -0.0016  0.2377  0.3151
39801W        W48601  18.915   6.449  26.749 -0.1463 -0.2280  0.0454
39802W        W48602   7.853   5.927  36.094  0.0927  0.1870 -0.1041
39803W        W48603   4.404   6.291   8.369  0.0865 -0.0131 -0.4454
39804W        W48604   3.000   2.013  31.540 -0.2334  0.0531 -0.1188
39805W        W48605  20.732   5.610  25.997 -0.1730 -0.1048 -0.3430
39806W        W48606  19.293   4.978  27.678 -0.0444  0.0455 -0.0586
39807W        W48607  18.887   4.735  44.014  0.1477  0.2404 -0.1294
39808W        W48608   8.304   1.904  12.850  0.0877  0.0385 -0.2281
39809W        W48609   8.123   3.395   5.426 -0.1727  0.5551 -0.1287
39810W        W48610   8.247   4.520   8.729  0.2094 -0.1022 -0.3533
39811W        W48611  16.960   3.338   7.350  0.3745  0.4475  0.4877
39812W        W48612  20.103   1.566  34.698  0.0443  0.0987 -0.1556
39813W        W48613  16.004   0.181   4.338  0.2432 -0.1128 -0.3725
39814W        W48614   6.260   3.999   3.033  0.0060 -0.1222 -0.0307
39815W        W48615  11.971   4.154   0.904  0.0828 -0.1807 -0.0463
39816W        W48616   4.625   5.743  35.502 -0.0876 -0.1510  0.1968
39817W        W48617  14.884   5.092  12.404  0.0676 -0.1927  0.2204
39818W        W48618   7.587   0.933  34.341  0.0409 -0.2674  0.1105
39819W        W48619  12.730   1.207  31.553 -0.0412 -0.0987  0.1000
39820W        W48620  11.894   3.872   3.251 -0.1810  0.1120 -0.1630
39821W        W48621  15.679   4.729  38.263  0.2624 -0.2077  0.3474
39822W        W48622   3.004   4.645   9.471  0.0746 -0.0822  0.0868
39823W        W48623   6.680   3.434  31.272 -0.3014 -0.0510  0.1433
39824W        W48624   6.476   2.407  17.610  0.1076  0.1089 -0.3749
39825W        W48625  13.875   1.251   6.354  0.2110 -0.1383  0.4089
39826W        W48626  19.412   1.752  31.530  0.2385 -0.0363  0.4325
39827W        W48627   7.717   3.136  44.520 -0.0705 -0.2360  0.1066
39828W        W48628  16.822   3.977   5.495  0.2779 -0.1313 -0.2752
39829W        W48629   4.856   1.091   3.219 -0.0487  0.4056 -0.2375
39830W        W48630  17.277   5.405  39.858 -0.1619 -0.1142 -0.2934
39831W        W48631   8.509   3.125  17.992 -0.1760 -0.0376  0.1511
39832W        W48632  11.029   5.723  22.951  0.0277  0.0147 -0.0123
39833W        W48633  15.799   1.381  40.113 -0.2310 -0.3860  0.0672
39834W        W48634  16.653   0.145  13.242 -0.2679 -0.0269 -0.3026
39835W        W48635   4.801   5.304  35.556 -0.1065 -0.0077  0.0709
39836W        W48636   2.560   4.516  26.082  0.1642 -0.3350 -0.0720
39837W        W48637   9.265   5.902  17.095  0.2959  0.1671 -0.0643
39838W        W48638   3.346   3.197   6.810 -0.2037  0.0257  0.0708
39839W        W48639  19.876   3.478   1.842 -0.0327  0.1044  0.2718
39840W        W48640  18.363   4.500  22.526  0.2782  0.0344  0.3483
39841W        W48641  10.372   6.138   4.622  0.2520  0.2313 -0.1365
39842W        W48642  10.281   1.289  33.770 -0.4528  0.2864 -0.2151
39843W        W48643   8.127   5.973  31.219 -0.1202 -0.2081 -0.0569
39844W        W48644  13.164   0.922   6.744 -0.1898 -0.1276  0.0488
39845W        W48645   8.253   5.328   5.252 -0.0217  0.0002  0.0969
39846W        W48646  11.321   3.796  37.521  0.1579  0.0387 -0.2663
39847W        W48647  18.650   3.573  24.228 -0.2530  0.3860 -0.0006
39848W        W48648   2.106   0.570   5.516 -0.3897 -0.1187 -0.1816
39849W        W48649   7.597   2.019   5.810 -0.0321  0.0626  0.2811
39850W        W48650  19.550   3.458  40.251 -0.0284  0.0916 -0.0493
39851W        W48651   3.744   4.607  14.575  0.0929 -0.0604 -0.1463
39852W        W48652   1.823   1.102  38.792  0.1220  0.1352 -0.1728
39853W        W48653   2.522   2.717  43.528 -0.3871  0.0652 -0.0050
39854W        W48654  12.824   6.337  30.864 -0.2701 -0.1874  0.0238
39855W        W48655  17.583   0.484  40.422  0.0771 -0.2005  0.1981
39856W        W48656  14.702   2.947   3.591 -0.0101  0.3092  0.1557
39857W        W48657   6.694   4.373  11.036  0.0279  0.1169 -0.1011
39858W        W48658   2.287   1.143  24.557  0.0932 -0.0643  0.1778
39859W        W48659   5.238   4.253  44.965  0.1931 -0.0249  0.3371
39860W        W48660  17.016   6.396   9.237 -0.0922  0.3304  0.1529
39861W        W48661  18.096   1.418  11.269 -0.1136  0.2321 -0.1410
39862W        W48662   2.079   1.478  33.931 -0.0599  0.2465  0.2350
39863W        W48663  16.675   1.144  37.434 -0.0430 -0.0187 -0.2572
39864W        W48664  11.593   4.161  15.569  0.0252  0.0581  0.0162
39865W        W48665  13.989   5.430  32.453  0.0850 -0.1310  0.3501
39866W        W48666  12.099   3.794  43.203  0.1443  0.0319 -0.1174
39867W        W48667   9.064   3.499  24.344  0.1277 -0.0749  0.0668
39868W        W48668  12.202   1.893  37.288  0.0387  0.0536  0.1305
39869W        W48669  17.306   5.869  34.221 -0.0205 -0.0156  0.0366
39870W        W48670   1.004   0.566  12.039 -0.0267  0.1953 -0.0311
39871W        W48671   7.569   3.063  33.194 -0.0018 -0.0288  0.0193
39872W        W48672  13.940   1.738   2.812  0.0005  0.0136 -0.1433
39873W        W48673   1.988   3.880  13.223  0.0093  0.0624  0.1534
39874W        W48674  16.043   2.582  15.642 -0.1233  0.1015 -0.1500
39875W        W48675   0.193   2.060  22.626 -0.1640 -0.0975  0.0014
39876W        W48676  17.855   4.253  12.863  0.0965 -0.0972 -0.4386
39877W        W48677   9.731   2.237  17.257 -0.1412  0.0678  0.3464
39878W        W48678   0.451   5.914  34.852 -0.1234  0.2169 -0.0704
39879W        W48679   5.873   2.237   1.157  0.0470  0.1084  0.2190
39880W        W48680   3.289   5.767  42.144 -0.4495 -0.1586 -0.1324
39881W        W48681   4.572   4.640   2.133  0.0018  0.1649 -0.1689
39882W        W48682   1.038   1.991   0.575  0.2594  0.0623 -0.1482
39883W        W48683  16.629   5.183  42.159 -0.1857 -0.1271 -0.3949
39884W        W48684  16.107   0.435  43.425  0.1351 -0.4243  0.1032
39885W        W48685  15.607   6.559  42.674  0.2653 -0.0579 -0.3448
39886W        W48686  11.699   3.939  28.206 -0.1342  0.4158  0.0309
39887W        W48687  15.904   5.707   0.066  0.2550 -0.0440 -0.4037
39888W        W48688   2.327   1.052  12.481 -0.0403  0.0654 -0.2937
39889W        W48689   6.331   5.959  29.110 -0.0634 -0.0643 -0.0713
39890W        W48690  15.045   0.928  10.636 -0.0132 -0.0147 -0.0571
39891W        W48691  18.045   6.591   3.319 -0.0246 -0.0105 -0.0753
39892W        W48692   3.493   5.622  32.679 -0.2045  0.1694 -0.2910
39893W        W48693   9.575   0.477  42.247 -0.0969  0.0281 -0.2617
39894W        W48694   9.255   3.027  31.074 -0.1300  0.0561  0.0624
39895W        W48695   6.890   0.247   6.452  0.0602 -0.1554 -0.0331
39896W        W48696  11.580   0.851  42.405 -0.0192  0.5601 -0.0921
39897W        W48697  19.765   5.070  42.933  0.2098 -0.2183 -0.0080
39898W        W48698   8.635   5.233   1.341  0.0073 -0.1125  0.2659
39899W        W48699  17.716   6.528  30.846  0.0762 -0.1877  0.0771
39900W        W48700   6.409   5.841  12.631 -0.2654 -0.1818 -0.0561
39901W        W48701  16.606   4.747  16.226 -0.1486 -0.0595  0.0969
39902W        W48702   1.593   5.478  29.700 -0.2118  0.0658 -0.2553
39903W        W48703   3.953   0.974  33.935 -0.2165 -0.0697  0.0164
39904W        W48704   6.881   0.136  32.275 -0.1446 -0.2469  0.0959
39905W        W48705  10.400   5.567   3.685  0.1801  0.0978 -0.1072
39906W        W48706   2.430   2.883  32.925 -0.0754 -0.0430 -0.0136
39907W        W48707   5.324   2.105  40.617  0.1128 -0.4400 -0.1161
39908W        W48708  14.746   6.533   5.725 -0.5157  0.2091 -0.2920
39909W        W48709   9.010   3.612  38.984  0.1141  0.0496 -0.0782
39910W        W48710   0.594   4.677  13.491  0.1402 -0.4385 -0.1823
39911W        W48711  12.470   6.380  14.400  0.0133  0.1013 -0.1350
39912W        W48712   1.824   1.121  44.310 -0.3109  0.3476  0.1442
39913W        W48713   1.951   4.843  27.783  0.0166 -0.0364  0.0450
39914W        W48714   5.811   1.233  34.403 -0.4057  0.0324 -0.4632
39915W        W48715   8.772   2.535  11.437  0.1641 -0.0262 -0.2589
39916W        W48716   7.466   5.473  22.908  0.0497 -0.0826 -0.2188
39917W        W48717  13.874   1.252   2.838 -0.2195 -0.2838 -0.0898
39918W        W48718   2.167   2.720  10.151  0.2519 -0.2065  0.0121
39919W        W48719  19.682   2.136  41.762  0.2282  0.0925  0.0508
39920W        W48720   0.213   0.928   7.446  0.2435  0.0257  0.0612
39921W        W48721   7.075   5.243  44.198 -0.0086  0.0097 -0.3792
39922W        W48722  15.453   5.597  14.075 -0.0036 -0.2224  0.1669
39923W        W48723   2.172   1.129  39.142  0.2761  0.0014  0.0689
39924W        W48724  14.308   0.659   9.110  0.3147  0.0294 -0.0906
39925W        W48725  10.849   1.440   3.801 -0.2560  0.3210 -0.0160
39926W        W48726   4.666   2.511   6.736  0.1999  0.0055  0.2291
39927W        W48727   2.227   1.652  16.811  0.0515 -0.1469  0.1015
39928W        W48728  18.818   4.290  22.634 -0.0812  0.2923  0.0906
39929W        W48729  13.213   5.918   6.063 -0.0532  0.0845 -0.1545
39930W        W48730   1.946   2.715  29.985  0.1335 -0.2132  0.0741
39931W        W48731  10.123   5.504  23.748 -0.1904 -0.2440  0.0419
39932W        W48732   5.105   6.085  18.925 -0.2969  0.0401 -0.0398
39933W        W48733   7.813   0.183  18.135 -0.3594 -0.0068 -0.0838
39934W        W48734   1.301   4.766   7.019 -0.2208  0.0382  0.2500
39935W        W48735  11.295   3.134  20.128 -0.2901  0.1063 -0.0835
39936W        W48736  11.056   3.595  42.483  0.1253 -0.0271 -0.1262
39937W        W48737   9.931   2.979  19.590  0.2677  0.2506  0.4212
39938W        W48738  12.473   5.200  15.162 -0.0976 -0.0878  0.0166
39939W        W48739  13.579   2.738  32.153  0.2608  0.0334  0.1636
39940W        W48740  10.753   1.429  34.028 -0.3075  0.3341  0.2411
39941W        W48741  17.636   5.937  30.413  0.2700  0.0804 -0.2001
39942W        W48742  12.558   3.494   0.962 -0.3295 -0.0116 -0.2423
39943W        W48743  14.647   1.406  39.747  0.0297  0.1537 -0.1540
39944W        W48744   9.898   3.802  25.333  0.0744 -0.0345 -0.0340
39945W        W48745  16.377   1.632  32.154 -0.1946 -0.1952 -0.1875
39946W        W48746  20.626   2.648   3.822  0.0769 -0.0948 -0.1163
39947W        W48747   3.394   4.503  10.420  0.1089  0.0650  0.0060
39948W        W48748  20.906   4.537  16.204  0.0244  0.2437 -0.0683
39949W        W48749   3.837   6.584   0.438  0.1977  0.1055  0.2992
39950W        W48750   7.223   5.349  20.635  0.3199  0.4217  0.0885
39951W        W48751   9.801   1.558  20.981  0.0344  0.2067 -0.2384
39952W        W48752  13.246   2.825  12.133  0.2315  0.1105 -0.1839
39953W        W48753   1.635   4.466  41.893  0.1403 -0.0505 -0.1162
39954W        W48754  14.136   6.581  41.390 -0.0263 -0.0766  0.0771
39955W        W48755   3.450   1.922  11.410  0.0994 -0.0234  0.1955
39956W        W48756  18.904   3.638  10.740  0.1383  0.1728  0.1222
39957W        W48757  15.946   0.796  27.777  0.2401 -0.2096 -0.1706
39958W        W48758  18.672   1.466  33.774 -0.0957  0.2090  0.2882
39959W        W48759   5.581   1.188  42.736 -0.1705 -0.0658 -0.1481
39960W        W48760  20.530   2.844  28.244 -0.0062  0.0179 -0.5165
39961W        W48761   5.935   1.825  14.942 -0.0887  0.0341 -0.0145
39962W        W48762   0.368   5.494  30.814 -0.0434  0.1293 -0.1186
39963W        W48763  19.417   5.314  32.936  0.0491 -0.1441  0.0495
39964W        W48764  13.999   2.196   0.510 -0.0485 -0.2230  0.1637
39965W        W48765  13.043   6.264  13.041  0.1277 -0.0554 -0.1500
39966W        W48766   2.695   4.478  36.507  0.0150 -0.0455 -0.2585
39967W        W48767  11.251   3.394  12.899 -0.2449  0.4142  0.0411
39968W        W48768  10.569   4.814  44.363  0.1950 -0.1429 -0.0342
39969W        W48769  12.367   1.349  41.679 -0.1916  0.2241 -0.0844
39970W        W48770  16.388   1.212  34.129  0.1583 -0.1351  0.0721
39971W        W48771  10.575   2.841  38.280  0.0322 -0.1148 -0.0406
39972W        W48772  14.389   4.641  35.118 -0.0505  0.0285  0.0394
39973W        W48773  15.679   0.153  37.045  0.3298  0.3747 -0.1863
39974W        W48774   1.367   3.744   7.182  0.0251  0.0958  0.1529
39975W        W48775  17.164   3.456  26.243  0.2215 -0.1997  0.0171
39976W        W48776  20.655   2.351  34.366 -0.1906  0.0273 -0.1798
39977W        W48777   5.944   5.620   1.651 -0.3457  0.1517 -0.0282
39978W        W48778   2.274   4.396  43.140  0.1122  0.3313 -0.1799
39979W        W48779   7.642   3.215  14.606 -0.3299 -0.1652  0.0604
39980W        W48780   9.460   1.200  34.465  0.0255 -0.3532 -0.0674
39981W        W48781  12.584   2.793   6.418  0.0570 -0.0190  0.3124
39982W        W48782  17.721   2.318  11.804 -0.1493 -0.1699  0.5529
39983W        W48783   6.534   3.656  33.469 -0.0423  0.2029 -0.1010
39984W        W48784   1.945   2.286  36.547  0.0704 -0.3405 -0.0582
39985W        W48785  16.122   0.140  40.844 -0.0651 -0.1825 -0.3924
39986W        W48786  18.888   2.706   7.054 -0.1102 -0.0254 -0.1568
39987W        W48787   2.491   3.188   0.245  0.2365  0.1280  0.1458
39988W        W48788  20.047   5.305  40.689 -0.0095  0.1090 -0.2355
39989W        W48789  19.246   6.136  14.928  0.0852  0.0965  0.0342
39990W        W48790  18.735   2.176   3.631  0.0318  0.0162 -0.3036
39991W        W48791   7.873   0.141   8.239  0.2568 -0.1230 -0.1353
39992W        W48792  18.750   0.691  25.606 -0.0422 -0.1140  0.1278
39993W        W48793  15.583   2.953  14.567  0.0664 -0.2668 -0.2478
39994W        W48794   8.756   5.750  40.455  0.1134  0.0831  0.1566
39995W        W48795  16.615   0.502   3.683  0.2409 -0.1644 -0.1726
39996W        W48796   3.654   2.703  36.842  0.1623 -0.0314 -0.2836
39997W        W48797   5.754   5.969  10.109 -0.2549 -0.1016 -0.0339
39998W        W48798   8.332   4.365  36.098 -0.0203  0.0500 -0.2292
39999W        W48799  15.090   5.914  35.490  0.1357  0.1892 -0.0313
40000W        W48800  12.794   2.668   6.837  0.0068 -0.1192 -0.0909
40001W        W48801  10.234   1.140  41.748  0.1068 -0.2948 -0.0870
40002W        W48802   4.017   2.324  17.191 -0.2811  0.1759  0.2712
40003W        W48803   7.081   2.083  13.479  0.0164  0.0001 -0.0865
40004W        W48804   2.775   3.548  30.560 -0.2666  0.0482 -0.0249
40005W        W48805  14.935   2.811  12.932  0.0388 -0.1953  0.1579
40006W        W48806  11.469   2.281  44.753  0.1190 -0.1312 -0.0734
40007W        W48807   7.898   3.044  11.706 -0.0103  0.0029 -0.1508
40008W        W48808  17.797   6.111  36.807 -0.1084  0.0870  0.2297
40009W        W48809   6.255   3.232  17.141 -0.0720 -0.0215  0.3839
40010W        W48810   4.141   2.708  15.569 -0.1339  0.1146  0.0586
40011W        W48811   3.429   3.797  18.504 -0.1737  0.1305 -0.1638
40012W        W48812   5.580   5.890  19.963 -0.0313  0.1410 -0.1961
40013W        W48813  19.843   5.168  35.533  0.0690 -0.0093 -0.0340
40014W        W48814   7.814   5.853  44.966 -0.0647  0.0277 -0.1744
40015W        W48815   8.388   1.308   9.415  0.2375  0.2559  0.1843
40016W        W48816   7.829   3.402  35.245 -0.1781  0.2234  0.0701
40017W        W48817   9.915   5.579  13.986 -0.0100  0.0775  0.5761
40018W        W48818   7.394   2.246  14.919 -0.3355 -0.1970 -0.3310
40019W        W48819   5.886   0.459  36.479 -0.2511 -0.0419  0.2002
40020W        W48820   3.575   2.984  36.382 -0.2309 -0.0673 -0.0765
40021W        W48821   4.482   4.170   8.179  0.0462  0.2176  0.0736
40022W        W48822  19.000   4.399  25.448 -0.0145  0.0682 -0.1814
40023W        W48823   0.554   4.561  23.141 -0.2120  0.3106  0.1257
40024W        W48824  15.249   2.902   6.764 -0.0821  0.0218  0.2436
40025W        W48825   4.030   1.008  16.458  0.0593  0.1391  0.1089
40026W        W48826  20.815   3.875  27.456 -0.3199  0.1635 -0.0756
40027W        W48827  12.890   0.033  29.605  0.0124 -0.1446  0.0553
40028W        W48828  17.284   6.175  40.076 -0.2579 -0.0119  0.1407
40029W        W48829  15.371   1.918   1.186 -0.0052  0.1966 -0.1514
40030W        W48830   1.469   2.977   5.016 -0.0790  0.1095 -0.1984
40031W        W48831   1.614   5.828  26.629 -0.0139 -0.2740 -0.2244
40032W        W48832  18.253   1.660  16.551  0.2980  0.1575  0.1212
40033W        W48833  13.921   5.377  14.902 -0.2282  0.1509 -0.0122
40034W        W48834   0.840   2.589  44.097 -0.2551  0.0333  0.1469
40035W        W48835  20.660   4.629  15.762 -0.1922  0.1125 -0.1645
40036W        W48836   4.107   0.716   2.420  0.3163  0.0632  0.3201
40037W        W48837  14.145   4.835  14.966  0.0327  0.0940  0.1047
40038W        W48838   1.773   4.042   2.668  0.3141  0.1096 -0.0811
40039W        W48839  11.740   2.982  37.088  0.1259  0.0605  0.2495
40040W        W48840  11.336   3.677  34.775  0.0561 -0.1101  0.1593
40041W        W48841  15.857   5.562   7.652  0.0671 -0.1540 -0.1128
40042W        W48842  13.616   0.802  19.179 -0.0716 -0.0159 -0.0665
40043W        W48843   8.622   4.037  41.753 -0.0414  0.1367 -0.1486
40044W        W48844  18.867   1.161  21.513  0.0665 -0.0131 -0.1913
40045W        W48845  13.144   0.517  34.987 -0.2495 -0.0078  0.0662
40046W        W48846  13.185   0.021  10.406 -0.0824 -0.1434 -0.1230
40047W        W48847  11.174   3.204  39.078 -0.0055  0.0723 -0.0824
40048W        W48848   4.775   5.079  37.114  0.0171  0.1414  0.1268
40049W        W48849   1.283   0.663  25.982  0.0554 -0.2268 -0.0060
40050W        W48850  17.895   2.869  31.352 -0.2591  0.0744 -0.0411
40051W        W48851   8.303   0.215  39.453  0.2341  0.0248  0.0273
40052W        W48852  10.182   1.417  35.702 -0.1932 -0.3596  0.1182
40053W        W48853  17.737   2.026   0.774 -0.0190  0.1231  0.2343
40054W        W48854   5.453   5.108   7.461 -0.1903 -0.1810 -0.1695
40055W        W48855  20.354   4.016  27.697  0.1839  0.0226 -0.0812
40056W        W48856   4.756   5.794  40.982 -0.2292  0.0311  0.0027
40057W        W48857  13.539   2.047  15.214 -0.1821 -0.1162  0.1128
40058W        W48858   2.029   2.891  27.695 -0.1519 -0.1595  0.0513
40059W        W48859  20.532   4.164  37.792  0.1969  0.0466  0.2365
40060W        W48860   7.110   0.117   8.824 -0.0886  0.1579  0.0010
40061W        W48861  10.477   3.649  34.537 -0.0576  0.0363  0.0964
40062W        W48862  14.313   1.883  40.433  0.0335 -0.2778  0.3860
40063W        W48863   3.915   1.651  11.560  0.0277 -0.2515  0.0674
40064W        W48864  17.663   1.157   6.140  0.0642 -0.3355  0.0408
40065W        W48865   3.329   3.130  16.300  0.3147 -0.2846 -0.1482
40066W        W48866  12.751   5.281   5.186 -0.0059 -0.0849 -0.2295
40067W        W48867  19.668   4.473  24.933 -0.2660 -0.2576 -0.2667
40068W        W48868   7.130   5.772  21.841 -0.0384  0.0489 -0.0185
40069W        W48869  17.997   0.355  31.141  0.2981  0.1159  0.0841
40070W        W48870   6.511   3.692  12.744 -0.0336  0.1004  0.3075
40071W        W48871  18.333   5.010   4.144  0.1836 -0.1900 -0.2468
40072W        W48872   9.280   2.581  18.539  0.2188 -0.1362  0.0864
40073W        W48873  17.237   3.722  10.390 -0.0264  0.2349 -0.7302
40074W        W48874  15.249   0.945  37.158  0.1741  0.1137 -0.2121
40075W        W48875  15.846   4.336  29.835 -0.3997  0.3204 -0.0233
40076W        W48876  13.039   0.977  32.583  0.0747  0.3683  0.1036
40077W        W48877   9.013   0.514  30.216  0.0686 -0.1802  0.0556
40078W        W48878  15.737   3.557  26.510  0.1093  0.2606  0.2464
40079W        W48879  14.428   3.836  28.574 -0.0458  0.1938  0.0700
40080W        W48880  12.818   1.315  18.759 -0.1038  0.2823 -0.2910
40081W        W48881  12.950   5.719  14.578 -0.0069 -0.0260  0.1440
40082W        W48882  13.402   3.223   5.858  0.0938 -0.0803  0.1046
40083W        W48883   5.750   3.280  44.423 -0.1831  0.0976  0.0965
40084W        W48884   1.917   5.434  38.206 -0.1251 -0.0318  0.1137
40085W        W48885  10.697   0.559   9.988 -0.0855  0.0632  0.0080
40086W        W48886  11.941   5.724   6.170  0.2138  0.0332  0.0907
40087W        W48887  10.544   5.280   2.302  0.0580 -0.2140 -0.0431
40088W        W48888   9.493   1.835  29.926  0.1527 -0.1351 -0.0987
40089W        W48889  11.123   1.774  36.013  0.1549  0.0806  0.3477
40090W        W48890  12.466   2.224  18.023  0.1822 -0.0205 -0.1422
40091W        W48891  11.671   4.295  32.815 -0.1763 -0.1643 -0.0342
40092W        W48892   4.863   0.728  12.814  0.0909  0.0972  0.1017
40093W        W48893   0.292   1.998  23.280  0.0242 -0.2450 -0.1469
40094W        W48894  10.401   3.319  20.906  0.3133  0.1198  0.1625
40095W        W48895  12.745   2.376   1.391 -0.1869 -0.1890  0.2229
40096W        W48896  15.884   2.481  40.794  0.2004  0.0865 -0.1097
40097W        W48897  15.591   1.293  39.049  0.3980 -0.1262  0.1149
40098W        W48898  10.923   4.300  35.478  0.0057 -0.0576 -0.1677
40099W        W48899  18.897   5.235  14.923 -0.1531 -0.3255 -0.0488
40100W        W48900   8.822   4.987  33.411 -0.1191  0.0467 -0.1287
40101W        W48901   6.367   5.427  18.949  0.0223 -0.0006 -0.1649
40102W        W48902  13.662   1.988   0.178  0.1785 -0.0426  0.0461
40103W        W48903  11.838   0.344   7.206 -0.3035  0.1308  0.2061
40104W        W48904   4.337   3.684   7.645 -0.3100  0.2015  0.0627
40105W        W48905   8.167   4.657   0.510  0.0137 -0.2059  0.1188
40106W        W48906  10.401   2.538  31.216  0.0918 -0.0070 -0.1728
40107W        W48907  14.101   1.688   0.455  0.0547 -0.0247 -0.0167
40108W        W48908   8.871   6.101  16.899 -0.0500 -0.2939 -0.2948
40109W        W48909   9.463   2.151  20.045 -0.0758 -0.3623  0.0366
40110W        W48910  14.014   4.165  16.239  0.1450 -0.1759  0.3984
40111W        W48911   6.655   2.866  14.553  0.1072  0.2755 -0.2971
40112W        W48912   9.280   4.477  11.420  0.0034  0.0909 -0.0233
40113W        W48913   7.414   1.208  33.411  0.2843 -0.2023 -0.3032
40114W        W48914  20.011   2.573  42.253 -0.1402  0.0724  0.2201
40115W        W48915  18.645   5.126  25.827 -0.3592  0.2149  0.3829
40116W        W48916   0.017   0.970  15.654  0.0127  0.0496 -0.0276
40117W        W48917  16.120   5.254   5.983  0.1601  0.0633  0.1488
40118W        W48918  14.057   3.557  34.015 -0.1181 -0.2446  0.1031
40119W        W48919   4.107   2.186   7.343  0.0193  0.3507 -0.2222
40120W        W48920  17.311   5.544  13.394 -0.0510  0.0938 -0.1485
40121W        W48921   5.917   5.969  14.091  0.1110 -0.0152  0.2465
40122W        W48922   4.657   1.442  33.016 -0.3668 -0.1866  0.0257
40123W        W48923   4.355   3.871   8.600  0.1925  0.0151 -0.0688
40124W        W48924  11.156   4.578   0.995  0.1205  0.2024  0.2841
40125W        W48925  18.005   3.466  36.852  0.0622  0.0340  0.0549
40126W        W48926   1.260   0.092  26.065  0.1646  0.1802 -0.0917
40127W        W48927  10.049   6.098  39.298  0.1585 -0.0156 -0.0291
40128W        W48928   2.051   1.988  29.932 -0.0007  0.1419 -0.2047
40129W        W48929   8.199   1.222  35.485  0.1360 -0.0339  0.0153
40130W        W48930   5.238   2.105  15.620 -0.0392 -0.1339 -0.0952
40131W        W48931  13.463   0.835  16.948  0.2447  0.0884 -0.1398
40132W        W48932   2.430   0.661  10.453 -0.3973  0.0900 -0.1377
40133W        W48933  17.467   1.148  27.272  0.0361  0.1573  0.2006
40134W        W48934  19.553   5.824  34.504  0.0966 -0.1347  0.0682
40135W        W48935  18.477   0.201  43.624  0.0414  0.2106  0.0782
40136W        W48936   8.690   4.053  35.925 -0.1931  0.5216 -0.1393
40137W        W48937   9.139   3.194   1.123 -0.0979  0.2749 -0.0118
40138W        W48938   7.802   5.652   3.505 -0.0303 -0.1492 -0.0094
40139W        W48939   3.741   1.544  26.542  0.2653  0.3633 -0.0176
40140W        W48940   5.873   5.794   3.478 -0.0690  0.3488  0.0479
40141W        W48941  12.007   4.010   4.686  0.1779  0.0468 -0.0556
40142W        W48942  20.814   0.222   4.219  0.0209 -0.2107 -0.0935
40143W        W48943  11.757   1.493  22.639  0.2042 -0.1824  0.1031
40144W        W48944  10.911   6.157  31.990 -0.3156  0.5409  0.1330
40145W        W48945   9.750   1.632   6.451  0.1279  0.3897  0.0612
40146W        W48946  17.074   3.769  41.461 -0.0719 -0.1763 -0.0455
40147W        W48947  12.540   2.976  36.059  0.0296 -0.3109 -0.0966
40148W        W48948   5.769   0.562  19.454  0.1382  0.1959 -0.1097
40149W        W48949   2.621   5.816  28.684  0.0185  0.2860  0.0812
40150W        W48950   9.879   3.933  13.832 -0.1418 -0.0399 -0.0228
40151W        W48951  19.221   1.510  24.674 -0.0082 -0.0363  0.0165
40152W        W48952   4.180   3.232  17.149 -0.1621 -0.3895  0.0704
40153W        W48953   0.550   5.877  28.909 -0.1761  0.2596 -0.0122
40154W        W48954  10.161   2.897   3.094 -0.0171  0.0032 -0.1906
40155W        W48955  14.197   2.369  15.781  0.0427 -0.1309  0.0321
40156W        W48956  13.690   0.217  43.223  0.1016 -0.2217 -0.0814
40157W        W48957  18.467   4.169   7.979  0.0986 -0.0652  0.2597
40158W        W48958   4.026   5.648  43.151  0.0339 -0.0561 -0.2528
40159W        W48959   3.506   5.248  13.870  0.0761 -0.0764  0.1547
40160W        W48960   8.131   5.893  21.508 -0.0074  0.1055 -0.3028
40161W        W48961   4.536   1.238  16.545 -0.0457 -0.2427  0.1510
40162W        W48962   0.462   4.395  12.530  0.4091 -0.0711  0.4426
40163W        W48963   0.085   0.765  36.721  0.2555  0.0097  0.0258
40164W        W48964  13.642   6.156   0.982 -0.0146 -0.1550  0.1126
40165W        W48965  17.712   3.807  27.715 -0.1953 -0.2281  0.0424
40166W        W48966  15.102   1.213  41.446  0.0248  0.1194 -0.0515
40167W        W48967   4.383   4.528  27.014  0.0488 -0.0879  0.0281
40168W        W48968  19.299   4.408  39.032  0.2135 -0.2007 -0.1849
40169W        W48969   6.425   0.305  29.864  0.0618  0.2548  0.0523
40170W        W48970  12.330   1.289  34.701 -0.0948  0.3416 -0.0760
40171W        W48971   4.713   6.212   7.009 -0.0583  0.4332 -0.1963
40172W        W48972  11.067   6.455   9.943  0.2868 -0.0921  0.0018
40173W        W48973  15.599   3.761  40.484  0.0485  0.1305  0.2292
40174W        W48974   9.862   2.449  37.313 -0.0531  0.1188  0.0286
40175W        W48975  18.454   1.583   0.006 -0.2484  0.0900 -0.0854
40176W        W48976   8.104   3.202  33.282 -0.1335  0.0409 -0.0650
40177W        W48977  17.172   2.903  28.190  0.0793  0.1271 -0.0485
40178W        W48978  14.212   4.029  42.676  0.0424 -0.2487 -0.1720
40179W        W48979   2.192   2.844   7.541  0.2439 -0.0825 -0.0360
40180W        W48980   1.849   3.612  27.387  0.0863  0.0698  0.0936
40181W        W48981  20.196   4.299  42.378  0.3332  0.2558 -0.0412
40182W        W48982  19.542   4.114  10.153 -0.1971  0.2067  0.0849
40183W        W48983   9.798   0.277  24.000  0.0934  0.0295  0.0188
40184W        W48984  19.323   1.812  11.212 -0.1583  0.1463  0.3589
40185W        W48985   3.512   4.505  15.875  0.1116 -0.3896 -0.2267
40186W        W48986   8.240   5.752  22.417  0.1999  0.2234  0.2123
40187W        W48987   0.881   1.159   8.037 -0.1573  0.1215  0.0806
40188W        W48988  15.428   2.789  31.098 -0.3614 -0.0760  0.3058
40189W        W48989  18.703   6.021   1.962  0.1471  0.3178  0.0539
40190W        W48990  10.086   0.732  33.173  0.4163 -0.2171  0.0655
40191W        W48991  11.270   1.021  35.461 -0.0945  0.0315  0.0954
40192W        W48992   6.334   5.457  38.652 -0.1665 -0.0728  0.0651
40193W        W48993   1.163   3.654  44.096 -0.0171 -0.3190  0.0883
40194W        W48994   9.127   3.095  22.810  0.2453 -0.0911  0.1053
40195W        W48995  11.425   2.450   8.146 -0.0730 -0.1011 -0.1992
40196W        W48996   1.291   2.418  33.697 -0.2063 -0.1090 -0.3914
40197W        W48997  11.922   2.459  20.791  0.0067 -0.2092 -0.0440
40198W        W48998  16.929   2.875  31.123 -0.2699  0.0225 -0.1813
40199W        W48999  17.169   0.707  40.264 -0.1508  0.2091  0.2950
40200W        W49000   8.558   0.115   6.126  0.2183 -0.0719  0.6026
40201W        W49001   9.054   3.293  29.300  0.0232 -0.2327 -0.0870
40202W        W49002  11.605   5.303  11.112  0.1737  0.0320  0.0980
40203W        W49003   6.600   0.538   6.190 -0.0371 -0.1878 -0.0253
40204W        W49004  19.170   0.540  44.983  0.2563  0.1499  0.1728
40205W        W49005   6.902   4.214  10.615 -0.1491 -0.1530  0.2221
40206W        W49006  16.956   4.739   4.757 -0.0819 -0.1764 -0.1681
40207W        W49007  16.723   4.406  12.762  0.1060  0.1084 -0.2237
40208W        W49008  14.380   3.850   4.708  0.0167 -0.2692 -0.2956
40209W        W49009   8.792   6.377  17.916  0.2027 -0.2673 -0.0350
40210W        W49010  10.317   6.459   0.600 -0.3729 -0.4032  0.2026
40211W        W49011   2.440   0.537   1.771  0.2729 -0.0194  0.3539
40212W        W49012  14.583   5.371  27.736 -0.1582 -0.1152 -0.1701
40213W        W49013   6.962   4.925  34.989  0.3293 -0.3287 -0.0335
40214W        W49014  14.680   4.012  40.210 -0.0833 -0.1022  0.1293
40215W        W49015  20.214   4.034   3.162 -0.0243  0.2890  0.0881
40216W        W49016  10.803   4.193  17.786 -0.3406  0.0842 -0.0658
40217W        W49017  20.873   1.647   8.184 -0.0306  0.2031 -0.1701
40218W        W49018  10.921   6.324  22.709  0.2607  0.0360 -0.2727
40219W        W49019   9.683   4.380  39.192 -0.2342  0.0506 -0.2385
40220W        W49020   9.457   5.566  16.272  0.1005 -0.2594 -0.2374
40221W        W49021   0.588   5.388  12.982  0.1174  0.0029 -0.2773
40222W        W49022  13.210   6.140  43.296  0.0159 -0.0112 -0.0086
40223W        W49023   2.689   3.922  27.554 -0.1716  0.0984  0.0365
40224W        W49024  18.653   2.169  35.636 -0.2064 -0.2888 -0.1984
40225W        W49025   6.476   3.412  15.466 -0.2841  0.1340  0.0845
40226W        W49026   0.398   6.043   4.016  0.0812 -0.3016 -0.2577
40227W        W49027  14.360   2.870   5.168  0.0348 -0.0402 -0.0144
40228W        W49028   9.384   5.632  11.677  0.5086  0.0273  0.0727
40229W        W49029  19.543   5.135  41.192  0.2670 -0.1630  0.0969
40230W        W49030  11.299   0.223   2.684  0.0182  0.0506  0.1774
40231W        W49031   9.488   5.602  17.375 -0.0008  0.1172 -0.0017
40232W        W49032   6.692   2.213   9.300  0.0563 -0.3433 -0.0448
40233W        W49033   0.284   2.342  12.656 -0.0655 -0.1211  0.0675
40234W        W49034   4.786   6.287  19.945 -0.1216 -0.1685  0.1005
40235W        W49035  20.387   2.770  34.384 -0.2502  0.2010 -0.0116
40236W        W49036  13.984   0.697  13.874  0.2597 -0.2519 -0.2828
40237W        W49037   4.181   2.113  37.609 -0.0503  0.5259  0.0023
40238W        W49038  11.407   2.804  15.730  0.0708  0.1204 -0.2322
40239W        W49039  17.071   3.256   0.378 -0.1250 -0.1665 -0.1774
40240W        W49040   7.657   4.672   2.258  0.1621 -0.1948  0.1575
40241W        W49041  13.815   5.257  36.018 -0.0758 -0.0790 -0.1199
40242W        W49042  17.518   0.182  30.335 -0.1672  0.2903 -0.4248
40243W        W49043  10.057   3.952  19.141 -0.1509  0.1328 -0.0219
40244W        W49044  12.149   1.961   6.553 -0.0879 -0.1061 -0.0419
40245W        W49045   9.387   4.003  39.031 -0.3062  0.0931  0.1323
40246W        W49046  11.215   0.664  41.407  0.2400  0.1689  0.1390
40247W        W49047   0.299   1.621  36.269 -0.1871 -0.0989 -0.3359
40248W        W49048   0.046   2.777  38.819  0.3697  0.0060 -0.0434
40249W        W49049   8.520   3.671   2.633 -0.1185 -0.0619  0.0452
40250W        W49050   5.583   5.927  40.222 -0.2725 -0.2377  0.0187
40251W        W49051   7.467   2.207  44.553 -0.0891 -0.4115  0.0272
40252W        W49052   1.299   0.298  28.312  0.1996  0.1848 -0.0196
40253W        W49053  15.730   2.963  10.772  0.1195  0.0874  0.2958
40254W        W49054   9.309   2.061   3.066  0.0003 -0.0724 -0.1372
40255W        W49055  20.549   4.299  14.823 -0.0893 -0.2182  0.1292
40256W        W49056   8.150   4.935  12.923 -0.4010 -0.0871 -0.1937
40257W        W49057   0.730   5.161  38.789  0.0108 -0.0361 -0.1170
40258W        W49058  18.934   2.625   0.479 -0.0817  0.0139  0.3855
40259W        W49059  12.683   6.404  39.952  0.3544  0.1721 -0.3812
40260W        W49060  17.869   1.977  34.131  0.1745  0.0510 -0.3170
40261W        W49061   4.370   1.011  29.565 -0.1455 -0.0390  0.1257
40262W        W49062   8.538   1.838  31.631  0.0900  0.1835  0.1225
40263W        W49063   3.218   0.549   6.496 -0.1118 -0.3961 -0.1875
40264W        W49064   3.696   0.620  27.183  0.0456 -0.2087  0.1776
40265W        W49065   1.242   4.991   4.550  0.0976  0.0998 -0.0371
40266W        W49066   9.522   4.232  18.206 -0.1372 -0.1721  0.0048
40267W        W49067   9.955   3.869   0.007  0.0266 -0.0111  0.0795
40268W        W49068   3.977   2.559   9.518  0.0883  0.1337 -0.0345
40269W        W49069  19.984   2.973  36.666  0.2120  0.1223 -0.0832
40270W        W49070   0.094   3.147   6.586 -0.2278  0.0141  0.0856
40271W        W49071   7.811   1.512   8.983 -0.1438  0.2917 -0.2407
40272W        W49072  14.344   5.781  11.910 -0.2129 -0.0112 -0.0519
40273W        W49073   9.428   5.679  36.341 -0.2401 -0.2039  0.0718
40274W        W49074  19.201   2.001   8.444 -0.0572  0.2036  0.1198
40275W        W49075  13.896   6.568  28.826  0.0107  0.0921 -0.0730
40276W        W49076  14.180   0.760  30.679 -0.0206 -0.2965  0.0747
40277W        W49077   0.120   1.689  31.562 -0.2068 -0.1236  0.0193
40278W        W49078  20.730   3.440  14.306 -0.0788 -0.1425 -0.1648
40279W        W49079  12.481   0.331   5.619 -0.3726 -0.2741  0.1724
40280W        W49080  17.589   6.563   3.085 -0.3105  0.0355 -0.0303
40281W        W49081   6.988   1.761  13.070  0.1494  0.3807 -0.1773
40282W        W49082  14.117   4.082  37.813 -0.3006  0.1668 -0.0902
40283W        W49083  17.830   1.337  27.657  0.0597 -0.3014  0.2356
40284W        W49084  16.552   1.844  10.184 -0.0190  0.0043 -0.1576
40285W        W49085   0.197   5.077   3.644 -0.2027 -0.2258 -0.1661
40286W        W49086  10.172   1.525  24.153 -0.0546 -0.0349  0.0101
40287W        W49087  13.975   3.583  27.762  0.1064  0.2308  0.0570
40288W        W49088   2.794   0.442  32.422 -0.0129  0.3269 -0.0846
40289W        W49089   6.293   0.525   5.122 -0.0901 -0.1840  0.3292
40290W        W49090  10.793   4.584  19.548  0.1520 -0.1354 -0.1725
40291W        W49091  14.805   1.751  40.290  0.2476 -0.1940 -0.4313
40292W        W49092  10.520   0.250   0.367  0.0391 -0.2669 -0.3775
40293W        W49093  17.727   6.500  37.171  0.1749 -0.0466 -0.0164
40294W        W49094  15.589   6.496   4.033  0.1244 -0.1229 -0.0708
40295W        W49095  12.182   6.168   1.039  0.0340 -0.2103 -0.1704
40296W        W49096   8.362   1.593  43.361  0.2753 -0.2264  0.0376
40297W        W49097  16.254   2.858   1.334 -0.0186 -0.2945 -0.0321
40298W        W49098   7.519   1.547   9.526 -0.0060 -0.0447  0.1731
40299W        W49099  14.092   2.038  17.967 -0.0308 -0.4944 -0.0107
40300W        W49100  21.044   2.810   4.090 -0.1176  0.2801  0.0753
40301W        W49101   2.726   3.270  28.292 -0.0716 -0.1326 -0.1641
40302W        W49102   2.266   0.553  28.008  0.0375  0.2596  0.1104
40303W        W49103  18.993   4.769   2.631  0.0859  0.0587  0.1415
40304W        W49104  14.194   0.453  13.016 -0.0404 -0.0683 -0.1348
40305W        W49105  11.988   4.105  15.991 -0.0374 -0.1337 -0.0301
40306W        W49106  10.621   4.202  11.543 -0.2828  0.1530  0.0872
40307W        W49107   7.228   4.482   0.036  0.1056  0.1668  0.0413
40308W        W49108   8.318   0.374  12.270  0.1566 -0.1050  0.0359
40309W        W49109   9.844   5.356  43.446  0.0792  0.3039  0.1088
40310W        W49110   6.060   6.575   5.884  0.2842 -0.3672 -0.2357
40311W        W49111  11.529   5.781   9.794  0.2291  0.4553  0.1876
40312W        W49112   7.558   4.425  32.709  0.2101 -0.2454  0.0970
40313W        W49113   5.564   1.925  31.578  0.0347  0.3328  0.1214
40314W        W49114   9.878   1.209   4.908  0.0698 -0.0261  0.3880
40315W        W49115   6.404   0.192  32.242 -0.1800 -0.0378 -0.0680
40316W        W49116   9.439   4.105  13.985  0.1078  0.0506  0.1395
40317W        W49117   0.033   2.203  26.181 -0.1233 -0.1370 -0.2520
40318W        W49118  10.284   0.662  17.657 -0.1736 -0.0349 -0.1044
40319W        W49119  19.307   2.165   1.934  0.1998  0.0222  0.2668
40320W        W49120   5.264   5.809  17.444  0.2306 -0.0497  0.0584
40321W        W49121   9.253   0.299  39.324 -0.0671 -0.2987  0.0849
40322W        W49122  13.745   1.679  31.760  0.2603 -0.0934 -0.2298
40323W        W49123  17.684   0.486  23.385 -0.0647 -0.1401 -0.3591
40324W        W49124  19.763   4.300  44.906  0.1410 -0.0891 -0.0607
40325W        W49125   2.504   4.196  35.284 -0.0106  0.2185 -0.0714
40326W        W49126   8.401   1.546  41.640  0.0248  0.1737 -0.2303
40327W        W49127  13.534   5.594  35.746  0.0061 -0.1797 -0.1838
40328W        W49128   2.459   0.830  31.833  0.3524 -0.0153  0.0619
40329W        W49129   0.702   2.914  29.205 -0.0725  0.4484  0.1494
40330W        W49130  17.986   1.639   6.815  0.0894 -0.1449  0.0794
40331W        W49131  16.450   2.179  15.081 -0.0200  0.0874  0.0507
40332W        W49132  16.678   5.575   9.694  0.2706 -0.0279  0.0550
40333W        W49133  13.544   1.866   2.022  0.1205  0.0103 -0.0065
40334W        W49134   3.157   3.073  43.998  0.0160  0.1974  0.1207
40335W        W49135   3.500   5.880  13.084 -0.1126 -0.2527 -0.2511
40336W        W49136   8.092   3.156   1.694  0.2746 -0.1844 -0.1152
40337W        W49137   3.266   6.178   2.184  0.1982 -0.3088  0.2369
40338W        W49138  18.470   1.427   1.170 -0.1043 -0.0155  0.5092
40339W        W49139  19.881   6.475  37.457 -0.1263  0.0315 -0.0012
40340W        W49140   8.344   5.747  30.794  0.5573 -0.2913  0.1018
40341W        W49141   9.812   3.038  11.627 -0.1619 -0.0430  0.1784
40342W        W49142   1.814   0.841   5.096  0.1613  0.0862  0.0015
40343W        W49143   0.219   4.590  24.476 -0.1294 -0.3582 -0.1683
40344W        W49144  13.814   4.687   6.421 -0.1824 -0.1352 -0.1194
40345W        W49145   7.369   3.019  16.007 -0.1858  0.0617  0.0092
40346W        W49146   0.334   2.740  15.294  0.1324  0.3871 -0.0415
40347W        W49147  16.270   4.003  11.350 -0.0097 -0.2116  0.1414
40348W        W49148   8.565   4.355  37.129  0.0247  0.0019 -0.2824
40349W        W49149   8.403   2.252   1.683  0.1041 -0.2126  0.1786
40350W        W49150  11.063   4.187  14.163  0.0724 -0.0889 -0.0088
40351W        W49151  12.844   3.465  38.519 -0.0822 -0.3369  0.0464
40352W        W49152   6.559   1.592  43.185 -0.0488  0.4198  0.0363
40353W        W49153  14.954   2.914  32.470 -0.1325  0.1270 -0.2263
40354W        W49154   5.223   3.448   1.694  0.0767 -0.2188 -0.0073
40355W        W49155  15.855   5.876  44.193  0.0393 -0.3283 -0.0071
40356W        W49156  11.974   6.039  18.285 -0.2719  0.4748 -0.3453
40357W        W49157  18.610   4.578  16.353  0.0299  0.1069  0.1491
40358W        W49158  12.019   2.657  27.826 -0.3645 -0.1400 -0.0859
40359W        W49159  18.652   5.997  43.144 -0.1087 -0.1923 -0.2437
40360W        W49160  14.029   5.557  30.241 -0.2632  0.0329  0.0256
40361W        W49161   2.839   5.195  44.276 -0.4139  0.2068 -0.0532
40362W        W49162  11.598   1.455  33.514 -0.2478 -0.0418 -0.3659
40363W        W49163  11.172   4.108   2.502 -0.0822  0.0556  0.0070
40364W        W49164  19.338   2.880  11.266  0.2497 -0.1567  0.0624
40365W        W49165   3.035   3.415  15.046 -0.1213  0.1557 -0.2414
40366W        W49166  10.149   2.553  11.683  0.0531  0.3486 -0.0348
40367W        W49167  10.582   3.989   3.315  0.0965  0.1755 -0.0896
40368W        W49168   4.213   3.506   9.540 -0.1475 -0.0362  0.2569
40369W        W49169  15.677   4.839  41.130 -0.0768 -0.0169 -0.0951
40370W        W49170  13.481   0.360  35.486 -0.0429 -0.2154 -0.2086
40371W        W49171   8.887   1.521   4.709 -0.2622  0.0205 -0.3331
40372W        W49172   7.602   0.696  38.456 -0.0217  0.1786 -0.2971
40373W        W49173  14.569   3.379  35.368 -0.0475 -0.1293  0.1986
40374W        W49174   9.590   5.690  30.234 -0.0980  0.0630 -0.2156
40375W        W49175   1.850   2.364  14.155 -0.0367  0.0310 -0.1156
40376W        W49176   7.826   6.579  11.432  0.0788 -0.0898 -0.2857
40377W        W49177  19.661   2.064  18.377 -0.2554  0.1483  0.2102
40378W        W49178   1.506   1.780   5.697  0.1071 -0.1199 -0.0649
40379W        W49179  13.044   2.756   1.168 -0.1971  0.0187  0.3096
40380W        W49180   3.310   5.085  27.243 -0.4960 -0.2070  0.3846
40381W        W49181  19.707   2.577  24.410 -0.2344  0.0244 -0.0383
40382W        W49182   4.219   0.299   4.150 -0.0704 -0.2147  0.0277
40383W        W49183   7.757   1.956  31.026  0.1095  0.2740  0.4285
40384W        W49184  15.752   5.155   2.069 -0.1147 -0.2045  0.0474
40385W        W49185   5.132   4.406  13.921 -0.0772 -0.3713  0.2014
40386W        W49186  18.839   6.594  44.362  0.2975 -0.2818 -0.3428
40387W        W49187  19.455   2.013   0.990 -0.1758  0.2739 -0.1760
40388W        W49188  16.279   2.052   8.759  0.0585  0.0552  0.0758
40389W        W49189   7.716   2.286   2.359  0.0331  0.1361 -0.1541
40390W        W49190  18.810   0.101  27.208  0.3661  0.0052 -0.0952
40391W        W49191   7.091   4.968  37.080 -0.0808 -0.2769 -0.2151
40392W        W49192  16.920   0.211   2.423  0.0512 -0.0264  0.2620
40393W        W49193   5.774   3.335   4.587 -0.1015  0.1214  0.0170
40394W        W49194   9.175   0.144  18.401  0.1575 -0.0162  0.0558
40395W        W49195  15.261   0.233  10.144 -0.0076  0.2803 -0.2391
40396W        W49196  14.131   5.675   6.326 -0.0620 -0.1794 -0.1185
40397W        W49197   8.704   4.358   0.492 -0.1228  0.0381  0.0067
40398W        W49198  12.705   2.246  31.680 -0.0708 -0.0809 -0.1787
40399W        W49199  10.500   4.965  39.836 -0.0220  0.0083 -0.1738
40400W        W49200  10.178   4.572  39.165  0.0367  0.0788 -0.3723
40401W        W49201   5.121   6.435  10.679  0.2161 -0.2630  0.1243
40402W        W49202   0.599   3.827  28.221  0.0773 -0.0932  0.0345
40403W        W49203   9.129   0.035  11.984 -0.0059  0.0047 -0.1996
40404W        W49204   2.830   5.922   5.575 -0.1703  0.1590 -0.1874
40405W        W49205  16.374   1.794  39.100  0.0972  0.1166  0.0917
40406W        W49206  10.763   1.010  41.548 -0.0622 -0.2719 -0.2566
40407W        W49207  19.343   6.183   5.356  0.1898 -0.0403 -0.1726
40408W        W49208   1.457   2.539  25.583 -0.1285 -0.1903 -0.0559
40409W        W49209  15.180   6.314  34.416 -0.2496 -0.0791  0.2440
40410W        W49210  11.653   3.392  18.245 -0.2327 -0.3488 -0.1398
40411W        W49211   9.594   4.143   5.793 -0.0783  0.0832  0.0075
40412W        W49212   5.188   5.435  10.545  0.1119  0.1158 -0.0680
40413W        W49213  11.688   3.293  17.658  0.0867  0.2003  0.2341
40414W        W49214  16.142   3.164  12.078  0.3397  0.0110 -0.0838
40415W        W49215  11.073   5.026   6.191  0.1694 -0.2752 -0.0250
40416W        W49216   7.886   5.093  17.671  0.0235 -0.0859 -0.0457
40417W        W49217  16.858   5.655  41.273  0.2361 -0.0194 -0.0879
40418W        W49218  11.571   0.509  18.920 -0.2280 -0.1204 -0.1341
40419W        W49219  17.514   1.105  28.669  0.0782 -0.0783 -0.0738
40420W        W49220  10.155   4.184  20.986  0.0053  0.0915 -0.2906
40421W        W49221  14.695   3.299  39.153 -0.1395 -0.1828  0.0379
40422W        W49222  12.254   1.316  15.457 -0.0761 -0.0803  0.2454
40423W        W49223  19.419   2.677   9.621 -0.4036  0.1977  0.0608
40424W        W49224   6.190   4.214  13.337 -0.0278  0.3357  0.4653
40425W        W49225  10.225   2.147  38.713 -0.0029 -0.2785 -0.0007
40426W        W49226   1.428   3.999  41.647 -0.3725  0.2988  0.1228
40427W        W49227   7.614   1.064  40.284 -0.1610 -0.2961  0.0437
40428W        W49228   4.031   4.863   5.091 -0.1127 -0.2062 -0.3364
40429W        W49229   7.689   6.370  10.091  0.2288  0.0769 -0.0320
40430W        W49230   6.546   0.179  10.405 -0.1277 -0.3030  0.0612
40431W        W49231   3.100   4.988   3.786  0.0222  0.2100 -0.4255
40432W        W49232   5.773   2.942  42.962  0.2618 -0.0893  0.0578
40433W        W49233   1.807   2.546  38.527 -0.0744 -0.1792 -0.1770
40434W        W49234   3.483   3.929   7.316 -0.0583  0.0792  0.4637
40435W        W49235  13.847   6.413  31.825  0.1899  0.0100 -0.0034
40436W        W49236   2.455   6.546  37.377  0.4138 -0.1975 -0.0290
40437W        W49237   1.649   2.210  13.736 -0.1432  0.0177 -0.2910
40438W        W49238  18.446   5.773   3.508 -0.2673 -0.1344  0.0378
40439W        W49239  10.044   1.660  17.964  0.1771 -0.2384  0.5708
40440W        W49240   9.282   5.967  12.495 -0.2379  0.1116 -0.1812
40441W        W49241   8.186   2.936  31.712 -0.0658 -0.1163 -0.1206
40442W        W49242   6.942   1.187  13.782 -0.1840 -0.1191 -0.0226
40443W        W49243  11.929   0.043   1.508  0.1754 -0.0210 -0.0819
40444W        W49244   6.612   2.910  40.715  0.0148  0.2115  0.4160
40445W        W49245  18.053   0.490  28.103 -0.2379  0.2251 -0.2362
40446W        W49246  14.488   4.470  37.532 -0.1502 -0.0136 -0.0321
40447W        W49247   7.564   4.764   0.676 -0.1241 -0.1176  0.0183
40448W        W49248   2.604   3.301   6.251  0.1651  0.0897 -0.0010
40449W        W49249   4.576   3.398  40.028  0.0427 -0.2911  0.0526
40450W        W49250   3.431   4.448  27.156 -0.0660 -0.1683 -0.2924
40451W        W49251  18.364   5.803  23.762 -0.2551 -0.0077 -0.0530
40452W        W49252   1.689   1.036  40.061  0.1242  0.0227  0.1934
40453W        W49253   1.753   3.934  14.080 -0.1718 -0.1736  0.1928
40454W        W49254  18.324   0.822   8.268 -0.2005 -0.1207 -0.1003
40455W        W49255  19.689   2.975   3.726 -0.1315 -0.2424  0.1010
40456W        W49256  11.082   5.411  22.549  0.0768 -0.1574 -0.0368
40457W        W49257  12.849   5.351  35.132  0.0416 -0.1472  0.3218
40458W        W49258   6.145   2.704   0.791 -0.0343 -0.1026  0.1186
40459W        W49259  11.794   2.784  32.510 -0.2078  0.1695 -0.2258
40460W        W49260  12.088   6.240  40.424 -0.3599  0.0206 -0.0160
40461W        W49261   5.571   1.688  32.974 -0.0281 -0.1031  0.1025
40462W        W49262   2.094   3.046   9.609 -0.0525  0.2648 -0.1591
40463W        W49263   7.688   5.203   8.755  0.1763 -0.0191  0.2886
40464W        W49264   0.275   4.736  37.543 -0.0742 -0.0904  0.1839
40465W        W49265  11.447   2.191   6.161 -0.0003  0.2611  0.1634
40466W        W49266   4.722   3.734  30.946 -0.0498  0.2859 -0.1160
40467W        W49267  19.059   5.323   1.779  0.1362 -0.1004  0.2950
40468W        W49268  18.356   5.141   8.558  0.0178  0.1939 -0.4044
40469W        W49269   4.164   5.723  11.392 -0.2186 -0.1562 -0.0402
40470W        W49270  15.559   2.086  15.204 -0.1852  0.3385 -0.0995
40471W        W49271  17.132   1.013  30.614 -0.0748 -0.0936 -0.1996
40472W        W49272   6.371   2.171   6.040  0.1372 -0.1332 -0.1578
40473W        W49273   2.192   2.188  41.608  0.1642  0.0516  0.0453
40474W        W49274  16.970   6.214  15.744  0.2357  0.0640  0.1548
40475W        W49275  12.887   0.563   3.431  0.3311  0.3243 -0.1057
40476W        W49276  11.517   1.583  37.413  0.2491  0.1321 -0.3518
40477W        W49277   2.182   6.494  39.153  0.1396  0.1377 -0.0845
40478W        W49278  17.841   4.831  12.273 -0.2651 -0.0813 -0.0678
40479W        W49279  13.158   1.329  15.567  0.4798 -0.1069 -0.0916
40480W        W49280  18.849   0.570   7.879 -0.2484 -0.0609  0.0435
40481W        W49281  14.143   5.987   8.055 -0.1852 -0.3957  0.0786
40482W        W49282  20.801   2.467   4.801  0.0678 -0.3899 -0.1223
40483W        W49283  18.996   3.303  21.478  0.2621 -0.0088  0.1104
40484W        W49284  14.705   1.922   6.418  0.3625 -0.0702  0.0554
40485W        W49285   3.186   2.767  12.252  0.1791 -0.1868  0.1745
40486W        W49286   0.368   0.800  27.965  0.1431 -0.1347 -0.2889
40487W        W49287   7.119   5.494   2.375  0.0868  0.1295 -0.1501
40488W        W49288   2.452   2.500  10.876 -0.1643  0.1163 -0.4115
40489W        W49289  15.902   3.194  42.023  0.0532  0.0016  0.1282
40490W        W49290  20.962   4.979  37.789 -0.3213 -0.0113  0.4243
40491W        W49291  11.088   0.326  11.399 -0.1499 -0.2662  0.2319
40492W        W49292   8.939   5.790  44.291  0.0830 -0.2353  0.0465
40493W        W49293   4.478   5.734  38.414 -0.1886 -0.0933  0.1413
40494W        W49294  17.036   4.704   9.210 -0.0318  0.0423  0.0019
40495W        W49295   0.944   6.574  35.374 -0.2848  0.1311 -0.1647
40496W        W49296  19.835   4.677  26.470 -0.2513  0.0054 -0.0198
40497W        W49297  17.019   4.793  23.850 -0.0876  0.0724 -0.3511
40498W        W49298  13.083   2.212  30.539 -0.1033  0.0025 -0.0053
40499W        W49299   7.360   5.305   6.355  0.0868 -0.0795 -0.0800
40500W        W49300   1.477   5.126  38.070 -0.0580 -0.0749 -0.0676
40501W        W49301   5.390   1.804  29.610 -0.3281 -0.0990 -0.1131
40502W        W49302  17.660   5.564   9.515 -0.2845  0.2127 -0.1551
40503W        W49303  19.732   3.067  31.610 -0.0212  0.2299  0.0311
40504W        W49304   5.217   6.165  12.030 -0.2944 -0.0303 -0.0066
40505W        W49305   5.927   0.298  19.020  0.0148  0.1309 -0.0896
40506W        W49306   4.313   4.266  44.754 -0.2628 -0.0141 -0.0734
40507W        W49307  15.267   0.569  44.541 -0.1932  0.2473  0.1628
40508W        W49308  12.228   3.498  27.602  0.0355  0.2225  0.0981
40509W        W49309  10.107   1.913   6.633  0.0741  0.0352 -0.2100
40510W        W49310  14.812   4.760  40.804  0.0875  0.1077  0.1095
40511W        W49311   9.425   4.174  19.214 -0.1275 -0.1304 -0.0103
40512W        W49312  16.911   5.845  29.726 -0.3306  0.0100 -0.0665
40513W        W49313   6.145   0.296  35.283  0.1768  0.2278  0.0398
40514W        W49314  16.775   5.986  39.447 -0.2077 -0.2130  0.1372
40515W        W49315  11.135   5.254   0.257 -0.2075  0.2855  0.1651
40516W        W49316  12.603   1.951  15.982 -0.4365 -0.3630  0.0630
40517W        W49317   0.464   6.052  13.637  0.2815 -0.2529 -0.0026
40518W        W49318  12.041   2.812   1.204 -0.2166 -0.1830  0.2466
40519W        W49319  13.470   2.286   0.568 -0.0598  0.1593  0.2214
40520W        W49320   4.905   0.098   7.215 -0.0573 -0.1563  0.0392
40521W        W49321  17.155   6.136   0.860 -0.3806  0.0626  0.2694
40522W        W49322  10.496   4.816   6.207 -0.1989  0.3974  0.0477
40523W        W49323   7.126   1.517  20.332 -0.1396 -0.5075  0.2998
40524W        W49324   0.214   2.832  33.100 -0.1526  0.0415 -0.0637
40525W        W49325  18.659   0.227  14.650 -0.3064  0.2695  0.2848
40526W        W49326   2.644   4.757  30.552 -0.3505  0.3496 -0.1590
40527W        W49327  11.660   1.743  34.093  0.0845 -0.4286 -0.0317
40528W        W49328  19.898   1.364  19.704  0.0031  0.0258  0.3837
40529W        W49329  15.350   3.777  44.717 -0.1786 -0.2963  0.3045
40530W        W49330   2.964   2.950  13.284 -0.1579 -0.1007 -0.1513
40531W        W49331  13.280   2.912  37.345 -0.2165  0.1795 -0.0902
40532W        W49332   1.404   6.365  25.188  0.3080 -0.1410  0.1784
40533W        W49333   4.969   1.298  44.423  0.0610 -0.3469  0.4466
40534W        W49334  11.725   3.066  29.004  0.2715  0.1239  0.0869
40535W        W49335   2.515   3.625  42.999  0.2680 -0.5272 -0.1177
40536W        W49336   2.707   2.699  36.733  0.0987 -0.1524  0.1129
40537W        W49337  13.709   4.088  11.097  0.0474 -0.1432 -0.2792
40538W        W49338  12.479   1.623   6.301 -0.4255 -0.1377  0.0627
40539W        W49339  19.897   4.577   7.643 -0.0249  0.1566 -0.1603
40540W        W49340   0.462   2.257   2.026 -0.3243 -0.0567  0.0731
40541W        W49341  15.909   0.036   0.136  0.1781  0.6191 -0.0091
40542W        W49342  14.010   3.422  42.113 -0.1249  0.0573  0.0034
40543W        W49343   4.440   0.637  17.347 -0.0741  0.1259  0.3246
40544W        W49344  17.143   3.443  11.574 -0.0828  0.2243  0.1642
40545W        W49345  13.777   1.537   7.711 -0.3133  0.1798 -0.2899
40546W        W49346   1.495   4.690   8.886 -0.0835 -0.2208 -0.0150
40547W        W49347   3.822   1.308  17.449  0.1138  0.0162 -0.0600
40548W        W49348   7.819   3.198  43.210 -0.0608 -0.0270  0.0061
40549W        W49349   4.152   0.905  17.689  0.1015 -0.2580  0.1866
40550W        W49350  10.941   1.303  39.897 -0.0366  0.0327 -0.3010
40551W        W49351   9.405   4.829  32.452 -0.0616  0.1112 -0.1587
40552W        W49352  21.044   0.900  38.801 -0.0184 -0.1844  0.0250
40553W        W49353   4.526   4.221   2.441 -0.0237  0.0559  0.1194
40554W        W49354  14.854   3.322  43.994 -0.0629 -0.4126 -0.1294
40555W        W49355   0.368   0.313  34.622 -0.1540 -0.2569 -0.1250
40556W        W49356  16.503   1.880  40.507  0.0089 -0.1938  0.2697
40557W        W49357  17.326   1.172  27.818  0.1614 -0.5936  0.2783
40558W        W49358  15.385   5.475  27.389  0.2481 -0.0854  0.0622
40559W        W49359   0.261   1.896  11.702 -0.0536 -0.1772 -0.2040
40560W        W49360  20.918   4.549   0.078 -0.0175  0.0241  0.3284
40561W        W49361  18.223   2.190  23.890 -0.0729 -0.1718 -0.0039
40562W        W49362   2.478   2.803  31.526  0.0114 -0.0275 -0.1292
40563W        W49363  11.540   4.223  21.599  0.1918 -0.0644 -0.0485
40564W        W49364  14.778   4.508  36.463  0.3461 -0.1105  0.2169
40565W        W49365  10.643   3.180  17.374  0.0933  0.2086  0.1833
40566W        W49366   5.962   6.026  10.859  0.0328 -0.1145  0.0507
40567W        W49367  14.839   1.214  14.472 -0.1618  0.0510  0.1551
40568W        W49368  20.780   1.047  12.631 -0.0730  0.0228 -0.0871
40569W        W49369   3.008   0.263  44.897 -0.1975  0.0790  0.0193
40570W        W49370  19.399   3.164   4.734  0.2858  0.3365 -0.0938
40571W        W49371  18.912   1.644  22.588  0.1968 -0.3551  0.0366
40572W        W49372  17.531   2.016  40.573 -0.1250 -0.2395  0.0500
40573W        W49373  12.032   2.825  14.005 -0.1235  0.1077 -0.4122
40574W        W49374  16.044   6.355   8.981  0.0962 -0.1884 -0.1828
40575W        W49375   9.243   1.271  30.638  0.0135 -0.1149  0.0649
40576W        W49376  19.148   4.380  29.893 -0.0324  0.0738  0.3850
40577W        W49377   0.688   3.847   7.058 -0.1608  0.1161 -0.2695
40578W        W49378   7.276   3.842  10.802  0.4946  0.1745 -0.4401
40579W        W49379   8.112   3.225  40.463 -0.1900 -0.2113  0.0641
40580W        W49380  20.433   5.815  32.900  0.0814  0.0623 -0.5641
40581W        W49381  13.243   3.920  34.686 -0.0477  0.0492  0.2760
40582W        W49382  13.775   0.556   0.965 -0.1759  0.0155 -0.1027
40583W        W49383   7.791   0.252  15.553 -0.0319 -0.0995  0.1116
40584W        W49384   7.541   0.480  44.610 -0.4488 -0.3188 -0.0704
40585W        W49385   1.360   4.254  32.957  0.1768 -0.1969  0.0922
40586W        W49386   6.944   1.672  38.506 -0.0602  0.1394 -0.0775
40587W        W49387  11.444   3.633  38.992 -0.2813  0.1782 -0.4963
40588W        W49388   3.672   2.458   3.268  0.2332 -0.0580 -0.2326
40589W        W49389  20.844   2.916  44.971  0.0726  0.0026  0.0056
40590W        W49390  15.371   1.500  38.629 -0.1147  0.0073  0.0575
40591W        W49391  12.944   5.964  13.566 -0.2952  0.3452 -0.0997
40592W        W49392  18.013   6.215  13.283 -0.1015  0.0730  0.1057
40593W        W49393   6.502   5.766  39.420 -0.0173 -0.2504  0.0643
40594W        W49394   6.263   5.033  32.286 -0.0754  0.2121 -0.0857
40595W        W49395  10.753   1.509  33.540  0.1590 -0.1007 -0.0761
40596W        W49396  18.789   2.183  43.872 -0.0320 -0.0122  0.1664
40597W        W49397  20.981   1.422  36.187  0.1249 -0.2660  0.3123
40598W        W49398   7.939   6.513  40.970  0.0775 -0.1241 -0.1783
40599W        W49399   2.292   1.223   9.162 -0.0056 -0.1016 -0.2098
40600W        W49400   0.370   3.491  21.426 -0.0542  0.1279 -0.1814
40601W        W49401   1.193   1.720  30.240 -0.4464  0.0694 -0.0330
40602W        W49402  10.931   2.223  25.043 -0.1639 -0.1355  0.0941
40603W        W49403   4.515   5.703  43.343  0.0117 -0.0469 -0.0538
40604W        W49404  20.461   5.640   8.793 -0.1447  0.0770 -0.2721
40605W        W49405  19.057   0.440  15.248 -0.0736 -0.2765  0.3368
40606W        W49406  19.017   2.878   9.877  0.0398 -0.0810  0.1059
40607W        W49407   8.521   1.518  35.720  0.0115  0.2072  0.2303
40608W        W49408   1.725   3.623  30.802 -0.2141  0.1046 -0.1304
40609W        W49409  15.432   3.893  34.297  0.3078  0.4893  0.0001
40610W        W49410  13.758   5.283  16.894 -0.0162  0.2351 -0.1485
40611W        W49411   7.558   1.012  41.837 -0.0421 -0.0984 -0.1975
40612W        W49412  16.260   3.125   3.644 -0.1029 -0.1011 -0.1574
40613W        W49413  11.798   4.122   5.459  0.0113  0.2419 -0.2569
40614W        W49414   2.888   5.466  26.405 -0.0102  0.0276 -0.0064
40615W        W49415  12.216   1.154  19.991  0.3778  0.0174  0.0503
40616W        W49416  14.476   3.861  34.620  0.0911  0.2825  0.1821
40617W        W49417  12.609   0.120  42.304 -0.0050 -0.0438 -0.0685
40618W        W49418  13.736   1.961  38.050  0.0005 -0.1751  0.0707
40619W        W49419  19.776   5.474  37.329  0.2755  0.0447 -0.0926
40620W        W49420   3.025   4.768   5.909 -0.1231  0.0756 -0.1823
40621W        W49421  11.465   4.713  12.313 -0.2012 -0.2186  0.1931
40622W        W49422   1.694   3.501   6.442  0.3074  0.1266  0.2508
40623W        W49423   2.425   0.245  29.873 -0.1312 -0.0950  0.0562
40624W        W49424   4.545   3.931  12.752  0.0410 -0.1455  0.0516
40625W        W49425   5.090   4.778  10.783 -0.2675 -0.0310  0.0013
40626W        W49426   5.173   3.992   3.864 -0.0136 -0.0463  0.2263
40627W        W49427   0.103   4.987  35.846  0.1270  0.0887 -0.0319
40628W        W49428   4.696   3.569  17.708 -0.3030 -0.1907  0.0066
40629W        W49429  13.407   4.439  17.459 -0.1814  0.0531 -0.1517
40630W        W49430   6.606   2.789  42.613  0.4772 -0.0635 -0.0615
40631W        W49431   2.513   0.034  43.055 -0.0920 -0.0132  0.3000
40632W        W49432  11.968   4.431   5.913  0.0449  0.0618 -0.2245
40633W        W49433  21.027   0.366  24.477  0.0710  0.2075 -0.1468
40634W        W49434  14.576   5.876  29.355 -0.3534 -0.3587 -0.1038
40635W        W49435  11.519   4.852  38.608 -0.0138  0.1954  0.2016
40636W        W49436  12.752   2.072   1.751  0.1277 -0.0093 -0.1871
40637W        W49437  15.919   5.245  26.971 -0.0394  0.2005 -0.0678
40638W        W49438  18.256   5.313   3.025 -0.2461  0.2229  0.2849
40639W        W49439   4.331   5.393  29.752  0.0880 -0.0085 -0.0954
40640W        W49440   6.603   0.130  11.569  0.1918  0.0870  0.2625
40641W        W49441  20.113   2.126   6.473  0.0191 -0.3074  0.0050
40642W        W49442  10.980   4.142  42.594 -0.0456  0.1567 -0.0363
40643W        W49443   5.631   4.688  11.594 -0.2191 -0.1940  0.3166
40644W        W49444  10.969   3.562  41.233  0.0056 -0.1014 -0.1581
40645W        W49445   9.256   5.014  32.898  0.1228  0.0913 -0.0112
40646W        W49446  20.071   2.815   1.153  0.2788  0.0360  0.0368
40647W        W49447  14.319   0.234  36.576  0.1881  0.1416  0.0572
40648W        W49448   1.230   5.862  13.183  0.3132  0.1683 -0.3488
40649W        W49449  11.580   4.831  11.380 -0.1530 -0.0653 -0.2843
40650W        W49450   8.401   2.336   6.155 -0.0066  0.0116  0.0401
40651W        W49451  17.937   5.264   3.639 -0.2258 -0.2879 -0.0361
40652W        W49452   6.432   1.365  21.481  0.0936 -0.0612 -0.0768
40653W        W49453  15.040   4.267  26.380  0.1997  0.3443  0.0158
40654W        W49454   0.254   5.424  15.092 -0.1585  0.0175  0.0805
40655W        W49455  14.730   5.338  36.395 -0.0069  0.2131  0.1046
40656W        W49456  11.151   0.109  39.318 -0.1672  0.0644 -0.0942
40657W        W49457   9.591   5.839  35.589  0.2655  0.0673  0.0053
40658W        W49458   0.098   5.230  27.512  0.0612  0.2109  0.2786
40659W        W49459   8.385   5.612  36.813 -0.0904  0.0924 -0.0184
40660W        W49460  14.078   6.333   9.171 -0.0450  0.0818 -0.0201
40661W        W49461  18.619   2.600  30.036  0.0286  0.0910 -0.0441
40662W        W49462   2.603   4.409  26.726 -0.1023  0.0091 -0.0031
40663W        W49463  15.283   4.651  15.208 -0.2146  0.2334  0.1722
40664W        W49464   3.872   0.641  10.574 -0.1032 -0.1823 -0.2947
40665W        W49465   4.797   4.333  44.623  0.0220 -0.1327  0.0569
40666W        W49466   6.263   3.982  39.492  0.3423  0.0988 -0.1838
40667W        W49467  16.186   1.714   4.015  0.0577 -0.0455 -0.0715
40668W        W49468  14.083   5.383  31.630  0.3206  0.1131 -0.1724
40669W        W49469  13.142   3.947  18.805  0.3816 -0.0998 -0.3377
40670W        W49470   3.071   0.570  15.787 -0.2061  0.1225  0.0483
40671W        W49471  11.172   4.418  32.182 -0.1241 -0.1062 -0.0987
40672W        W49472  19.493   2.943  30.619 -0.0165 -0.0726 -0.0043
40673W        W49473   0.615   5.092   6.464  0.0540 -0.2127 -0.1448
40674W        W49474  14.155   5.861  27.732  0.2936 -0.4187  0.0777
40675W        W49475   3.745   5.819  34.289 -0.2266 -0.1277 -0.0764
40676W        W49476  19.655   0.500  35.183  0.3572  0.2839  0.0069
40677W        W49477  20.395   4.459  33.707 -0.1514  0.1322 -0.0315
40678W        W49478  17.769   1.212  13.475  0.1554 -0.0126 -0.2193
40679W        W49479  13.020   4.028   6.171 -0.0621  0.0054 -0.0596
40680W        W49480  11.825   0.243  44.383 -0.3409  0.0290 -0.0293
40681W        W49481  19.548   2.556  42.074 -0.1571  0.2855 -0.0623
40682W        W49482   2.911   3.521   3.678 -0.1454 -0.0935  0.0359
40683W        W49483  20.120   3.308  43.974  0.3177  0.0149 -0.2126
40684W        W49484  19.871   1.967   3.906 -0.0034  0.0122  0.1638
40685W        W49485  11.792   2.178   5.457  0.2770 -0.1174  0.1327
40686W        W49486  10.680   2.311  11.632  0.1855  0.2092 -0.1287
40687W        W49487  15.625   0.556  37.812  0.0740 -0.1235 -0.1095
40688W        W49488  13.187   2.800   8.341  0.3343  0.1062  0.1560
40689W        W49489   9.084   4.038  30.869  0.3128  0.0107  0.0982
40690W        W49490   3.193   4.542   6.308  0.0649  0.2356  0.1257
40691W        W49491   5.661   3.724   6.781 -0.0487 -0.2944  0.1232
40692W        W49492   5.188   3.167   7.069 -0.0468  0.1650  0.2266
40693W        W49493  19.988   5.278  32.437  0.1721  0.0914 -0.1783
40694W        W49494  17.253   3.172   9.126 -0.1937  0.2389  0.2670
40695W        W49495  13.954   0.589  17.862  0.1834  0.1786 -0.1849
40696W        W49496   3.742   5.863  11.708 -0.0664  0.2071 -0.0314
40697W        W49497  14.038   0.203  34.880  0.0828  0.3389  0.0252
40698W        W49498  14.558   3.295  42.373  0.0420 -0.1112 -0.3075
40699W        W49499   6.273   4.337  20.094 -0.2641 -0.3531  0.0163
40700W        W49500  15.524   6.271  14.498  0.0570  0.0295  0.0633
40701W        W49501   2.031   1.778   0.483  0.3422 -0.0586  0.0607
40702W        W49502  18.761   1.265  15.183  0.0085  0.2143 -0.2011
40703W        W49503  18.221   2.332  36.901 -0.0188 -0.0202 -0.0712
40704W        W49504   8.126   0.745  36.401  0.1341 -0.1817  0.0589
40705W        W49505  12.586   5.450  38.320  0.0072  0.1595  0.2239
40706W        W49506  19.068   0.986  20.024  0.0056 -0.1105 -0.0015
40707W        W49507  19.680   0.626  37.283 -0.5070 -0.1099  0.3518
40708W        W49508  20.642   5.720  11.751  0.2450  0.1769  0.1012
40709W        W49509  11.245   1.852  44.381 -0.0688 -0.1643 -0.2122
40710W        W49510  20.490   0.125  32.610 -0.0583  0.1922 -0.1271
40711W        W49511   2.694   5.353   9.829  0.1091  0.0575  0.3541
40712W        W49512  19.711   5.238  19.845 -0.2310  0.1207  0.0238
40713W        W49513  17.382   3.248  38.621  0.0372  0.1516  0.2200
40714W        W49514  13.392   4.450   6.224 -0.1127 -0.1924  0.0882
40715W        W49515  18.807   2.941  40.464 -0.0474 -0.1077 -0.0729
40716W        W49516   5.505   0.461  15.072 -0.1415  0.2079 -0.0547
40717W        W49517  16.771   1.189   4.987  0.0301  0.1035 -0.0864
40718W        W49518  19.863   4.222  24.473 -0.1610  0.3598  0.5382
40719W        W49519   7.034   1.631  35.230 -0.1450  0.0433 -0.0638
40720W        W49520  17.036   0.027  33.992 -0.0036  0.0696  0.1655
40721W        W49521  17.571   2.436  32.697  0.0883 -0.0994 -0.0849
40722W        W49522   8.376   0.394   5.234 -0.3451  0.1443  0.1708
40723W        W49523  12.921   3.544  32.084  0.2455  0.3246  0.0685
40724W        W49524   3.966   2.668  12.871  0.0887  0.0301 -0.0682
40725W        W49525  14.059   5.251   0.097 -0.2258 -0.0635 -0.0391
40726W        W49526   7.552   1.944   9.847  0.2387 -0.3324  0.1136
40727W        W49527   8.563   3.286  31.584  0.2232  0.1748  0.0474
40728W        W49528  14.371   5.409  38.698  0.3006  0.0207  0.0170
40729W        W49529  16.180   3.417  12.495  0.0879  0.2460  0.2769
40730W        W49530   9.471   1.203  22.405 -0.0966 -0.0706  0.2103
40731W        W49531  19.994   1.971  11.254  0.0760  0.1111 -0.1736
40732W        W49532  12.948   1.723   6.060 -0.3910  0.3701 -0.0031
40733W        W49533   9.800   1.025  19.252  0.0309  0.1306 -0.2868
40734W        W49534   8.648   0.009  29.386  0.0374  0.0166  0.3942
40735W        W49535   9.732   3.691  43.069 -0.0309  0.0037 -0.0295
40736W        W49536  17.807   1.214  44.796  0.2738 -0.0570  0.0903
40737W        W49537  12.855   5.085   3.377 -0.0718  0.0692  0.0217
40738W        W49538  13.842   4.533  29.330 -0.1988  0.0439  0.3574
40739W        W49539  13.798   2.884  10.973  0.4664 -0.0022  0.2297
40740W        W49540   3.365   5.827   8.792 -0.2853 -0.2308  0.0002
40741W        W49541  16.474   1.420  39.540  0.1485  0.2568 -0.0440
40742W        W49542   9.894   6.246  39.781 -0.0861 -0.0529  0.3368
40743W        W49543  19.897   2.382  10.834  0.0190 -0.0345 -0.0778
40744W        W49544   8.268   4.379  29.756  0.0042 -0.1175 -0.4579
40745W        W49545  16.901   5.478  25.397  0.0230 -0.3078  0.1663
40746W        W49546  13.011   4.480  27.644 -0.0821 -0.1660 -0.1082
40747W        W49547  10.952   5.695  19.320  0.3037  0.7064 -0.0897
40748W        W49548  12.186   0.995  17.735  0.0194 -0.2588 -0.0728
40749W        W49549  11.611   0.798  18.231  0.0109 -0.1358 -0.3592
40750W        W49550   7.176   4.429   4.904 -0.0785 -0.2739  0.1361
40751W        W49551  18.565   4.825  35.510  0.1279  0.0480 -0.1190
40752W        W49552   6.841   0.371   1.762  0.0459 -0.0982 -0.0606
40753W        W49553  17.183   4.460  30.118  0.0986 -0.0782 -0.0970
40754W        W49554   0.217   2.819  40.599  0.1980 -0.1265 -0.2455
40755W        W49555   0.967   6.134  39.671 -0.1259  0.1945  0.0261
40756W        W49556  20.698   6.094   3.152  0.0839 -0.2037  0.2933
40757W        W49557   7.403   0.009   7.972  0.2401 -0.0421  0.0100
40758W        W49558   4.431   1.194   2.821  0.1056 -0.0829  0.1075
40759W        W49559  20.223   0.832  43.245  0.0638  0.0017 -0.2343
40760W        W49560  12.110   0.191  37.961 -0.1181 -0.0035  0.1988
40761W        W49561  15.251   1.434  26.354 -0.2406 -0.0344  0.1795
40762W        W49562  12.288   1.618   3.431  0.0210 -0.0893 -0.0939
40763W        W49563  16.930   3.224  27.617 -0.0149  0.2414  0.1338
40764W        W49564   5.822   2.478  42.940 -0.0129 -0.0902 -0.0095
40765W        W49565   7.378   0.677   4.065  0.1116  0.0595  0.1153
40766W        W49566  20.599   4.006  24.075 -0.0394  0.1316 -0.0795
40767W        W49567   9.512   5.093  44.786 -0.2495  0.1050 -0.1952
40768W        W49568   8.901   6.090  41.424  0.1238  0.0825  0.2061
40769W        W49569  14.800   5.153  43.098 -0.0695  0.0706 -0.0306
40770W        W49570   7.524   3.724  18.495 -0.1266 -0.0065 -0.0229
40771W        W49571  12.397   0.276  44.329 -0.3459 -0.4184 -0.1976
40772W        W49572  11.779   4.324   3.032 -0.2198  0.0813  0.0568
40773W        W49573   5.883   5.446   6.753  0.2176 -0.1344  0.1230
40774W        W49574  11.797   6.427   8.371  0.0254  0.1415  0.0017
40775W        W49575  10.176   4.197  24.467 -0.2141  0.3107  0.0420
40776W        W49576   8.059   4.221  44.109  0.0191  0.0004  0.3819
40777W        W49577  13.458   5.280  40.111 -0.1081 -0.0142 -0.0374
40778W        W49578   5.997   5.423  19.312 -0.0094  0.1552 -0.0059
40779W        W49579  13.773   3.162  42.507 -0.0418  0.0982 -0.1080
40780W        W49580   9.030   0.733   3.249  0.0162 -0.1493  0.1024
40781W        W49581   2.461   1.445   3.853 -0.1339  0.0612  0.1540
40782W        W49582   8.202   3.923  32.080  0.1869 -0.4589 -0.0135
40783W        W49583  20.667   3.097  12.679  0.0145  0.2814  0.1572
40784W        W49584   6.547   2.506  40.329  0.1716 -0.0329  0.0566
40785W        W49585  15.496   4.660   1.116  0.0192 -0.0092 -0.4849
40786W        W49586  14.336   4.172  12.424  0.0359 -0.1050 -0.4110
40787W        W49587  11.786   1.599   7.383  0.3232 -0.0813 -0.2587
40788W        W49588  13.716   1.855   0.755 -0.4025  0.2950 -0.0438
40789W        W49589   4.112   1.766  28.420  0.1249  0.0442  0.0226
40790W        W49590  15.626   0.212   1.604 -0.0585 -0.1539 -0.1087
40791W        W49591  15.808   0.693   4.306 -0.1671  0.2219 -0.1140
40792W        W49592  16.752   1.538  42.878  0.3077  0.0649 -0.1123
40793W        W49593   7.611   0.944  20.606 -0.4700 -0.0315 -0.3459
40794W        W49594  10.426   5.282  12.285  0.2234  0.1133 -0.1015
40795W        W49595  13.099   1.056   2.382  0.2016  0.0157  0.0517
40796W        W49596   7.633   4.656  12.383  0.2557  0.2212  0.3629
40797W        W49597  19.244   4.526  27.927  0.1345 -0.1886  0.0072
40798W        W49598   1.271   3.781   6.275  0.4408  0.0811  0.1379
40799W        W49599  16.635   0.197  42.810 -0.3383 -0.1196 -0.2787
40800W        W49600  18.595   3.445  27.932  0.0489  0.2245 -0.0782
40801W        W49601   1.352   6.284  29.152  0.2390 -0.3126  0.1598
40802W        W49602  13.455   0.506   6.636  0.1401 -0.3884 -0.0566
40803W        W49603   8.935   4.423  40.534 -0.0509 -0.0551 -0.0221
40804W        W49604  13.759   2.687  42.548  0.1201  0.2575 -0.4113
40805W        W49605  11.427   3.199  30.144 -0.2777  0.1913  0.1289
40806W        W49606  12.683   5.522  39.910  0.0404 -0.3265  0.0322
40807W        W49607   2.851   6.195  44.391 -0.2016 -0.1812 -0.1128
40808W        W49608  10.245   1.925  10.113 -0.1748 -0.0213  0.0790
40809W        W49609  15.005   0.559   8.786 -0.0961 -0.0653 -0.5157
40810W        W49610   7.910   6.525   3.770 -0.0655  0.0249  0.1500
40811W        W49611   0.118   1.571  25.157  0.0497  0.0949  0.0727
40812W        W49612  12.146   6.176   8.696 -0.0287  0.2008 -0.1602
40813W        W49613   8.379   2.254  32.522  0.2509 -0.0242  0.0542
40814W        W49614   3.218   6.141   0.135  0.0534 -0.0957  0.2773
40815W        W49615  13.583   4.962  17.425 -0.4355 -0.1730  0.1165
40816W        W49616  16.772   2.200  24.088  0.1351  0.0287  0.0487
40817W        W49617   9.653   1.741   2.885  0.0542  0.0703  0.1731
40818W        W49618   9.180   4.523  39.239 -0.2654  0.0152  0.2099
40819W        W49619   5.699   1.075   9.212  0.0256 -0.2222 -0.1992
40820W        W49620   3.954   2.644  35.162 -0.3084  0.1870  0.3923
40821W        W49621  11.606   3.127  17.175 -0.2004 -0.1583 -0.3019
40822W        W49622  17.923   5.065  31.364 -0.1803  0.1426 -0.0035
40823W        W49623  20.051   1.782   1.677  0.0243  0.0544  0.0978
40824W        W49624  16.011   2.951  42.955  0.0643 -0.1629 -0.1598
40825W        W49625  12.748   3.575  36.622  0.1093  0.2358 -0.0548
40826W        W49626  18.517   1.264  41.514 -0.1476 -0.2023  0.2826
40827W        W49627   0.212   4.684  39.933 -0.1879 -0.2391 -0.1406
40828W        W49628  16.921   3.620  37.282 -0.0154 -0.2224 -0.3892
40829W        W49629  11.695   0.543  11.949  0.2406 -0.1535  0.1169
40830W        W49630   0.865   5.795  14.764 -0.0663 -0.1041  0.0444
40831W        W49631  10.655   3.336   1.529  0.2135  0.4796  0.0116
40832W        W49632   6.468   1.648  11.582 -0.0813 -0.0626 -0.1634
40833W        W49633   5.538   1.690   0.579 -0.0671  0.0541 -0.3688
40834W        W49634   8.947   6.132   1.436 -0.3283  0.0391 -0.1873
40835W        W49635   8.544   2.148  38.366  0.1443 -0.2471 -0.0933
40836W        W49636  10.869   4.358  19.004  0.3301  0.0198  0.0873
40837W        W49637  18.596   1.296  13.462  0.1451  0.2041  0.2782
40838W        W49638  18.056   0.036  31.531 -0.0167  0.1760  0.2308
40839W        W49639   8.039   0.217  12.703  0.0351 -0.1421  0.2065
40840W        W49640   4.218   5.166   7.613 -0.1634 -0.2851 -0.1521
40841W        W49641  11.998   2.846   2.679 -0.4391 -0.1428 -0.2044
40842W        W49642  11.421   5.669  42.285  0.0133 -0.2347 -0.1559
40843W        W49643   5.261   0.736  17.867 -0.0788 -0.0870  0.3009
40844W        W49644  17.384   5.396  14.380  0.0067 -0.0138 -0.0580
40845W        W49645  15.606   0.219  12.893 -0.1286 -0.3855 -0.0120
40846W        W49646  12.167   0.963  13.765 -0.0686 -0.0108 -0.3237
40847W        W49647  19.394   3.957   4.967 -0.1063  0.1488 -0.0537
40848W        W49648   0.025   0.176  11.467  0.0234 -0.0215 -0.1602
40849W        W49649  20.197   6.526  35.924 -0.0135 -0.0440 -0.0755
40850W        W49650   8.486   0.533   9.313  0.0587  0.1398 -0.0646
40851W        W49651  14.955   3.604  42.080  0.2044  0.0676  0.2654
40852W        W49652  10.476   2.160  43.267 -0.2015 -0.2928  0.0347
40853W        W49653   6.327   4.642   2.113 -0.0300  0.2250 -0.0459
40854W        W49654  18.761   3.795  22.835 -0.1226 -0.3009  0.0668
40855W        W49655   3.128   5.036  32.132 -0.0727 -0.1986  0.0957
40856W        W49656   3.207   0.498  14.905 -0.1314  0.4446 -0.1787
40857W        W49657  16.710   2.006  29.162 -0.1554  0.0436  0.0603
40858W        W49658   8.494   3.021   8.461  0.1055 -0.0965  0.1154
40859W        W49659  15.889   2.734  30.846 -0.2794  0.3555 -0.2016
40860W        W49660   3.725   2.719  30.292  0.0915  0.0268  0.2033
40861W        W49661   0.440   2.737   9.059  0.0993 -0.0549 -0.0723
40862W        W49662   2.088   4.999  24.308 -0.3902 -0.0403 -0.0324
40863W        W49663   3.178   3.839   4.903  0.1745 -0.0607 -0.0535
40864W        W49664   5.870   6.408   1.415 -0.0478  0.0616 -0.2059
40865W        W49665  13.327   1.946  37.756 -0.0447 -0.1751  0.0716
40866W        W49666  14.623   6.352   9.154 -0.3539  0.1033 -0.0005
40867W        W49667   2.981   0.185   3.045 -0.2267  0.1966  0.0634
40868W        W49668   3.484   4.952  43.094 -0.0895 -0.1811  0.1616
40869W        W49669   7.478   1.243  43.425 -0.4600 -0.3757 -0.3333
40870W        W49670   1.307   4.889  23.623 -0.3005  0.0721  0.0246
40871W        W49671   1.236   6.551  36.656  0.2739 -0.0902 -0.1101
40872W        W49672   6.889   4.335   9.440  0.1906  0.0030 -0.3352
40873W        W49673   2.666   4.916  43.875 -0.1502  0.1916  0.2959
40874W        W49674   0.750   6.223  41.450 -0.0094 -0.0725 -0.1355
40875W        W49675   0.660   1.219  12.740  0.3639 -0.1805  0.2984
40876W        W49676  20.968   4.833  12.668 -0.3509 -0.1292  0.1251
40877W        W49677  16.275   5.107  32.858 -0.3414  0.2208  0.0584
40878W        W49678   2.699   0.690   0.767 -0.1745 -0.1771 -0.2781
40879W        W49679  12.287   1.073  20.484  0.0396 -0.1392  0.0521
40880W        W49680   0.376   6.548   7.926  0.1933 -0.2112 -0.0861
40881W        W49681   7.603   5.734  20.602 -0.0136  0.0135 -0.1347
40882W        W49682  16.881   4.792   6.980 -0.0277  0.0226  0.0477
40883W        W49683  18.082   6.066  27.203 -0.4240  0.0443  0.0791
40884W        W49684  17.889   0.565  11.449 -0.1380 -0.0234  0.0771
40885W        W49685  19.853   0.912  36.918 -0.0652  0.2005 -0.2273
40886W        W49686  10.101   5.587  24.495  0.2085  0.0923  0.1333
40887W        W49687   1.822   0.115  24.670 -0.0532 -0.0373  0.2973
40888W        W49688  18.569   4.890  28.889 -0.0450  0.2087 -0.1223
40889W        W49689  11.234   6.141  19.984 -0.2230  0.1275 -0.1318
40890W        W49690  16.331   1.912   3.038 -0.0808 -0.0631 -0.2009
40891W        W49691  19.168   4.187  29.349  0.2282  0.0360 -0.0063
40892W        W49692   9.538   5.149   0.588  0.1569 -0.2140  0.0191
40893W        W49693   2.636   4.482  11.280  0.0693  0.0789 -0.0512
40894W        W49694   1.558   0.378   5.978  0.0811 -0.2187  0.2395
40895W        W49695   5.452   2.226  42.168  0.1661 -0.0064 -0.0184
40896W        W49696  19.107   2.740  12.510 -0.0128  0.2798 -0.1463
40897W        W49697  19.843   5.138  11.922 -0.1836  0.1433  0.0250
40898W        W49698   2.702   4.630  32.176  0.0979 -0.2665  0.3847
40899W        W49699   2.045   0.537  44.681  0.1241 -0.2237  0.0068
40900W        W49700  10.614   0.201  16.787 -0.2165  0.1358  0.0360
40901W        W49701  20.279   5.962  31.801  0.0914  0.1530 -0.2826
40902W        W49702   0.064   3.192   3.672  0.0236 -0.0081  0.0648
40903W        W49703   1.894   1.394  25.974  0.0013 -0.0753  0.0409
40904W        W49704  16.644   5.363  14.947 -0.3740  0.2484  0.1556
40905W        W49705   7.835   2.428  10.089  0.1420  0.0384 -0.1280
40906W        W49706   9.133   6.261  23.202 -0.3483 -0.0132 -0.3466
40907W        W49707  19.319   4.769   3.801 -0.3284 -0.0177 -0.2639
40908W        W49708   0.153   0.335   2.118 -0.0880 -0.2072 -0.0083
40909W        W49709   8.665   3.146  41.140 -0.1182  0.1357  0.0186
40910W        W49710  20.674   3.828   7.085 -0.0666 -0.1047  0.1246
40911W        W49711  10.321   5.548  18.552 -0.0484  0.2261 -0.0428
40912W        W49712  18.679   0.363  35.067  0.3158  0.0766 -0.0234
40913W        W49713   0.798   4.052  15.407  0.0274 -0.0759 -0.0441
40914W        W49714   4.794   3.679  43.624 -0.3120  0.2599  0.0899
40915W        W49715   8.562   4.716  12.276  0.0739 -0.1327  0.0228
40916W        W49716   5.307   3.012   3.716  0.0358 -0.0421 -0.0151
40917W        W49717  18.783   6.199  28.715  0.1020  0.0830  0.0298
40918W        W49718  18.424   5.403  44.279 -0.2588 -0.0334 -0.0006
40919W        W49719   7.833   1.128   7.520 -0.1271  0.1189  0.2540
40920W        W49720  10.831   2.727   5.756 -0.1462  0.0742 -0.0429
40921W        W49721  17.629   1.679  11.123  0.3094  0.0694  0.0596
40922W        W49722   2.348   4.230   9.949  0.0957 -0.2948  0.3040
40923W        W49723  20.796   6.124  14.741  0.0988  0.1911 -0.2953
40924W        W49724  10.429   1.583  29.556 -0.3999 -0.0533 -0.3986
40925W        W49725   9.334   1.788  17.131 -0.0375 -0.0996  0.0485
40926W        W49726   9.413   3.710  40.409  0.0943 -0.3803 -0.0669
40927W        W49727  10.438   3.257  19.559 -0.3491  0.3347  0.1087
40928W        W49728  14.655   4.623   1.086  0.1756 -0.1675  0.1753
40929W        W49729   7.376   3.534   7.466  0.1758  0.3554 -0.0498
40930W        W49730   3.868   4.013   3.609  0.1083 -0.3075  0.1907
40931W        W49731   3.128   4.346  33.706 -0.1058 -0.0343 -0.2969
40932W        W49732   4.175   0.157  41.266 -0.1025  0.2336 -0.1376
40933W        W49733  14.232   3.284  32.750 -0.2240 -0.0125  0.1925
40934W        W49734   6.643   2.674  21.771  0.2904 -0.0322 -0.1000
40935W        W49735  12.750   1.603  32.731 -0.2277 -0.1884  0.2268
40936W        W49736  16.860   4.365  43.278  0.1272  0.1683  0.1760
40937W        W49737  18.390   0.134   2.502 -0.0790 -0.1617 -0.1003
40938W        W49738  20.288   2.854  41.271  0.2362  0.1276  0.0100
40939W        W49739  19.991   3.348   3.579 -0.0840 -0.1809  0.0908
40940W        W49740  16.880   2.404   2.888  0.0509 -0.0687 -0.1496
40941W        W49741  12.713   3.480  12.244  0.3632 -0.2024 -0.1947
40942W        W49742   6.700   3.976  14.810 -0.1541  0.0113  0.0645
40943W        W49743   1.260   6.426  13.739 -0.3013 -0.2038 -0.2844
40944W        W49744   8.318   5.859  39.849  0.3009  0.1741 -0.1830
40945W        W49745  11.654   6.427  18.381  0.1271  0.2335 -0.0647
40946W        W49746   4.407   2.341  18.009  0.0096 -0.2772 -0.3923
40947W        W49747   9.482   5.779  37.816  0.1675  0.1939  0.1468
40948W        W49748   4.401   0.853  42.190  0.2170 -0.0288 -0.0208
40949W        W49749  10.435   6.205  36.568  0.2319 -0.1032  0.2000
40950W        W49750   0.541   6.345   7.086  0.2377  0.0265  0.2666
40951W        W49751   9.506   6.097  11.518 -0.1066 -0.5032  0.1828
40952W        W49752  17.124   1.951  12.382  0.2980 -0.1969  0.0331
40953W        W49753   2.296   0.974  33.123 -0.0918 -0.1127 -0.2611
40954W        W49754  11.790   2.531  36.864 -0.0735 -0.2851  0.1703
40955W        W49755  13.261   4.745  10.031 -0.2013 -0.0572 -0.0516
40956W        W49756   9.119   1.720  30.333 -0.1295  0.0527  0.0419
40957W        W49757  19.753   4.251   1.289 -0.3472  0.0844 -0.0416
40958W        W49758  16.214   2.750   6.634  0.0637 -0.2511 -0.1370
40959W        W49759   6.853   0.406  35.987 -0.1223 -0.0922 -0.0855
40960W        W49760  13.105   0.326  15.967 -0.1171  0.2780  0.1583
40961W        W49761   4.294   2.002  27.352  0.0725 -0.1395 -0.1427
40962W        W49762  13.649   6.043  36.415  0.4434 -0.1654  0.0623
40963W        W49763   1.087   6.358  40.316  0.3874  0.1524 -0.2921
40964W        W49764  19.432   0.294  28.702  0.1190 -0.0373 -0.1388
40965W        W49765   0.225   5.476  32.132 -0.2217  0.1983  0.0001
40966W        W49766   1.151   2.868   7.369 -0.0923 -0.2182  0.1389
40967W        W49767  20.200   5.660  34.963 -0.1193  0.0823 -0.0827
40968W        W49768  18.024   2.986  11.178 -0.3121 -0.1198 -0.2192
40969W        W49769   3.783   5.297  15.700 -0.1229 -0.1563  0.0387
40970W        W49770  19.551   4.570  41.923 -0.1616 -0.1816  0.0475
40971W        W49771   6.660   3.483  12.284  0.4680  0.0981 -0.2867
40972W        W49772  16.811   3.434   5.710 -0.0537  0.0585 -0.1187
40973W        W49773  16.043   0.625  34.647  0.2327 -0.3528 -0.1084
40974W        W49774   8.352   2.446  19.370 -0.2051 -0.2589  0.2285
40975W        W49775  11.759   1.017  40.858  0.2141  0.2005  0.0583
40976W        W49776   7.691   2.969  42.741  0.0625  0.5263  0.2002
40977W        W49777   5.507   4.676  19.674  0.1926  0.2142  0.1563
40978W        W49778  16.083   4.393  43.785  0.5027 -0.0668 -0.1720
40979W        W49779  14.327   2.768  42.221  0.2516 -0.1352  0.2559
40980W        W49780   0.028   1.934   8.491  0.0194  0.3081 -0.1708
40981W        W49781  20.423   5.219  27.406 -0.2218 -0.0460  0.0032
40982W        W49782  14.715   1.300   3.885  0.1312 -0.2286 -0.2028
40983W        W49783   3.167   1.043  32.918 -0.0410  0.0164  0.0891
40984W        W49784   5.366   1.422  35.608 -0.1809 -0.1253  0.1585
40985W        W49785  15.205   3.958  32.652  0.0259  0.1211  0.2463
40986W        W49786   4.895   6.488   6.647 -0.0850  0.0074 -0.0670
40987W        W49787   4.096   0.052   6.750  0.1498  0.0138 -0.2688
40988W        W49788  13.071   0.706  28.293  0.1783 -0.0850 -0.1935
40989W        W49789  10.936   3.050   0.626  0.1884  0.5257  0.2095
40990W        W49790  20.449   6.335  22.946 -0.1155  0.0386 -0.1411
40991W        W49791  18.039   5.451  15.403 -0.2172  0.1645  0.0914
40992W        W49792   8.147   1.154   6.052 -0.0326 -0.1317  0.0668
40993W        W49793   0.165   3.925  25.892 -0.1808 -0.0961 -0.2954
40994W        W49794   9.721   2.504   0.225 -0.1499  0.1129  0.2038
40995W        W49795  11.373   3.926  21.044 -0.0961 -0.2792 -0.2789
40996W        W49796  15.716   4.400  29.035 -0.0645 -0.0884  0.0469
40997W        W49797   5.848   0.540  15.673  0.1799  0.0359 -0.2669
40998W        W49798  19.002   0.475  13.755 -0.2437  0.0296  0.0957
40999W        W49799   3.403   4.338  16.419  0.1799 -0.1552  0.1786
41000W        W49800  11.519   5.342  33.726  0.4147 -0.0263  0.0321
41001W        W49801  19.843   0.470   6.442 -0.3587 -0.1827 -0.2149
41002W        W49802   5.948   3.001   8.070 -0.1203 -0.0689 -0.0075
41003W        W49803   6.233   1.666  37.574  0.0878  0.0681  0.0212
41004W        W49804   7.285   0.113  15.615 -0.0196  0.0648 -0.0881
41005W        W49805   5.694   5.546  34.268 -0.0910 -0.0764 -0.1277
41006W        W49806   2.268   2.725   0.973  0.1393 -0.1238 -0.0868
41007W        W49807   0.608   5.169  30.533  0.0619  0.1834 -0.0096
41008W        W49808  10.682   4.121  30.290  0.0850  0.0739  0.1228
41009W        W49809  18.642   4.169   5.797  0.2095  0.1760 -0.2497
41010W        W49810   2.475   4.825   1.658  0.1472  0.2676  0.2719
41011W        W49811  14.363   3.849  40.573 -0.1863 -0.0000  0.1700
41012W        W49812   1.442   2.993  38.661  0.0029  0.3436 -0.1386
41013W        W49813   2.560   2.861   9.851 -0.0054  0.2072 -0.0997
41014W        W49814   6.624   3.603   2.326  0.1192 -0.1475 -0.3625
41015W        W49815  15.224   1.832   5.777 -0.0114 -0.1243  0.1176
41016W        W49816   2.800   0.257  10.640 -0.0817  0.2881 -0.2309
41017W        W49817   3.355   0.865  44.512  0.1307  0.2727  0.0157
41018W        W49818  10.703   4.076   7.867  0.2304  0.3045 -0.0769
41019W        W49819  11.121   1.666  21.604  0.1694 -0.0155  0.1517
41020W        W49820  12.059   2.421   6.284  0.0887  0.1800  0.0572
41021W        W49821   3.809   1.627  38.544  0.1527  0.0565  0.1674
41022W        W49822  20.801   5.714  22.152  0.0042 -0.0384  0.1655
41023W        W49823  16.154   5.012  35.671 -0.1681  0.0318  0.0341
41024W        W49824  14.764   5.996  43.736  0.2005 -0.3355  0.0299
41025W        W49825   7.304   5.421  15.856 -0.0515  0.1150  0.1169
41026W        W49826  10.379   1.316  23.738 -0.1774 -0.0016 -0.1843
41027W        W49827  10.467   0.774  40.992  0.2630  0.1542  0.0636
41028W        W49828   3.789   1.691  13.600 -0.0628 -0.3791 -0.0915
41029W        W49829   8.064   5.053   7.121 -0.0187  0.0672  0.0523
41030W        W49830   8.035   1.104  32.831  0.0166 -0.1455 -0.0759
41031W        W49831  14.194   2.086  38.085 -0.3369 -0.1004  0.0559
41032W        W49832   6.867   0.973   0.447 -0.1444  0.4446  0.0266
41033W        W49833  16.290   4.914  34.596 -0.1181  0.0290  0.1486
41034W        W49834  17.932   0.728  44.625  0.1833  0.1233  0.1075
41035W        W49835   4.031   3.844  37.973  0.2448  0.1226 -0.1127
41036W        W49836  10.367   2.666   3.525  0.4427  0.2514  0.2681
41037W        W49837  16.104   3.444  35.920  0.0726 -0.0380 -0.1121
41038W        W49838   5.969   3.250   0.990  0.0271  0.2427 -0.3364
41039W        W49839   3.593   0.939  41.583 -0.4660  0.1325 -0.0313
41040W        W49840  17.763   2.709  41.228 -0.1116 -0.1220 -0.2273
41041W        W49841  18.972   4.128  11.456 -0.0716  0.0994  0.2427
41042W        W49842   9.128   4.072  11.630 -0.3855 -0.2474  0.1527
41043W        W49843  17.758   4.028  10.305 -0.0903 -0.0656  0.0402
41044W        W49844  14.804   4.940  32.964  0.0217 -0.0308 -0.0314
41045W        W49845  12.413   2.258   0.807  0.1092 -0.1032 -0.1687
41046W        W49846   7.330   4.854  30.708 -0.0139 -0.2330  0.2810
41047W        W49847   0.283   6.409  32.381  0.0842 -0.2737  0.0715
41048W        W49848  20.806   5.301  23.994 -0.0450 -0.1244 -0.1816
41049W        W49849  19.663   0.891  34.756 -0.1360  0.2630  0.3787
41050W        W49850  11.294   4.421  29.369  0.0051 -0.2732 -0.1660
41051W        W49851  16.882   1.994  33.472 -0.1749  0.0855  0.1731
41052W        W49852   8.438   0.547   9.947 -0.1386  0.1384 -0.0341
41053W        W49853   0.281   1.734  13.349 -0.1060  0.0140 -0.2532
41054W        W49854  11.693   0.967  44.809 -0.2057 -0.3318  0.0340
41055W        W49855   0.927   2.760   1.022 -0.2166  0.1247  0.2355
41056W        W49856  18.522   6.198  42.058 -0.2462  0.2379  0.0098
41057W        W49857  17.884   4.911  24.521  0.0537 -0.1592 -0.2396
41058W        W49858   2.457   4.521  14.050  0.0604  0.2147  0.2582
41059W        W49859  19.079   2.687  41.984 -0.0577 -0.0859  0.1716
41060W        W49860  18.854   4.914  10.199 -0.1750  0.0948  0.0935
41061W        W49861  13.136   1.157  34.412  0.1826  0.0403  0.0298
41062W        W49862  15.601   3.210   6.920 -0.1255 -0.2367 -0.3534
41063W        W49863   9.904   3.902  37.981  0.1305  0.2517 -0.1898
41064W        W49864   8.301   4.942  38.663 -0.4319 -0.0472  0.1429
41065W        W49865  12.320   2.924   3.831 -0.2557 -0.2408 -0.0086
41066W        W49866  11.676   2.908  15.242  0.3134 -0.1172 -0.0094
41067W        W49867   9.619   0.955   0.416 -0.2865 -0.0140 -0.1343
41068W        W49868   3.717   5.210   7.020 -0.1531  0.2304  0.1933
41069W        W49869   4.154   0.253   3.202  0.2071 -0.0441 -0.1811
41070W        W49870  20.454   0.330   3.603 -0.2885  0.0276 -0.2526
41071W        W49871  18.471   4.441  27.684  0.0830 -0.1342  0.0807
41072W        W49872  13.220   3.684  36.909  0.0978 -0.2717 -0.0957
41073W        W49873  11.316   5.989  11.638  0.2082 -0.2280 -0.1184
41074W        W49874   9.682   0.668  12.093 -0.1247 -0.0033 -0.1501
41075W        W49875  15.773   2.732   0.138  0.2922  0.0217  0.0417
41076W        W49876  15.547   5.180  35.221  0.3478  0.1469 -0.2663
41077W        W49877   2.023   3.775  25.088  0.0416 -0.1961  0.2119
41078W        W49878  19.607   5.507  10.400 -0.0763  0.0310  0.0400
41079W        W49879  15.942   0.085  43.768 -0.0832 -0.1128 -0.0406
41080W        W49880   9.600   4.564  20.964 -0.0606  0.1895 -0.3182
41081W        W49881  11.787   0.061  12.658 -0.5410 -0.1789 -0.0745
41082W        W49882   3.731   4.823  31.225  0.2104  0.1528  0.1218
41083W        W49883  10.425   3.258   4.208 -0.0672  0.0483 -0.2870
41084W        W49884  20.101   3.629   9.082  0.1365  0.4307  0.1537
41085W        W49885   3.940   0.088  26.218  0.1182 -0.0345  0.0395
41086W        W49886   8.951   5.035   8.858  0.1977  0.1677 -0.1051
41087W        W49887   8.964   2.620  30.759  0.1051 -0.0862  0.0616
41088W        W49888  18.949   0.252  25.795 -0.0623 -0.0929  0.0013
41089W        W49889  14.815   0.715   8.365  0.1406 -0.2989 -0.0366
41090W        W49890   3.583   4.851   1.543  0.2052 -0.0465  0.0222
41091W        W49891  13.685   0.664  42.825 -0.1454  0.0848  0.0817
41092W        W49892   1.487   2.117   2.143 -0.0140 -0.2588 -0.0625
41093W        W49893   7.866   2.813   9.686  0.0942 -0.0948  0.2514
41094W        W49894  10.216   5.383  20.480 -0.0486 -0.1796 -0.0351
41095W        W49895  16.499   4.852  28.505 -0.1619 -0.0741  0.2426
41096W        W49896  16.762   1.312   7.148  0.1859 -0.1638  0.0077
41097W        W49897   3.707   6.508  29.606  0.5305  0.0022 -0.0157
41098W        W49898   8.740   1.426  43.081  0.0968  0.0601 -0.1409
41099W        W49899   0.032   6.052  27.826  0.0471 -0.1680 -0.2712
41100W        W49900  20.479   3.295   2.538 -0.1886  0.0530 -0.1827
41101W        W49901  18.792   0.271  43.187  0.1960 -0.2915  0.2718
41102W        W49902   4.438   3.539  15.444 -0.1833  0.0936  0.0809
41103W        W49903  18.242   2.870  38.529 -0.0035 -0.0979 -0.1561
41104W        W49904  11.157   0.386   9.273  0.0210 -0.2113 -0.4590
41105W        W49905  15.050   5.621  42.802  0.2625 -0.0353  0.1146
41106W        W49906   8.475   4.361  19.610 -0.0624  0.1019  0.0450
41107W        W49907  20.560   1.533  44.487  0.0285  0.0024  0.3080
41108W        W49908  11.430   3.752  33.516 -0.0788 -0.0555  0.0398
41109W        W49909   1.350   5.483  40.485 -0.2568 -0.1756  0.0838
41110W        W49910  14.153   0.976  40.281 -0.1447  0.0444 -0.1677
41111W        W49911   2.778   0.757  43.562  0.1355  0.1003 -0.2759
41112W        W49912  15.976   3.045  17.193 -0.0084  0.3267  0.1291
41113W        W49913   3.015   3.027   0.277  0.0347 -0.1814 -0.0015
41114W        W49914   3.165   0.995   3.257  0.0134 -0.3400  0.5205
41115W        W49915  13.559   1.136   2.451  0.1025 -0.1895  0.0460
41116W        W49916   2.161   5.963  41.240  0.1100 -0.3951 -0.1012
41117W        W49917  11.903   1.489  37.775  0.3561 -0.1666 -0.0522
41118W        W49918   4.742   5.173  34.434  0.0526  0.0738  0.1795
41119W        W49919  16.029   0.640  42.746  0.0524  0.0403  0.0823
41120W        W49920  16.348   4.203  12.996  0.1131  0.0741 -0.0638
41121W        W49921  10.294   1.454   3.535  0.1600 -0.1872  0.0001
41122W        W49922  10.501   2.551  15.347 -0.2246  0.1497  0.2108
41123W        W49923   8.951   3.798  36.365  0.0039 -0.0193  0.0451
41124W        W49924  10.021   3.453  17.239 -0.1050 -0.0259 -0.2570
41125W        W49925  20.661   1.078  22.246 -0.1144  0.2066 -0.3693
41126W        W49926  19.490   5.656   7.650 -0.2670  0.0309  0.1068
41127W        W49927  10.796   6.025   4.865  0.2518  0.4661  0.0728
41128W        W49928  12.043   2.350  42.850  0.2281  0.0144  0.0625
41129W        W49929  13.033   3.610   1.733  0.1037  0.0727 -0.0305
41130W        W49930  19.013   1.825   0.096 -0.0025  0.0531 -0.0505
41131W        W49931  13.576   3.997   2.519 -0.0982  0.0728 -0.0875
41132W        W49932   3.204   1.120  12.603 -0.0210  0.1740 -0.1927
41133W        W49933  18.142   4.285  38.126 -0.0788  0.0285  0.1508
41134W        W49934  13.858   5.457  11.641 -0.0290 -0.2131  0.1191
41135W        W49935  20.731   3.191  34.251  0.0382  0.2289 -0.0203
41136W        W49936  13.677   1.509  33.673  0.2846  0.2090 -0.0126
41137W        W49937   8.966   6.455   8.566  0.1840 -0.1485  0.0719
41138W        W49938   1.744   2.840  15.276 -0.1408 -0.0043  0.2606
41139W        W49939   1.465   2.191  34.994 -0.1929  0.0313 -0.0561
41140W        W49940   1.291   0.206   7.630  0.1745 -0.0368 -0.3318
41141W        W49941  15.796   4.499  11.265 -0.2089 -0.2433 -0.0152
41142W        W49942  12.808   4.697   2.660 -0.0171  0.2614  0.1503
41143W        W49943  12.961   0.208  35.638  0.1801  0.1247 -0.1997
41144W        W49944  14.826   5.544   3.465 -0.2137 -0.1362  0.1865
41145W        W49945  19.020   3.122   7.477 -0.1746 -0.1041  0.1797
41146W        W49946  17.563   6.274  42.257  0.3491 -0.0491 -0.1210
41147W        W49947  19.385   5.989  43.084  0.2815 -0.0247 -0.0252
41148W        W49948   2.928   4.196  26.325  0.0765 -0.0134 -0.0115
41149W        W49949  10.244   1.548  22.021  0.4729 -0.0379  0.0399
41150W        W49950   2.628   4.497   7.003 -0.1725  0.0763 -0.0845
41151W        W49951  10.916   6.033  41.441 -0.2246 -0.0978  0.0211
41152W        W49952  18.900   1.720  44.284 -0.0733 -0.0105  0.0463
41153W        W49953  20.166   3.945   1.889 -0.1091 -0.1584  0.2040
41154W        W49954   3.215   5.643   6.273 -0.0784 -0.2150  0.0304
41155W        W49955   6.580   3.917  44.320 -0.1158  0.0461  0.0206
41156W        W49956   5.545   0.941  18.259 -0.1228  0.0937 -0.0935
41157W        W49957   9.148   0.210   4.685 -0.0395 -0.0184 -0.0586
41158W        W49958  11.700   4.101  38.281  0.3197 -0.0451  0.2201
41159W        W49959   5.869   4.089  32.197  0.0226 -0.1693 -0.2152
41160W        W49960  13.147   6.099  36.579 -0.1608  0.2349  0.0233
41161W        W49961   8.859   1.465  34.316  0.1567 -0.1844 -0.1479
41162W        W49962   4.538   4.333   8.738 -0.2395  0.0731  0.0346
41163W        W49963  14.686   0.794   7.318  0.1848  0.2141 -0.2018
41164W        W49964  15.737   4.300  14.329  0.2186 -0.2418  0.0694
41165W        W49965   5.208   5.079   4.970 -0.0194  0.0496 -0.0467
41166W        W49966  18.948   5.452  13.797 -0.2143  0.1688  0.1320
41167W        W49967  10.776   5.914  22.463 -0.0900  0.0144  0.1437
41168W        W49968   6.906   0.814  35.202 -0.0124  0.2119  0.0688
41169W        W49969  19.548   6.074   9.490 -0.3264 -0.0275 -0.3434
41170W        W49970   5.567   2.541  36.206 -0.1198 -0.1848 -0.0149
41171W        W49971  17.484   5.029   8.070 -0.2015  0.0828 -0.0239
41172W        W49972   3.892   1.627  31.311  0.0117  0.0436  0.2682
41173W        W49973   8.798   5.730  21.209  0.1767  0.0160 -0.1508
41174W        W49974  16.403   3.921  28.744 -0.0186 -0.0620  0.1342
41175W        W49975  12.826   1.984  30.103  0.1552 -0.0209 -0.1873
41176W        W49976  10.516   6.345  35.481  0.2387 -0.0559  0.3823
41177W        W49977   9.360   2.571   6.280 -0.1052 -0.0961  0.2066
41178W        W49978   6.813   4.782   1.963  0.3427  0.1796  0.0970
41179W        W49979  13.074   3.744  13.959  0.1621  0.0620 -0.1554
41180W        W49980   7.070   4.338  34.059 -0.0644  0.0298 -0.3686
41181W        W49981   5.950   5.842  14.962  0.1779 -0.1221  0.0067
41182W        W49982   2.686   5.792   2.763 -0.0229  0.1147 -0.1048
41183W        W49983   7.030   3.389   9.303 -0.3151 -0.3975 -0.0337
41184W        W49984   5.551   3.909   0.189 -0.2449 -0.2355  0.2864
41185W        W49985   3.222   5.116  28.191  0.1612 -0.1597 -0.0012
41186W        W49986   8.632   3.058   4.836 -0.0906  0.1309  0.0790
41187W        W49987   4.605   3.715   1.087  0.0050  0.0283  0.0038
41188W        W49988  16.546   5.446   2.233 -0.3414  0.1645  0.1100
41189W        W49989   2.063   4.310  39.385 -0.1119 -0.2025  0.0417
41190W        W49990   8.100   4.144   9.175  0.2343  0.0965 -0.0254
41191W        W49991   8.367   5.703  19.365 -0.2444 -0.1927 -0.1380
41192W        W49992   5.493   3.122  14.772 -0.2187 -0.0921  0.1051
41193W        W49993   8.656   2.939   0.128 -0.0641  0.1432  0.0437
41194W        W49994   6.967   2.033   0.146  0.0273  0.0903 -0.2058
41195W        W49995   5.778   0.523   4.919  0.0639 -0.1055 -0.1368
41196W        W49996   3.163   4.854   0.518 -0.2129 -0.0210 -0.0300
41197W        W49997   1.359   1.713  29.463 -0.3025 -0.1988  0.2921
41198W        W49998   1.532   1.627  33.040  0.1876 -0.3270 -0.0588
41199W        W49999  14.425   3.764  42.199  0.0641  0.0881  0.1783
41200W        W50000   4.806   4.392  31.970  0.0123  0.4329  0.3343
41201W        W50001   0.904   1.866  30.690  0.2296  0.0046 -0.1816
41202W        W50002  20.418   3.294  11.227 -0.1861 -0.1217 -0.1301
41203W        W50003   7.663   1.689   4.314  0.1257  0.0892  0.1096
41204W        W50004  19.363   1.159   8.354 -0.0990  0.0108  0.0706
41205W        W50005   2.438   1.313  12.088 -0.1924  0.0885  0.1495
41206W        W50006   1.270   1.618  40.646  0.0162  0.1994  0.2638
41207W        W50007  13.941   0.979  44.533 -0.1093  0.1543  0.2637
41208W        W50008  15.941   5.785  41.082 -0.2843  0.0489 -0.1432
41209W        W50009   2.796   0.712  33.256  0.0967 -0.2289  0.0456
41210W        W50010   5.220   5.778  32.714 -0.0559 -0.1737  0.2916
41211W        W50011  11.463   4.713  18.192  0.2235  0.1440 -0.2063
41212W        W50012   4.744   4.173  34.702 -0.1338  0.1385  0.3425
41213W        W50013  14.646   3.328  34.851 -0.1180  0.3361 -0.1629
41214W        W50014  16.016   2.065  33.729  0.1174  0.0848  0.0892
41215W        W50015  11.855   0.906  28.220  0.1029 -0.0254  0.3301
41216W        W50016   8.806   0.985  22.754 -0.0393 -0.1019  0.1393
41217W        W50017  16.396   0.122  38.467  0.0371 -0.1892 -0.2734
41218W        W50018   0.575   1.124   5.620  0.1665  0.0774 -0.1422
41219W        W50019   4.493   0.490  10.232 -0.0475  0.0140 -0.1753
41220W        W50020  20.076   1.874  33.060 -0.1632 -0.0393  0.2036
41221W        W50021   8.276   2.952  38.914  0.1921  0.0670 -0.2303
41222W        W50022  20.449   4.411  36.771  0.1369 -0.1385 -0.1812
41223W        W50023  14.531   3.588  36.184 -0.1249  0.3525 -0.0311
41224W        W50024   3.419   3.070   1.644 -0.2260  0.0672  0.1361
41225W        W50025   4.095   2.062  36.772  0.3668 -0.0909  0.0829
41226W        W50026  11.534   4.772  16.743 -0.1804 -0.0599  0.1668
41227W        W50027  14.495   1.993   4.217 -0.0089 -0.1991  0.1735
41228W        W50028   4.917   4.674   8.680  0.2011 -0.0388 -0.0490
41229W        W50029  10.562   3.723  40.358 -0.0524  0.1879  0.0608
41230W        W50030   9.453   1.480  12.246 -0.0275  0.1958  0.1184
41231W        W50031   7.499   4.965   3.793 -0.0008  0.0336 -0.0912
41232W        W50032   6.318   5.890  31.731  0.2267 -0.0811  0.0776
41233W        W50033  15.530   0.019  27.532 -0.1031  0.1127 -0.2573
41234W        W50034   5.083   2.818  43.376 -0.1120  0.1932  0.1385
41235W        W50035  18.548   6.586  31.853  0.3285  0.1314 -0.0541
41236W        W50036   4.776   3.416  14.112 -0.2186  0.0937  0.1997
41237W        W50037  12.870   0.445  39.066 -0.1951 -0.0896 -0.2510
41238W        W50038   7.830   5.164  18.197  0.0368  0.1514 -0.0666
41239W        W50039  12.508   1.535  38.141 -0.2223  0.1893  0.0558
41240W        W50040  10.977   1.884   3.628 -0.1440  0.1985 -0.3448
41241W        W50041  18.478   4.575  11.602  0.0260  0.0253 -0.0762
41242W        W50042   5.356   2.104  10.006 -0.5282 -0.5371  0.0258
41243W        W50043  14.105   2.237  44.657  0.0008 -0.0929 -0.2084
41244W        W50044  11.499   0.894   5.242  0.1860 -0.1949  0.4862
41245W        W50045   7.664   0.064  41.322 -0.0386  0.0734 -0.1054
41246W        W50046  10.114   3.668  21.192 -0.1916  0.1520  0.2836
41247W        W50047  12.581   3.544   5.206  0.0211 -0.0069 -0.1701
41248W        W50048   8.289   1.270  42.983  0.2391 -0.1195 -0.0308
41249W        W50049  15.539   0.724   1.642 -0.0564  0.1162 -0.1732
41250W        W50050  17.484   3.905   4.637 -0.1177  0.0723 -0.1893
41251W        W50051  17.081   2.524   2.432  0.0632 -0.1325  0.2276
41252W        W50052  16.530   0.335   3.214  0.0081  0.1539  0.1080
41253W        W50053  14.435   4.044  43.510 -0.0148  0.0563  0.1838
41254W        W50054  19.630   1.424   6.722 -0.1021 -0.0101  0.0881
41255W        W50055   5.417   0.689   6.301  0.2950  0.4125 -0.0331
41256W        W50056  19.979   3.748   0.923 -0.0606 -0.2973  0.0195
41257W        W50057  12.778   3.739   7.532  0.0968  0.0666 -0.3850
41258W        W50058  21.063   0.338  29.832 -0.2115  0.0423  0.1593
41259W        W50059  20.945   5.446  30.804 -0.4399  0.2760 -0.1708
41260W        W50060   1.327   3.921   0.300 -0.1451 -0.0445 -0.1184
41261W        W50061  10.824   0.085   2.594 -0.1037 -0.0213  0.2141
41262W        W50062  19.697   3.138  25.618  0.0943  0.0165 -0.0332
41263W        W50063  20.230   5.251  38.806 -0.0859  0.0799 -0.1755
41264W        W50064  12.692   0.435   6.822  0.0668  0.1415  0.1050
41265W        W50065  12.139   3.104   8.849 -0.0861 -0.1539 -0.0546
41266W        W50066   5.169   3.307   9.292 -0.0847 -0.3860 -0.0194
41267W        W50067   6.000   3.484  16.410 -0.0080 -0.1629 -0.1534
41268W        W50068  20.530   5.122   2.996 -0.0245 -0.1503  0.1274
41269W        W50069  17.338   3.176  30.594 -0.1797  0.1963  0.0757
41270W        W50070  12.172   1.263  11.859  0.0854  0.3606  0.1097
41271W        W50071  12.292   1.829  41.839 -0.0486  0.1221  0.1851
41272W        W50072  15.975   0.334   9.850  0.0022 -0.0752 -0.3274
41273W        W50073   6.471   2.857  30.727 -0.1363  0.1205  0.1036
41274W        W50074  19.192   4.257  25.062 -0.2830 -0.0818  0.0419
41275W        W50075   0.100   6.561   2.406  0.1556  0.1245 -0.0936
41276W        W50076   2.733   0.110  12.413  0.0442  0.1787  0.0158
41277W        W50077  18.515   3.444  12.995  0.2319  0.1333 -0.1623
41278W        W50078   6.595   0.758  44.757  0.0826  0.0331 -0.2518
41279W        W50079   8.855   1.104  31.055  0.0777  0.0923 -0.3615
41280W        W50080  18.108   0.968   2.630  0.0025  0.0072  0.1249
41281W        W50081  21.102   2.508   5.302  0.1067  0.0211 -0.0783
41282W        W50082   9.720   0.664   2.285  0.0733  0.1329 -0.0290
41283W        W50083  10.297   0.279   7.285  0.4709 -0.1983  0.0717
41284W        W50084   0.270   6.315  44.278  0.0234  0.2648  0.0338
41285W        W50085   6.110   1.057  29.735  0.0323 -0.1886  0.1368
41286W        W50086   2.289   4.477  25.517 -0.3531  0.2687 -0.1595
41287W        W50087  12.552   2.740  28.183  0.1099 -0.0756  0.1922
41288W        W50088  16.444   1.899  37.539  0.1701  0.0310  0.0747
41289W        W50089   5.641   6.579  30.238 -0.3734 -0.0084 -0.0257
41290W        W50090   9.395   3.258  11.786 -0.2105 -0.1817 -0.2617
41291W        W50091   2.551   0.751  25.780 -0.4105  0.2066  0.0992
41292W        W50092   6.255   1.220  17.265 -0.0360  0.0997  0.0949
41293W        W50093   1.238   3.443  32.035  0.0350  0.0015 -0.1503
41294W        W50094  19.634   5.599   4.698 -0.0218  0.3264  0.3561
41295W        W50095  11.379   3.412  20.547 -0.1539  0.1252 -0.1051
41296W        W50096  17.386   2.861  12.006 -0.1076  0.1475  0.1513
41297W        W50097  15.601   3.235   8.282 -0.1287 -0.2358  0.2734
41298W        W50098   5.815   4.111  30.237 -0.0856  0.0878 -0.0094
41299W        W50099   5.845   4.599   2.752 -0.0072 -0.0932 -0.1605
41300W        W50100  15.325   2.471  28.028 -0.0207  0.2331 -0.0292
41301W        W50101  13.975   6.261   8.493 -0.0233 -0.0708  0.1288
41302W        W50102  17.531   6.207  10.839 -0.0804 -0.1779  0.2835
41303W        W50103   4.933   3.456  28.356  0.1876 -0.1443  0.1178
41304W        W50104   7.124   6.331  20.514 -0.1124 -0.0526  0.2171
41305W        W50105  18.526   3.780  13.373 -0.0168 -0.0064  0.3348
41306W        W50106   0.626   3.856  10.600 -0.1487 -0.3082 -0.3271
41307W        W50107   5.278   0.454   4.878 -0.0747 -0.0555  0.0966
41308W        W50108  15.906   3.004  30.419 -0.1018 -0.2238  0.0239
41309W        W50109  15.461   2.468  16.744  0.0090 -0.1639  0.0768
41310W        W50110  17.147   2.883  12.865  0.0688 -0.1779  0.0500
41311W        W50111   1.020   5.496   6.515 -0.0883  0.0407 -0.1988
41312W        W50112  10.995   2.082  14.901 -0.2585  0.1110 -0.0586
41313W        W50113   9.836   2.183  30.036 -0.2374  0.0236 -0.4955
41314W        W50114   1.226   4.118  29.671  0.0119  0.1918 -0.4247
41315W        W50115  15.491   5.961  39.225  0.0772 -0.0280 -0.1895
41316W        W50116  18.261   0.895   3.113  0.0626  0.1094  0.2742
41317W        W50117  12.431   1.122  37.228 -0.0462 -0.0723 -0.3312
41318W        W50118   4.436   4.483  12.056  0.1205  0.0790  0.1644
41319W        W50119   8.478   6.511  38.181 -0.1237 -0.3282 -0.1954
41320W        W50120   0.582   2.242  29.930 -0.0008  0.0603 -0.1623
41321W        W50121  20.682   1.762  11.768  0.1185 -0.2156  0.1326
41322W        W50122   8.933   3.553  18.563 -0.1949 -0.0972  0.1331
41323W        W50123  13.075   3.672   8.354 -0.4652 -0.1973  0.0775
41324W        W50124   3.011   1.213   4.648  0.0674 -0.0406 -0.1988
41325W        W50125  11.336   4.659  13.983  0.2833 -0.0082 -0.0572
41326W        W50126   5.940   4.498  29.956  0.1545  0.1538  0.1127
41327W        W50127   7.543   5.528  30.686 -0.1393 -0.0188  0.0393
41328W        W50128   8.674   3.096  30.219 -0.1497 -0.0015  0.0108
41329W        W50129  10.989   4.791   3.436 -0.1238 -0.5198 -0.1684
41330W        W50130   7.237   3.818  37.822 -0.1117 -0.1260 -0.0825
41331W        W50131  14.347   5.697  11.403 -0.1205  0.0290  0.0341
41332W        W50132  16.084   1.939  40.820 -0.0745 -0.1379 -0.0829
41333W        W50133  18.724   4.471  24.409 -0.1109 -0.0694 -0.3854
41334W        W50134   5.497   1.130  12.472  0.0870  0.3542 -0.0548
41335W        W50135  10.014   3.675  12.826  0.1890  0.1919  0.3609
41336W        W50136   7.928   0.645  36.841 -0.3807 -0.0219  0.1793
41337W        W50137  10.054   1.184  43.451  0.1071  0.1015  0.0400
41338W        W50138  16.426   4.115  29.650 -0.0746 -0.0504 -0.2644
41339W        W50139   3.120   1.454  30.864  0.0444 -0.0492 -0.0273
41340W        W50140   0.459   5.847   1.159  0.1946  0.0567  0.2067
41341W        W50141   9.886   0.520  10.130 -0.1128 -0.0808 -0.0008
41342W        W50142   8.595   2.462  15.020  0.2067  0.3264 -0.0015
41343W        W50143   6.337   2.576  10.084 -0.1075 -0.0154 -0.0482
41344W        W50144  21.000   1.086  29.202 -0.0713  0.0821  0.1113
41345W        W50145  10.543   2.621  12.047 -0.0529  0.0873  0.0846
41346W        W50146   4.998   4.398  18.598  0.0518 -0.1790 -0.0032
41347W        W50147  14.430   0.739  17.983 -0.1873 -0.1576 -0.0677
41348W        W50148   3.058   0.413  36.857 -0.2487 -0.1174 -0.0475
41349W        W50149  16.363   4.169  43.328 -0.0567  0.1039  0.1096
41350W        W50150  17.054   4.317  25.352  0.2625 -0.1542  0.1661
41351W        W50151  13.027   4.360   1.052  0.0077 -0.0198 -0.0200
41352W        W50152   8.210   1.470   6.471  0.2220  0.2283  0.1724
41353W        W50153   7.061   5.351  40.083  0.1089  0.0048  0.1578
41354W        W50154   8.691   0.785  33.429 -0.0851 -0.0623  0.1561
41355W        W50155  10.547   3.017  12.368  0.1286 -0.1481  0.0993
41356W        W50156  17.235   6.595  38.137  0.1983  0.0843  0.1831
41357W        W50157   4.308   1.734  38.730  0.0405 -0.3097 -0.2468
41358W        W50158  11.304   0.957  20.181 -0.2843  0.1388 -0.2050
41359W        W50159   2.559   5.501  38.707  0.1314 -0.0536  0.1746
41360W        W50160   9.321   5.417  42.321  0.1216 -0.1011 -0.2980
41361W        W50161   8.986   5.857  13.840  0.0874 -0.0190  0.0694
41362W        W50162   6.336   4.437   1.282  0.4046  0.0778 -0.2590
41363W        W50163  16.715   5.034  34.822 -0.0985  0.0146  0.1286
41364W        W50164  11.603   0.722  36.785  0.0064 -0.2115 -0.1142
41365W        W50165   6.027   0.957  43.839 -0.2774  0.3587  0.1731
41366W        W50166  20.267   2.713   5.707 -0.0595  0.0725 -0.0408
41367W        W50167   3.785   1.835  17.551 -0.0920 -0.2881  0.0397
41368W        W50168  15.775   2.444  26.454  0.1469  0.0740  0.1887
41369W        W50169   5.721   2.883  12.048  0.0386 -0.1176  0.0745
41370W        W50170  14.133   2.117   3.129  0.3680  0.1809 -0.0696
41371W        W50171   9.304   4.855   9.253  0.2254 -0.0378 -0.0746
41372W        W50172  11.504   3.754  15.336  0.0643 -0.0449  0.4008
41373W        W50173   4.723   4.066   0.455 -0.1616  0.2180  0.3520
41374W        W50174   6.826   2.901   1.190 -0.1187  0.0366  0.0571
41375W        W50175  11.196   6.465  43.943  0.2724 -0.3297  0.0788
41376W        W50176   9.462   1.343   6.797  0.0925  0.0411  0.0617
41377W        W50177   0.073   0.789  28.418 -0.1284  0.0633 -0.0298
41378W        W50178  12.411   0.229  39.172  0.1665  0.0294  0.0489
41379W        W50179  10.010   4.835  15.810  0.1476 -0.2586  0.0682
41380W        W50180  11.021   3.577  40.564  0.0798 -0.0472  0.1558
41381W        W50181  17.461   3.483  12.594 -0.0395 -0.0829 -0.0648
41382W        W50182   8.684   6.563  39.196 -0.0962 -0.0295  0.0231
41383W        W50183   2.258   1.573  32.507 -0.0325 -0.0113 -0.0820
41384W        W50184  16.995   0.562   3.291 -0.2015  0.0806 -0.0592
41385W        W50185  12.234   4.600   3.287  0.1315  0.0490 -0.1549
41386W        W50186  18.127   4.965   5.635 -0.0547 -0.0913 -0.3013
41387W        W50187  10.863   6.224  40.480  0.0474 -0.1477  0.0624
41388W        W50188  15.683   0.261  44.763 -0.1332  0.1249  0.1179
41389W        W50189   9.049   4.477  21.808  0.0634 -0.0416  0.1783
41390W        W50190  18.487   0.756  41.084 -0.0787 -0.1117 -0.2557
41391W        W50191  18.768   5.921  10.676 -0.0341 -0.1046 -0.1313
41392W        W50192   6.340   1.880  17.855 -0.0914  0.0883 -0.1845
41393W        W50193   3.643   4.703   9.866  0.0534 -0.1589 -0.1899
41394W        W50194  15.900   3.786  39.990  0.1489 -0.2708 -0.2971
41395W        W50195   7.307   4.925  21.979 -0.0298 -0.2554  0.1011
41396W        W50196   4.215   0.445   1.998 -0.0256 -0.1102 -0.3074
41397W        W50197  10.656   3.506  20.508 -0.3300 -0.1830  0.1278
41398W        W50198   1.000   0.009  42.182 -0.2717 -0.1009 -0.0536
41399W        W50199  15.243   5.720   4.803  0.2071  0.1732  0.0012
41400W        W50200  18.315   1.194  16.571  0.2759  0.0523 -0.0773
41401W        W50201  19.007   2.845  24.864  0.1769  0.0497  0.0123
41402W        W50202   4.085   1.995  15.145  0.2610 -0.0959  0.2338
41403W        W50203  20.554   2.305  25.417 -0.0290  0.0918 -0.0180
41404W        W50204  17.907   2.543  25.430 -0.1111  0.0128  0.0178
41405W        W50205  13.379   0.333  29.634 -0.1264 -0.0167 -0.0118
41406W        W50206   7.842   0.883  44.426 -0.1657  0.1156 -0.1205
41407W        W50207  15.022   3.607  35.721 -0.0637  0.0476 -0.5453
41408W        W50208  19.985   3.410  35.327 -0.0187 -0.1147 -0.2428
41409W        W50209  18.066   6.108   0.376  0.0191 -0.0026  0.2360
41410W        W50210   9.554   1.255   9.095  0.1794 -0.3792 -0.0319
41411W        W50211   3.076   3.069  38.435 -0.2427 -0.3739  0.0548
41412W        W50212  13.797   1.818  41.386 -0.1840 -0.0328  0.1240
41413W        W50213  10.803   5.067  43.554 -0.1182 -0.1073 -0.1374
41414W        W50214   3.654   0.263  43.741  0.0570  0.3991  0.1586
41415W        W50215   5.668   1.823   7.444 -0.0792 -0.1012  0.1409
41416W        W50216   9.096   3.097   1.646  0.1400  0.1487 -0.0138
41417W        W50217   7.080   5.103  21.060  0.0913  0.3182  0.2113
41418W        W50218  20.352   3.469  42.101 -0.0566  0.0591 -0.1915
41419W        W50219  17.548   5.160  41.564  0.0804 -0.0666  0.1069
41420W        W50220   7.006   4.024  35.173 -0.1440 -0.1301  0.2478
41421W        W50221   6.034   1.560   1.966 -0.0759 -0.2137  0.0234
41422W        W50222  10.856   3.932  37.679  0.2368  0.0888 -0.0875
41423W        W50223   7.678   2.694  32.284  0.0691 -0.1702  0.0454
41424W        W50224   6.134   2.224   5.213  0.2011 -0.0097 -0.1432
41425W        W50225  10.209   2.009   4.699  0.1895  0.2624  0.0233
41426W        W50226  17.749   5.058  14.066 -0.0275  0.1131  0.0388
41427W        W50227  10.961   2.305  44.595  0.0121 -0.1776  0.3339
41428W        W50228  18.325   3.534  11.997  0.2060  0.3737  0.0917
41429W        W50229  13.375   5.666  18.357 -0.1677  0.3690  0.0891
41430W        W50230  13.072   3.081  43.997  0.0352 -0.0657  0.1609
41431W        W50231  11.656   0.046  12.169  0.1465 -0.1122  0.0686
41432W        W50232  14.732   2.048  26.951 -0.0220  0.1163 -0.3620
41433W        W50233  10.337   4.841  36.761  0.2393 -0.0908  0.2547
41434W        W50234   6.084   5.969  19.083 -0.1740 -0.0524  0.1779
41435W        W50235   2.857   1.623  41.916  0.3640  0.1828  0.0415
41436W        W50236  10.400   6.213   9.182 -0.2616  0.0469  0.0616
41437W        W50237   9.062   5.978  21.867  0.2354 -0.2283 -0.4463
41438W        W50238  13.301   5.375   8.843 -0.0923 -0.0996  0.0055
41439W        W50239  15.451   1.422  31.883 -0.2022 -0.0698 -0.1778
41440W        W50240   7.224   6.553   0.647 -0.1078 -0.0696 -0.2082
41441W        W50241  12.868   4.664  28.095 -0.0720 -0.1409 -0.0734
41442W        W50242   0.232   3.690  30.548 -0.0508  0.3100  0.2868
41443W        W50243  12.636   3.071  15.275  0.0777 -0.2604  0.3005
41444W        W50244   6.526   2.006  39.484 -0.2804  0.2874 -0.2934
41445W        W50245  17.690   3.418  16.215 -0.1055 -0.1215  0.0210
41446W        W50246   8.029   3.546   2.020 -0.0613 -0.0780 -0.4268
41447W        W50247  12.345   4.158   3.062  0.2914 -0.0986  0.1873
41448W        W50248  20.362   3.786  15.949 -0.0586 -0.0291 -0.0120
41449W        W50249  12.675   1.037  19.124  0.0299  0.0977  0.1631
41450W        W50250   8.555   0.231   1.999  0.2209 -0.0667  0.1157
41451W        W50251   1.338   2.237  14.274 -0.0439  0.2572 -0.1646
41452W        W50252  12.936   4.722  40.790  0.1540 -0.1499 -0.0088
41453W        W50253  18.492   3.978  11.721  0.0128 -0.2069  0.1754
41454W        W50254   8.592   5.171  36.921  0.0043 -0.3058  0.1680
41455W        W50255  13.609   1.060   3.972  0.1121  0.0582 -0.0739
41456W        W50256  14.966   2.597  30.898 -0.3543 -0.0881  0.0175
41457W        W50257   0.775   2.524  14.977  0.5085  0.1025 -0.3439
41458W        W50258  14.729   6.151  29.000 -0.2105 -0.0291  0.1294
41459W        W50259   7.078   4.071  21.573 -0.1926  0.2520  0.1739
41460W        W50260   5.133   1.445  18.900 -0.0845 -0.3817  0.1449
41461W        W50261   9.402   5.849  37.346 -0.2563  0.2260 -0.0608
41462W        W50262   8.773   4.549  29.726 -0.1704 -0.2422  0.0592
41463W        W50263  11.764   0.598  31.040 -0.0431 -0.0942 -0.0971
41464W        W50264   7.871   0.228  40.546  0.0367 -0.2054 -0.0448
41465W        W50265  10.073   4.498  15.130  0.1440 -0.0272  0.2151
41466W        W50266  16.948   5.213  25.800  0.3885 -0.1715  0.0173
41467W        W50267  21.021   0.325  21.925 -0.0613 -0.0778 -0.2036
41468W        W50268  16.293   3.447  31.367 -0.1424 -0.0435  0.0754
41469W        W50269   9.828   2.021  19.734 -0.0702  0.0075 -0.3277
41470W        W50270  13.930   2.984   0.255 -0.0303 -0.0816 -0.0539
41471W        W50271   6.844   5.846   2.672 -0.1528  0.0165  0.0942
41472W        W50272   3.544   1.020   9.836  0.0815 -0.5304 -0.1128
41473W        W50273   4.916   5.574  30.516  0.1799 -0.0997  0.1828
41474W        W50274  20.227   2.912  39.792 -0.0200 -0.2980 -0.1780
41475W        W50275  14.312   1.741  30.205 -0.1118  0.1018  0.0642
41476W        W50276   8.347   4.713  22.330  0.0834 -0.0621  0.1544
41477W        W50277   5.010   6.142  36.277  0.1396 -0.0818  0.0466
41478W        W50278  11.730   4.645  21.761  0.1777  0.0000 -0.0123
41479W        W50279  18.381   1.647  23.374 -0.0041 -0.1170 -0.0445
41480W        W50280  10.140   5.852  22.614  0.0146 -0.2411 -0.0791
41481W        W50281   8.273   3.763   7.014 -0.0965  0.0375 -0.1140
41482W        W50282   2.084   2.901   1.570  0.2603  0.0853 -0.0526
41483W        W50283   2.942   6.393  40.012 -0.1343  0.2308  0.1887
41484W        W50284   2.239   0.421  35.603 -0.1627 -0.0139 -0.1150
41485W        W50285   0.192   5.938  33.915  0.0956 -0.1231 -0.0742
41486W        W50286  17.253   3.197  37.224 -0.0310  0.1605 -0.1316
41487W        W50287  14.476   5.892   9.027  0.0620  0.0172 -0.0784
41488W        W50288   4.958   0.027  15.806 -0.2219  0.3580  0.0568
41489W        W50289  10.729   3.654  44.960 -0.2151  0.0661 -0.1129
41490W        W50290   6.347   2.118  32.385 -0.0865 -0.2440 -0.0192
41491W        W50291   6.135   5.202  44.306 -0.1033  0.0638 -0.1117
41492W        W50292   5.690   4.387   5.406  0.0244  0.0695 -0.2228
41493W        W50293   0.570   0.389  28.681 -0.1325  0.0606  0.0143
41494W        W50294   0.945   1.500  10.574 -0.1332 -0.1059 -0.0035
41495W        W50295  15.229   0.387  29.285  0.2807 -0.3463  0.0337
41496W        W50296   3.108   2.782  36.293 -0.0262 -0.0502  0.1814
41497W        W50297  15.658   4.455   0.687  0.3246 -0.0322 -0.0338
41498W        W50298  17.225   1.472  37.856  0.0116 -0.2487  0.2407
41499W        W50299  18.012   0.618  34.530 -0.0829  0.0847 -0.0421
41500W        W50300  13.422   1.047  16.504 -0.1640  0.2169  0.3799
41501W        W50301   7.366   5.240  41.233  0.0676 -0.1214  0.1248
41502W        W50302  13.722   2.006  14.472 -0.2625 -0.2105  0.1257
41503W        W50303   0.770   6.477  34.176 -0.1224 -0.4465  0.2218
41504W        W50304  13.715   1.086  43.406 -0.1166  0.3053 -0.3246
41505W        W50305   6.860   0.821  15.006 -0.2175 -0.1812  0.2064
41506W        W50306  12.989   3.180  14.311  0.1934  0.4157 -0.1656
41507W        W50307  14.168   4.968   6.750 -0.3178 -0.0717  0.0004
41508W        W50308  17.398   0.547  29.191  0.0122  0.0407  0.1142
41509W        W50309  15.128   6.550  33.932  0.3134  0.0664 -0.1999
41510W        W50310  19.547   1.288  27.806 -0.0551 -0.0124 -0.1213
41511W        W50311   8.660   2.301  36.207  0.2288 -0.1998  0.0175
41512W        W50312   9.287   5.620  40.957  0.2003 -0.0390  0.2819
41513W        W50313  13.448   1.847  19.400 -0.0401  0.2376 -0.2852
41514W        W50314  20.096   2.199  39.239 -0.1945  0.1370 -0.3376
41515W        W50315  19.376   4.436  26.616 -0.2113 -0.0539 -0.2515
41516W        W50316   3.601   4.141  32.432 -0.2490 -0.1483  0.1172
41517W        W50317  12.999   3.685  41.001 -0.2766 -0.1807 -0.0199
41518W        W50318   4.365   6.042   8.781 -0.0382 -0.1156 -0.0739
41519W        W50319  20.984   2.133  34.056 -0.0944 -0.0158 -0.2374
41520W        W50320   1.200   4.490  11.061 -0.1308  0.4049  0.2755
41521W        W50321   8.054   0.713  40.285 -0.2532 -0.1099  0.0572
41522W        W50322  13.146   0.038  19.262 -0.3733 -0.2745  0.2583
41523W        W50323   0.305   6.395  31.452 -0.1747  0.3541 -0.1928
41524W        W50324  17.674   5.169  35.893 -0.0087 -0.0618 -0.0594
41525W        W50325  12.299   2.260   9.697 -0.0242 -0.0647  0.2017
41526W        W50326  16.692   2.661  38.607 -0.3123  0.2284 -0.0107
41527W        W50327  16.835   1.251  32.267 -0.1417 -0.3200  0.0584
41528W        W50328   7.924   0.842   7.050 -0.0306 -0.2974  0.0986
41529W        W50329  12.608   3.984  27.687  0.1655 -0.1836 -0.0376
41530W        W50330  10.660   2.276  19.561 -0.1429 -0.1298  0.0787
41531W        W50331  19.267   2.399  33.568  0.1625 -0.5464  0.1315
41532W        W50332  17.240   5.013  17.017 -0.0426 -0.0637  0.1405
41533W        W50333   4.342   4.853  12.828 -0.0281  0.0542  0.3327
41534W        W50334  11.024   2.936  37.399 -0.0360  0.0065  0.0900
41535W        W50335   5.920   1.103  32.534 -0.2210 -0.0757 -0.0507
41536W        W50336  13.464   1.804   3.752  0.0829  0.0936 -0.0497
41537W        W50337  10.722   3.852  14.941  0.3220  0.3230 -0.2257
41538W        W50338   0.416   1.825  30.790  0.0750 -0.1326 -0.3204
41539W        W50339   9.164   0.066  23.514 -0.0493  0.0927  0.1063
41540W        W50340  12.836   1.418  27.803 -0.0289 -0.1534 -0.0824
41541W        W50341  11.559   4.859  10.861 -0.1565 -0.0094  0.1556
41542W        W50342   8.710   3.805  29.266  0.3229  0.0485 -0.0782
41543W        W50343  12.938   1.634  21.327 -0.1037 -0.0693 -0.1106
41544W        W50344  11.940   4.935  12.413 -0.2215  0.2053  0.1585
41545W        W50345  13.186   3.953  16.724  0.0399 -0.0407  0.1310
41546W        W50346   7.319   5.708   7.145 -0.1658  0.1640  0.2070
41547W        W50347  10.885   3.649   5.075 -0.1834 -0.0444 -0.0748
41548W        W50348  12.291   2.571  35.866  0.1432  0.0055  0.2940
41549W        W50349  19.599   5.509  15.765 -0.1307  0.0121  0.1461
41550W        W50350   0.181   2.253  28.656 -0.0318  0.1025  0.2285
41551W        W50351  11.435   5.013   0.949  0.0233 -0.4096 -0.1056
41552W        W50352  10.863   0.779  13.183 -0.0106 -0.3069 -0.0496
41553W        W50353  14.923   6.095  34.061  0.1770 -0.1853  0.1365
41554W        W50354   7.599   2.010  45.043 -0.1095 -0.0951 -0.2754
41555W        W50355   1.597   2.247  30.807 -0.0550  0.0326 -0.0999
41556W        W50356  10.210   5.071   1.215  0.0465 -0.0690  0.0499
41557W        W50357  12.909   4.530  10.925  0.1341 -0.1344  0.1732
41558W        W50358   7.940   3.945  43.564 -0.0317  0.0419  0.3091
41559W        W50359   5.315   4.317  10.637  0.0648  0.0161  0.2232
41560W        W50360   1.294   2.843  23.802  0.2043 -0.0675 -0.0647
41561W        W50361  16.770   0.807  32.666  0.0848  0.0480 -0.1028
41562W        W50362  14.426   5.470  38.165  0.0461 -0.2564 -0.0332
41563W        W50363  20.617   5.783  34.718 -0.0311 -0.1846 -0.2899
41564W        W50364   8.258   0.181  11.414  0.0895  0.3454 -0.0867
41565W        W50365  17.374   2.532  26.011  0.0425 -0.0165 -0.0307
41566W        W50366  20.409   2.371  40.458  0.1529 -0.0374 -0.1909
41567W        W50367  13.979   4.086  33.085  0.0626  0.0367 -0.1492
41568W        W50368  11.964   1.669  11.570  0.3549 -0.1133 -0.1270
41569W        W50369   3.255   2.268   8.030  0.3708  0.3376  0.0795
41570W        W50370   0.486   0.697   4.733  0.2022  0.1617 -0.0920
41571W        W50371   0.273   1.284   3.503  0.1476  0.3699  0.3282
41572W        W50372  19.394   0.733  18.452  0.0449 -0.0856 -0.1672
41573W        W50373   3.180   3.812  40.440  0.1302 -0.1123  0.0318
41574W        W50374   4.842   4.502  31.367  0.0685 -0.1563 -0.2407
41575W        W50375   9.688   5.615  11.254  0.2039 -0.1075  0.1739
41576W        W50376  16.158   6.078  17.052  0.1834 -0.1299  0.0873
41577W        W50377  15.613   0.647  12.696  0.2101 -0.0266  0.0361
41578W        W50378   0.704   0.803  26.670  0.2945  0.2468 -0.0312
41579W        W50379   0.823   5.023  29.690 -0.0262  0.0877  0.0703
41580W        W50380   0.337   0.097  27.788 -0.1625 -0.1160  0.2339
41581W        W50381  11.135   5.289  34.603  0.1979  0.1537 -0.0340
41582W        W50382  15.693   2.200  37.077  0.2322 -0.0500 -0.2077
41583W        W50383  18.301   4.080  24.433  0.0308  0.1284  0.0244
41584W        W50384  19.565   0.305  20.771  0.0514  0.0414 -0.1568
41585W        W50385   2.146   2.055   7.802  0.1645  0.3586 -0.1253
41586W        W50386  10.141   5.866  31.434 -0.1205 -0.1947 -0.4208
41587W        W50387  19.407   6.558   4.860  0.0011  0.0231  0.0625
41588W        W50388  14.627   3.914   5.644 -0.1510  0.1125 -0.0119
41589W        W50389   8.888   5.157  30.156  0.0589 -0.1979 -0.1531
41590W        W50390  17.130   0.296   9.155  0.0447 -0.0852  0.0052
41591W        W50391  18.888   5.151   5.972 -0.0299 -0.3318 -0.0234
41592W        W50392  13.885   2.930   3.891 -0.0630  0.4443 -0.1108
41593W        W50393   2.558   4.207   5.850  0.1826 -0.2329  0.0009
41594W        W50394   7.011   3.265  15.564 -0.1457 -0.1013 -0.0031
41595W        W50395   5.701   4.182  40.700 -0.0826  0.0560 -0.4148
41596W        W50396  11.422   2.837  35.979 -0.0098  0.0547 -0.1383
41597W        W50397   8.473   1.927  22.226 -0.0994  0.0782 -0.1497
41598W        W50398   8.028   5.451  18.604  0.1783  0.0658  0.1612
41599W        W50399   5.180   4.297   0.472  0.1288  0.0630 -0.2282
41600W        W50400  20.081   2.067  15.552 -0.0151 -0.0345 -0.2589
41601W        W50401  16.920   3.100  13.737 -0.0096  0.0214 -0.1907
41602W        W50402  11.262   3.578  17.229 -0.2165 -0.0781  0.0553
41603W        W50403   4.080   6.352  42.028 -0.2819 -0.1201 -0.0600
41604W        W50404   9.064   0.878   2.784 -0.0030 -0.0745  0.1707
41605W        W50405  15.344   3.863  41.853 -0.2118 -0.0022 -0.1678
41606W        W50406   4.736   2.569  10.287 -0.0949 -0.2689  0.0763
41607W        W50407  11.545   3.539  39.929  0.1067  0.0176  0.0262
41608W        W50408   9.800   0.840  18.411  0.0546 -0.2880  0.0276
41609W        W50409  20.438   1.384  12.438 -0.0245  0.0293 -0.5168
41610W        W50410   4.576   2.918   6.372 -0.4007  0.2014 -0.1163
41611W        W50411  12.515   2.174  33.826  0.2794  0.0888 -0.3401
41612W        W50412   5.745   3.477  17.473 -0.0403  0.2175 -0.0491
41613W        W50413  16.024   3.022  27.148  0.0058 -0.2513 -0.3805
41614W        W50414  21.028   4.903  15.719  0.0646 -0.0449  0.0236
41615W        W50415  12.844   3.058  12.439  0.0872  0.0137  0.1309
41616W        W50416  18.535   6.490   8.329 -0.0707 -0.2119 -0.1396
41617W        W50417  10.188   1.823  44.600 -0.2277  0.0135  0.1954
41618W        W50418   7.427   1.176  44.501 -0.1131  0.2489 -0.0983
41619W        W50419  19.980   0.608   8.199  0.2940 -0.1088 -0.0539
41620W        W50420  11.005   2.379  37.326  0.3084 -0.3091 -0.0889
41621W        W50421   9.574   6.147   6.987  0.0404  0.1538  0.2591
41622W        W50422  10.623   1.558  20.745 -0.0224  0.0582  0.0031
41623W        W50423   0.755   2.926   1.490  0.1020  0.1858  0.2416
41624W        W50424   3.810   0.883  13.908 -0.1010  0.1819  0.3946
41625W        W50425  17.910   2.353  27.603 -0.1532 -0.0810 -0.1365
41626W        W50426   4.230   1.895  44.728 -0.0709 -0.1421  0.0948
41627W        W50427  17.338   4.511  38.608 -0.0573  0.0911  0.2044
41628W        W50428   1.065   2.049  23.752  0.2964  0.2567 -0.1698
41629W        W50429   9.059   1.566   0.742 -0.1554  0.0423 -0.0167
41630W        W50430   1.743   3.793   0.578  0.1366 -0.0822 -0.4136
41631W        W50431  18.089   3.656  30.183 -0.1023 -0.0351  0.1224
41632W        W50432  10.661   2.215  28.637 -0.0423  0.1262 -0.0677
41633W        W50433  14.761   0.646   5.375 -0.2653 -0.3146 -0.2807
41634W        W50434   1.919   6.522   2.315 -0.1222 -0.0248 -0.0215
41635W        W50435  13.478   3.417   5.405  0.1527 -0.2486  0.0710
41636W        W50436   5.123   2.346  17.949 -0.0752 -0.0313 -0.1721
41637W        W50437  16.686   5.737  33.992  0.3922 -0.2264 -0.2909
41638W        W50438  17.379   6.279  10.112 -0.0649 -0.0931 -0.1350
41639W        W50439  11.021   2.432  23.570  0.2228  0.0017 -0.1879
41640W        W50440   5.102   4.982  42.104 -0.2413  0.1494  0.0098
41641W        W50441   4.958   5.855  41.601  0.2134  0.0796  0.1664
41642W        W50442  17.887   3.732  44.831  0.0053  0.1804  0.1507
41643W        W50443   6.913   1.270   2.432 -0.0326 -0.0970 -0.1662
41644W        W50444  18.491   0.620   2.749 -0.3402 -0.2239  0.2604
41645W        W50445   6.895   6.280  37.451  0.2501  0.1282  0.0828
41646W        W50446   4.011   1.665   3.612 -0.2504  0.0043  0.2277
41647W        W50447  17.219   4.343  27.127  0.0526  0.1246  0.1373
41648W        W50448  10.928   2.438   6.890 -0.3537 -0.0052 -0.1504
41649W        W50449   6.561   6.221  12.236  0.0451  0.2585 -0.1079
41650W        W50450   5.564   0.381  12.204 -0.1608 -0.0132  0.3174
41651W        W50451  13.973   0.373   5.696  0.1152 -0.0744  0.4034
41652W        W50452  18.637   1.211   2.819 -0.1086 -0.1697  0.0146
41653W        W50453  13.002   0.776  36.878 -0.2565  0.2073 -0.0717
41654W        W50454   4.718   0.062  36.160  0.1114  0.0761  0.0738
41655W        W50455  19.580   1.148  12.622 -0.0663  0.0213 -0.0068
41656W        W50456   1.397   2.604  35.992  0.0315 -0.2066  0.2898
41657W        W50457   3.863   4.226  15.646 -0.0320 -0.5002 -0.0262
41658W        W50458   6.336   4.543  19.093 -0.3822  0.0215 -0.0362
41659W        W50459  11.889   5.812  31.402 -0.1297  0.1353 -0.0767
41660W        W50460   2.525   2.311   5.592 -0.3756 -0.1686  0.0202
41661W        W50461  14.873   5.381  31.272  0.0372  0.0646  0.3035
41662W        W50462  17.721   5.424   8.365  0.1979  0.0644 -0.0225
41663W        W50463  14.191   4.066  11.291 -0.0889  0.2454 -0.1821
41664W        W50464   2.655   1.514   1.405 -0.0522  0.1704  0.0118
41665W        W50465   4.491   2.189  19.592 -0.1192  0.4592 -0.2965
41666W        W50466   0.394   4.936   3.221  0.0466 -0.0635  0.1957
41667W        W50467  12.928   4.047  30.229 -0.0910  0.0356 -0.0913
41668W        W50468  19.979   6.582  27.824 -0.2386 -0.2800  0.1991
41669W        W50469  18.624   1.385  30.563 -0.0958 -0.2148  0.2207
41670W        W50470  15.746   0.995  14.110 -0.1040  0.1086 -0.1136
41671W        W50471   2.186   3.103  15.252  0.1168  0.1069 -0.0712
41672W        W50472  11.310   3.542  35.271  0.1763 -0.0878  0.1015
41673W        W50473  10.916   5.941  37.637  0.0721 -0.0841 -0.1109
41674W        W50474   4.734   5.695  31.787 -0.0778  0.1717 -0.0904
41675W        W50475  15.230   1.744  29.218 -0.0248  0.1120 -0.0882
41676W        W50476   4.371   4.435  31.587  0.0964 -0.1965 -0.0377
41677W        W50477   3.305   5.741  36.426  0.0250 -0.1010  0.2621
41678W        W50478  11.373   1.977  16.844  0.0754 -0.0060 -0.0460
41679W        W50479   7.019   2.622  21.496  0.1416 -0.0114 -0.0710
41680W        W50480   5.857   3.415   3.952  0.3578  0.1682  0.1570
41681W        W50481  17.388   3.432   2.995  0.0424  0.2312  0.1775
41682W        W50482  16.787   6.402  27.319 -0.2927 -0.1174  0.0096
41683W        W50483  19.433   3.182   8.789  0.0320 -0.0592 -0.0605
41684W        W50484  19.983   1.946  28.907  0.2761 -0.3288  0.2181
41685W        W50485  17.584   3.920   0.103 -0.2208  0.2030  0.1845
41686W        W50486  18.034   4.778  31.843 -0.0660 -0.0038 -0.1115
41687W        W50487  12.852   2.901  29.035 -0.2822 -0.1301 -0.4188
41688W        W50488   0.023   2.665  43.960  0.3640  0.2360 -0.0460
41689W        W50489  11.623   5.452  40.577  0.0555  0.1419 -0.1121
41690W        W50490   7.835   4.622  38.728  0.2433  0.2024  0.0804
41691W        W50491   5.742   4.483  30.734 -0.2145 -0.0233  0.0596
41692W        W50492  10.480   1.501  22.446 -0.0584 -0.0673 -0.2024
41693W        W50493   6.904   1.935  15.431  0.1566  0.0426  0.1179
41694W        W50494  10.403   3.268  16.917 -0.0383  0.0057 -0.0466
41695W        W50495   3.196   2.507  36.725 -0.1696  0.3593 -0.0093
41696W        W50496  12.427   1.621  28.947 -0.0938  0.0163 -0.2931
41697W        W50497   4.790   3.176  31.256 -0.0371 -0.3556 -0.2879
41698W        W50498   0.421   2.813   4.390 -0.1042  0.2617 -0.3630
41699W        W50499   6.176   3.162   2.777 -0.0250 -0.3159  0.0776
41700W        W50500  18.985   4.452  36.630 -0.1326 -0.0484  0.0185
41701W        W50501   3.534   1.785  33.459 -0.1885  0.3797  0.3175
41702W        W50502  13.560   6.523   7.638 -0.0509 -0.1417 -0.0569
41703W        W50503  12.810   1.880  11.341 -0.0570 -0.1211 -0.2568
41704W        W50504  12.805   4.944  30.645 -0.0330  0.3889  0.2446
41705W        W50505  17.127   5.370  35.023 -0.0478  0.1987 -0.2178
41706W        W50506   1.937   5.370  28.424  0.3662 -0.0570 -0.3034
41707W        W50507  19.689   3.199  38.828 -0.0818  0.3518  0.0487
41708W        W50508   1.874   1.634  42.924  0.0443 -0.4143  0.1135
41709W        W50509  14.269   5.242  42.741  0.1190  0.1567  0.1281
41710W        W50510   6.972   1.204  11.689 -0.2100  0.1490  0.0086
41711W        W50511  18.996   4.405  38.129  0.0607 -0.4449  0.0142
41712W        W50512  10.766   3.183  34.269  0.1952  0.0787 -0.2064
41713W        W50513   6.224   2.847  38.180 -0.3115 -0.5058  0.2495
41714W        W50514   1.658   5.478   1.177 -0.1942 -0.0285  0.0776
41715W        W50515  21.046   6.174  31.144  0.2823  0.1269 -0.0944
41716W        W50516   9.145   0.793  36.607 -0.2121  0.0153  0.4650
41717W        W50517   4.149   3.593  36.921 -0.0842  0.0138  0.2017
41718W        W50518  13.175   2.467  37.531 -0.0347  0.1023 -0.1119
41719W        W50519  16.606   4.991  27.705  0.4652  0.1168 -0.0969
41720W        W50520  14.619   2.722  16.648  0.0732  0.4260 -0.1564
41721W        W50521  16.392   4.599   6.849  0.1181  0.1440 -0.0044
41722W        W50522   8.377   2.475  22.975  0.2194 -0.0903  0.2285
41723W        W50523  14.447   0.132  32.390 -0.3067 -0.1519  0.2045
41724W        W50524  10.195   2.109  11.465  0.1443  0.2436  0.2244
41725W        W50525  16.762   5.381  36.885  0.1018 -0.0706  0.0404
41726W        W50526  18.639   0.674  22.553 -0.0331 -0.3141 -0.0809
41727W        W50527   3.031   2.504  29.753 -0.0228  0.0096 -0.0056
41728W        W50528   8.315   0.234   3.611 -0.0025  0.0888 -0.1990
41729W        W50529  18.842   6.177  40.665 -0.1311 -0.1658 -0.1449
41730W        W50530  16.488   5.908   4.225  0.3567 -0.0366  0.1071
41731W        W50531  14.729   2.850   4.119  0.1112 -0.1533  0.1313
41732W        W50532  18.746   1.192   0.224 -0.0894 -0.2531  0.0767
41733W        W50533   0.651   2.095   9.088 -0.2096  0.0964  0.0590
41734W        W50534  19.436   2.238   6.567 -0.1508 -0.0006 -0.2595
41735W        W50535   6.001   0.326  43.378 -0.1307  0.5233 -0.1994
41736W        W50536  16.231   3.166  12.981  0.2540 -0.0778  0.3421
41737W        W50537   2.506   3.789  12.399  0.1397  0.0914 -0.4482
41738W        W50538  16.655   1.525  37.802  0.0791 -0.0152 -0.1623
41739W        W50539  18.398   0.956   7.784  0.0406  0.1029  0.0526
41740W        W50540   5.738   1.111  40.516  0.2520  0.1461  0.1578
41741W        W50541  20.696   5.035  30.059  0.0173 -0.1248  0.0010
41742W        W50542   4.818   0.407  39.678  0.1233 -0.2888  0.3804
41743W        W50543  17.862   4.144  41.076  0.1695 -0.0512  0.1343
41744W        W50544   2.066   0.686   4.128  0.3060  0.0378 -0.1863
41745W        W50545   8.668   1.475   4.242  0.2934  0.0712  0.2859
41746W        W50546  16.533   6.504  33.993  0.1096 -0.2451  0.0181
41747W        W50547  21.068   1.875  26.620  0.1212 -0.0235 -0.0545
41748W        W50548  16.923   1.209  29.451  0.0260  0.0574 -0.0699
41749W        W50549  17.511   1.636   9.332  0.0760 -0.3044 -0.1568
41750W        W50550   6.359   4.074  11.852  0.1036  0.0051 -0.0778
41751W        W50551  14.249   3.079  41.762 -0.0133 -0.0799 -0.1501
41752W        W50552  12.874   4.988  14.758 -0.1107  0.2872  0.0557
41753W        W50553  10.605   0.632   3.277  0.0292  0.2680 -0.0786
41754W        W50554   9.870   1.546  32.493  0.0810 -0.1487 -0.1917
41755W        W50555  14.318   5.774  34.559 -0.0086 -0.0904 -0.2552
41756W        W50556  15.849   5.830  33.954 -0.1088  0.2624 -0.0212
41757W        W50557   3.529   1.218  43.178 -0.1963  0.1452  0.2344
41758W        W50558   1.891   6.023  25.753 -0.1050 -0.1953  0.0612
41759W        W50559   0.787   0.962  42.653  0.2184  0.1760 -0.0277
41760W        W50560   8.542   5.018  18.970  0.1824 -0.1355  0.0338
41761W        W50561   5.340   1.654  28.642 -0.1356 -0.1024  0.1232
41762W        W50562  16.904   4.597  13.906 -0.2941  0.2604 -0.3266
41763W        W50563  15.671   0.555  14.986 -0.0337  0.1142 -0.4461
41764W        W50564   2.519   4.087  31.788  0.0231  0.3400  0.2897
41765W        W50565   4.471   4.728   1.123 -0.1803  0.0756  0.1784
41766W        W50566   0.360   4.935  37.128  0.0098  0.1544  0.1593
41767W        W50567   9.510   6.527  18.102 -0.0252 -0.0491  0.0995
41768W        W50568   9.979   1.968  12.756  0.3156  0.0434 -0.4382
41769W        W50569   0.349   0.926   9.540  0.0555  0.1658 -0.0266
41770W        W50570  12.141   2.502  40.709 -0.2229  0.2546 -0.0244
41771W        W50571  20.441   2.960  26.497  0.2722 -0.1290 -0.4128
41772W        W50572  11.377   0.019  39.800 -0.1271 -0.1356  0.2465
41773W        W50573  16.120   3.135   2.433  0.0825  0.0455 -0.1317
41774W        W50574   7.458   4.190   9.978 -0.2509  0.0302  0.0273
41775W        W50575   4.116   4.863  17.657  0.0522  0.0409  0.2775
41776W        W50576  21.049   6.390  41.354  0.3589  0.1775  0.2038
41777W        W50577   4.324   2.123   9.560  0.0910  0.4886 -0.1446
41778W        W50578  10.272   3.683  25.031 -0.1268 -0.1326  0.1172
41779W        W50579  12.373   1.210  18.195 -0.0354  0.2085 -0.0885
41780W        W50580   2.439   5.152  12.877 -0.3518  0.0596 -0.0077
41781W        W50581  19.215   5.878  44.653  0.0877  0.0313  0.2683
41782W        W50582   9.535   1.254  18.477 -0.0563 -0.1570  0.0454
41783W        W50583  13.789   0.503  28.481 -0.1085 -0.0395 -0.0528
41784W        W50584  11.322   4.930  32.383 -0.0812 -0.0060  0.0704
41785W        W50585   6.290   1.215  30.861  0.4301  0.1188 -0.1741
41786W        W50586  19.751   1.151  37.542 -0.1108  0.1715 -0.0701
41787W        W50587  19.594   4.437   4.147  0.0104  0.1782  0.1141
41788W        W50588   2.572   0.743  41.877  0.2975  0.1832 -0.1662
41789W        W50589   1.638   3.724  24.773  0.2309  0.2041 -0.0225
41790W        W50590  10.668   3.684  11.403 -0.4022 -0.1557 -0.1622
41791W        W50591   6.087   5.673  17.540  0.0844  0.1777  0.0564
41792W        W50592  15.818   3.849  26.899  0.0895  0.0853 -0.3095
41793W        W50593  15.169   2.596  35.354  0.1668  0.0441  0.1280
41794W        W50594  19.466   6.268  34.697 -0.1628  0.1213  0.0861
41795W        W50595   7.363   3.376  18.805  0.1682 -0.1777 -0.0346
41796W        W50596  16.966   4.057  24.401  0.1433  0.2277 -0.3097
41797W        W50597   0.564   0.162  27.303 -0.1903  0.1001  0.1029
41798W        W50598   5.356   1.029   7.406  0.1842 -0.3138  0.0926
41799W        W50599   0.734   1.399  40.795 -0.0958  0.0283 -0.0214
41800W        W50600  18.414   0.719  28.304  0.3491  0.0047  0.4283
41801W        W50601   9.715   4.896  11.869  0.1316 -0.2838  0.3835
41802W        W50602  18.664   5.661  32.161 -0.3234  0.1394  0.3065
41803W        W50603  12.388   1.715  32.394 -0.2589 -0.2885 -0.1320
41804W        W50604  12.779   4.863  17.965 -0.1111  0.0190 -0.1003
41805W        W50605  20.643   2.911  37.902 -0.0055  0.1597 -0.3139
41806W        W50606   6.163   2.120  18.601 -0.0219  0.2271  0.0815
41807W        W50607   5.096   1.529  17.534 -0.1706 -0.0823 -0.0612
41808W        W50608   3.052   4.666  12.622  0.0289 -0.2329 -0.0674
41809W        W50609   3.228   1.231  35.070 -0.2169 -0.2014  0.1945
41810W        W50610  10.394   0.951  43.139 -0.1389 -0.0792 -0.0263
41811W        W50611  10.741   6.373  22.218  0.3674 -0.0549 -0.1495
41812W        W50612  20.053   5.509  39.666  0.0891 -0.0709 -0.0274
41813W        W50613  20.883   5.214  10.424  0.0388 -0.1983  0.1602
41814W        W50614  12.643   4.050   5.028 -0.0324  0.1014  0.0730
41815W        W50615   5.460   6.229  11.624  0.0377 -0.0873 -0.0988
41816W        W50616   7.735   4.722  15.536 -0.3347 -0.1363 -0.2069
41817W        W50617   2.906   6.452  33.388  0.0015  0.1506  0.1534
41818W        W50618  17.979   5.335   5.408 -0.1543  0.1034 -0.2420
41819W        W50619  16.561   2.319  37.263 -0.3272  0.0744 -0.0850
41820W        W50620   8.878   1.148   8.087 -0.1317  0.1854 -0.1080
41821W        W50621  20.849   3.395  31.272  0.1618  0.1980 -0.1707
41822W        W50622   9.406   4.949  38.420  0.1489  0.0392  0.1918
41823W        W50623   9.012   1.257  39.547  0.2380  0.1211 -0.1055
41824W        W50624  16.560   2.271  37.853 -0.1784 -0.1528  0.1943
41825W        W50625  11.141   3.255   9.756  0.0534  0.3419  0.0425
41826W        W50626  14.887   1.538  37.099 -0.3360 -0.0379  0.0137
41827W        W50627   6.531   3.281  13.077  0.1519  0.0919 -0.1015
41828W        W50628   3.825   5.006  27.511 -0.1394 -0.1355  0.0158
41829W        W50629  14.941   5.006  36.728 -0.1670 -0.3073 -0.1553
41830W        W50630  17.591   5.839   0.529 -0.1537 -0.0093  0.1452
41831W        W50631   4.806   0.194   9.742 -0.1357 -0.2398 -0.1597
41832W        W50632   3.357   1.296  41.889  0.0389 -0.0014 -0.1009
41833W        W50633  14.644   4.583  13.184  0.0085  0.1019 -0.0182
41834W        W50634   6.243   6.457  20.010 -0.3108 -0.1110  0.0687
41835W        W50635  13.931   1.978   9.422  0.0205  0.4116 -0.3409
41836W        W50636  20.085   1.413   2.273 -0.2185  0.0463 -0.3880
41837W        W50637   1.505   0.257  27.014  0.1022 -0.3179  0.3864
41838W        W50638  20.390   6.392  37.263 -0.1423 -0.0329 -0.0167
41839W        W50639   8.236   2.640   0.330 -0.1835  0.0770 -0.2807
41840W        W50640  11.851   2.251   0.946 -0.1084 -0.0062 -0.1325
41841W        W50641  20.600   2.572  42.905 -0.1601 -0.1393  0.0222
41842W        W50642  15.147   4.684   7.282  0.0246 -0.3898  0.0286
41843W        W50643   7.859   0.198   4.223  0.2827  0.2161 -0.4095
41844W        W50644  19.128   0.893   0.365  0.1149 -0.0146 -0.1132
41845W        W50645   5.302   6.179  43.416 -0.1181 -0.0589  0.0001
41846W        W50646  18.592   5.751   4.928 -0.3438 -0.0613  0.1253
41847W        W50647  18.518   0.712  43.704 -0.1601 -0.0235  0.1915
41848W        W50648  18.278   3.081  12.142 -0.2620  0.2935  0.3168
41849W        W50649  17.357   0.950   0.675 -0.0113 -0.0993  0.1875
41850W        W50650   2.792   0.417  37.274  0.1326  0.1166 -0.1770
41851W        W50651   4.190   2.504   9.054 -0.0297 -0.2479 -0.0825
41852W        W50652   2.248   4.023  27.631  0.2722  0.0331  0.1174
41853W        W50653  20.274   0.809  41.407  0.0420 -0.0140 -0.0304
41854W        W50654  20.862   1.755  43.914 -0.1330  0.0475  0.1409
41855W        W50655  19.901   5.400  28.399 -0.1057  0.3902 -0.2591
41856W        W50656  18.744   0.019  39.166  0.0313  0.0399  0.3937
41857W        W50657  19.597   0.393   5.691 -0.1918 -0.1439  0.0649
41858W        W50658  11.733   3.810  37.819  0.0676 -0.0322 -0.3319
41859W        W50659  11.937   0.374  34.201  0.2148  0.0631 -0.2585
41860W        W50660   4.381   0.898  42.711  0.0967 -0.2250  0.0182
41861W        W50661   7.546   4.967  22.946  0.0586 -0.0675 -0.0691
41862W        W50662   5.331   0.347  30.670  0.0076  0.2874  0.2785
41863W        W50663   3.175   2.811  14.650  0.1444 -0.1928 -0.0538
41864W        W50664   8.460   1.648  21.489  0.1836  0.1499 -0.0613
41865W        W50665  10.380   6.024  12.506 -0.0331 -0.1306  0.1747
41866W        W50666   6.756   6.417  36.995 -0.1440 -0.0759  0.0490
41867W        W50667  18.518   1.680   1.982  0.1171 -0.0268  0.0601
41868W        W50668   5.513   3.367   2.160 -0.0633  0.3046 -0.2424
41869W        W50669   7.517   3.839  35.155 -0.1137  0.0456  0.0900
41870W        W50670  20.500   3.603  42.543 -0.0611 -0.3431 -0.1058
41871W        W50671  17.490   4.947   0.457  0.0720  0.2037 -0.0863
41872W        W50672  19.454   4.671  14.277 -0.0232  0.1644 -0.2581
41873W        W50673  20.106   4.073  13.370  0.1138 -0.1194 -0.1088
41874W        W50674  18.572   3.594  29.619  0.0219 -0.4510  0.0469
41875W        W50675  10.401   3.855  31.385  0.3962  0.1146  0.0546
41876W        W50676  13.067   5.208   1.061 -0.2777  0.1374  0.0983
41877W        W50677   4.392   1.504  27.530 -0.2096 -0.2863  0.0571
41878W        W50678  17.029   5.339  41.655  0.0458  0.0074 -0.1833
41879W        W50679  13.689   6.524  42.549 -0.0451 -0.1876 -0.0301
41880W        W50680  14.059   1.051  19.277  0.1466 -0.1931 -0.0320
41881W        W50681  19.911   2.044  39.784 -0.2371 -0.1888 -0.1692
41882W        W50682   4.677   2.146  12.777 -0.0978 -0.2859 -0.1461
41883W        W50683  11.484   5.053  44.970  0.1365  0.2382  0.1729
41884W        W50684   5.496   2.883  16.327 -0.2022 -0.0728  0.1811
41885W        W50685   8.187   5.826  39.341  0.0801  0.1925  0.2063
41886W        W50686   5.328   5.571  19.641  0.1977  0.1059 -0.1244
41887W        W50687   1.567   4.585  29.682 -0.1916  0.1611 -0.0975
41888W        W50688   8.313   5.385   4.333 -0.0494 -0.0364 -0.0070
41889W        W50689  20.679   6.558  11.353  0.2120 -0.0163 -0.1231
41890W        W50690   0.245   0.091  40.853  0.0056  0.1343  0.1952
41891W        W50691   6.403   2.120  19.149  0.0463  0.1822  0.0408
41892W        W50692   4.865   4.582  40.738  0.1532  0.2261 -0.1207
41893W        W50693   2.339   6.016  35.340 -0.0566  0.0029 -0.0501
41894W        W50694   0.946   4.767   7.759 -0.0487  0.0503  0.0411
41895W        W50695   7.866   4.816  32.498  0.1123 -0.1421 -0.2008
41896W        W50696  16.111   0.138  26.248  0.1216  0.2754  0.2281
41897W        W50697  13.093   4.016  12.989  0.1921 -0.1044  0.0259
41898W        W50698   7.504   3.030  36.453  0.0564 -0.1152  0.2567
41899W        W50699   4.183   2.254  28.702  0.1164 -0.0153 -0.2959
41900W        W50700  18.963   5.100  33.846  0.0742  0.1435 -0.1997
41901W        W50701   7.430   4.221   0.753  0.0527 -0.0741  0.0661
41902W        W50702  18.303   3.962  34.671 -0.0251  0.0902 -0.1974
41903W        W50703  16.765   1.692  28.608 -0.1174 -0.0682  0.2763
41904W        W50704   1.210   1.870  28.171 -0.0189  0.2787 -0.0020
41905W        W50705  17.127   5.551  27.176  0.1418  0.1308 -0.1281
41906W        W50706  18.667   0.759  13.489  0.4863  0.0233  0.1330
41907W        W50707  12.488   2.048  15.471  0.4232 -0.0702  0.3542
41908W        W50708   8.063   4.137  10.941 -0.0460 -0.2952 -0.0327
41909W        W50709   2.388   1.590  29.752 -0.1533  0.1060  0.1291
41910W        W50710  12.980   5.682  29.145  0.0127 -0.0502  0.1329
41911W        W50711  20.323   1.119   4.458  0.2707  0.0616 -0.2037
41912W        W50712   4.451   3.147  13.812 -0.1818  0.1440 -0.0063
41913W        W50713  13.204   5.149   6.617  0.1382 -0.0618  0.0504
41914W        W50714  19.485   6.276  13.516  0.1164 -0.0012 -0.0404
41915W        W50715   8.956   4.142  14.274  0.0658 -0.3635 -0.2528
41916W        W50716  18.008   3.817   3.338  0.0234  0.0894 -0.0323
41917W        W50717  17.476   4.071  28.474  0.1199  0.2145  0.4072
41918W        W50718  14.310   1.505   7.526  0.0646  0.1359 -0.0251
41919W        W50719  17.417   5.080   2.034  0.0292  0.0816 -0.0401
41920W        W50720   1.376   5.939  40.099  0.0640  0.0158  0.1961
41921W        W50721   9.985   5.015  43.842 -0.0837  0.1556 -0.3329
41922W        W50722  21.040   5.523  12.143  0.1106 -0.3272  0.1381
41923W        W50723  19.382   4.427  24.402  0.2778 -0.0016  0.0860
41924W        W50724   2.868   2.349  36.253 -0.1023  0.0825 -0.0123
41925W        W50725   3.108   3.656  36.625 -0.1572  0.2340 -0.0553
41926W        W50726   0.438   0.510  14.482 -0.0411 -0.0130  0.1413
41927W        W50727   9.327   1.705  39.556  0.0688 -0.2958 -0.1159
41928W        W50728  10.358   3.813   4.794  0.3058 -0.0462  0.0058
41929W        W50729  10.090   5.749   4.133 -0.2786  0.0815 -0.1843
41930W        W50730  11.496   4.640  44.489  0.0624 -0.0835 -0.0061
41931W        W50731   1.069   0.840  28.173 -0.0893 -0.3791  0.3308
41932W        W50732  17.287   0.051   9.662 -0.2060  0.1978  0.1285
41933W        W50733   1.658   1.497   0.779  0.1910  0.4025 -0.1003
41934W        W50734  17.778   1.013   9.870  0.3068  0.2827 -0.4509
41935W        W50735  21.137   6.092  22.212  0.2849  0.1334  0.0550
41936W        W50736  17.247   1.616  26.042  0.0775  0.5521  0.1351
41937W        W50737  16.100   1.360  31.746  0.0942 -0.1730  0.2016
41938W        W50738  13.458   0.313  29.049  0.1254  0.0844 -0.2563
41939W        W50739   8.546   5.749  41.480 -0.3872 -0.1005  0.3311
41940W        W50740  13.124   3.144  28.700 -0.0923  0.0503  0.0922
41941W        W50741  13.176   0.798   9.825  0.0654  0.1083 -0.1509
41942W        W50742   7.607   1.955  19.092 -0.0276 -0.0857  0.2980
41943W        W50743   9.800   6.486  34.862  0.0110 -0.2060 -0.1014
41944W        W50744  17.314   0.682   9.816  0.1212 -0.2787 -0.2391
41945W        W50745  16.778   4.634  14.376  0.1060  0.1051 -0.1187
41946W        W50746   9.920   3.538  35.972 -0.2227 -0.2968  0.4140
41947W        W50747   3.246   4.036   5.450 -0.2952  0.0010  0.4674
41948W        W50748   7.599   2.948  32.724 -0.3806 -0.0342  0.2325
41949W        W50749   2.745   0.377   2.104 -0.2807 -0.1123  0.0378
41950W        W50750  15.960   4.805  32.357  0.2391  0.2717  0.0742
41951W        W50751  16.682   0.333  31.637 -0.0156 -0.0629  0.1645
41952W        W50752   9.700   5.638   2.606 -0.1142 -0.1629 -0.1807
41953W        W50753  18.610   3.912  44.318 -0.1040  0.1513 -0.0102
41954W        W50754  18.757   5.589  28.210  0.0780  0.1105 -0.0347
41955W        W50755  12.823   0.276  28.334  0.0453  0.2145  0.0421
41956W        W50756   9.700   5.137  16.603  0.1658  0.2167  0.4093
41957W        W50757   5.067   3.022  36.411 -0.1464  0.2046  0.0610
41958W        W50758  10.502   1.198  19.278 -0.1814  0.2080 -0.0034
41959W        W50759   2.267   0.558  37.335  0.3137  0.0431  0.2184
41960W        W50760  18.660   5.337  29.005  0.1814 -0.1951 -0.5696
41961W        W50761  10.653   1.084  29.847 -0.0732 -0.1677  0.1007
41962W        W50762   4.295   4.984  41.819  0.3495 -0.0528  0.1539
41963W        W50763   7.202   2.278   6.025  0.1129  0.1985  0.2444
41964W        W50764  20.990   5.350  21.802  0.0738  0.3397  0.0226
41965W        W50765   1.672   1.339  11.338 -0.1575  0.0948  0.3076
41966W        W50766   6.266   6.141   1.497 -0.2096  0.1948 -0.1250
41967W        W50767   6.640   3.015  34.662  0.2445  0.2340 -0.0035
41968W        W50768   2.182   6.355   0.220  0.3569 -0.1645 -0.1468
41969W        W50769  19.178   0.333  14.252  0.0480 -0.0611 -0.1107
41970W        W50770  17.705   0.032  43.130  0.1071 -0.0841 -0.1309
41971W        W50771   1.770   1.744  32.640  0.0160 -0.1220 -0.2084
41972W        W50772   5.028   4.906  41.089  0.1533  0.1547 -0.1639
41973W        W50773   4.982   3.811   8.186  0.0677  0.1132 -0.1087
41974W        W50774   8.829   1.131  10.581 -0.3417  0.1260  0.1191
41975W        W50775  20.094   4.815  39.112 -0.2783 -0.1770  0.1677
41976W        W50776  10.081   6.165   2.388 -0.2543 -0.0002  0.0218
41977W        W50777  15.182   0.243  11.458  0.0584  0.1677  0.0020
41978W        W50778   9.716   4.055  21.126 -0.0638 -0.0782 -0.3083
41979W        W50779   7.839   0.316  29.886  0.1872 -0.0609 -0.0529
41980W        W50780  17.488   2.530   9.100 -0.1143 -0.1213 -0.2327
41981W        W50781  19.596   3.490   4.356 -0.3397 -0.0174  0.3140
41982W        W50782  15.133   2.201  14.913  0.0618 -0.2005 -0.2386
41983W        W50783   5.943   1.257  16.357 -0.0704  0.2112  0.1021
41984W        W50784  12.927   1.499  29.184  0.2253 -0.1665  0.0320
41985W        W50785   4.159   0.807  39.129 -0.2534 -0.0881  0.1481
41986W        W50786   4.644   2.090  13.751 -0.3471  0.0838  0.1519
41987W        W50787   9.673   5.273  44.336  0.2200 -0.0257 -0.3867
41988W        W50788   0.019   4.647  11.859 -0.1614  0.0534  0.0573
41989W        W50789  13.463   0.037   0.916  0.4104 -0.0776  0.1725
41990W        W50790   1.921   4.108  10.329 -0.1753 -0.1681  0.1633
41991W        W50791  12.244   1.484  17.727  0.2079 -0.1325  0.1187
41992W        W50792  19.975   4.610  40.314 -0.0196  0.1813  0.1916
41993W        W50793   4.311   5.001  36.402 -0.0570  0.1341  0.0319
41994W        W50794  12.961   1.045  20.363 -0.0917  0.0639  0.3130
41995W        W50795   5.855   2.675  29.937  0.1431  0.0243 -0.0680
41996W        W50796   1.579   2.086  24.606  0.0023 -0.0442 -0.3663
41997W        W50797  15.444   0.882   7.110 -0.0534 -0.3181 -0.2198
41998W        W50798  16.329   2.619  39.834  0.1382  0.0903 -0.0999
41999W        W50799  14.622   1.561  28.740 -0.0243 -0.2949 -0.1076
42000W        W50800   5.305   2.279  17.035  0.2729  0.2359  0.3721
42001W        W50801  17.170   3.556  39.362 -0.0445  0.2198 -0.3231
42002W        W50802   5.547   5.638   0.372  0.1068  0.1503  0.0655
42003W        W50803  17.534   2.349  12.282 -0.1344 -0.2550 -0.0024
42004W        W50804   2.602   5.755  10.719  0.3153 -0.4653  0.0430
42005W        W50805  20.954   4.801  39.602 -0.1331 -0.1107  0.1936
42006W        W50806   0.141   4.012   5.744  0.1887  0.1233  0.3653
42007W        W50807   5.732   3.426  42.951 -0.0763 -0.0853  0.1792
42008W        W50808  20.320   4.346  11.902  0.0376  0.2352 -0.0644
42009W        W50809   9.710   4.857   5.608 -0.1595  0.2229  0.1636
42010W        W50810  12.065   0.678  20.658  0.2887  0.1493 -0.4080
42011W        W50811   3.814   3.223  40.305 -0.3567 -0.0812 -0.3608
42012W        W50812  15.756   0.980  30.907 -0.0361  0.4187 -0.1649
42013W        W50813  17.793   5.189   3.136 -0.2356  0.1762  0.1627
42014W        W50814   8.157   4.899  40.719 -0.2311 -0.3255  0.1713
42015W        W50815   1.279   2.945  32.250 -0.0169 -0.3028 -0.2066
42016W        W50816  16.654   4.157  32.593 -0.1880  0.1048 -0.1084
42017W        W50817   5.956   1.633  13.966 -0.2889  0.1024 -0.0178
42018W        W50818  16.246   1.915   9.262  0.0250 -0.1058  0.2088
42019W        W50819  17.548   1.456  31.431 -0.0808  0.0288  0.1630
42020W        W50820  19.661   5.628  44.289  0.0409  0.0370 -0.0859
42021W        W50821   7.514   3.418  34.822  0.1841 -0.3086 -0.2384
42022W        W50822   7.501   0.210  20.438 -0.3683  0.0858 -0.1574
42023W        W50823   7.414   4.973  43.855  0.0517 -0.0488  0.1823
42024W        W50824  16.358   4.433  13.497 -0.1607  0.1529 -0.1183
42025W        W50825   9.060   3.908   9.681 -0.1787  0.0157 -0.0768
42026W        W50826   5.308   1.518  41.363 -0.0733  0.0994 -0.1379
42027W        W50827   9.919   5.926  32.003  0.2361  0.1515  0.0657
42028W        W50828   8.565   3.842   1.205  0.2934 -0.1440 -0.1447
42029W        W50829   9.695   6.144  36.298 -0.3997 -0.0186  0.2185
42030W        W50830   5.814   1.424   4.196 -0.0376 -0.0688 -0.1070
42031W        W50831   6.147   5.427  30.758  0.0434 -0.1830  0.0240
42032W        W50832  12.709   1.123  15.318  0.0801 -0.0358  0.1348
42033W        W50833  12.162   3.783  39.390 -0.1495 -0.0863 -0.1674
42034W        W50834  17.093   2.951   7.017 -0.0637 -0.0402  0.0958
42035W        W50835  19.897   5.489   9.485  0.2548  0.5246  0.0295
42036W        W50836   3.648   5.776   3.980  0.0945  0.0041  0.1403
42037W        W50837  16.790   1.936  39.218 -0.2876  0.1613  0.1829
42038W        W50838  19.856   3.290  37.013  0.0402 -0.5117  0.3431
42039W        W50839   5.001   3.935  31.912  0.2241  0.0564 -0.4173
42040W        W50840  10.229   2.836  32.397  0.0351 -0.0502 -0.0108
42041W        W50841   9.706   4.690  11.413  0.2656  0.1154 -0.0086
42042W        W50842  19.724   4.971   2.076  0.0037 -0.1073  0.1462
42043W        W50843   5.630   3.203  17.909  0.0882 -0.0424  0.0400
42044W        W50844   5.588   2.010  43.032 -0.2224 -0.0114  0.0414
42045W        W50845   3.342   5.293  33.364 -0.1594  0.0026 -0.2772
42046W        W50846   8.357   2.692   9.666  0.1093 -0.0136  0.1004
42047W        W50847  16.766   4.164  13.196 -0.2528 -0.0512 -0.1334
42048W        W50848  11.557   0.320   6.188  0.3118  0.0263  0.0103
42049W        W50849  16.942   3.604   9.168 -0.1326 -0.3656 -0.0391
42050W        W50850   4.765   1.441  17.089 -0.0646  0.1703  0.0477
42051W        W50851   2.642   3.000  29.604 -0.3107  0.1626 -0.1017
42052W        W50852  10.616   6.377  42.914 -0.0062 -0.0638  0.2612
42053W        W50853   2.333   5.172  41.430  0.3088 -0.0194  0.2517
42054W        W50854  19.092   5.262  24.907  0.1041 -0.0012 -0.1100
42055W        W50855   0.068   5.575   6.707 -0.0101  0.2806 -0.0657
42056W        W50856   2.433   5.980   1.211 -0.1090  0.2050  0.1212
42057W        W50857   8.623   0.811  20.714  0.0289 -0.1096  0.0437
42058W        W50858  11.431   0.855  15.503  0.1543 -0.0770  0.3005
42059W        W50859  15.071   5.270  44.152  0.0986 -0.1616  0.1983
42060W        W50860   4.898   4.711  44.292 -0.0565  0.0863 -0.1008
42061W        W50861   0.667   4.423   9.901 -0.6987 -0.1041  0.4396
42062W        W50862   3.777   3.649   0.046  0.1170 -0.1718 -0.1074
42063W        W50863   9.815   1.304  35.343 -0.1757 -0.0956 -0.0158
42064W        W50864  15.050   0.707   9.559  0.2142  0.0045 -0.0492
42065W        W50865  13.213   0.169   5.999 -0.0692 -0.1853 -0.1532
42066W        W50866  15.436   5.882   4.363  0.3103 -0.2704  0.1228
42067W        W50867   9.800   2.901  10.314 -0.2860  0.0498  0.0826
42068W        W50868  16.267   2.466  34.623 -0.3077 -0.0620 -0.3094
42069W        W50869  11.233   2.268  35.078 -0.1893 -0.1342  0.2160
42070W        W50870  20.706   2.605  36.987  0.0315  0.0986 -0.2343
42071W        W50871  20.238   0.758  25.775 -0.3164 -0.1310  0.2434
42072W        W50872   3.197   1.530   8.839  0.2652  0.0261 -0.0836
42073W        W50873  13.211   0.758  42.598 -0.2359 -0.0352 -0.0748
42074W        W50874  20.797   0.702   5.804  0.0791 -0.3198  0.1429
42075W        W50875   1.816   1.438   5.936  0.0228 -0.1656 -0.1193
42076W        W50876  14.804   3.066  34.392 -0.3125  0.1795 -0.2777
42077W        W50877   1.229   6.038  11.109 -0.0056 -0.1415  0.1699
42078W        W50878   2.227   0.241  37.778  0.1222  0.1220 -0.1245
42079W        W50879   5.538   0.709  35.188  0.4062  0.0432 -0.0111
42080W        W50880  16.614   0.660  44.206  0.0367 -0.1283  0.1725
42081W        W50881  13.519   0.516  33.600 -0.2467  0.3179  0.0014
42082W        W50882   2.508   0.088   0.095 -0.2273  0.2285 -0.0017
42083W        W50883   4.570   5.477  29.329 -0.1251 -0.2555 -0.1316
42084W        W50884  17.251   3.727  39.862  0.1492 -0.4088  0.1214
42085W        W50885  18.383   2.406   5.185  0.2485 -0.0371  0.1372
42086W        W50886   7.349   1.782  31.688  0.1046 -0.0559  0.0481
42087W        W50887  14.404   0.310   6.610  0.0609 -0.2064 -0.0394
42088W        W50888  15.718   1.823  29.132  0.1979  0.0544  0.2233
42089W        W50889  18.991   2.499  28.914 -0.0766  0.2730  0.0264
42090W        W50890  18.971   6.222  10.219  0.0766  0.0971 -0.3340
42091W        W50891  15.369   5.206  37.306 -0.2535 -0.1460 -0.3740
42092W        W50892  12.601   5.392  33.022 -0.1108 -0.0414  0.0576
42093W        W50893  13.068   2.778  28.341 -0.0031 -0.1618  0.2225
42094W        W50894  12.821   3.434   3.438 -0.3437 -0.1429  0.1678
42095W        W50895  17.615   1.898  41.451  0.0985 -0.0605  0.0409
42096W        W50896  20.866   4.488  35.823  0.0685  0.0294  0.1284
42097W        W50897  15.779   5.308  42.924 -0.3945 -0.2150 -0.2139
42098W        W50898   1.879   5.932  25.279 -0.2783  0.1037 -0.1458
42099W        W50899   5.533   4.078  41.166 -0.1324 -0.1464 -0.1060
42100W        W50900  10.211   1.508   6.339  0.2048 -0.2087 -0.2061
42101W        W50901   6.546   4.494  43.133  0.2210  0.2733 -0.2511
42102W        W50902   1.973   3.977  40.591  0.0340 -0.1989 -0.2240
42103W        W50903  15.029   3.878   2.765 -0.0687 -0.1953  0.0560
42104W        W50904  17.094   2.415  12.140 -0.0887 -0.2542  0.1796
42105W        W50905   4.189   4.396   5.374  0.2641 -0.2638 -0.1156
42106W        W50906   1.841   4.778  24.948  0.3111 -0.0977 -0.2397
42107W        W50907   7.106   6.362  39.867  0.0416  0.1063  0.1494
42108W        W50908  18.104   3.732  14.538  0.0490 -0.0044 -0.1848
42109W        W50909  11.569   2.012  40.261  0.1134  0.2528  0.0330
42110W        W50910   5.097   4.766  17.871 -0.1757  0.0733  0.0341
42111W        W50911  14.556   3.290   9.732 -0.0036  0.1520 -0.0429
42112W        W50912  19.506   3.828   1.206  0.1424 -0.0385 -0.0875
42113W        W50913   7.166   5.531  17.807  0.0761 -0.0766  0.1732
42114W        W50914  18.840   1.958   6.823 -0.0169  0.0227 -0.1397
42115W        W50915  17.385   1.993  31.228  0.0686 -0.0553  0.0730
42116W        W50916  13.032   3.065  17.962 -0.2003  0.2653 -0.0514
42117W        W50917   6.189   5.199  41.005 -0.1250  0.0432 -0.0957
42118W        W50918   2.302   6.516   1.425  0.2217  0.1288 -0.0431
42119W        W50919   4.430   3.449  10.515 -0.2149 -0.3787  0.0648
42120W        W50920   2.699   5.837  16.502 -0.3575  0.0168  0.0727
42121W        W50921  19.547   5.221   1.651 -0.4263  0.1349  0.1074
42122W        W50922  16.106   6.548   3.910 -0.2233 -0.2158 -0.0864
42123W        W50923   6.759   0.915  11.060 -0.1812 -0.2010 -0.2179
42124W        W50924  19.249   5.247   4.657 -0.1445 -0.2884  0.3977
42125W        W50925   9.892   0.299  33.972 -0.1348 -0.0316 -0.0296
42126W        W50926   2.374   4.623  43.545 -0.0061  0.1414 -0.0055
42127W        W50927  14.729   5.615  32.269 -0.3655  0.2402  0.0941
42128W        W50928  17.429   4.674  24.711 -0.3012 -0.0074  0.0438
42129W        W50929  19.989   4.922  32.001 -0.1513  0.0017  0.0445
42130W        W50930  18.881   2.254  22.834  0.0440 -0.0844 -0.1017
42131W        W50931   2.879   6.515  31.074  0.1128  0.1491 -0.2154
42132W        W50932  14.625   6.480   3.668  0.3012  0.0071 -0.0731
42133W        W50933  10.008   2.265  44.264 -0.0405 -0.4341  0.0244
42134W        W50934   9.650   5.997  41.777  0.0085 -0.2163  0.0540
42135W        W50935  18.761   2.420  14.358 -0.0838 -0.1327 -0.1238
42136W        W50936  19.205   5.366   7.442  0.5678  0.0471  0.0537
42137W        W50937   7.597   5.152   0.969 -0.1814  0.0890  0.2255
42138W        W50938  13.310   6.179  41.084 -0.3188  0.2172  0.2286
42139W        W50939  17.136   2.803  44.457  0.0710  0.0481 -0.2138
42140W        W50940  15.313   2.375   0.914  0.1560 -0.5545  0.1393
42141W        W50941   0.362   1.568  15.040  0.2334  0.2864  0.0123
42142W        W50942  19.367   3.330   8.274  0.0021  0.0957  0.2151
42143W        W50943   9.232   5.919  29.853  0.1703  0.0127  0.1163
42144W        W50944   2.730   6.391  25.481  0.1994  0.1636 -0.2662
42145W        W50945  12.529   2.554  36.756 -0.2358  0.1153 -0.0785
42146W        W50946  12.785   5.483  28.662  0.2569  0.1853 -0.0916
42147W        W50947  11.342   4.419  11.141 -0.0216 -0.3451 -0.1614
42148W        W50948   9.880   4.123  40.814  0.0247 -0.3798 -0.1841
42149W        W50949   3.800   5.091   7.876 -0.0631 -0.0277  0.2302
42150W        W50950  12.794   1.189  33.067 -0.3016 -0.0716 -0.0889
42151W        W50951  15.626   2.562   8.198  0.1607 -0.1083  0.1719
42152W        W50952  20.672   0.262  15.182 -0.0145 -0.0568  0.1250
42153W        W50953   9.485   1.977  34.399  0.1134 -0.0321 -0.2208
42154W        W50954  11.328   3.726  36.944 -0.0475 -0.0437  0.0306
42155W        W50955   2.981   3.272   7.591  0.4726 -0.0992 -0.2139
42156W        W50956  12.372   4.976  31.970  0.1892 -0.0156 -0.2631
42157W        W50957   6.287   4.064  18.754  0.3723 -0.4499 -0.0567
42158W        W50958  19.762   0.941  29.897 -0.0073  0.1125 -0.0014
42159W        W50959  20.268   2.360  34.064  0.0944  0.0758 -0.1474
42160W        W50960   9.157   1.626   1.656 -0.0393 -0.0228 -0.0309
42161W        W50961   1.504   1.412   9.606  0.0657 -0.4408  0.1085
42162W        W50962  17.727   4.673   6.386  0.0108  0.0370  0.4570
42163W        W50963   5.669   2.758  32.212 -0.3047  0.0803 -0.2355
42164W        W50964  12.480   1.851  27.462  0.1017  0.2598  0.0007
42165W        W50965   8.852   3.076  37.414 -0.3532  0.3045 -0.0492
42166W        W50966  17.115   4.033  37.805  0.2585  0.1222  0.1042
42167W        W50967   7.684   1.450  13.284 -0.1768  0.0297 -0.0592
42168W        W50968  16.459   0.007  28.030  0.3374  0.0038  0.0041
42169W        W50969  11.597   2.259   0.512  0.3355  0.1402 -0.1121
42170W        W50970   1.277   0.827  13.430 -0.0385  0.0072  0.2315
42171W        W50971  12.681   2.364  17.575 -0.0322 -0.1574  0.2470
42172W        W50972   4.332   6.314  36.239  0.5461 -0.1660 -0.1884
42173W        W50973  19.626   1.564  33.388 -0.0488  0.1186 -0.0534
42174W        W50974   2.793   4.980   9.076 -0.0645 -0.1784 -0.0775
42175W        W50975  17.636   0.165   1.042  0.0675 -0.0999 -0.2747
42176W        W50976  14.743   5.091   5.413 -0.0380 -0.0822  0.0600
42177W        W50977   9.792   4.454  13.907  0.2377 -0.0246 -0.2777
42178W        W50978  16.190   0.876  15.273  0.0710 -0.2646 -0.0301
42179W        W50979  15.170   1.785   3.182  0.2302  0.2832  0.0683
42180W        W50980   4.071   4.587  36.530 -0.0401 -0.0403 -0.0234
42181W        W50981   6.064   4.788  21.339  0.0392 -0.2175 -0.0633
42182W        W50982  12.413   5.207  28.879  0.1657 -0.0433  0.0381
42183W        W50983   2.870   5.979   6.074 -0.3511 -0.1591 -0.1660
42184W        W50984   5.188   4.215  40.719  0.1703  0.1003  0.0557
42185W        W50985  13.802   1.905  12.552 -0.1094 -0.2359 -0.1016
42186W        W50986  11.993   4.552  33.170 -0.0751 -0.3797  0.2127
42187W        W50987  20.410   4.379  24.344 -0.0306 -0.1969 -0.1846
42188W        W50988  12.524   4.037  15.098 -0.0911  0.1313  0.1482
42189W        W50989   1.637   1.542  43.998  0.0973  0.1148 -0.0861
42190W        W50990   1.482   1.481   7.251 -0.0746  0.1804  0.2632
42191W        W50991   1.851   3.543  41.334 -0.1767  0.0032  0.0289
42192W        W50992   4.186   5.433  32.890 -0.3304 -0.0164  0.0952
42193W        W50993   1.231   2.671   8.526  0.0430 -0.0640  0.3688
42194W        W50994   0.652   1.190   4.825  0.1366 -0.0669  0.2435
42195W        W50995   3.409   6.560  33.527  0.0389  0.0044 -0.1217
42196W        W50996   8.715   4.736  13.832  0.1082 -0.3161 -0.1524
42197W        W50997   4.792   5.724  17.187 -0.2560 -0.3824 -0.0786
42198W        W50998  10.601   5.687   5.598 -0.0998 -0.3496  0.1075
42199W        W50999  19.836   1.158   3.487 -0.1203 -0.1064  0.0495
42200W        W51000  18.005   4.237   1.482 -0.2136 -0.1318  0.0524
42201W        W51001   5.001   5.050  13.885  0.2415 -0.0050  0.2137
42202W        W51002   4.675   0.491  31.383  0.0162  0.0879 -0.0989
42203W        W51003   3.679   2.899   6.556  0.0431  0.0010  0.2132
42204W        W51004  16.278   0.709   1.020  0.2160 -0.3144  0.0843
42205W        W51005  15.065   2.959  33.973 -0.2131 -0.1207 -0.3156
42206W        W51006  14.791   5.857  36.972 -0.2691 -0.2625  0.1141
42207W        W51007  10.921   2.403  18.735  0.0783 -0.0418  0.2867
42208W        W51008   6.381   3.426  32.924 -0.0989 -0.1599 -0.1285
42209W        W51009  17.588   4.248   4.990 -0.2713  0.1289 -0.1753
42210W        W51010  11.495   1.848  38.407  0.1578 -0.0387  0.0681
42211W        W51011   7.144   5.829  20.373 -0.0252  0.3878  0.0879
42212W        W51012   8.094   5.993   0.959  0.1244  0.0124 -0.1265
42213W        W51013   9.073   3.154   3.809  0.1504  0.1450 -0.4017
42214W        W51014  17.837   1.702   5.167 -0.1035  0.1197  0.0094
42215W        W51015  10.425   2.959  15.738 -0.0593 -0.0656 -0.0017
42216W        W51016   0.635   4.678   5.651  0.0346 -0.0903  0.0182
42217W        W51017   5.726   2.793  15.545  0.2374 -0.1322  0.2891
42218W        W51018   8.684   4.771  17.049 -0.1212 -0.1244  0.1664
42219W        W51019   0.973   6.436  25.670 -0.0043  0.1493 -0.1157
42220W        W51020  12.923   6.211   4.349 -0.0672  0.0393 -0.3540
42221W        W51021  15.429   5.955  16.481  0.1880  0.0034  0.0805
42222W        W51022   8.116   2.020  44.055  0.4069  0.0453  0.1785
42223W        W51023  18.436   0.882  22.938  0.2174  0.2172  0.0231
42224W        W51024  14.736   5.204   2.010 -0.2119 -0.2598 -0.0579
42225W        W51025  14.369   2.825  31.540 -0.0389 -0.1510  0.0048
42226W        W51026   6.949   0.750  38.058  0.2107 -0.1285  0.2689
42227W        W51027  12.671   2.854  30.492  0.0594 -0.0686  0.2044
42228W        W51028   9.799   3.827   9.172  0.0563  0.1451  0.0863
42229W        W51029  14.568   0.546  33.273  0.1101 -0.0679  0.0922
42230W        W51030  17.694   6.220  34.797 -0.2374  0.2748  0.1640
42231W        W51031  19.428   3.728  42.168  0.2000  0.1310  0.0921
42232W        W51032  14.680   1.124  11.569 -0.1197 -0.0172 -0.0924
42233W        W51033   9.100   1.925  41.123 -0.0409 -0.0201  0.0033
42234W        W51034   2.878   6.147  10.429 -0.1082 -0.2080 -0.0045
42235W        W51035  13.543   1.815  33.232  0.1243  0.0431 -0.2274
42236W        W51036   1.809   6.589  27.389  0.2319  0.2646  0.0228
42237W        W51037   6.812   5.112  30.591 -0.1605 -0.2248  0.2548
42238W        W51038   5.514   3.503  38.413 -0.0997 -0.0024 -0.0110
42239W        W51039   8.276   0.361  29.591 -0.0775 -0.2435 -0.0353
42240W        W51040   0.189   3.602  32.495  0.3545 -0.1556  0.0084
42241W        W51041  15.390   2.809  38.445  0.0595 -0.0613 -0.0425
42242W        W51042   6.242   5.434  37.321  0.0052  0.2288  0.1633
42243W        W51043  20.480   4.262  10.913 -0.0298  0.0254  0.1602
42244W        W51044   3.609   5.086  31.661 -0.2049 -0.2941 -0.1954
42245W        W51045   1.293   3.054   1.190  0.0696  0.1314 -0.0241
42246W        W51046   8.711   4.256  42.270  0.0863  0.2354  0.3154
42247W        W51047  13.407   0.725  13.201  0.1086  0.0990 -0.3558
42248W        W51048  19.828   0.944   6.517 -0.1925 -0.1091 -0.1281
42249W        W51049  12.683   4.279   3.437  0.3170 -0.1164 -0.0997
42250W        W51050  14.710   6.401   4.182 -0.3886  0.1578  0.3478
42251W        W51051   0.618   5.999  34.204 -0.2343  0.2258  0.2692
42252W        W51052  18.923   6.152  30.486 -0.3077 -0.1301 -0.0404
42253W        W51053  16.456   1.899  35.214  0.2502  0.0790  0.4089
42254W        W51054   9.406   5.804   8.207  0.5611  0.1191 -0.0086
42255W        W51055  12.913   1.167  10.618 -0.0634 -0.2388  0.0765
42256W        W51056   8.694   2.946  31.876  0.1352 -0.3094  0.1205
42257W        W51057   4.798   1.244  29.154  0.1844  0.0527 -0.0511
42258W        W51058   7.967   5.879  33.850  0.4416 -0.1089 -0.0739
42259W        W51059   9.245   2.347  40.183  0.0672 -0.1433  0.1604
42260W        W51060   8.947   2.315  20.191 -0.2694  0.3023  0.0308
42261W        W51061   4.527   1.250   9.284  0.0481  0.1565 -0.0319
42262W        W51062  20.677   5.778  21.688  0.0222  0.1047  0.3952
42263W        W51063  11.778   1.423   5.206  0.0671  0.1782  0.1186
42264W        W51064   6.722   6.059  42.162 -0.2934 -0.1527 -0.1417
42265W        W51065  19.286   1.100   8.922 -0.1195  0.0164  0.0402
42266W        W51066  10.503   0.950  33.418  0.0154 -0.0031 -0.0718
42267W        W51067  19.976   0.202  25.082  0.2040  0.1474  0.1221
42268W        W51068  16.457   3.977  43.851  0.0551 -0.0215  0.1437
42269W        W51069  16.506   2.143  36.575  0.0694 -0.1931 -0.1140
42270W        W51070  18.102   6.047  30.217 -0.1240 -0.1591 -0.0003
42271W        W51071   3.184   5.624  31.344 -0.1982  0.0286 -0.1156
42272W        W51072  19.730   1.511  28.232 -0.1241 -0.1329 -0.3134
42273W        W51073   6.436   5.780  11.842 -0.0949 -0.0600  0.0120
42274W        W51074  13.182   1.298  33.618  0.1678 -0.3525 -0.0317
42275W        W51075   7.289   5.659  14.939  0.0695 -0.1651  0.1281
42276W        W51076  17.848   0.687   8.280 -0.1309  0.3224  0.2948
42277W        W51077   0.079   1.449  31.045 -0.0800 -0.0377 -0.1068
42278W        W51078   6.415   6.135  14.521  0.3983  0.0905  0.3039
42279W        W51079   5.976   4.049  36.461  0.1711  0.0119 -0.1690
42280W        W51080  16.553   1.195  29.094  0.0816  0.1894  0.1691
42281W        W51081  11.370   6.303   5.654 -0.1165  0.1875  0.1210
42282W        W51082   0.440   4.298  34.757 -0.1398 -0.1023  0.1967
42283W        W51083  13.943   1.603  19.251 -0.0462 -0.1313  0.1262
42284W        W51084  18.481   3.021  40.856 -0.1220  0.2529  0.3731
42285W        W51085  12.401   1.606  14.593 -0.2145 -0.0783  0.2261
42286W        W51086  13.874   2.928  42.056  0.0188 -0.0976  0.0910
42287W        W51087  14.706   5.291  35.811 -0.0573  0.0936  0.0407
42288W        W51088   3.357   3.380  34.109 -0.0680  0.0356  0.2813
42289W        W51089  18.030   2.341   9.028  0.1296  0.0869  0.1300
42290W        W51090   4.035   1.334  11.988  0.0694  0.2214 -0.3107
42291W        W51091  14.677   5.506  42.456 -0.1476 -0.2016 -0.0658
42292W        W51092   4.087   1.334   7.215  0.3541  0.1795 -0.0789
42293W        W51093  20.968   3.613  35.789  0.0996  0.1063 -0.0091
42294W        W51094   7.455   4.907   4.763  0.0547  0.1324 -0.3175
42295W        W51095  20.115   2.738  23.653 -0.0597  0.2135 -0.0468
42296W        W51096  16.283   5.896  17.487  0.0583  0.1727 -0.1209
42297W        W51097  15.193   3.729  30.068 -0.0451 -0.0504  0.1625
42298W        W51098  13.721   6.075   7.755 -0.1517 -0.3358  0.0264
42299W        W51099  12.453   5.465  19.783 -0.2745 -0.0620  0.2328
42300W        W51100  10.045   3.310  20.380 -0.1094 -0.1938 -0.0014
42301W        W51101  11.230   5.275  43.293 -0.0690 -0.0156 -0.1786
42302W        W51102  15.888   4.805   8.123 -0.1819  0.4091 -0.0819
42303W        W51103   4.931   3.981  17.872  0.1164 -0.3309 -0.1091
42304W        W51104   6.111   6.445   8.566  0.2638  0.0059 -0.0947
42305W        W51105   7.213   6.258   4.777  0.1698  0.1212  0.0767
42306W        W51106   5.051   0.708  34.416  0.1802 -0.0800 -0.1103
42307W        W51107   3.413   3.513  38.418  0.3016 -0.0516  0.2313
42308W        W51108   1.766   0.410  38.149  0.1536 -0.3217 -0.0408
42309W        W51109   5.061   4.543  19.719 -0.4206 -0.1570  0.2708
42310W        W51110   1.643   6.072   9.299 -0.2154  0.0912 -0.1317
42311W        W51111  12.006   4.410   5.049  0.0278  0.0791 -0.0313
42312W        W51112   8.707   3.461  37.838 -0.3279  0.0804  0.0002
42313W        W51113   6.767   2.938  43.299  0.0731  0.0135 -0.0046
42314W        W51114  20.067   5.799  11.219 -0.1793 -0.1923 -0.0427
42315W        W51115  17.798   4.213  34.719 -0.1715 -0.0675  0.0982
42316W        W51116  11.207   1.229  31.214 -0.2203 -0.2645  0.1306
42317W        W51117   6.668   6.071   1.239 -0.1668  0.4571  0.1366
42318W        W51118   1.518   5.771   2.010 -0.2808  0.1496 -0.3332
42319W        W51119   9.970   3.126  22.689  0.0777  0.1143 -0.0375
42320W        W51120   8.903   4.875   4.674 -0.2327  0.0602  0.0311
42321W        W51121   0.042   1.717  38.607 -0.1354 -0.0916 -0.2563
42322W        W51122   8.384   0.424  13.095 -0.0953  0.3163  0.2870
42323W        W51123   6.013   0.475  37.164  0.0934  0.2114  0.0981
42324W        W51124   7.171   3.349  38.171  0.2917  0.0497  0.4079
42325W        W51125   8.394   2.274   9.971 -0.0332  0.0008 -0.0908
42326W        W51126  12.469   3.847   8.479  0.2192 -0.0765 -0.3669
42327W        W51127  14.502   3.846  43.093 -0.1300 -0.0627 -0.1239
42328W        W51128   1.793   3.556   4.430 -0.0660 -0.0071 -0.1113
42329W        W51129   4.455   6.575  14.591  0.1869  0.0924  0.0541
42330W        W51130  20.183   3.177  28.113  0.0124  0.0400  0.4399
42331W        W51131  13.643   3.219  13.769  0.0535  0.1025  0.2030
42332W        W51132   9.086   6.598  41.524  0.1564  0.1688 -0.0072
42333W        W51133  15.864   4.112   0.435  0.0984  0.2049  0.0114
42334W        W51134  13.427   0.077  42.050 -0.0787 -0.1092 -0.2826
42335W        W51135  20.700   1.916  43.385 -0.0177 -0.0560  0.2099
42336W        W51136   7.310   5.589   8.117  0.2441 -0.1203 -0.0925
42337W        W51137   9.617   6.585  43.142 -0.1025  0.1348  0.2202
42338W        W51138  18.325   3.952   2.928  0.0558 -0.3482 -0.2184
42339W        W51139   6.603   5.720   1.655  0.0943 -0.2667  0.2156
42340W        W51140  14.008   2.270   6.971 -0.2519  0.0327 -0.2346
42341W        W51141  18.641   5.540  11.607  0.2597 -0.0906  0.0592
42342W        W51142  12.356   1.979  14.856  0.3824  0.1696 -0.3957
42343W        W51143   8.236   5.942  15.368 -0.3293 -0.1341 -0.3297
42344W        W51144   1.381   4.894  31.420 -0.1083 -0.0796  0.0611
42345W        W51145  14.693   0.909  32.977  0.0382 -0.0434  0.2786
42346W        W51146  18.322   6.573  40.854 -0.1826 -0.0311  0.0580
42347W        W51147   1.365   2.241  29.521  0.1629 -0.0081 -0.3283
42348W        W51148  19.825   3.512  16.117 -0.1664  0.1814 -0.1545
42349W        W51149   5.903   1.586  31.697  0.0534  0.1710 -0.2718
42350W        W51150   7.261   1.240   7.622  0.1261 -0.2363  0.0203
42351W        W51151   2.024   3.470  31.205 -0.2347 -0.1084  0.2752
42352W        W51152   2.557   2.119   4.635 -0.0926  0.2476  0.0790
42353W        W51153  14.588   6.474  17.602  0.4082  0.0925  0.3175
42354W        W51154  16.891   4.324  11.863  0.2059 -0.1105  0.4020
42355W        W51155  18.194   2.215  40.153  0.0267 -0.0404 -0.0327
42356W        W51156  14.383   4.447   9.422 -0.0625 -0.0140 -0.1674
42357W        W51157  20.448   5.150  37.074 -0.1468  0.1255  0.1907
42358W        W51158  14.332   0.914   1.730 -0.4387 -0.0060  0.0095
42359W        W51159   1.027   5.750  14.134 -0.2142 -0.0397  0.0519
42360W        W51160  18.558   0.399  41.912 -0.0973 -0.0628 -0.1577
42361W        W51161   6.224   0.115  21.001 -0.0620 -0.0410  0.1958
42362W        W51162  17.968   5.030  44.021 -0.0416  0.0056 -0.1057
42363W        W51163   1.530   0.404  31.355 -0.0311  0.1428  0.0348
42364W        W51164   8.246   3.258  13.485  0.1924  0.2598 -0.0929
42365W        W51165  16.728   1.712  38.319 -0.0338 -0.0321 -0.0555
42366W        W51166  19.442   0.863  23.511 -0.2716  0.0834 -0.1147
42367W        W51167  18.986   4.243  44.184  0.0808  0.3687  0.1078
42368W        W51168  12.170   4.227  19.982  0.1177 -0.4741  0.3606
42369W        W51169  12.151   3.395  16.566  0.0485 -0.0886 -0.0512
42370W        W51170  18.881   2.712  13.945 -0.0531  0.0067  0.0562
42371W        W51171   2.741   0.670  31.137 -0.2686 -0.3051  0.1721
42372W        W51172  16.504   0.564   9.732  0.0139  0.0021 -0.1322
42373W        W51173  20.820   4.270  32.185 -0.2582 -0.0671 -0.0744
42374W        W51174   6.314   6.500  15.623  0.0788  0.0580 -0.3604
42375W        W51175   8.501   6.233   9.400  0.1055 -0.0175 -0.1212
42376W        W51176  11.176   1.667  32.102  0.0549  0.2458 -0.0860
42377W        W51177   7.643   6.220  41.800 -0.0531 -0.0491 -0.1960
42378W        W51178  18.576   2.923  43.163  0.1894  0.1736  0.1598
42379W        W51179  10.317   3.144  33.267 -0.0128 -0.2564  0.1298
42380W        W51180  13.873   5.640  11.108  0.0068 -0.1574  0.0556
42381W        W51181  18.192   4.448   9.064 -0.1394  0.0961  0.0321
42382W        W51182  16.110   5.520  41.573  0.2284 -0.1506 -0.2100
42383W        W51183   8.095   6.165  34.774 -0.2824  0.0047 -0.0732
42384W        W51184  14.290   1.107  34.514  0.1333 -0.4371  0.0368
42385W        W51185  20.047   4.381   5.533  0.3691 -0.0905 -0.0478
42386W        W51186   6.673   2.199  17.062 -0.0739 -0.0297  0.3518
42387W        W51187  12.444   5.198  17.710  0.1934  0.1339 -0.1189
42388W        W51188   6.974   1.409  19.798 -0.0417 -0.0828 -0.0961
42389W        W51189  18.910   2.744  30.945 -0.2800 -0.2131  0.0984
42390W        W51190   5.532   5.707  11.642  0.0050 -0.2267 -0.1342
42391W        W51191   6.207   4.158  11.295 -0.0401  0.1924 -0.0948
42392W        W51192   1.658   4.464  27.014  0.1818 -0.1327  0.1699
42393W        W51193   2.706   0.817  12.015  0.0299 -0.0570  0.1522
42394W        W51194  20.059   4.115   4.077 -0.0944  0.1596 -0.4795
42395W        W51195   6.304   6.098  11.262 -0.0359  0.0146  0.0765
42396W        W51196  20.140   4.659  41.509 -0.1208 -0.1716  0.0057
42397W        W51197  14.095   2.078  10.250  0.2218  0.0505  0.1031
42398W        W51198  19.118   3.996  39.705 -0.0991  0.2763 -0.0417
42399W        W51199  10.830   4.321   0.079 -0.3464  0.2581 -0.0753
42400W        W51200   7.620   1.725  37.658 -0.1226 -0.1514  0.0665
42401W        W51201   2.526   0.480  15.652  0.0811  0.0311 -0.0895
42402W        W51202   3.179   1.752  45.016 -0.0552 -0.2696 -0.1069
42403W        W51203   2.505   1.019  39.887 -0.2452 -0.2251  0.2958
42404W        W51204   9.418   5.653  10.037 -0.1222  0.1248 -0.0299
42405W        W51205  14.140   1.408   8.057  0.1072 -0.1808 -0.0663
42406W        W51206   9.314   1.757  33.663  0.0855  0.0074 -0.0853
42407W        W51207   4.343   3.872  10.341  0.0951  0.0757  0.0392
42408W        W51208  12.970   0.891  16.708 -0.0643  0.0647 -0.1276
42409W        W51209  17.817   2.367  44.921 -0.2649  0.0033  0.2547
42410W        W51210   1.643   4.965   5.877  0.0448 -0.1076  0.0094
42411W        W51211   5.021   5.574  35.128  0.0157  0.2358 -0.3244
42412W        W51212   4.975   5.354  15.587  0.2430  0.0009  0.0096
42413W        W51213   3.565   2.853  43.470  0.3243 -0.0810 -0.2298
42414W        W51214  20.108   4.631   2.020 -0.1191 -0.1805 -0.0050
42415W        W51215  16.543   5.657  14.091  0.3150 -0.0053 -0.1138
42416W        W51216  18.312   5.733  36.036  0.1522 -0.4145 -0.3293
42417W        W51217  20.318   6.029  33.749 -0.0902 -0.0823  0.1320
42418W        W51218   3.113   1.235   9.342 -0.0621 -0.1755  0.4037
42419W        W51219  12.181   3.217  37.292 -0.2003  0.3945  0.1896
42420W        W51220   0.757   3.580  43.325 -0.0420 -0.0674 -0.1493
42421W        W51221  15.801   5.681   5.869 -0.2529 -0.0783  0.1131
42422W        W51222  18.167   1.896  39.695  0.2052 -0.0405  0.0611
42423W        W51223  18.874   2.870  28.231  0.0754 -0.0178  0.0913
42424W        W51224  11.382   6.051  17.884  0.4379 -0.1026  0.0030
42425W        W51225   0.657   4.158  29.573 -0.0474  0.2731  0.2490
42426W        W51226  12.681   0.671   7.286  0.2163 -0.2012  0.1134
42427W        W51227   8.870   1.235  20.459 -0.0226  0.1243  0.1965
42428W        W51228  19.850   5.621  38.843  0.0417  0.0388 -0.2177
42429W        W51229  20.811   3.152   6.853  0.1113  0.2115 -0.3926
42430W        W51230   3.335   2.296  32.015 -0.2296 -0.0196  0.2673
42431W        W51231   5.276   1.457   8.601  0.0951  0.1000 -0.1582
42432W        W51232   2.048   2.085   6.562 -0.4663  0.2357 -0.0726
42433W        W51233   9.719   4.753   7.113  0.0411  0.2512  0.1429
42434W        W51234  17.745   6.535  41.505 -0.0106 -0.3385  0.1028
42435W        W51235  16.751   2.980  40.064  0.1392  0.0656  0.1050
42436W        W51236   2.319   2.236   1.476  0.1867  0.5107 -0.0234
42437W        W51237   8.979   1.937  42.507  0.0535  0.0070  0.0530
42438W        W51238  20.627   5.279   1.105  0.2415  0.0660 -0.4484
42439W        W51239  18.269   5.685  14.429 -0.3493  0.0364 -0.0982
42440W        W51240  14.908   2.279  29.425  0.0162 -0.0880 -0.3417
42441W        W51241  20.957   4.251   6.970 -0.0843  0.2285 -0.0936
42442W        W51242   3.301   5.985  43.483 -0.0786  0.0057  0.3314
42443W        W51243   3.284   6.157  34.364 -0.2661 -0.0023 -0.2255
42444W        W51244  18.062   4.516  31.361  0.0189 -0.1808 -0.1807
42445W        W51245  19.817   3.981  27.596 -0.1652 -0.0841 -0.1965
42446W        W51246   9.335   2.633  20.227 -0.0080  0.2487  0.0899
42447W        W51247   1.407   5.821  11.681 -0.1316 -0.2925 -0.1950
42448W        W51248   9.332   3.512  15.644  0.0840 -0.1750 -0.2699
42449W        W51249  10.427   0.443  36.515  0.0078  0.2811 -0.1719
42450W        W51250  14.145   5.107  37.959  0.0445  0.1806 -0.0343
42451W        W51251   6.222   5.690  35.227  0.3404 -0.0534  0.2497
42452W        W51252  16.129   2.331   6.332 -0.1493  0.0766  0.2414
42453W        W51253  14.400   3.911   9.587  0.0427  0.2804  0.1111
42454W        W51254  10.184   3.557  41.612 -0.1234 -0.1430  0.2003
42455W        W51255   6.242   0.087  11.185  0.2364  0.1870  0.1190
42456W        W51256   8.812   4.579   8.561 -0.0256  0.1622 -0.0642
42457W        W51257   4.995   2.082   6.185 -0.0898  0.0378  0.0541
42458W        W51258   0.897   3.312  29.372  0.1715 -0.0075 -0.0595
42459W        W51259  13.606   0.197   2.764  0.2287  0.0123 -0.1161
42460W        W51260  14.475   2.485  28.440  0.2198  0.0091 -0.1081
42461W        W51261   3.774   3.169  16.675  0.1141  0.4900  0.2879
42462W        W51262   1.756   0.616   9.682 -0.0732  0.0216 -0.1200
42463W        W51263  18.461   2.707  13.625  0.3218  0.0745  0.2514
42464W        W51264  10.129   1.511  12.074  0.0464 -0.3678  0.1978
42465W        W51265   7.369   1.016  30.713  0.0477 -0.2242 -0.0195
42466W        W51266  10.309   3.797  13.309 -0.0515  0.1281  0.2592
42467W        W51267   6.489   2.070  34.600  0.2457  0.0942 -0.0555
42468W        W51268  13.151   6.266  36.081 -0.1958  0.2707 -0.2416
42469W        W51269   3.612   3.514  17.643 -0.0143  0.2441 -0.2687
42470W        W51270  11.641   5.533  28.795 -0.1999 -0.1163 -0.1850
42471W        W51271  14.896   1.047  36.828  0.0282  0.1046  0.2277
42472W        W51272  16.216   0.949  28.238 -0.0928  0.1621 -0.0228
42473W        W51273  17.300   0.492  38.018  0.0259 -0.0795 -0.2043
42474W        W51274  19.111   4.818  25.734  0.0227  0.4302 -0.3269
42475W        W51275   8.803   5.047  29.563 -0.1059 -0.0956 -0.1553
42476W        W51276  20.352   5.131  31.699 -0.1849 -0.0727  0.1464
42477W        W51277   1.527   6.413  40.148 -0.2079  0.0017  0.1085
42478W        W51278   5.406   1.508   9.168  0.2893 -0.2060  0.0754
42479W        W51279  14.425   5.401   6.659  0.0570  0.0517 -0.1213
42480W        W51280   8.795   1.532  22.665  0.2578  0.2311 -0.1783
42481W        W51281   3.586   2.348  32.449 -0.4449  0.0418  0.1293
42482W        W51282   7.106   2.765  42.585  0.4270 -0.2702  0.2698
42483W        W51283  15.278   1.920  12.891 -0.2141 -0.1589  0.0727
42484W        W51284   6.043   5.665  15.776 -0.0304 -0.1531  0.0059
42485W        W51285  19.580   4.738  37.527  0.0133 -0.1795 -0.1377
42486W        W51286  10.136   6.269  31.747  0.1096  0.0244 -0.2483
42487W        W51287   3.518   3.262   4.415 -0.1007  0.2633 -0.3298
42488W        W51288   4.038   3.870  41.317 -0.0401 -0.0737 -0.2661
42489W        W51289   1.590   4.565  27.975 -0.0319 -0.2648 -0.2679
42490W        W51290  14.654   1.773  12.061 -0.1901 -0.3057  0.2645
42491W        W51291   2.479   6.041  44.767 -0.0377  0.4293  0.0919
42492W        W51292   1.910   3.631   2.977  0.4028 -0.1141 -0.1579
42493W        W51293   5.823   6.130   5.642 -0.0571  0.0400  0.0688
42494W        W51294  10.654   2.694  44.807  0.0026 -0.1457 -0.1856
42495W        W51295  20.380   2.926   7.644 -0.0474 -0.1408  0.3178
42496W        W51296   9.464   5.192   6.869 -0.0324 -0.0372 -0.0383
42497W        W51297   3.511   6.148  37.087 -0.1303 -0.2144  0.1170
42498W        W51298  12.570   1.568  19.150  0.0937  0.1974  0.2118
42499W        W51299  13.673   5.900   2.067  0.0758  0.1053  0.1581
42500W        W51300  14.988   2.981  41.504 -0.2586  0.0605  0.1210
42501W        W51301  18.431   6.014  11.832  0.1530 -0.0182 -0.1206
42502W        W51302   9.759   4.818  33.933 -0.1178 -0.0099  0.0197
42503W        W51303  17.834   4.223  29.483  0.0656  0.3107  0.1549
42504W        W51304   7.350   6.384  21.904 -0.1942 -0.2118 -0.0105
42505W        W51305   7.814   0.905  39.861  0.0641 -0.0616  0.2501
42506W        W51306   6.761   3.324  33.210 -0.1881  0.0279  0.0878
42507W        W51307   0.921   6.567  44.184  0.1625 -0.0087  0.0796
42508W        W51308  14.993   6.111  10.295  0.2831 -0.3204  0.1844
42509W        W51309  17.697   3.336  33.744 -0.1532 -0.1893 -0.0456
42510W        W51310  16.173   5.592  31.588 -0.1427  0.2033 -0.2150
42511W        W51311   7.391   2.801  22.869  0.0241 -0.0244  0.1104
42512W        W51312  12.425   1.709  33.932 -0.0286 -0.2107 -0.0965
42513W        W51313  20.487   0.377  11.038  0.0484 -0.2195  0.0263
42514W        W51314   9.911   0.154  12.029  0.0631  0.0415  0.0846
42515W        W51315   7.145   2.635  30.706 -0.0655  0.2394  0.1332
42516W        W51316   4.159   6.206   2.591 -0.0262 -0.0666  0.1673
42517W        W51317  10.538   2.728   6.137  0.2248  0.2432  0.0288
42518W        W51318  17.591   4.693  23.722  0.0192 -0.1256 -0.0944
42519W        W51319   6.497   4.308  45.015  0.3610 -0.3249 -0.3067
42520W        W51320   7.744   2.315  20.769  0.0396 -0.1008 -0.2217
42521W        W51321  13.645   0.246  18.004  0.2389  0.2891  0.0576
42522W        W51322   2.223   4.646  35.222 -0.0954 -0.1230 -0.1918
42523W        W51323   7.388   1.245   4.184 -0.0505  0.0596  0.0797
42524W        W51324  14.293   4.712  42.084 -0.1546 -0.1316  0.0209
42525W        W51325   8.421   4.752   1.388 -0.3441 -0.0457 -0.0329
42526W        W51326  20.745   0.026  36.054  0.1078  0.0118  0.2789
42527W        W51327   4.329   3.856   4.241 -0.1713  0.0923 -0.0042
42528W        W51328  17.833   0.810  30.989 -0.3623  0.2673  0.1594
42529W        W51329   1.641   3.239   4.080 -0.1447  0.0186  0.1436
42530W        W51330   8.924   3.271   7.192  0.2619  0.1383 -0.1227
42531W        W51331   4.286   5.741  33.812  0.0808  0.3103 -0.2242
42532W        W51332  12.255   0.381  36.356 -0.2668  0.1125  0.2141
42533W        W51333  19.823   3.059  41.357 -0.1653 -0.0300 -0.0558
42534W        W51334  11.800   4.871   1.407 -0.1640 -0.0865  0.1162
42535W        W51335  20.999   4.353  37.028  0.0189 -0.0947 -0.1104
42536W        W51336  17.236   0.329   1.660  0.0944 -0.1262 -0.0053
42537W        W51337   0.818   6.336   7.983  0.0386  0.4490 -0.1679
42538W        W51338   6.816   3.912  32.473 -0.0853  0.1613 -0.1244
42539W        W51339  11.109   3.067   4.810 -0.0197  0.0231 -0.2469
42540W        W51340   8.574   3.717   5.673  0.0741 -0.3388 -0.2170
42541W        W51341   4.854   5.063  35.123 -0.1201  0.0501  0.0539
42542W        W51342   7.008   1.622   3.674 -0.0494  0.0298 -0.1632
42543W        W51343   1.406   3.556   7.632 -0.2638 -0.1218  0.0764
42544W        W51344   5.390   1.407  19.760  0.1968  0.0294 -0.1476
42545W        W51345  13.411   3.101  31.837  0.2869  0.0634  0.2248
42546W        W51346  13.715   1.345  15.454 -0.1825 -0.1795 -0.1247
42547W        W51347  11.770   2.063  43.634  0.0734 -0.2663 -0.2057
42548W        W51348   3.763   3.119   7.085  0.0186 -0.0147  0.0653
42549W        W51349   1.272   4.951  11.212 -0.0804  0.0502  0.1310
42550W        W51350  18.005   3.286  45.062 -0.0980  0.0842 -0.0271
42551W        W51351   9.416   3.167  36.612  0.1584  0.0718  0.1853
42552W        W51352   9.607   4.390  15.817 -0.1097  0.3680 -0.4249
42553W        W51353   2.946   3.996  31.233  0.2337  0.0798 -0.1376
42554W        W51354   7.469   2.749  42.227  0.0336 -0.0008  0.0777
42555W        W51355   4.326   1.233  16.065  0.0730  0.4424 -0.0882
42556W        W51356  16.649   2.527  33.574  0.1817  0.1349  0.0711
42557W        W51357   6.854   5.282   5.252  0.0841  0.1049 -0.0814
42558W        W51358  18.934   1.303   2.190 -0.2534 -0.0843  0.0115
42559W        W51359  14.460   5.673  27.322 -0.0339 -0.2856 -0.2047
42560W        W51360   3.858   2.886   8.534  0.1497 -0.2617 -0.2751
42561W        W51361  12.461   3.820   6.793 -0.0575 -0.1023 -0.1237
42562W        W51362   4.340   4.141  34.422 -0.2278  0.1535 -0.0167
42563W        W51363   6.008   4.763   5.263  0.1018  0.0329  0.0893
42564W        W51364   3.787   2.817  37.421  0.2301  0.1519  0.0913
42565W        W51365  11.102   0.927  31.754 -0.1428  0.0267  0.1048
42566W        W51366   8.125   2.357  36.506 -0.1643 -0.1395  0.0046
42567W        W51367   5.497   5.735  33.821  0.2170  0.1005 -0.0941
42568W        W51368   6.554   1.443   4.966 -0.5207  0.1214 -0.1816
42569W        W51369  14.712   3.662   9.283 -0.2229 -0.0807 -0.0842
42570W        W51370  13.853   4.353  41.634 -0.0599 -0.0576 -0.1620
42571W        W51371   3.032   3.452  32.499 -0.1454 -0.2565 -0.4299
42572W        W51372   9.341   6.046  15.760 -0.2059  0.2590  0.1826
42573W        W51373   3.211   0.923  32.452  0.0918  0.0923  0.3045
42574W        W51374   6.398   5.043  38.104  0.1752  0.2406  0.0357
42575W        W51375   8.917   4.201  19.311  0.0585 -0.0894 -0.0004
42576W        W51376  11.356   1.901   8.319 -0.0171 -0.1965  0.1298
42577W        W51377   3.799   0.987  31.523  0.0578  0.0504 -0.0323
42578W        W51378  16.443   6.348   9.389  0.0585  0.0689 -0.0505
42579W        W51379   8.366   4.397  40.915 -0.0618 -0.2655 -0.3193
42580W        W51380   0.222   4.179  14.667 -0.0292  0.1898 -0.2576
42581W        W51381   3.942   1.203  31.113 -0.0834 -0.0126  0.1582
42582W        W51382  15.077   0.400  39.168  0.1582  0.3854  0.1487
42583W        W51383  21.066   6.031  34.579 -0.0236  0.1750 -0.1801
42584W        W51384   6.160   1.998  35.339  0.2857 -0.0921 -0.1117
42585W        W51385   9.851   3.562  15.392  0.0720 -0.2226 -0.0510
42586W        W51386  16.751   3.990  15.458  0.2795  0.0904  0.2176
42587W        W51387  14.660   2.263  16.391  0.2144  0.0440 -0.1488
42588W        W51388   6.724   1.311   1.440 -0.0160 -0.1258  0.0879
42589W        W51389   5.575   4.937  31.092  0.2206 -0.1496  0.0683
42590W        W51390  16.556   3.905  31.361 -0.2375 -0.0847 -0.3144
42591W        W51391   8.259   5.412   2.810 -0.1597  0.0483  0.2833
42592W        W51392   6.305   0.015  18.250  0.1314  0.0813  0.1388
42593W        W51393  16.431   4.471   9.937  0.2984 -0.2028  0.0394
42594W        W51394   5.196   3.707  34.585 -0.0623  0.0810 -0.0772
42595W        W51395   8.890   1.624  20.914 -0.2288 -0.2446  0.2307
42596W        W51396  13.910   3.010   7.351 -0.1777 -0.4685 -0.0564
42597W        W51397   5.986   0.601   4.156 -0.1910 -0.3035  0.1734
42598W        W51398   4.789   1.988   9.382 -0.0220 -0.1281  0.0965
42599W        W51399  14.827   3.856  29.734  0.0406 -0.3283  0.0572
42600W        W51400  17.984   5.189   4.542 -0.0123  0.1708 -0.3130
42601W        W51401   3.151   4.671  40.568  0.2094 -0.4345 -0.1845
42602W        W51402   8.121   5.376  38.530 -0.0587  0.0502 -0.3016
42603W        W51403  15.938   1.099   1.217 -0.0914  0.0011 -0.1480
42604W        W51404   5.691   2.362  38.606 -0.1837  0.0905 -0.1712
42605W        W51405  19.116   6.309  38.882 -0.0114 -0.0178  0.1443
42606W        W51406   4.898   2.599  32.245 -0.1799 -0.1496  0.3378
42607W        W51407   7.404   0.321  31.212 -0.0367  0.1512 -0.3190
42608W        W51408  16.603   2.225  14.640  0.1071  0.1978  0.1698
42609W        W51409   6.466   2.572  41.225 -0.0225  0.1267 -0.2374
42610W        W51410   0.521   1.119  44.777 -0.1147 -0.2407  0.2310
42611W        W51411   6.534   5.187  18.131 -0.2701 -0.0849  0.1298
42612W        W51412   1.756   2.075  28.045  0.0391  0.1913  0.1521
42613W        W51413  12.210   6.565  29.150 -0.1508 -0.2322 -0.3713
42614W        W51414  12.615   4.452   4.682 -0.0351 -0.0606 -0.2258
42615W        W51415   9.267   3.991  16.026 -0.0021  0.3810 -0.1070
42616W        W51416  13.758   4.976   9.980 -0.0911  0.0243 -0.0174
42617W        W51417  12.004   6.484  18.026 -0.0564  0.0753 -0.0403
42618W        W51418  14.926   2.262   0.620 -0.2288 -0.2700 -0.2007
42619W        W51419   9.265   6.119  40.989  0.0803  0.3102  0.0289
42620W        W51420  17.785   3.635   8.818 -0.0953 -0.2172 -0.2703
42621W        W51421  11.668   1.250  36.978  0.1598  0.0735 -0.0694
42622W        W51422   7.864   1.344  34.617  0.2767 -0.2906 -0.0622
42623W        W51423  15.390   1.829   9.454  0.1889 -0.1070  0.1503
42624W        W51424  11.366   1.505   2.953  0.1043  0.0725 -0.0030
42625W        W51425  17.174   2.296  23.783  0.0107 -0.1225 -0.0674
42626W        W51426   8.698   3.096   3.462 -0.3104 -0.1287  0.0377
42627W        W51427  11.260   2.337  40.490 -0.0446  0.1174  0.1248
42628W        W51428  21.091   3.035  22.814 -0.1302 -0.0280 -0.1768
42629W        W51429  14.826   3.666  10.704 -0.0889  0.0630  0.2334
42630W        W51430  15.272   5.772   8.706  0.1138  0.0689 -0.1051
42631W        W51431  19.254   5.824  35.701  0.0205 -0.0455 -0.3875
42632W        W51432  18.244   3.845   2.474 -0.1113  0.3760  0.2303
42633W        W51433  15.702   1.695  36.852  0.1599  0.4129  0.3008
42634W        W51434  18.462   3.243  14.536  0.1358  0.0176 -0.0259
42635W        W51435   3.360   4.997   7.677  0.0991 -0.3388 -0.1309
42636W        W51436   3.963   0.248   2.481  0.1650 -0.2068  0.0804
42637W        W51437  11.194   6.239  29.911 -0.5137 -0.0872  0.1525
42638W        W51438  18.787   6.350  10.969 -0.0872  0.2402  0.0486
42639W        W51439  19.441   0.936  27.074 -0.1402 -0.2183  0.1342
42640W        W51440  16.359   2.270  16.821 -0.0192  0.0262 -0.0349
42641W        W51441   2.903   1.173  32.020  0.4505 -0.0295 -0.0026
42642W        W51442  16.305   3.230   5.426 -0.0382 -0.0771 -0.0131
42643W        W51443  16.924   4.430   5.766 -0.1086  0.0317  0.0756
42644W        W51444   0.020   2.395   8.266  0.0865  0.2221  0.1459
42645W        W51445   3.199   0.960  14.023  0.0094 -0.2829 -0.1234
42646W        W51446  15.035   1.160   2.811  0.1689  0.2364 -0.0443
42647W        W51447  17.384   4.098  38.259 -0.2124 -0.0135 -0.2006
42648W        W51448  17.459   3.781  43.932 -0.1592 -0.1811 -0.0465
42649W        W51449   6.845   1.675   2.723  0.3886  0.0424 -0.0641
42650W        W51450  18.168   4.628  43.083 -0.0765  0.1402 -0.0520
42651W        W51451   0.562   2.767  38.635  0.2179  0.0971  0.0531
42652W        W51452   2.372   3.731   5.765  0.0590 -0.2068 -0.1383
42653W        W51453  20.299   0.982  24.124 -0.2395  0.0980  0.1008
42654W        W51454  20.082   2.357  20.476 -0.1968 -0.0252 -0.3913
42655W        W51455  15.274   0.795  40.805  0.0145 -0.0037 -0.1065
42656W        W51456   2.326   5.872   3.897 -0.1503  0.1169  0.2619
42657W        W51457  18.026   3.697  40.953  0.1463 -0.0425 -0.4425
42658W        W51458  11.575   3.601  18.881 -0.3421  0.3201  0.2445
42659W        W51459  14.001   3.832  31.496  0.2573 -0.2474 -0.1315
42660W        W51460   7.964   3.471  12.085 -0.0185 -0.3186  0.2786
42661W        W51461  17.866   3.752   7.538  0.2666  0.0726  0.1216
42662W        W51462  17.529   2.876  36.455  0.0647 -0.1194 -0.0956
42663W        W51463  20.049   3.777   4.498 -0.1836 -0.2406 -0.0485
42664W        W51464  18.404   5.543  44.786 -0.0610 -0.1897  0.1144
42665W        W51465   8.038   2.465   7.883  0.0514  0.2146  0.0153
42666W        W51466   2.135   1.481  43.370 -0.0385  0.0304  0.0549
42667W        W51467  14.842   6.030  32.052  0.0936  0.0368  0.1493
42668W        W51468  14.898   0.444  43.076  0.0379  0.0562  0.1409
42669W        W51469   2.039   6.116  23.528  0.1921 -0.0668  0.1495
42670W        W51470   1.841   4.197  13.650  0.0291  0.2608  0.0010
42671W        W51471  14.086   3.451   3.171 -0.1133 -0.3847 -0.0075
42672W        W51472   4.256   2.136  33.985 -0.0592  0.0179  0.2791
42673W        W51473   1.523   3.519  11.301  0.0375 -0.0980  0.0909
42674W        W51474  10.642   5.180  11.317 -0.2008 -0.1624 -0.1057
42675W        W51475   7.627   2.460  33.863 -0.2886  0.1211  0.0675
42676W        W51476  13.113   2.077  10.997  0.1338 -0.1963  0.0850
42677W        W51477  15.980   0.129  38.822 -0.0615  0.1617 -0.1479
42678W        W51478  15.549   6.128  41.883 -0.2815 -0.0553 -0.1026
42679W        W51479   5.743   5.285  33.597  0.2153  0.0523 -0.0183
42680W        W51480  13.068   4.123  40.648 -0.0000  0.0798 -0.0004
42681W        W51481   5.098   5.935  11.502 -0.0506 -0.0813 -0.1402
42682W        W51482   6.413   6.543  16.224  0.0174 -0.0774 -0.0747
42683W        W51483   0.128   5.009   2.498 -0.1877  0.2666  0.0324
42684W        W51484  16.514   5.136  43.452  0.3352  0.2705  0.0141
42685W        W51485  14.965   6.046  15.270  0.1932 -0.0176  0.0548
42686W        W51486  18.517   6.387  22.224 -0.0552 -0.0629  0.0072
42687W        W51487   5.090   5.607  14.711  0.3118  0.0222 -0.0455
42688W        W51488   4.012   6.376   4.287 -0.0184  0.0709  0.1664
42689W        W51489   8.029   4.152  14.051  0.1433 -0.1307 -0.0574
42690W        W51490  19.525   0.224  22.756 -0.0975 -0.2491  0.1077
42691W        W51491  19.174   5.861  13.047 -0.3126 -0.1086  0.0355
42692W        W51492  14.579   6.157  15.601  0.1723  0.0064 -0.1465
42693W        W51493   1.464   5.634   4.141 -0.0207 -0.2459  0.0578
42694W        W51494  18.755   1.226   5.073  0.1828 -0.0662  0.0786
42695W        W51495   4.320   4.496  32.078 -0.1167 -0.0660  0.0130
42696W        W51496   2.269   4.356   8.950  0.0593 -0.0025  0.1925
42697W        W51497   9.188   2.053  44.307 -0.0154  0.0667 -0.0198
42698W        W51498  19.553   5.330  40.626 -0.0433 -0.0593 -0.1064
42699W        W51499   0.768   0.801   5.141  0.0501 -0.1486  0.0674
42700W        W51500  13.636   0.886  10.225 -0.0019  0.1392  0.2753
42701W        W51501  17.553   0.610   0.362 -0.0688 -0.0731  0.0394
42702W        W51502  15.880   1.130   3.241  0.1264  0.1842 -0.0481
42703W        W51503   3.028   1.375  17.013  0.0724  0.1755  0.2479
42704W        W51504  17.709   4.545  42.825 -0.3133  0.4443  0.1766
42705W        W51505  18.294   5.066  12.711 -0.2377  0.1457 -0.0130
42706W        W51506  17.645   4.138  14.308 -0.0488  0.1012  0.1492
42707W        W51507   7.216   2.935  32.353  0.0787 -0.0950 -0.0572
42708W        W51508   8.501   3.713  14.168 -0.1299 -0.3512  0.1325
42709W        W51509  17.983   5.114  15.016  0.0450 -0.2495 -0.0552
42710W        W51510   1.063   3.840  28.415 -0.1860  0.0749  0.1865
42711W        W51511   2.812   4.996  41.399 -0.0558  0.0466 -0.0588
42712W        W51512  12.422   2.904  43.459  0.2245 -0.1957  0.1450
42713W        W51513   2.256   5.729   4.978  0.2910 -0.3494 -0.0902
42714W        W51514   0.294   5.094  39.155  0.2216 -0.3690  0.2684
42715W        W51515   5.228   5.248  34.864 -0.1093  0.0485 -0.0752
42716W        W51516  18.392   0.220  35.907 -0.2919  0.1705 -0.3211
42717W        W51517   8.454   3.635   6.567  0.0383  0.0012  0.0850
42718W        W51518   5.412   2.015  31.142 -0.1850 -0.2570  0.1890
42719W        W51519   0.784   1.165   2.222  0.0564  0.0665  0.3251
42720W        W51520  14.587   1.814  16.246  0.1151  0.3255  0.2662
42721W        W51521  16.687   3.666   2.583  0.2230  0.0107 -0.0745
42722W        W51522  11.619   2.729  36.399  0.0168  0.2015 -0.1008
42723W        W51523  20.667   4.766  33.979  0.0891 -0.1797 -0.1345
42724W        W51524  20.860   1.535  38.191  0.2093 -0.0555 -0.1707
42725W        W51525  14.237   3.637  17.985  0.0255  0.0450  0.0740
42726W        W51526   9.213   1.085  16.060 -0.0637 -0.1956  0.1281
42727W        W51527   7.197   2.658  12.402  0.1109  0.2989 -0.2565
42728W        W51528  10.726   4.718  16.495 -0.1276  0.3184  0.1093
42729W        W51529   2.001   5.245  42.139  0.0023  0.1094  0.0222
42730W        W51530  12.822   5.579   8.949  0.2202  0.1341  0.2942
42731W        W51531  20.841   1.114  43.376 -0.2595 -0.4645 -0.0594
42732W        W51532  11.289   1.606  36.960 -0.0727  0.1362 -0.1450
42733W        W51533  12.036   1.204   7.028  0.1319  0.1068 -0.2988
42734W        W51534  19.496   1.161  28.782 -0.2424  0.2136  0.2064
42735W        W51535   6.001   0.049  39.271  0.0528  0.1231  0.2931
42736W        W51536  15.254   6.493  26.640  0.0834  0.3191 -0.2213
42737W        W51537  16.144   3.685   9.509 -0.2581 -0.2467 -0.0630
42738W        W51538  17.500   5.163  23.866  0.4528 -0.0187 -0.1844
42739W        W51539   3.022   2.475  26.290 -0.0326 -0.2876  0.1836
42740W        W51540   8.843   3.160  12.130  0.3457  0.2499  0.3360
42741W        W51541  14.767   2.472  37.534  0.0586 -0.1433 -0.1382
42742W        W51542  19.228   2.961   0.109 -0.0663  0.1128 -0.0828
42743W        W51543   9.593   3.678   9.857 -0.0896  0.1844 -0.6254
42744W        W51544   0.633   1.360   9.703  0.0648 -0.0638 -0.1703
42745W        W51545  13.401   4.417   1.845  0.0438  0.0743  0.4388
42746W        W51546   5.699   0.409  28.894 -0.1341  0.4207  0.0905
42747W        W51547  10.616   2.958  39.942  0.1706  0.0181 -0.1329
42748W        W51548   6.222   6.555  40.886 -0.1311  0.2134 -0.0478
42749W        W51549   0.869   0.576  31.509  0.4172 -0.0732 -0.2831
42750W        W51550  16.951   3.124   4.533 -0.0625  0.2049  0.0035
42751W        W51551  15.294   1.359  10.824  0.1005  0.2258  0.1005
42752W        W51552  20.000   3.642  42.996 -0.1721 -0.0626  0.3130
42753W        W51553   0.737   2.074   7.030  0.0107  0.0982 -0.1853
42754W        W51554   5.907   2.503   7.939 -0.1499 -0.1436  0.1386
42755W        W51555  10.440   0.783  30.496  0.0909 -0.0838  0.1915
42756W        W51556   9.021   4.556  23.716  0.1443 -0.0394 -0.1060
42757W        W51557  11.833   2.324   9.509  0.0585  0.0062  0.1950
42758W        W51558  11.976   3.967  30.359 -0.2887  0.2442 -0.1018
42759W        W51559  20.652   3.610  24.905  0.3004  0.0789  0.0742
42760W        W51560   4.874   0.765  14.478  0.1727  0.0998 -0.2715
42761W        W51561  13.271   5.203  13.933  0.2952  0.0895 -0.1242
42762W        W51562  14.585   4.157  38.709 -0.1832 -0.0666  0.0361
42763W        W51563  19.342   1.676  26.468 -0.0144  0.0237  0.0384
42764W        W51564  17.198   3.192  22.277 -0.1200 -0.3183 -0.1893
42765W        W51565  15.058   4.716  12.195  0.0372  0.3192 -0.3398
42766W        W51566  10.374   0.155  17.255 -0.1559 -0.1464  0.0885
42767W        W51567  12.637   3.206  40.384 -0.1800  0.1630 -0.1064
42768W        W51568  13.869   3.804  42.357  0.1513  0.0029 -0.2085
42769W        W51569  11.294   5.816  13.127  0.0241 -0.2096 -0.0558
42770W        W51570   9.669   1.547  43.505  0.1017  0.0760  0.0095
42771W        W51571  16.766   1.535  25.251  0.0882 -0.0738 -0.0019
42772W        W51572   3.543   1.573  10.588  0.2576  0.0256  0.2390
42773W        W51573   9.078   3.331  21.425  0.0907  0.3618 -0.0208
42774W        W51574   1.788   3.472   6.945 -0.2062 -0.1631 -0.2061
42775W        W51575  11.524   0.706  33.999  0.1741  0.0420 -0.1534
42776W        W51576   3.114   1.461  28.685 -0.0940  0.1760  0.0781
42777W        W51577  16.350   5.717   1.148 -0.3479 -0.3275 -0.0049
42778W        W51578   3.272   1.692  30.369 -0.3132 -0.0976  0.1830
42779W        W51579   9.542   3.402   7.350  0.0350 -0.0054 -0.2103
42780W        W51580  18.676   2.241  29.263  0.0314 -0.1958  0.1585
42781W        W51581   7.985   4.836   1.009 -0.1968  0.3166  0.0938
42782W        W51582  12.123   0.079  22.649  0.0824  0.0028 -0.1270
42783W        W51583   1.422   0.505  23.607  0.1680  0.1702 -0.0007
42784W        W51584  14.113   3.042  42.833  0.1991 -0.0764  0.0753
42785W        W51585  11.987   2.517   8.068 -0.2296  0.1416  0.2457
42786W        W51586  17.100   1.328  35.477 -0.0434  0.1375  0.0840
42787W        W51587   5.884   5.623   3.032 -0.0426  0.3049 -0.1567
42788W        W51588   4.287   1.514   5.887  0.2866 -0.3360  0.0334
42789W        W51589  18.752   1.640   8.761 -0.0346  0.1554  0.0017
42790W        W51590   1.725   0.096  35.481 -0.0197 -0.2292 -0.0230
42791W        W51591  18.980   4.138  24.209  0.1268  0.2543 -0.1137
42792W        W51592  13.334   3.502   8.918 -0.0424  0.1715  0.0191
42793W        W51593   1.029   1.761  15.653 -0.2359 -0.0923  0.1597
42794W        W51594  11.733   2.141  30.018 -0.2104  0.0666  0.1650
42795W        W51595  19.189   6.055   6.843 -0.1001  0.0819  0.1662
42796W        W51596   0.958   6.231  24.984 -0.1764 -0.3035 -0.2416
42797W        W51597  10.249   4.500  14.666 -0.0943 -0.1146 -0.4840
42798W        W51598  10.680   0.671  42.512 -0.2877  0.0197  0.3009
42799W        W51599  20.314   3.149  23.449 -0.0282 -0.1137 -0.1478
42800W        W51600  14.586   1.062   0.108 -0.1437  0.2315 -0.0327
42801W        W51601   0.139   3.302  32.889  0.2489  0.0946  0.0694
42802W        W51602  10.959   5.401  33.127 -0.1467 -0.1521 -0.1346
42803W        W51603   4.083   5.542  43.600  0.0757 -0.0153  0.1543
42804W        W51604   7.752   5.368  10.656 -0.1183  0.0562 -0.0848
42805W        W51605   6.256   4.523  11.628  0.0699 -0.2415 -0.2965
42806W        W51606   3.697   0.378   2.928  0.3147 -0.1254  0.2350
42807W        W51607  18.068   3.811   0.274  0.2136 -0.1220  0.0958
42808W        W51608  14.093   0.939  31.524  0.1445 -0.0337 -0.4225
42809W        W51609   2.310   0.896  30.546  0.0910 -0.1376  0.0639
42810W        W51610  17.875   1.243   9.432 -0.3231 -0.1503 -0.1645
42811W        W51611  19.989   4.618  20.135  0.0883 -0.0730  0.1973
42812W        W51612  11.185   4.027  19.880  0.0638  0.1341  0.0915
42813W        W51613   5.824   5.229  12.704  0.0439  0.0404 -0.0255
42814W        W51614   0.469   4.466  32.118 -0.0698  0.4131 -0.1001
42815W        W51615  16.369   4.961  34.122 -0.0619 -0.1280 -0.2000
42816W        W51616  10.532   3.370  22.572 -0.3493  0.0521 -0.0682
42817W        W51617  20.615   0.688  15.350 -0.1279  0.1236 -0.1320
42818W        W51618   9.952   2.702  31.467 -0.0882  0.1576 -0.0301
42819W        W51619   7.642   5.929  13.020 -0.2027  0.2069 -0.3379
42820W        W51620   2.405   1.696   0.863 -0.1224  0.0474  0.0123
42821W        W51621   1.590   1.358   8.643 -0.2550 -0.1155 -0.1431
42822W        W51622  10.175   6.148  25.488 -0.3343 -0.2139  0.2817
42823W        W51623  16.930   0.772  41.092 -0.0793 -0.1993 -0.2224
42824W        W51624   9.115   1.043  15.496 -0.1886 -0.1333  0.2643
42825W        W51625   4.445   2.166  41.779 -0.1740 -0.0001 -0.3679
42826W        W51626   8.305   2.753  11.517 -0.0427 -0.0300 -0.1156
42827W        W51627   2.364   0.431  10.992 -0.1112  0.2086  0.0229
42828W        W51628  15.087   3.875  16.995  0.1621 -0.0026  0.2533
42829W        W51629   3.409   0.948  29.685  0.0428  0.3628 -0.1209
42830W        W51630  12.054   2.983   6.238 -0.1073  0.0207 -0.1889
42831W        W51631   2.125   5.582  36.273  0.0218  0.1314 -0.0748
42832W        W51632  20.326   1.756  43.682  0.1256  0.3213 -0.0205
42833W        W51633   2.357   0.205   0.981  0.1900 -0.1221  0.2961
42834W        W51634  10.523   5.797   2.205  0.2023  0.0479 -0.1172
42835W        W51635  11.378   2.647  18.858 -0.1127  0.3017 -0.0283
42836W        W51636  13.710   1.420  44.727  0.0925  0.2316  0.1338
42837W        W51637  17.537   5.283  39.445 -0.2803  0.0595 -0.0477
42838W        W51638   2.567   3.152  44.637  0.0206 -0.0957  0.1377
42839W        W51639  12.870   5.602  39.387 -0.2587  0.1019  0.2158
42840W        W51640  18.154   4.786  37.068 -0.0484  0.1578 -0.2703
42841W        W51641  19.844   6.069   2.619 -0.2862 -0.0273 -0.0914
42842W        W51642  13.175   0.009  34.747 -0.1015  0.0104 -0.3046
42843W        W51643  14.839   4.581  35.973  0.0723 -0.0062 -0.1556
42844W        W51644  11.918   3.446   7.969 -0.1394  0.1114 -0.6101
42845W        W51645  10.332   3.621  37.755 -0.0132 -0.3163 -0.0785
42846W        W51646  13.135   4.853  37.248  0.0297 -0.0615  0.1355
42847W        W51647  14.489   0.516  28.943  0.4206 -0.0224  0.1256
42848W        W51648   4.049   4.416   2.410 -0.0564  0.4678 -0.1179
42849W        W51649  15.432   1.270  41.013  0.1647  0.1362  0.0268
42850W        W51650  14.814   1.473  44.275  0.0421  0.0985 -0.2586
42851W        W51651   5.133   2.924   4.621 -0.3848 -0.1949  0.1620
42852W        W51652   0.743   4.930  14.318 -0.0533 -0.0979  0.1293
42853W        W51653   4.495   0.544  36.271 -0.0744  0.0327  0.4779
42854W        W51654   2.147   0.765  37.974 -0.0520  0.0950  0.2512
42855W        W51655  20.932   4.569   8.732 -0.0324  0.2496  0.0566
42856W        W51656  18.910   1.405   6.855  0.0789 -0.0711 -0.2891
42857W        W51657  19.777   4.511  28.207 -0.1199 -0.2782  0.1944
42858W        W51658  11.230   5.648  16.947 -0.1406 -0.2457  0.3277
42859W        W51659   7.385   4.998  36.017 -0.0579  0.1266  0.3514
42860W        W51660  14.520   0.737  34.334 -0.0443 -0.1792  0.0588
42861W        W51661   8.345   3.755  21.429 -0.0232 -0.0856  0.0963
42862W        W51662  16.828   6.521  39.344  0.1517  0.0407  0.0809
42863W        W51663   0.785   3.662  30.311  0.0680 -0.2677  0.1733
42864W        W51664  14.372   5.519   2.237 -0.2108 -0.0907  0.2610
42865W        W51665  19.071   4.768  34.658  0.1365  0.1600  0.0784
42866W        W51666  13.324   3.843  16.269  0.2409  0.1105 -0.0306
42867W        W51667  13.254   5.211  27.516  0.0557  0.1022  0.2233
42868W        W51668  12.520   2.146  34.357 -0.1622  0.3242  0.0543
42869W        W51669   3.296   1.266  40.851  0.2410  0.0622  0.1455
42870W        W51670  12.108   3.560  10.243  0.3632  0.0890  0.3270
42871W        W51671   6.252   5.025  17.075  0.1504 -0.1421  0.2159
42872W        W51672  16.226   5.113  28.774  0.1244  0.1279  0.0799
42873W        W51673   8.825   5.689  11.680  0.1731  0.0683  0.2071
42874W        W51674  18.905   0.476  41.627  0.1019 -0.0350 -0.1913
42875W        W51675  10.101   0.428  37.463 -0.3448  0.1436 -0.2069
42876W        W51676   1.167   3.851   3.572 -0.2500 -0.1548  0.0032
42877W        W51677   1.038   4.187  13.228 -0.2696  0.3842 -0.5724
42878W        W51678  12.621   3.670   0.023  0.3218  0.1192  0.0443
42879W        W51679  12.924   2.598  30.178 -0.2097  0.0380  0.0044
42880W        W51680   8.128   5.216   1.287  0.1103 -0.2698  0.0248
42881W        W51681  11.045   0.107   7.823 -0.0323  0.0993  0.0287
42882W        W51682  15.444   5.016  30.236  0.0626 -0.0231  0.2624
42883W        W51683  14.938   0.726   3.176  0.0635  0.0350 -0.0516
42884W        W51684   0.639   4.330   0.111 -0.0084  0.4166 -0.0362
42885W        W51685   7.865   1.300  16.047 -0.0001 -0.1777 -0.1721
42886W        W51686  12.222   2.855  36.901  0.1410  0.0242  0.1580
42887W        W51687   8.392   1.638   0.599 -0.2182  0.1033  0.4535
42888W        W51688   7.052   1.437  18.616 -0.4583  0.1472 -0.0266
42889W        W51689   2.399   4.118  43.630 -0.2687  0.2037  0.0299
42890W        W51690  13.462   4.712   0.312  0.1336  0.1734 -0.0355
42891W        W51691  12.845   1.674  39.167 -0.1054  0.2922  0.1294
42892W        W51692  10.939   1.861  10.911  0.1575 -0.0047  0.0837
42893W        W51693  10.938   0.058  35.843 -0.0198  0.3452  0.0672
42894W        W51694  13.311   1.709   5.203 -0.0793  0.3925 -0.1823
42895W        W51695  19.743   4.991  27.966  0.1066  0.1928  0.1169
42896W        W51696   9.874   3.028  36.074  0.0269 -0.1829 -0.2334
42897W        W51697   1.982   5.475  41.195  0.0064  0.1424  0.3058
42898W        W51698  10.825   5.658  15.988  0.0950 -0.1024  0.1890
42899W        W51699   6.576   0.038  40.525 -0.0296  0.0031 -0.0010
42900W        W51700   1.219   5.994   2.346 -0.0606 -0.0159  0.0468
42901W        W51701  19.885   2.778   9.902  0.1324 -0.0872 -0.0406
42902W        W51702  12.458   2.717  20.692  0.1024  0.1723 -0.3606
42903W        W51703   2.737   5.065   0.713 -0.2225  0.0702 -0.0460
42904W        W51704  15.132   2.275   5.160  0.0813 -0.0798 -0.2156
42905W        W51705  12.607   1.944   8.519  0.0319 -0.0649 -0.3978
42906W        W51706  12.910   3.900   0.377  0.1338  0.0111 -0.1029
42907W        W51707   1.032   4.568  42.747 -0.0671  0.0623 -0.1572
42908W        W51708   8.163   3.252   7.311 -0.0072  0.1368  0.0849
42909W        W51709  12.846   4.165   8.395  0.3762  0.2898  0.3640
42910W        W51710   6.897   1.468  29.737 -0.0937 -0.0205  0.1748
42911W        W51711   8.860   2.052   5.023  0.0862 -0.0035 -0.2229
42912W        W51712   9.143   3.450  23.808  0.1487  0.2765 -0.1908
42913W        W51713  19.511   5.472   2.163  0.0009  0.3077  0.1677
42914W        W51714   0.148   5.095   7.491 -0.1322  0.1311  0.1117
42915W        W51715  16.939   2.032  35.039 -0.0677 -0.1695 -0.1408
42916W        W51716   1.537   6.568  36.247  0.1993 -0.1912  0.1452
42917W        W51717   5.509   2.561  15.930  0.0644 -0.0444  0.1739
42918W        W51718  15.119   5.142  42.620  0.2277 -0.1727  0.0102
42919W        W51719   0.905   0.670  14.217 -0.0261  0.1533 -0.2158
42920W        W51720   1.796   5.137   2.270 -0.0515 -0.0126 -0.0040
42921W        W51721  15.085   3.232  27.106 -0.1586 -0.2607 -0.0669
42922W        W51722  12.998   2.014  12.832 -0.1766 -0.1195  0.0505
42923W        W51723  14.860   4.501   4.908 -0.0245 -0.0004 -0.1184
42924W        W51724   7.122   5.940   3.062  0.0667  0.1454  0.0043
42925W        W51725  20.162   4.429  39.850 -0.1398  0.1255 -0.0036
42926W        W51726   1.364   4.299   2.416  0.1324 -0.0476  0.0868
42927W        W51727  19.354   1.381  35.326 -0.2811  0.0091 -0.0370
42928W        W51728  19.140   0.813  23.027  0.1680  0.3064 -0.0116
42929W        W51729   4.826   4.381  39.370 -0.1811 -0.0770 -0.0769
42930W        W51730  20.341   4.277  21.156 -0.1578 -0.1763 -0.0171
42931W        W51731   6.311   2.755  36.842  0.2046  0.0968  0.0374
42932W        W51732   0.129   4.368   7.685 -0.2631  0.1560 -0.3294
42933W        W51733   4.210   2.018   4.792 -0.0471 -0.0417 -0.1031
42934W        W51734   4.982   4.745  34.735 -0.1068 -0.1017 -0.1529
42935W        W51735   5.028   4.048   1.656 -0.5220 -0.0568  0.4398
42936W        W51736  20.316   0.586   7.260 -0.1147 -0.2071  0.1016
42937W        W51737   4.133   5.405  25.877 -0.0526 -0.1470 -0.3157
42938W        W51738  14.799   3.116  12.527 -0.2650 -0.4625  0.0518
42939W        W51739  14.726   2.891  28.942 -0.3125 -0.3440 -0.1313
42940W        W51740  17.816   0.507   1.377  0.1166 -0.0069  0.2731
42941W        W51741   1.630   5.396  14.986 -0.1125  0.1434 -0.0984
42942W        W51742  12.832   5.097   0.193 -0.1208 -0.1245  0.0995
42943W        W51743  20.299   2.716  23.091 -0.1768  0.2080 -0.0282
42944W        W51744   5.655   3.751  14.206 -0.1897  0.0966  0.2371
42945W        W51745   0.503   3.638   5.769 -0.1497 -0.2579 -0.0206
42946W        W51746  11.496   4.345   0.744 -0.2259 -0.4462 -0.0977
42947W        W51747   8.787   3.203  43.427  0.2076 -0.0412  0.0043
42948W        W51748  12.285   1.392  31.278 -0.1607  0.1336 -0.3672
42949W        W51749  12.895   0.493  41.286 -0.0535 -0.0181 -0.0282
42950W        W51750   7.735   4.148  38.520  0.1288 -0.1252 -0.1768
42951W        W51751  14.964   1.754  37.538 -0.0085  0.1366 -0.1012
42952W        W51752  11.018   3.260   2.584 -0.0471  0.1664  0.0236
42953W        W51753  18.942   6.520  15.002 -0.4276 -0.2998 -0.0959
42954W        W51754   5.445   1.213  41.759  0.1754  0.1389  0.2229
42955W        W51755  19.748   5.398  22.482  0.1189  0.1262  0.0836
42956W        W51756   8.384   3.764  33.479 -0.0129  0.2321  0.1296
42957W        W51757   5.993   3.276  15.208  0.2303 -0.2071  0.1515
42958W        W51758  15.211   3.153  35.478 -0.1662 -0.0980  0.3914
42959W        W51759  21.128   1.497  42.550  0.0298 -0.0944 -0.0019
42960W        W51760   7.196   1.005  40.706  0.5452  0.3572 -0.1043
42961W        W51761  12.625   1.629  15.079  0.0632  0.2691 -0.1791
42962W        W51762   1.203   6.560  13.203 -0.2852 -0.2460 -0.2051
42963W        W51763  16.371   2.994  44.372  0.2400  0.0482 -0.2628
42964W        W51764  12.395   2.187  43.370  0.1623 -0.0742 -0.0910
42965W        W51765  17.035   3.820  11.868 -0.1391  0.0224  0.1730
42966W        W51766  17.804   0.702  26.621 -0.1444 -0.2909 -0.2726
42967W        W51767   1.700   2.406   7.719 -0.1960  0.0287 -0.0542
42968W        W51768  15.350   4.802   2.447 -0.0469 -0.0258  0.0007
42969W        W51769  13.987   6.386   1.273  0.0596 -0.3038  0.1903
42970W        W51770  14.574   6.542  42.946  0.0637  0.0584  0.1782
42971W        W51771   9.095   1.171   0.415  0.2112  0.0089  0.1606
42972W        W51772   9.240   6.469   4.251  0.2847  0.0157 -0.1350
42973W        W51773   4.892   1.315  35.917  0.2352 -0.0830 -0.1508
42974W        W51774  16.358   6.088  42.517  0.1174 -0.2658  0.1726
42975W        W51775  17.483   4.972   7.472  0.0862 -0.1761 -0.2165
42976W        W51776  19.272   0.625  22.624 -0.0432  0.1051 -0.0539
42977W        W51777  19.689   0.153   2.468  0.0444  0.0545 -0.3626
42978W        W51778  11.226   5.932   6.599  0.0107  0.1661  0.1483
42979W        W51779  20.569   1.934  38.221  0.4574 -0.0186 -0.0829
42980W        W51780  14.490   1.919  29.049 -0.0142 -0.1398 -0.0219
42981W        W51781   5.310   3.416  35.068  0.0770 -0.1456  0.1021
42982W        W51782   6.445   1.609  19.275  0.0235  0.1037 -0.0056
42983W        W51783  11.997   4.707  36.419 -0.2444 -0.1242  0.0488
42984W        W51784  17.530   5.780   8.673  0.0521 -0.1428 -0.0794
42985W        W51785   2.746   1.813  32.570 -0.0157 -0.0779 -0.2163
42986W        W51786  13.783   6.078   1.626 -0.0530  0.1464  0.0312
42987W        W51787  20.958   0.391  28.746 -0.1311 -0.0890  0.1672
42988W        W51788   0.398   5.481  28.652  0.0461 -0.2028 -0.0560
42989W        W51789   8.573   2.037  31.029 -0.2268  0.0034 -0.0693
42990W        W51790  20.960   0.576  14.861  0.1366  0.1411 -0.0000
42991W        W51791   4.079   2.481  38.048 -0.1320 -0.1835  0.0188
42992W        W51792  19.991   1.940   5.581 -0.1479 -0.0201  0.2027
42993W        W51793  18.672   4.838  27.137 -0.0520 -0.1014 -0.0964
42994W        W51794  16.470   1.994  42.874 -0.2772 -0.2704 -0.2834
42995W        W51795   8.496   1.360   8.409 -0.0799 -0.0489  0.1175
42996W        W51796   3.957   6.021  42.876 -0.1876 -0.1829  0.1455
42997W        W51797  11.173   4.346  18.553  0.1524  0.0048  0.1382
42998W        W51798   9.891   0.955  25.103  0.0636 -0.1567  0.2654
42999W        W51799  18.337   3.992  29.282 -0.1363  0.0957  0.0208
43000W        W51800   4.275   0.018  39.656  0.1682 -0.2267 -0.1747
43001W        W51801  13.464   6.124  34.781  0.1924  0.1661 -0.0116
43002W        W51802   7.989   5.152  19.161  0.1908  0.0930 -0.2666
43003W        W51803  15.381   2.938  38.929 -0.0007  0.1837 -0.2573
43004W        W51804  12.771   6.220   5.004  0.0035  0.0553  0.0645
43005W        W51805   8.375   3.484  16.490  0.1130 -0.1030  0.1156
43006W        W51806   7.985   4.142  36.431 -0.2116  0.3206 -0.2611
43007W        W51807  10.285   1.734  18.708 -0.1740  0.1172 -0.1070
43008W        W51808   6.838   1.079  45.034  0.0780 -0.0367  0.0197
43009W        W51809   7.780   5.628   2.042 -0.1421 -0.0820 -0.3082
43010W        W51810  19.515   0.631  39.102 -0.0411 -0.1816  0.0369
43011W        W51811  10.338   2.530   2.506  0.0508  0.2048 -0.1266
43012W        W51812   5.274   0.350   9.830 -0.4052  0.0558 -0.2190
43013W        W51813   4.444   2.288  31.032  0.0116  0.1651 -0.1327
43014W        W51814  19.143   4.604  21.227 -0.4406  0.0194  0.0109
43015W        W51815  10.733   1.392  32.133 -0.2438  0.2628 -0.0826
43016W        W51816  14.254   0.552   2.662 -0.1184  0.0575  0.3082
43017W        W51817   0.465   5.632   5.657 -0.2272  0.0110 -0.1568
43018W        W51818  17.649   6.559  29.786 -0.3791 -0.0390  0.0677
43019W        W51819   3.872   6.173  40.956 -0.0155 -0.0263  0.1271
43020W        W51820  18.624   2.297   9.689  0.0141 -0.1988  0.2221
43021W        W51821   7.005   0.164  40.173 -0.1416 -0.0833  0.0237
43022W        W51822   4.691   0.753  14.955 -0.1216 -0.0956  0.1434
43023W        W51823  20.864   3.577  37.203 -0.1058  0.3322 -0.1980
43024W        W51824   3.209   6.566  44.521  0.1014  0.0146 -0.3617
43025W        W51825   8.651   3.764  19.178 -0.3853  0.2121  0.0026
43026W        W51826   2.805   3.578   4.616  0.0196 -0.4056 -0.0793
43027W        W51827  10.394   2.754  19.604  0.3973  0.0526  0.1600
43028W        W51828  10.440   2.717  10.124 -0.0762  0.0560 -0.0250
43029W        W51829  16.783   0.460   0.978  0.2405 -0.4746 -0.0205
43030W        W51830   9.288   0.221   5.531  0.3823  0.0659 -0.2222
43031W        W51831  14.197   1.303  15.572  0.1284  0.0389  0.0386
43032W        W51832  18.754   0.089  23.301 -0.0326 -0.1014 -0.2273
43033W        W51833  20.076   1.887  30.517 -0.3190  0.2243  0.0489
43034W        W51834   0.939   5.730  10.102 -0.1531  0.2290 -0.0953
43035W        W51835   9.742   4.799  41.186 -0.0692  0.0510 -0.1080
43036W        W51836   9.634   5.477  40.126 -0.1418  0.0442 -0.0082
43037W        W51837  19.751   3.280  28.309  0.0544  0.2838  0.2505
43038W        W51838   1.965   5.629   4.625 -0.1004 -0.0336 -0.0360
43039W        W51839  20.712   2.433  38.109 -0.0138 -0.2725  0.2337
43040W        W51840  20.932   5.889  24.645 -0.2708  0.1281  0.1540
43041W        W51841  19.342   1.823  15.915 -0.1477 -0.1158 -0.0696
43042W        W51842   6.798   1.865   2.231 -0.1300  0.0504 -0.0309
43043W        W51843   0.051   4.232  27.584 -0.1789 -0.1670  0.2997
43044W        W51844  10.649   5.571  37.941  0.0117  0.1495 -0.2306
43045W        W51845  12.858   5.316   9.353 -0.1732  0.2982  0.1394
43046W        W51846   0.143   5.535  22.197  0.0023 -0.1645 -0.0135
43047W        W51847   8.238   0.110   1.669  0.0643  0.0126  0.1143
43048W        W51848  10.752   0.185   9.641 -0.2503  0.0899  0.1438
43049W        W51849  11.908   5.836   2.618  0.0404  0.0067  0.1895
43050W        W51850  16.357   5.110  31.465 -0.2498  0.2916  0.0764
43051W        W51851  10.544   4.748  10.065  0.0002 -0.1360  0.0841
43052W        W51852   8.939   2.244   0.873 -0.0815 -0.2788 -0.2381
43053W        W51853   7.496   3.014  19.565 -0.0173  0.1010  0.0108
43054W        W51854  20.458   0.219  36.464 -0.0393  0.2876  0.3653
43055W        W51855   8.680   6.147  37.181  0.0887 -0.1311  0.0040
43056W        W51856  20.397   5.324   3.608 -0.1202 -0.0744  0.0661
43057W        W51857   9.232   0.507  18.069 -0.2802  0.0569  0.1346
43058W        W51858  18.476   3.885  37.151  0.1147 -0.3527  0.1664
43059W        W51859   1.631   1.194  29.402  0.0545  0.0181  0.0972
43060W        W51860   1.997   3.358  14.465  0.0343  0.0396  0.2206
43061W        W51861  15.690   4.898  43.176  0.1083 -0.0106  0.1277
43062W        W51862   8.683   4.595  42.860  0.0882  0.3200  0.2218
43063W        W51863  10.813   1.910   1.394  0.1713  0.1960 -0.2035
43064W        W51864  18.943   0.402  23.672  0.0604  0.1793 -0.0828
43065W        W51865  19.777   6.262   5.805  0.1441 -0.2248  0.1557
43066W        W51866  18.466   6.307  24.759  0.4580 -0.1053 -0.0971
43067W        W51867   9.554   0.287   9.264  0.0048  0.1343  0.2980
43068W        W51868   0.959   0.714  29.982  0.1346 -0.2781  0.1069
43069W        W51869  19.193   5.861  26.731  0.1455  0.2106 -0.0341
43070W        W51870   2.580   3.952  42.435 -0.1850  0.0983  0.0292
43071W        W51871  12.058   5.737  19.066  0.0117 -0.1769  0.0793
43072W        W51872   7.677   5.138   4.290  0.0308 -0.0056 -0.1723
43073W        W51873   7.031   6.566  39.324 -0.1353  0.2923 -0.1818
43074W        W51874  12.062   4.558  10.223  0.1667 -0.0823 -0.1403
43075W        W51875  12.992   4.595   5.924  0.1787 -0.0255 -0.0866
43076W        W51876  16.568   3.190  16.477 -0.1305  0.3065  0.0897
43077W        W51877  20.369   5.629  41.862  0.1234 -0.3523  0.0191
43078W        W51878  18.409   5.829   6.121  0.1004  0.0849  0.2120
43079W        W51879  11.535   1.892  22.422  0.0095  0.0166 -0.3098
43080W        W51880  10.820   3.089  33.153 -0.2126 -0.0966  0.1654
43081W        W51881  10.385   1.524  34.310 -0.2315  0.1095 -0.3333
43082W        W51882  13.067   5.556  40.201 -0.0835  0.1187  0.0812
43083W        W51883  19.454   1.429  11.711  0.0706 -0.0290  0.5486
43084W        W51884  12.363   0.956  28.108 -0.1236 -0.0786  0.3831
43085W        W51885  18.091   6.460   5.918 -0.3726  0.0126  0.0899
43086W        W51886  11.515   5.171  33.142 -0.0223 -0.0509 -0.0031
43087W        W51887   1.472   3.216   0.276 -0.0209 -0.1515  0.2558
43088W        W51888  20.240   5.429  16.111 -0.1940 -0.0667  0.2344
43089W        W51889  15.992   3.770  37.336  0.1386 -0.1289  0.0145
43090W        W51890  13.417   4.614   3.402 -0.0245 -0.0023  0.1109
43091W        W51891   8.576   4.436  21.281 -0.3639  0.2169  0.2163
43092W        W51892   0.247   0.806  23.834  0.1722  0.0629 -0.0421
43093W        W51893   9.299   3.085   6.580  0.1592  0.1588 -0.0544
43094W        W51894   1.836   2.950  43.131 -0.1391 -0.1110  0.0274
43095W        W51895   8.568   1.480  23.640 -0.2446 -0.4541  0.2399
43096W        W51896   8.430   2.453  37.221  0.1573 -0.0475 -0.1628
43097W        W51897   9.129   5.828  33.379 -0.0045 -0.1692  0.1901
43098W        W51898  11.950   3.219  19.090  0.5269 -0.1398  0.0940
43099W        W51899   0.824   0.174  40.266  0.3605  0.1796  0.1099
43100W        W51900  15.479   0.910  30.378  0.0475 -0.0425  0.0799
43101W        W51901   4.669   6.065   0.521 -0.2436  0.0963 -0.2109
43102W        W51902  17.339   2.874  35.010  0.0086 -0.0955 -0.1562
43103W        W51903   7.478   4.182  16.474  0.0511  0.3707  0.1821
43104W        W51904   6.997   5.325  36.114 -0.1136 -0.0149  0.0318
43105W        W51905  17.689   2.335  31.448  0.1557  0.1644  0.3468
43106W        W51906   5.506   1.236  32.886 -0.0422 -0.1881  0.1996
43107W        W51907  14.448   4.461   5.607 -0.0850 -0.3221  0.2265
43108W        W51908   9.763   1.112  12.302  0.0235  0.0210  0.1639
43109W        W51909   6.490   3.146   8.318  0.0264  0.3829 -0.0031
43110W        W51910  10.404   4.538  10.790  0.0506  0.1047  0.0712
43111W        W51911   7.877   3.523  12.595  0.1978 -0.0164 -0.0501
43112W        W51912   3.117   4.069  37.600 -0.0707  0.0821 -0.0726
43113W        W51913   6.324   0.937  10.766  0.1225 -0.1081 -0.3394
43114W        W51914  20.945   4.917  29.224 -0.0537 -0.0058 -0.1504
43115W        W51915  19.702   1.312  21.598  0.0606 -0.2944 -0.0899
43116W        W51916   6.477   4.814  43.557 -0.1852  0.0093 -0.0377
43117W        W51917   5.723   6.470  35.852 -0.0154 -0.0605 -0.3657
43118W        W51918   1.958   3.464  34.989 -0.2961  0.1850 -0.0200
43119W        W51919  13.011   5.247   4.156 -0.1529 -0.0725 -0.0313
43120W        W51920   5.368   5.020  37.932 -0.0262  0.1180  0.1300
43121W        W51921   5.649   0.410  33.730  0.0994 -0.1070 -0.3273
43122W        W51922   5.376   3.108  32.994  0.1064 -0.2377 -0.0640
43123W        W51923  17.213   3.945  25.600  0.0936  0.0064  0.0225
43124W        W51924   1.521   4.214  25.735  0.1773 -0.0684  0.1592
43125W        W51925   6.599   4.545  34.064 -0.0289  0.0820 -0.0449
43126W        W51926  15.904   2.075  34.496 -0.0062  0.0723  0.0433
43127W        W51927   5.522   2.741  32.641 -0.0022 -0.1607  0.0728
43128W        W51928   3.680   3.301  18.537  0.0359 -0.0396 -0.0249
43129W        W51929  16.368   1.187  31.400 -0.3568  0.3424  0.0934
43130W        W51930   8.796   4.861   1.008  0.0369  0.1586 -0.0421
43131W        W51931  17.023   5.955  30.824  0.1959 -0.0740  0.0747
43132W        W51932  18.342   5.276  41.677 -0.0056 -0.0879 -0.0491
43133W        W51933   0.857   4.035  31.260  0.0164  0.0331  0.0898
43134W        W51934  20.588   3.613  29.913  0.3234  0.0722  0.2164
43135W        W51935  11.948   0.017  15.966  0.2771 -0.1389 -0.1551
43136W        W51936   0.578   3.408   1.462  0.1604  0.0655 -0.1291
43137W        W51937  10.115   5.278  38.068 -0.2963 -0.1550 -0.2331
43138W        W51938  19.637   4.798  40.756 -0.1012  0.0995  0.0427
43139W        W51939   5.672   5.091  44.421 -0.0595 -0.2639 -0.0752
43140W        W51940  12.482   5.149  19.380  0.0968 -0.1109  0.1188
43141W        W51941   4.972   1.348  32.090  0.2214  0.3581 -0.1438
43142W        W51942   5.677   0.093  40.836  0.0787  0.0069 -0.0485
43143W        W51943  11.523   5.258  28.398  0.1831  0.0711 -0.0950
43144W        W51944   4.904   3.379  44.489 -0.1057  0.0145 -0.0863
43145W        W51945   0.828   2.014  32.430 -0.0623 -0.0961 -0.1803
43146W        W51946  17.833   1.370  12.194 -0.2806 -0.2187  0.0005
43147W        W51947  10.466   6.186  33.613  0.1261 -0.1446 -0.0556
43148W        W51948   6.909   1.116  36.273  0.0783  0.0595  0.1959
43149W        W51949   7.923   1.210  14.182 -0.1353 -0.2531  0.0214
43150W        W51950  13.279   1.576   0.025 -0.0303  0.1806 -0.1051
43151W        W51951  10.694   5.142   3.666  0.2192 -0.1466 -0.1865
43152W        W51952  17.193   4.329  35.416  0.4130 -0.2156  0.2049
43153W        W51953   5.384   6.470  11.149 -0.0268  0.2634  0.0188
43154W        W51954  17.825   1.545  25.395 -0.0652  0.0731  0.3233
43155W        W51955  13.165   3.097  12.881  0.1297 -0.1742  0.0762
43156W        W51956   4.170   2.190   0.847 -0.0106 -0.0387 -0.1545
43157W        W51957  19.304   0.838  27.684  0.1266 -0.0649 -0.1540
43158W        W51958   7.491   2.793  44.216 -0.2973 -0.2992 -0.0477
43159W        W51959  18.781   2.359  12.200 -0.1542 -0.0005 -0.0784
43160W        W51960  15.739   2.593  38.094 -0.1196  0.0200  0.0315
43161W        W51961  14.369   3.627  13.187 -0.0167  0.2222  0.0601
43162W        W51962   0.459   1.217   2.596  0.1489  0.0710 -0.1211
43163W        W51963   4.996   2.947   7.948  0.3064  0.3513  0.3536
43164W        W51964  14.615   4.121  27.193 -0.4156  0.0281  0.0472
43165W        W51965   1.611   0.021  13.449  0.1103 -0.1301 -0.1207
43166W        W51966  19.732   0.874  21.994  0.2130 -0.0129 -0.1177
43167W        W51967  18.918   5.471  44.796 -0.0665 -0.1323  0.0879
43168W        W51968   2.905   0.284  26.523 -0.0399 -0.0896 -0.0541
43169W        W51969   2.362   1.704  11.823  0.0803 -0.0350  0.0322
43170W        W51970   5.277   5.762  36.144  0.0121  0.2310  0.0532
43171W        W51971  17.945   5.788  31.014 -0.0307  0.0645  0.2766
43172W        W51972  15.029   3.472  32.730  0.0032  0.3840  0.1399
43173W        W51973  15.074   5.117  15.232 -0.2095 -0.2341 -0.0499
43174W        W51974  14.481   4.984  38.355 -0.2487  0.1051 -0.0463
43175W        W51975  12.458   2.647  11.506 -0.2036 -0.1905  0.0359
43176W        W51976  19.056   3.776   7.912 -0.1492  0.0616 -0.0559
43177W        W51977  13.970   2.867  13.532  0.0099  0.1214  0.0282
43178W        W51978  16.808   4.530  14.847  0.0007 -0.0145  0.1418
43179W        W51979  13.972   5.706  14.331 -0.1840  0.1106 -0.1447
43180W        W51980   5.153   0.218  40.681  0.0057 -0.1785 -0.0928
43181W        W51981  12.185   1.385  35.645  0.2171  0.0598  0.0445
43182W        W51982   2.696   1.304  39.096 -0.1093  0.2673 -0.1837
43183W        W51983   6.698   0.443   6.951 -0.1778 -0.4597  0.0796
43184W        W51984  10.202   4.024  15.114  0.2417  0.1163  0.0751
43185W        W51985   0.333   3.465  12.958  0.2472  0.1911  0.1246
43186W        W51986  13.816   6.518  36.008  0.2240 -0.2018  0.2583
43187W        W51987   6.325   2.768  39.047  0.1107  0.0164 -0.3061
43188W        W51988   6.923   0.883  10.124  0.1185 -0.0755 -0.1348
43189W        W51989  11.070   0.965  32.798 -0.1147 -0.0563 -0.0461
43190W        W51990  17.583   1.693   3.167  0.2743  0.1481  0.1772
43191W        W51991  13.632   5.109  35.574 -0.3433  0.0857  0.1283
43192W        W51992  20.126   1.921  12.910 -0.0108 -0.0658  0.0803
43193W        W51993   3.230   3.804  17.340 -0.0325  0.1305  0.0669
43194W        W51994  19.505   4.018  36.113  0.1763 -0.0452 -0.2762
43195W        W51995  16.656   2.515   6.324 -0.0873 -0.5627  0.1329
43196W        W51996  19.058   4.450  39.956 -0.0066 -0.1353  0.3832
43197W        W51997  11.974   3.309  18.610 -0.2255 -0.1975 -0.1827
43198W        W51998  13.616   3.838  12.578  0.0423 -0.0828 -0.2223
43199W        W51999   8.479   0.035   9.751  0.0069 -0.1152  0.0184
43200W        W52000  10.274   4.638  23.511 -0.0564  0.1151 -0.1834
43201W        W52001  14.369   1.500   5.756  0.1692 -0.0121 -0.0915
43202W        W52002  12.296   4.891  36.786 -0.0241 -0.0603 -0.0484
43203W        W52003   3.338   4.427  34.255 -0.0229 -0.1163  0.2223
43204W        W52004  19.193   3.049  14.865 -0.2540 -0.0565  0.1357
43205W        W52005  20.748   2.691  40.726  0.1256 -0.1410  0.2828
43206W        W52006   9.351   1.588  13.373 -0.0443  0.1978  0.1264
43207W        W52007  12.609   4.297  20.898  0.1176 -0.0789  0.2204
43208W        W52008  16.113   1.410  36.909 -0.1498 -0.0438 -0.1431
43209W        W52009   0.961   5.789  44.619  0.0284  0.0131  0.0481
43210W        W52010  13.693   1.311  28.624  0.0650 -0.3374 -0.1238
43211W        W52011   9.733   4.348  10.516 -0.2159  0.0265 -0.1535
43212W        W52012   1.881   0.880  16.625  0.2691  0.1008  0.1631
43213W        W52013  19.772   6.109  44.296  0.2061 -0.1717  0.0935
43214W        W52014   9.275   5.133  37.960  0.2400  0.2445  0.0115
43215W        W52015  18.326   6.323  41.368  0.0318  0.2181 -0.0706
43216W        W52016  16.536   5.920   2.067  0.1364 -0.0088  0.1977
43217W        W52017  20.709   0.862   8.162  0.0639 -0.3750 -0.2090
43218W        W52018   7.521   1.848   6.261 -0.3886  0.0654 -0.2034
43219W        W52019   6.990   5.275   9.450 -0.2968  0.3635 -0.0644
43220W        W52020  17.478   2.536   7.103 -0.2437  0.0337 -0.1448
43221W        W52021   5.782   1.565   3.452  0.0366  0.0710  0.2289
43222W        W52022  14.574   2.903  10.209  0.0175  0.4268 -0.1304
43223W        W52023  10.487   3.663   1.902  0.1178  0.0368  0.0098
43224W        W52024  17.445   0.730   5.356 -0.1768 -0.0178  0.1830
43225W        W52025   2.308   6.544  35.784  0.0676 -0.2638  0.0047
43226W        W52026   5.620   2.017  15.953  0.1039 -0.0869  0.0644
43227W        W52027  12.035   1.151  30.787 -0.1220  0.0777  0.3118
43228W        W52028  10.966   0.582  32.176 -0.0106 -0.0719  0.1512
43229W        W52029   9.212   5.266  33.481  0.2031  0.1440 -0.1074
43230W        W52030  18.128   1.225  24.721  0.0193  0.2843 -0.0133
43231W        W52031   4.604   1.735  38.339  0.1506 -0.3911  0.1681
43232W        W52032  19.945   2.651   9.409  0.1098 -0.2621 -0.2766
43233W        W52033   1.893   5.055  15.882  0.0864 -0.3106 -0.2343
43234W        W52034  17.865   4.235   4.501 -0.2724  0.1445 -0.1190
43235W        W52035  17.588   0.055   1.544 -0.1243  0.0444 -0.0408
43236W        W52036  20.511   5.421  22.562  0.1174 -0.1947  0.1067
43237W        W52037  20.676   2.982  26.047 -0.0233 -0.1666  0.0308
43238W        W52038   3.432   3.376  11.654  0.1026  0.0561  0.0391
43239W        W52039  10.903   5.265  17.162  0.0910  0.0937  0.2061
43240W        W52040  15.481   3.130   6.362 -0.0696 -0.0585  0.2492
43241W        W52041  19.400   2.852  28.130 -0.0417 -0.2069 -0.2769
43242W        W52042   7.985   2.738   4.245 -0.3662  0.2641  0.2506
43243W        W52043  20.728   3.392   2.952  0.2534 -0.3032  0.2585
43244W        W52044  17.353   0.496  15.617 -0.0423  0.0631 -0.4802
43245W        W52045   6.795   6.055  33.084 -0.1572  0.1230 -0.1513
43246W        W52046   7.169   1.343  13.360  0.0273 -0.1107 -0.2208
43247W        W52047  14.146   6.355  43.071  0.0188 -0.0491  0.1164
43248W        W52048  11.832   6.393  13.569 -0.1180 -0.1402 -0.1882
43249W        W52049   1.581   2.232  38.143  0.0584 -0.0233 -0.1647
43250W        W52050  10.156   0.216  11.593  0.0716  0.0113  0.1544
43251W        W52051  20.309   3.590  37.180 -0.0519 -0.0790  0.1535
43252W        W52052  10.290   0.767   0.423 -0.0721  0.0214  0.4612
43253W        W52053  17.771   0.637  43.303  0.1713  0.0014 -0.0678
43254W        W52054  14.276   4.558  37.030 -0.0369  0.0873 -0.0698
43255W        W52055  11.057   3.511   5.745 -0.2793 -0.1236 -0.1263
43256W        W52056   0.152   2.341   9.305 -0.0627  0.2845  0.2721
43257W        W52057  12.906   1.391  41.538 -0.4224  0.0986  0.1546
43258W        W52058   0.503   2.202   3.678 -0.4277 -0.0507 -0.3193
43259W        W52059  12.536   1.550  42.658  0.0525 -0.0141  0.5236
43260W        W52060  17.680   1.934   4.120 -0.0961  0.1459 -0.0650
43261W        W52061  18.410   5.803   0.617  0.1032 -0.2034  0.1468
43262W        W52062   6.246   4.708   4.224  0.2421  0.0866 -0.0487
43263W        W52063  15.875   4.040  14.815 -0.2391  0.0876  0.2251
43264W        W52064   6.649   0.140  14.358 -0.0269 -0.1470 -0.1258
43265W        W52065   7.627   1.092   0.317 -0.2239  0.1938 -0.0566
43266W        W52066  11.618   4.101  42.059 -0.1993  0.5201  0.4306
43267W        W52067   3.882   5.686  12.658 -0.1865  0.1223 -0.2058
43268W        W52068  18.390   2.528  35.955 -0.0530 -0.3724  0.1731
43269W        W52069  19.151   4.568   8.858 -0.0535 -0.0385  0.2296
43270W        W52070  19.617   4.435  29.280  0.3492 -0.0483  0.0046
43271W        W52071   0.352   1.037  40.315  0.0625  0.0797 -0.1743
43272W        W52072  19.154   1.034  30.635 -0.4169  0.1246 -0.0461
43273W        W52073  20.487   6.196   8.502 -0.1662 -0.2776  0.0379
43274W        W52074   5.518   5.201  12.278  0.2048  0.0595  0.4613
43275W        W52075   9.112   4.563  18.338  0.4148 -0.2465  0.1489
43276W        W52076   5.953   2.298  28.444 -0.0485  0.2486  0.0777
43277W        W52077   3.935   5.866   0.617 -0.0810  0.1063  0.0050
43278W        W52078  20.269   6.182  38.179  0.0321  0.1231 -0.2266
43279W        W52079  10.555   2.142  42.733 -0.1381 -0.1261 -0.1652
43280W        W52080   3.483   3.182  30.287  0.0434 -0.1661 -0.0330
43281W        W52081  17.302   0.955  23.622  0.0207 -0.3298  0.1454
43282W        W52082  20.223   4.312  26.768  0.0467 -0.0447 -0.0353
43283W        W52083  17.074   6.368   1.635 -0.2481 -0.0179  0.3723
43284W        W52084   9.656   0.608  31.513  0.0732 -0.0171 -0.1393
43285W        W52085  15.583   4.887  33.985  0.2028 -0.0516 -0.0508
43286W        W52086  12.013   1.294  28.987 -0.2767  0.0597  0.4279
43287W        W52087  12.433   2.486  27.691  0.2128  0.0838  0.3075
43288W        W52088   3.427   3.868  29.469 -0.0946  0.0113  0.0239
43289W        W52089   6.121   6.552  42.928  0.1857  0.0060 -0.1373
43290W        W52090   1.051   0.566   8.504 -0.1312 -0.0593  0.1839
43291W        W52091   3.054   4.436  13.867 -0.0214  0.0625 -0.0165
43292W        W52092   3.588   2.576   0.032  0.0925 -0.0177 -0.0539
43293W        W52093   8.692   4.668  17.518 -0.0733 -0.1883  0.3674
43294W        W52094   8.311   5.840   0.113 -0.2422  0.0775 -0.0058
43295W        W52095  17.289   1.739   0.392 -0.2310  0.1405  0.1407
43296W        W52096  10.224   3.168  37.515  0.1078  0.0008 -0.2818
43297W        W52097   3.094   6.518  43.597 -0.0861  0.2594 -0.0882
43298W        W52098  18.776   1.185  33.396 -0.1015 -0.1204 -0.1116
43299W        W52099   1.263   5.057  43.904  0.3699 -0.2689  0.2681
43300W        W52100   0.788   2.611  42.315  0.0019  0.0109 -0.2779
43301W        W52101  17.594   2.612  33.352  0.3855  0.2592  0.0900
43302W        W52102   1.629   2.696  27.218 -0.0253  0.4210 -0.1774
43303W        W52103  12.545   5.947  39.604  0.0628 -0.1013  0.1742
43304W        W52104  12.248   6.176   2.513 -0.0715  0.5349 -0.0649
43305W        W52105  12.910   2.158   0.944  0.1255 -0.3995  0.0081
43306W        W52106  18.764   5.074   9.143  0.1228  0.3287  0.1285
43307W        W52107   8.761   5.113  43.708  0.0618 -0.0403 -0.1334
43308W        W52108   3.485   1.233  36.901  0.0181  0.2338 -0.0656
43309W        W52109   7.014   0.174   4.775 -0.0017 -0.1231  0.0301
43310W        W52110   9.397   0.529   7.941 -0.0135 -0.0347 -0.0419
43311W        W52111  13.131   5.399  35.655  0.0834  0.1329 -0.0220
43312W        W52112   5.478   2.675  13.913 -0.1203 -0.2084 -0.1271
43313W        W52113  19.662   3.798  34.805 -0.0524 -0.0074 -0.0637
43314W        W52114   2.235   3.207  39.364 -0.1436  0.2092  0.0367
43315W        W52115   4.943   4.862  39.144  0.0079 -0.0607 -0.1122
43316W        W52116   5.544   0.787   1.157  0.0964  0.2082  0.0812
43317W        W52117  10.458   0.662   5.810  0.1549  0.0199  0.0638
43318W        W52118   8.615   6.362  10.559 -0.0284  0.0036  0.1701
43319W        W52119   3.545   3.677  30.396  0.0301 -0.0552 -0.1343
43320W        W52120  10.854   1.787  17.714 -0.1826 -0.1935  0.0134
43321W        W52121  16.010   1.260   7.588  0.0546 -0.0011 -0.0053
43322W        W52122   5.532   2.635  40.128 -0.0872  0.2205 -0.2506
43323W        W52123  17.595   1.841   2.215 -0.1178  0.2074 -0.0572
43324W        W52124  17.211   1.614  33.527 -0.1106  0.1819  0.0828
43325W        W52125  13.768   2.249  27.142  0.0979 -0.0855  0.0541
43326W        W52126  20.828   2.615  25.738  0.0822  0.3173  0.1692
43327W        W52127   9.494   4.151   4.258 -0.2402  0.1633 -0.0384
43328W        W52128   8.417   5.548  35.490  0.0185 -0.2875 -0.0704
43329W        W52129   8.470   0.741  30.986  0.1196  0.3088 -0.1206
43330W        W52130  12.443   0.840  34.970  0.0656  0.1125 -0.1722
43331W        W52131   7.499   6.052   9.742  0.0130  0.0558 -0.0888
43332W        W52132   2.712   4.774  33.101  0.0728 -0.1441  0.2356
43333W        W52133   9.764   6.113  38.872  0.1508  0.0028 -0.0703
43334W        W52134   3.047   0.658  28.998  0.0187 -0.1028 -0.0531
43335W        W52135   1.814   2.910  40.226  0.1452 -0.1837  0.1243
43336W        W52136   1.476   2.439  12.377  0.0311 -0.0636 -0.1430
43337W        W52137  12.260   3.088   0.789 -0.1164  0.0076 -0.2335
43338W        W52138   5.054   0.850  31.852 -0.1340  0.0091  0.2037
43339W        W52139   8.431   1.844  20.687  0.3634  0.0152  0.1002
43340W        W52140  16.831   0.761  24.665 -0.1004  0.1438 -0.0287
43341W        W52141  12.848   3.904  36.080  0.2824 -0.1480  0.2246
43342W        W52142  16.038   2.115  26.890 -0.0063 -0.0987  0.0363
43343W        W52143  19.132   6.196   1.547  0.0727 -0.2008 -0.1670
43344W        W52144   3.049   2.112  44.048 -0.5348  0.2580  0.0236
43345W        W52145   1.472   0.399  13.170 -0.0214 -0.0967  0.0100
43346W        W52146   8.202   6.352  37.336  0.0088 -0.0622 -0.0772
43347W        W52147   0.841   0.165   9.238 -0.1535  0.1309  0.2410
43348W        W52148  12.539   4.665  39.278  0.0539 -0.0082 -0.3542
43349W        W52149   7.231   4.177   3.999  0.1275 -0.0052  0.0083
43350W        W52150  12.393   0.481  38.336 -0.0401 -0.1749 -0.1824
43351W        W52151  11.632   5.820  39.234  0.2977  0.1797  0.1114
43352W        W52152   1.177   0.527  42.011 -0.0863  0.0365 -0.0582
43353W        W52153  14.718   3.426   0.243 -0.1173  0.0103 -0.3855
43354W        W52154  13.323   3.371   0.618  0.3002 -0.0606 -0.3170
43355W        W52155  11.481   1.376  39.559 -0.4061 -0.0765 -0.2689
43356W        W52156   9.347   4.225  25.004 -0.1387 -0.0428 -0.1637
43357W        W52157  17.474   0.408  35.742 -0.1333  0.0938 -0.2591
43358W        W52158  18.414   2.676  29.187 -0.0349  0.0404 -0.0003
43359W        W52159  19.547   4.196  12.741 -0.0372  0.0036  0.1944
43360W        W52160  18.165   6.568  23.948  0.2401  0.0459  0.3735
43361W        W52161  14.894   4.050  40.827  0.1440 -0.0545  0.1145
43362W        W52162  11.586   0.342  34.707  0.0034 -0.1144  0.0694
43363W        W52163  20.525   1.904  12.568 -0.1336 -0.0121  0.0923
43364W        W52164  14.929   2.396  14.154  0.0827  0.2433 -0.3293
43365W        W52165   1.104   5.126  32.553 -0.0090  0.3001  0.0033
43366W        W52166  19.637   2.153  36.587  0.2354 -0.2141 -0.2106
43367W        W52167   5.843   4.769  32.852  0.1550  0.0772  0.3425
43368W        W52168   4.814   0.972  28.147 -0.0464 -0.0360  0.0234
43369W        W52169  19.920   1.982  27.475  0.0239  0.0070 -0.2451
43370W        W52170  12.442   4.750  18.370 -0.2866  0.0192 -0.2002
43371W        W52171  17.636   6.467  11.882 -0.0566  0.0843 -0.3263
43372W        W52172  18.243   4.673  32.282  0.0029  0.0388  0.2085
43373W        W52173  10.016   3.982   1.117  0.0786  0.2338 -0.1541
43374W        W52174   2.544   4.007  28.834 -0.4372 -0.2755 -0.1082
43375W        W52175  12.772   4.979  36.957 -0.0968 -0.0970 -0.0312
43376W        W52176  20.860   0.617  26.777  0.2468  0.1378 -0.0211
43377W        W52177  15.662   5.804  27.735 -0.1855  0.0633  0.0669
43378W        W52178  10.040   2.086  14.577 -0.0313 -0.1214 -0.2507
43379W        W52179   0.663   0.786  25.806 -0.0238  0.0155 -0.0982
43380W        W52180   5.019   4.250   4.977  0.3229 -0.0665 -0.1106
43381W        W52181   5.955   1.541  16.874 -0.1511  0.2148  0.3679
43382W        W52182   4.656   1.310  42.312  0.2399  0.1625  0.3800
43383W        W52183  13.612   6.197  36.916  0.2141  0.2383  0.1412
43384W        W52184   2.347   3.402  33.929  0.2045 -0.1058  0.1675
43385W        W52185  19.700   3.744  11.212 -0.0305  0.0117 -0.1147
43386W        W52186   7.983   4.014   4.829  0.1191  0.2140 -0.0115
43387W        W52187  18.804   1.115  42.474  0.0705 -0.1956 -0.1646
43388W        W52188   8.388   6.354   0.329  0.0704  0.0515  0.1393
43389W        W52189  14.096   4.907  17.308 -0.2585  0.0074 -0.0005
43390W        W52190   8.767   0.431  14.990 -0.0442 -0.1025  0.2160
43391W        W52191  13.617   2.519   1.992  0.1813 -0.2732  0.0189
43392W        W52192   3.922   0.800  14.657  0.1852 -0.0034  0.0191
43393W        W52193   4.012   4.800   9.476 -0.3315  0.2423 -0.1060
43394W        W52194   8.129   6.257  41.625 -0.2388 -0.0072 -0.1637
43395W        W52195   3.906   0.742  11.114  0.0634  0.0449  0.1735
43396W        W52196   0.628   1.346  26.610 -0.1199 -0.0655  0.1534
43397W        W52197   0.891   4.544  43.970  0.3304 -0.0925  0.1701
43398W        W52198   5.403   0.771  19.738 -0.0671  0.1850 -0.2040
43399W        W52199   7.484   2.507  43.696 -0.1699 -0.0339 -0.3829
43400W        W52200  19.579   4.556   4.884  0.2716 -0.2470  0.4409
43401W        W52201   4.361   3.111  39.442 -0.0246  0.1152  0.1383
43402W        W52202  17.896   5.903  40.932 -0.2525 -0.1534  0.1647
43403W        W52203  20.311   0.620  23.325  0.0579  0.1748 -0.1975
43404W        W52204  15.992   5.027  33.801 -0.2708 -0.1322  0.3021
43405W        W52205  16.438   2.925  31.971  0.0869  0.0777  0.2077
43406W        W52206  13.769   2.667  32.626  0.3176 -0.1054  0.0085
43407W        W52207  14.824   0.851   5.866  0.1878 -0.3332  0.3468
43408W        W52208  10.029   1.488  13.934 -0.0191 -0.0802  0.1156
43409W        W52209  17.111   3.751   5.936  0.1641  0.1424 -0.1007
43410W        W52210  10.361   0.288   2.822 -0.0283  0.0090 -0.1453
43411W        W52211  10.536   2.252  13.632  0.0759 -0.2482  0.2139
43412W        W52212   7.996   5.330  38.053 -0.0442  0.2992  0.3288
43413W        W52213  16.248   2.560  38.782  0.0179 -0.4403 -0.1759
43414W        W52214  19.232   4.294  44.769  0.0773 -0.0502 -0.0313
43415W        W52215   9.027   4.541  12.390  0.3454 -0.0956  0.0590
43416W        W52216  11.271   2.917  42.828 -0.1238  0.1844 -0.1088
43417W        W52217  12.564   2.093  12.586  0.1511  0.0775 -0.1757
43418W        W52218  17.469   5.586  29.534  0.2198 -0.1054 -0.1044
43419W        W52219   2.371   2.960   8.177  0.1746  0.0894 -0.1189
43420W        W52220  17.176   5.964   2.744 -0.1400 -0.0884  0.0295
43421W        W52221   3.413   3.288   1.121  0.1382 -0.1011 -0.0031
43422W        W52222  10.428   0.295  39.564 -0.0633  0.1275 -0.1237
43423W        W52223   6.008   3.192  39.035 -0.2555  0.1709  0.1536
43424W        W52224   0.796   5.663   3.766 -0.0259  0.3447 -0.0859
43425W        W52225  14.227   4.546  38.501 -0.1251 -0.0037  0.0340
43426W        W52226   3.942   6.371  16.160  0.2133  0.0886 -0.0130
43427W        W52227  14.653   1.717  14.267 -0.0351 -0.1228 -0.1532
43428W        W52228  11.444   4.885   7.542 -0.0892  0.1481 -0.0962
43429W        W52229  14.539   0.694   3.684 -0.0144 -0.1467 -0.0308
43430W        W52230  16.227   6.435  34.944 -0.0870 -0.0396 -0.1971
43431W        W52231   0.625   5.311  14.742 -0.0420 -0.1456  0.0704
43432W        W52232  17.675   0.983   1.138 -0.3111  0.1674 -0.0577
43433W        W52233  11.819   4.698   0.925 -0.0155 -0.1980  0.2709
43434W        W52234  14.135   5.721   7.560 -0.2280 -0.1238 -0.3037
43435W        W52235  16.944   2.108  10.990  0.2411  0.2323 -0.1747
43436W        W52236   6.013   4.014  15.078 -0.1382  0.2141 -0.2375
43437W        W52237   6.169   1.421   8.557  0.2057  0.2546  0.2814
43438W        W52238  12.908   4.797  31.916  0.0532 -0.1336  0.2063
43439W        W52239   4.795   6.207  41.281  0.1346 -0.0770 -0.5018
43440W        W52240   6.669   5.676   2.202  0.1153 -0.0216 -0.1927
43441W        W52241   9.463   0.757   9.945  0.0394 -0.0689  0.1206
43442W        W52242  15.462   4.418   3.452  0.1766  0.1128  0.0655
43443W        W52243   3.666   2.493   7.702 -0.3023  0.1785 -0.2486
43444W        W52244   1.853   4.221  39.828 -0.0672  0.1449  0.2396
43445W        W52245   8.999   0.310  36.687 -0.5053 -0.2230 -0.0889
43446W        W52246   4.235   6.066  38.072  0.0062  0.0601 -0.2388
43447W        W52247  11.529   4.978   8.850 -0.1540  0.1335 -0.1185
43448W        W52248   8.621   3.770  39.221  0.0162  0.0679 -0.3371
43449W        W52249   8.831   4.675  30.211  0.0068 -0.0233 -0.1135
43450W        W52250   2.040   3.387   3.407  0.1340  0.0671 -0.1577
43451W        W52251   0.759   5.165  43.794  0.2603 -0.0017  0.0866
43452W        W52252  20.985   0.498   8.344 -0.0240  0.2209 -0.0315
43453W        W52253   5.206   1.686  29.173  0.0375 -0.3048 -0.1425
43454W        W52254  20.406   3.661  13.515 -0.1590  0.0299  0.1710
43455W        W52255   7.826   0.244  32.517  0.1531  0.0622  0.0285
43456W        W52256   9.558   3.403  14.549  0.0407  0.1344  0.0123
43457W        W52257  17.719   0.756  29.555  0.1443  0.1601 -0.1564
43458W        W52258  13.841   6.540  35.516  0.2455  0.0724 -0.2542
43459W        W52259  13.268   0.293   7.569  0.0144 -0.3107 -0.0098
43460W        W52260  16.377   2.065  42.404 -0.0171  0.2159  0.1483
43461W        W52261  11.601   3.004   9.103 -0.0007 -0.0270 -0.2392
43462W        W52262  15.888   3.342   4.060 -0.1416 -0.0624  0.1665
43463W        W52263   6.703   2.460  39.319 -0.1128 -0.1635  0.0494
43464W        W52264   0.702   6.512  45.069  0.1040  0.0584  0.0575
43465W        W52265  20.170   4.649  22.118  0.1853 -0.2300 -0.1423
43466W        W52266   5.980   0.876  40.910 -0.2418  0.1516  0.3561
43467W        W52267   7.102   6.069  15.257 -0.0997  0.1874 -0.3101
43468W        W52268  19.575   5.339  27.467 -0.0213 -0.1958  0.0724
43469W        W52269   3.134   5.271  11.809 -0.1037  0.0574  0.1663
43470W        W52270   4.493   2.745  10.986 -0.0378 -0.1911  0.0611
43471W        W52271   4.111   2.619  43.384 -0.2813  0.0103 -0.0107
43472W        W52272   7.204   2.895   2.071 -0.0525  0.0337  0.3772
43473W        W52273   6.925   4.814  43.366 -0.0465 -0.1076  0.0699
43474W        W52274   0.379   3.959  11.620 -0.0900 -0.3708 -0.0207
43475W        W52275  10.478   5.834  42.978  0.0175 -0.2678  0.2455
43476W        W52276  16.470   6.191  14.120 -0.1552  0.2645 -0.0560
43477W        W52277  15.922   1.617  14.250  0.2853 -0.0179 -0.0980
43478W        W52278   4.272   3.640   8.174 -0.2579 -0.1517 -0.0684
43479W        W52279  19.978   2.288  15.979 -0.1416  0.0381  0.0086
43480W        W52280   3.230   0.184  10.888 -0.0950  0.2309  0.0265
43481W        W52281  20.257   2.120  33.464 -0.0134 -0.2205 -0.2091
43482W        W52282   3.433   5.233  15.238  0.4344  0.1128 -0.0663
43483W        W52283   6.082   0.776  18.171 -0.0197  0.2796  0.1330
43484W        W52284   5.578   0.285  11.313 -0.0203  0.0436  0.3126
43485W        W52285  16.801   4.879  12.672 -0.1630 -0.2549  0.0356
43486W        W52286  11.229   0.517  38.888 -0.0613  0.0497  0.1304
43487W        W52287   8.085   3.804   1.027  0.2807 -0.1797  0.2218
43488W        W52288   2.870   2.160   7.204  0.1387  0.0326  0.3999
43489W        W52289  10.748   1.399   7.110 -0.0881  0.0362 -0.2014
43490W        W52290   7.207   4.889  34.534 -0.0469  0.0046  0.1648
43491W        W52291   3.533   2.343  16.345  0.2660  0.0310  0.0434
43492W        W52292  20.799   4.257   7.523 -0.1787  0.0973  0.1095
43493W        W52293   3.744   0.223  32.132 -0.2622  0.0514 -0.4707
43494W        W52294  16.288   5.264  43.915  0.1945  0.0046 -0.0265
43495W        W52295  19.376   1.962  33.240 -0.1557  0.2029  0.2468
43496W        W52296  12.390   3.163   2.908 -0.0644  0.2092  0.3577
43497W        W52297   2.320   2.072  39.255 -0.1591  0.1246  0.1508
43498W        W52298  15.008   6.224  33.562  0.0010  0.0774 -0.0964
43499W        W52299   2.270   5.855  12.320  0.1206 -0.3419  0.3278
43500W        W52300   6.157   3.837  14.591 -0.2072 -0.2132  0.1092
43501W        W52301   4.118   4.417   8.453 -0.0877  0.0753 -0.1375
43502W        W52302  17.493   0.780  13.463 -0.1909  0.2099 -0.0330
43503W        W52303  11.899   1.410  21.150  0.0140 -0.2376  0.0012
43504W        W52304  11.803   4.582  31.195  0.0749 -0.4183  0.0794
43505W        W52305  18.464   5.498  13.150 -0.2515 -0.1503 -0.0046
43506W        W52306  10.348   3.045  41.698  0.1533 -0.0036 -0.0841
43507W        W52307   7.873   1.664  17.729  0.3033 -0.2377  0.0682
43508W        W52308  14.672   1.236  41.656  0.1842 -0.2644 -0.2582
43509W        W52309  12.502   3.450   3.906 -0.1561 -0.1290 -0.0213
43510W        W52310   8.307   0.503  41.214 -0.1483  0.2890  0.1624
43511W        W52311   1.128   0.987  43.042  0.0637 -0.0030  0.1176
43512W        W52312  10.407   3.130  40.408 -0.1783 -0.1149  0.2053
43513W        W52313   8.436   4.838  22.988 -0.2179  0.4728  0.0089
43514W        W52314  12.093   5.898  21.092  0.1634  0.1197  0.0413
43515W        W52315   6.031   2.105   0.051 -0.0852  0.0570  0.2043
43516W        W52316   8.037   0.509  35.204 -0.0850 -0.4724 -0.3623
43517W        W52317   4.480   4.859  10.243 -0.1461  0.0690  0.2080
43518W        W52318  18.347   5.253   7.150  0.1114 -0.4746 -0.1329
43519W        W52319   8.512   1.230  41.262 -0.2329  0.0222 -0.2107
43520W        W52320   9.966   4.760   0.858 -0.0827 -0.0361 -0.1213
43521W        W52321   1.163   1.792  32.728  0.1125 -0.2008 -0.1887
43522W        W52322  12.588   4.874   7.281  0.1484 -0.0553 -0.2722
43523W        W52323   3.076   4.441  33.140  0.0739 -0.0391 -0.0938
43524W        W52324  13.237   3.550  31.662 -0.0853  0.0589  0.1690
43525W        W52325   9.111   2.139  31.032 -0.0969 -0.0695  0.3248
43526W        W52326  20.743   4.660  10.569 -0.1798 -0.1703  0.1653
43527W        W52327  12.419   2.990  31.890 -0.0827 -0.0594  0.3760
43528W        W52328  18.010   6.594   2.787  0.1341  0.1178  0.2690
43529W        W52329  11.062   0.598  44.357 -0.0122 -0.0351  0.0019
43530W        W52330  12.864   5.010  18.579  0.3643  0.1190  0.0518
43531W        W52331   9.793   1.329  21.440  0.0918 -0.0456  0.4234
43532W        W52332  18.041   2.734  33.576  0.1930  0.0129  0.1039
43533W        W52333  11.520   2.585   5.284  0.0970  0.1523  0.2202
43534W        W52334  19.748   2.671  30.208 -0.0846  0.0585  0.0053
43535W        W52335  19.724   1.870  34.703  0.0625  0.0773 -0.1716
43536W        W52336  17.292   6.504  35.025 -0.1645 -0.0008  0.1533
43537W        W52337   3.111   5.884  40.746  0.0194 -0.2521  0.1326
43538W        W52338   9.680   1.950  44.483 -0.0121 -0.1072 -0.0438
43539W        W52339  17.131   4.701   8.231 -0.1984 -0.1015 -0.1202
43540W        W52340   0.918   2.805  36.674 -0.0006 -0.2524 -0.0373
43541W        W52341   9.982   1.001  41.142  0.0080  0.1123  0.2338
43542W        W52342  10.226   4.377  40.137  0.1550 -0.0125  0.0372
43543W        W52343  11.014   2.112  13.538 -0.3573  0.0030  0.0743
43544W        W52344   9.688   5.054  28.872  0.1140  0.1781  0.1700
43545W        W52345   6.230   0.362  44.697 -0.1669  0.0657 -0.1268
43546W        W52346  15.774   3.757  13.049  0.1810  0.2545  0.0734
43547W        W52347  12.615   1.676  12.912  0.0653  0.1145 -0.0827
43548W        W52348   6.024   4.131  31.273  0.0080 -0.2295  0.2689
43549W        W52349  17.728   3.914  16.115 -0.1409  0.2215  0.0622
43550W        W52350   9.814   6.016  24.706 -0.1219 -0.3702 -0.0243
43551W        W52351   8.723   4.502   5.362  0.3844  0.1116  0.0099
43552W        W52352  15.038   1.516   1.503 -0.3167 -0.1397  0.2590
43553W        W52353   9.725   6.155  11.066 -0.2596 -0.3294  0.1613
43554W        W52354   6.462   2.914  15.845 -0.0040 -0.1947 -0.1247
43555W        W52355   3.215   5.723  39.916 -0.2625  0.0007 -0.2003
43556W        W52356  20.089   3.141   4.148 -0.0387  0.0895  0.5632
43557W        W52357   0.812   3.283  22.670  0.0489 -0.1254  0.2524
43558W        W52358   0.609   2.543   6.854  0.0424  0.0276  0.2425
43559W        W52359   2.860   3.645  27.984 -0.3227  0.3388  0.1783
43560W        W52360   0.362   3.882  39.798  0.0202 -0.0366 -0.0194
43561W        W52361  12.400   2.125  29.707 -0.5922  0.1922 -0.1946
43562W        W52362  12.066   2.856  20.381  0.0068 -0.1519 -0.1953
43563W        W52363  17.178   2.090  32.462  0.1017 -0.3067  0.0994
43564W        W52364   7.413   4.660  43.464 -0.4780 -0.0575  0.1216
43565W        W52365   0.410   4.066  40.773  0.2191 -0.1486  0.0019
43566W        W52366  16.141   0.384   2.904 -0.1162 -0.3022  0.0533
43567W        W52367   2.037   5.481  12.641 -0.0261  0.0920 -0.0387
43568W        W52368  20.507   5.304   8.196 -0.3031  0.0395  0.2061
43569W        W52369  11.323   3.503  16.463 -0.1689  0.0655 -0.0910
43570W        W52370  19.196   4.819  22.133  0.1053 -0.1071 -0.2297
43571W        W52371   0.697   3.610   3.618 -0.0816  0.0288 -0.1584
43572W        W52372  14.723   0.852  35.453 -0.1749 -0.0817  0.3176
43573W        W52373  10.564   4.549  29.965 -0.1455 -0.0844 -0.0501
43574W        W52374  15.302   2.497   6.507  0.0164  0.0154  0.1218
43575W        W52375  11.494   3.542  19.932  0.0723 -0.0660 -0.0540
43576W        W52376  12.666   4.509  16.751 -0.2525  0.3855  0.0461
43577W        W52377  10.492   5.169  33.309 -0.1187 -0.2476 -0.3119
43578W        W52378   2.023   0.428   4.922  0.1737  0.1070  0.2367
43579W        W52379  19.961   5.034  23.179 -0.2829 -0.0662  0.1160
43580W        W52380  20.455   5.279  42.600  0.0480 -0.1124 -0.1619
43581W        W52381  13.685   4.070  44.218  0.2037  0.0490 -0.2451
43582W        W52382   4.206   5.120  34.418 -0.0637  0.0779 -0.1192
43583W        W52383   6.744   4.799  11.339 -0.2188  0.0326  0.3625
43584W        W52384   3.205   2.243  40.128  0.0801  0.0979 -0.0353
43585W        W52385  10.251   5.195  44.216 -0.2016  0.1565  0.1208
43586W        W52386   6.713   0.666  10.588  0.2075 -0.1156  0.0148
43587W        W52387   5.073   1.887  42.145 -0.2315 -0.1505  0.1707
43588W        W52388  19.623   6.558  40.303 -0.0081 -0.1417 -0.1671
43589W        W52389  18.470   5.231  23.000 -0.0041 -0.3220  0.0299
43590W        W52390  21.135   3.026  34.566 -0.1401 -0.2747 -0.3604
43591W        W52391   2.277   2.764  30.698  0.2411 -0.0928  0.0541
43592W        W52392  12.299   1.610  36.862 -0.1971  0.1418 -0.1652
43593W        W52393   9.971   1.729   7.768 -0.1702  0.1119  0.0427
43594W        W52394   3.719   0.836  26.013  0.1896  0.2928 -0.3266
43595W        W52395   0.750   3.270  39.241 -0.2611  0.0579 -0.0297
43596W        W52396  10.842   5.341  20.019  0.0803  0.1047 -0.1693
43597W        W52397  10.850   5.725  18.682 -0.0194  0.3231  0.1236
43598W        W52398   5.130   4.033  39.195  0.0183  0.3430  0.2659
43599W        W52399  17.609   1.281   6.967  0.1079 -0.1433 -0.2323
43600W        W52400  11.666   6.543  41.541 -0.0571  0.0342  0.2439
43601W        W52401  18.544   2.314   0.471  0.0149 -0.1399  0.2813
43602W        W52402  18.282   5.626  28.837  0.0714 -0.0943  0.1687
43603W        W52403  17.428   6.263  28.777  0.0449 -0.1435 -0.2307
43604W        W52404   7.810   6.199  37.740 -0.0187  0.0316 -0.0234
43605W        W52405   6.474   0.842  40.045  0.3813 -0.0393 -0.1049
43606W        W52406   1.930   5.221   9.313 -0.1601  0.3317 -0.1711
43607W        W52407  12.070   0.173   2.411  0.1395  0.0309  0.1962
43608W        W52408  16.039   5.462  27.976 -0.2517 -0.0667 -0.3522
43609W        W52409   4.836   2.999  41.493 -0.0519  0.0741 -0.0518
43610W        W52410  18.493   2.685  12.720 -0.0488  0.1638  0.0133
43611W        W52411  16.879   0.431  28.811 -0.0954 -0.3269 -0.0701
43612W        W52412   5.108   2.843  17.762  0.0731 -0.0267  0.1523
43613W        W52413   8.891   2.217   2.858 -0.1519  0.1908  0.0097
43614W        W52414  20.084   3.683   8.582  0.1091  0.2161  0.1283
43615W        W52415  12.792   5.310  29.652 -0.2594  0.1179 -0.2148
43616W        W52416   1.418   1.476  25.710  0.0889  0.1725  0.1575
43617W        W52417  13.973   5.382   1.299  0.0549 -0.1002  0.0276
43618W        W52418  10.680   6.590  15.206  0.0756 -0.1403  0.1069
43619W        W52419   4.092   0.932  41.207  0.1456 -0.1613  0.0194
43620W        W52420   3.876   5.858  36.287 -0.1329  0.1672 -0.2404
43621W        W52421   5.534   5.848  30.140 -0.1932  0.4729 -0.0836
43622W        W52422  11.159   4.054  30.555  0.1354  0.2321 -0.1497
43623W        W52423  10.675   4.939  41.452 -0.0515 -0.1031  0.1402
43624W        W52424  20.640   2.876  32.395  0.1541 -0.0056  0.1694
43625W        W52425   4.050   3.778   3.157  0.1244 -0.0716  0.0292
43626W        W52426  12.636   5.584  13.765  0.0505  0.1397 -0.2764
43627W        W52427  19.708   0.707  36.165  0.0303  0.0200  0.1023
43628W        W52428   1.423   1.445  16.378  0.0406  0.0022  0.0668
43629W        W52429   6.283   0.887   3.020  0.1159  0.0713 -0.1736
43630W        W52430  13.603   4.364  17.930  0.3465  0.1033 -0.1105
43631W        W52431   6.627   2.768   2.156  0.1021 -0.0384  0.0875
43632W        W52432  20.500   5.319   4.669  0.1218  0.3440  0.0948
43633W        W52433   9.461   1.201  20.049 -0.0826  0.2970 -0.1987
43634W        W52434  18.026   1.564  35.141 -0.1562  0.1834 -0.4208
43635W        W52435   6.366   5.148  11.869 -0.0615 -0.0571 -0.0983
43636W        W52436   1.181   2.356   7.731 -0.3408 -0.0691  0.1938
43637W        W52437  11.634   1.513  32.345  0.1624 -0.0226 -0.0824
43638W        W52438  16.628   5.773  29.328  0.0786  0.0968 -0.1676
43639W        W52439   2.016   0.715  41.383  0.0508  0.0829 -0.1158
43640W        W52440   7.672   1.011  31.201 -0.1293  0.0187 -0.1236
43641W        W52441  15.656   0.983  34.629 -0.2017 -0.3704 -0.0797
43642W        W52442  11.369   6.054  40.644  0.0291  0.1047 -0.1713
43643W        W52443   9.914   4.308   0.274  0.0238  0.0984  0.1981
43644W        W52444  15.244   4.834   5.685 -0.2331 -0.0126  0.0309
43645W        W52445  11.675   0.455  41.360 -0.1396  0.0065  0.2386
43646W        W52446  15.201   4.068  42.738 -0.0490  0.1216  0.2146
43647W        W52447   0.057   2.951  33.940  0.1881 -0.2191  0.2678
43648W        W52448  16.114   1.197  16.023  0.0176  0.0041 -0.1289
43649W        W52449  19.560   5.408  36.685  0.0577  0.0969 -0.0460
43650W        W52450   0.434   4.983  13.889 -0.3371 -0.0746  0.2359
43651W        W52451  13.293   5.701  12.603 -0.3154 -0.2663 -0.4203
43652W        W52452  15.608   6.406  29.929  0.0413  0.0177  0.0252
43653W        W52453  19.762   5.340  25.764 -0.0236  0.0383 -0.3516
43654W        W52454   3.806   0.621  15.560 -0.0910 -0.2142 -0.1561
43655W        W52455  18.624   5.528  21.431 -0.2518 -0.2314  0.1509
43656W        W52456   8.018   5.623  19.788  0.1078  0.2456 -0.1122
43657W        W52457   0.519   0.583  12.570  0.1175 -0.0745 -0.4338
43658W        W52458   1.949   4.758   9.080 -0.0495  0.0345  0.0564
43659W        W52459   8.195   3.040   5.067  0.2807 -0.1512  0.0121
43660W        W52460  11.357   1.133  43.242 -0.3174 -0.1276 -0.0673
43661W        W52461  13.814   3.339  41.629  0.3176 -0.1399  0.1282
43662W        W52462  11.893   3.105  43.200 -0.1047 -0.1009 -0.2603
43663W        W52463  13.152   6.004  37.139 -0.2714 -0.0733  0.3067
43664W        W52464  16.596   5.083  41.515  0.1188  0.2249 -0.0051
43665W        W52465   4.164   4.163   6.836 -0.1672 -0.1042 -0.3548
43666W        W52466  17.696   1.496  31.965 -0.0980  0.1119 -0.1390
43667W        W52467  11.395   4.763  20.762  0.2643 -0.2763 -0.3662
43668W        W52468   9.756   5.470  18.282  0.1778 -0.0420  0.0005
43669W        W52469  13.487   5.427  20.328 -0.0054  0.2407 -0.1681
43670W        W52470  12.707   0.019  44.684 -0.1972  0.0432  0.1613
43671W        W52471  14.565   1.635   5.230 -0.1445 -0.1850 -0.0810
43672W        W52472   2.983   1.476   3.159 -0.3240 -0.2204 -0.1944
43673W        W52473  13.097   1.653  34.485 -0.2499  0.0113 -0.2287
43674W        W52474   8.078   2.810  23.371  0.0688  0.0109 -0.2046
43675W        W52475   4.830   1.816  41.505  0.1952  0.1623  0.0731
43676W        W52476  13.391   4.090  15.003 -0.1246  0.0204 -0.0022
43677W        W52477   6.955   4.842   9.782 -0.1395  0.1669  0.1770
43678W        W52478  18.927   4.372   2.377  0.0077 -0.0077 -0.0957
43679W        W52479  17.018   3.648   0.089  0.1779  0.0778  0.1262
43680W        W52480   6.098   0.277   8.149 -0.1856 -0.1651 -0.5463
43681W        W52481  13.436   5.902   3.087 -0.1728  0.0675 -0.0184
43682W        W52482  17.545   3.198  12.997  0.1798  0.0489  0.2357
43683W        W52483  13.565   4.587  44.286  0.0522  0.2727 -0.3502
43684W        W52484   9.961   4.195  33.793 -0.2763 -0.1694 -0.2843
43685W        W52485  14.812   3.723   5.156 -0.0164 -0.0881  0.0863
43686W        W52486   7.431   5.259  31.189 -0.2394 -0.4166 -0.2380
43687W        W52487   3.003   5.629  29.013 -0.2618 -0.0238  0.0652
43688W        W52488  19.839   0.137  42.257  0.0729 -0.3112 -0.1063
43689W        W52489   5.409   5.123  31.929 -0.0694  0.0884 -0.0701
43690W        W52490  10.509   5.880  13.706 -0.0798  0.1613  0.0649
43691W        W52491  18.142   3.599  35.004 -0.2254 -0.0205 -0.0239
43692W        W52492   8.234   0.986  16.179 -0.0165 -0.0178  0.0812
43693W        W52493  14.603   4.871   0.606  0.0536  0.0426  0.4367
43694W        W52494  16.777   5.140   7.379 -0.0237  0.0557 -0.0355
43695W        W52495   1.898   5.051  11.781 -0.2475  0.1062  0.2088
43696W        W52496  18.124   0.794  31.405 -0.2877 -0.2085  0.0977
43697W        W52497   7.117   4.977   0.120  0.1098  0.2107 -0.1027
43698W        W52498   1.223   2.562  29.972 -0.1759  0.0017  0.3415
43699W        W52499   6.106   1.804  34.388 -0.3114 -0.0641  0.1648
43700W        W52500  19.884   1.178  31.924 -0.2751 -0.1869  0.2726
43701W        W52501   4.698   3.221   5.610 -0.1025  0.1837  0.1775
43702W        W52502  17.083   1.125  14.359 -0.0664  0.0050 -0.0828
43703W        W52503   3.505   0.225  43.185  0.1434  0.0020  0.0172
43704W        W52504   8.884   6.359   6.426 -0.1040 -0.0169  0.2329
43705W        W52505   8.494   1.589   9.785  0.2626  0.0126 -0.0228
43706W        W52506   6.045   6.592   4.946  0.0290 -0.2186 -0.0116
43707W        W52507   0.957   3.771  15.794 -0.3050 -0.2975 -0.2987
43708W        W52508  16.067   6.262  32.798  0.2362  0.2373 -0.2316
43709W        W52509  14.488   2.768  11.804 -0.2189  0.3787 -0.0810
43710W        W52510   2.375   3.401  26.022  0.0989 -0.0195  0.0456
43711W        W52511  11.703   5.268  10.630  0.0159 -0.0087 -0.2140
43712W        W52512  16.317   3.526  36.398  0.2116  0.3386 -0.0504
43713W        W52513  17.876   2.848  44.899 -0.0995 -0.0313 -0.0007
43714W        W52514   1.924   4.907  36.802  0.4577 -0.1867  0.1394
43715W        W52515  16.309   3.738   7.864 -0.1956 -0.0188  0.0032
43716W        W52516   9.265   4.378   1.415  0.3260 -0.1122 -0.1356
43717W        W52517  12.299   4.571   2.292 -0.0536 -0.1090  0.3391
43718W        W52518   1.231   0.836  27.209 -0.1208  0.3340 -0.0628
43719W        W52519   6.240   3.883  40.560  0.1526  0.1084  0.1471
43720W        W52520   2.258   1.748  15.015  0.2436 -0.3525  0.1208
43721W        W52521  14.318   3.709  35.074 -0.0971  0.0675 -0.0146
43722W        W52522  15.305   4.470  43.364 -0.2645  0.0156  0.1238
43723W        W52523  17.959   0.863   7.508  0.0344 -0.0081 -0.0570
43724W        W52524  20.724   0.868  38.336  0.7584 -0.3356 -0.0651
43725W        W52525  12.341   5.011  44.604  0.0759 -0.0624  0.0626
43726W        W52526   0.525   0.282  37.222 -0.1783 -0.4056 -0.0846
43727W        W52527  15.898   0.132   5.086  0.0273 -0.1998 -0.1455
43728W        W52528  16.631   1.232  11.386  0.2637 -0.0555  0.4024
43729W        W52529   0.732   2.982  27.371 -0.1085 -0.0555  0.2416
43730W        W52530   1.261   5.932  12.193  0.0151 -0.0096  0.2297
43731W        W52531   9.089   2.869   2.096  0.2004  0.0575 -0.0749
43732W        W52532   9.689   4.713  32.895  0.0836 -0.2475  0.0207
43733W        W52533  17.487   0.648  34.505  0.1585 -0.3226 -0.5018
43734W        W52534   6.272   6.413  38.870  0.3053  0.0502  0.0968
43735W        W52535   2.026   1.057  31.726 -0.0300  0.5416 -0.0873
43736W        W52536   5.654   3.177   8.481  0.0613  0.2053  0.1802
43737W        W52537   4.957   1.300   6.537 -0.0263 -0.0739  0.2136
43738W        W52538   8.244   0.638   2.140  0.1531  0.1585  0.0046
43739W        W52539  20.345   1.953  44.709 -0.1267  0.2292  0.2341
43740W        W52540  20.359   2.757  13.034  0.0642 -0.0955 -0.1989
43741W        W52541  15.814   0.634   3.257  0.0979  0.3778 -0.0881
43742W        W52542  11.475   5.639  10.390 -0.1311 -0.4644 -0.0721
43743W        W52543   7.142   3.748  15.698 -0.0334 -0.2893 -0.0582
43744W        W52544  14.983   4.771  44.039  0.0377 -0.2551  0.1777
43745W        W52545  19.674   3.192  35.745 -0.3011 -0.0179  0.1643
43746W        W52546  12.673   0.460  37.857  0.1598 -0.4670  0.1664
43747W        W52547   0.597   6.446  40.622  0.1182  0.0435 -0.0082
43748W        W52548  12.069   4.132  38.649 -0.0517  0.2304  0.0188
43749W        W52549   6.230   1.072  22.310  0.2126 -0.0730  0.3248
43750W        W52550  19.586   2.165  31.734  0.0729 -0.2323  0.1758
43751W        W52551   6.580   1.036   6.848  0.1021 -0.0432  0.0234
43752W        W52552  19.754   0.514   9.863 -0.2951 -0.3209 -0.3021
43753W        W52553   4.258   0.058   4.944 -0.0782 -0.1799 -0.1998
43754W        W52554   5.518   2.963  30.616 -0.0803  0.0612 -0.0789
43755W        W52555   5.737   3.996  43.807 -0.1732 -0.0922  0.1493
43756W        W52556  20.142   4.851  16.059  0.1154  0.1588 -0.1648
43757W        W52557  20.754   6.205  13.928  0.0767  0.3863 -0.0920
43758W        W52558  12.915   0.399   4.621 -0.2031 -0.0651  0.2851
43759W        W52559  20.168   2.343  12.660  0.1180  0.2284  0.0143
43760W        W52560   7.167   0.577  35.601 -0.0965  0.0268 -0.1348
43761W        W52561   1.202   0.484  11.424  0.0010  0.0264 -0.0912
43762W        W52562   9.408   4.616  17.900  0.3079  0.0639  0.1098
43763W        W52563   5.243   0.629  18.523 -0.0261 -0.0118  0.1037
43764W        W52564  17.676   3.315  29.537 -0.2821  0.2018  0.1155
43765W        W52565  19.732   1.017  31.028 -0.0996  0.3163 -0.0931
43766W        W52566  10.842   4.690  14.140 -0.1602 -0.2210 -0.0134
43767W        W52567  17.759   5.056  25.001  0.2015  0.1810 -0.2341
43768W        W52568  16.753   5.275  16.067 -0.4108 -0.1783  0.1067
43769W        W52569   1.759   0.975  31.292 -0.1680 -0.1945  0.0509
43770W        W52570  17.233   2.350  33.042  0.1286  0.0908 -0.0325
43771W        W52571  15.075   1.173  36.368 -0.0012 -0.3189 -0.1648
43772W        W52572   3.340   3.649   9.067 -0.0942  0.0092 -0.1036
43773W        W52573  17.661   4.036  27.306  0.1234 -0.2201  0.0513
43774W        W52574  12.455   3.054  32.675 -0.0550 -0.1290 -0.0636
43775W        W52575  18.084   5.288  37.366 -0.0012  0.1285 -0.2648
43776W        W52576  17.967   0.790  15.687 -0.1002 -0.3379  0.1281
43777W        W52577   7.697   6.363  10.798  0.0324 -0.2881  0.1345
43778W        W52578  11.814   0.516  30.105  0.2258  0.0782 -0.2052
43779W        W52579   5.781   4.041  44.328 -0.0328 -0.0056 -0.1183
43780W        W52580   3.538   4.813  16.576 -0.1632  0.1466 -0.2164
43781W        W52581  10.593   2.317  17.705 -0.2715  0.4005 -0.1560
43782W        W52582  16.110   2.302  37.373 -0.1306  0.2499  0.0905
43783W        W52583  14.009   3.032  18.281  0.0182  0.1485  0.1419
43784W        W52584  10.942   3.512  22.257  0.0196 -0.1450 -0.3102
43785W        W52585   5.617   2.989   4.314  0.0811 -0.1604 -0.0136
43786W        W52586   9.472   4.821   7.927 -0.0970 -0.1835  0.1874
43787W        W52587   8.911   1.626  32.889 -0.3542 -0.2935  0.2710
43788W        W52588  10.658   1.797   4.599  0.0357 -0.1757  0.0549
43789W        W52589   6.562   4.516   9.772 -0.0204 -0.2172  0.2445
43790W        W52590   0.777   0.332   5.381 -0.2513  0.2181 -0.1776
43791W        W52591   0.739   5.977  33.685  0.1936 -0.3957 -0.0569
43792W        W52592  20.936   5.841   7.559 -0.4303 -0.1157  0.2910
43793W        W52593  15.211   0.370  17.545  0.0736 -0.0569  0.2461
43794W        W52594   1.868   1.373   3.744 -0.1084  0.1288  0.0508
43795W        W52595  16.707   2.992  32.412 -0.2981  0.1678  0.0886
43796W        W52596   7.491   4.724  34.927 -0.0198  0.0833 -0.0235
43797W        W52597   2.213   4.751  44.155  0.2231  0.1176  0.0107
43798W        W52598  17.549   0.772  41.493 -0.0083 -0.2154  0.0611
43799W        W52599  17.956   4.353  27.553  0.1766 -0.2141  0.0503
43800W        W52600   8.183   1.460  19.618 -0.4936  0.1321  0.3417
43801W        W52601  11.528   0.624   2.319  0.3468  0.0953  0.3095
43802W        W52602   2.877   2.820   6.465  0.0799 -0.0513  0.0376
43803W        W52603  20.142   3.301   1.223  0.0278  0.1808 -0.5480
43804W        W52604  14.895   5.212  38.197 -0.0317 -0.1841  0.0167
43805W        W52605   7.872   0.583  31.968 -0.0113  0.2332  0.0222
43806W        W52606   5.559   1.043  43.717  0.2391  0.3180  0.2048
43807W        W52607  17.994   0.890  42.450  0.0137 -0.3093 -0.1226
43808W        W52608  13.857   5.357   7.306  0.1132 -0.1591  0.0586
43809W        W52609   0.080   3.633  27.648  0.1919 -0.0299  0.0546
43810W        W52610  16.159   3.348  34.151  0.3308 -0.3110  0.0288
43811W        W52611  10.649   3.207   9.979 -0.1966 -0.2414  0.1451
43812W        W52612   1.231   0.372  13.730 -0.0018 -0.0141  0.0842
43813W        W52613  16.326   3.679  31.856 -0.2273  0.1358 -0.0176
43814W        W52614   3.758   5.915  10.244 -0.0230 -0.2987 -0.0694
43815W        W52615  18.488   2.931  22.670 -0.0463  0.1701 -0.1163
43816W        W52616   1.185   2.618   5.962  0.1213  0.0266  0.0107
43817W        W52617   3.041   2.013  35.383  0.1988  0.2920  0.0787
43818W        W52618  19.662   5.207  39.770  0.1429  0.1583  0.1580
43819W        W52619  16.141   6.495  16.644  0.0374  0.1927  0.0959
43820W        W52620   5.208   3.689   1.224  0.1318  0.0367  0.0012
43821W        W52621   7.190   1.548   7.191  0.2724  0.1030  0.1469
43822W        W52622  17.011   1.348   4.589 -0.1744 -0.0983 -0.0324
43823W        W52623   5.044   0.535   6.995  0.0864 -0.0793 -0.1814
43824W        W52624  11.357   5.701  35.994 -0.0473  0.0254 -0.2133
43825W        W52625  17.438   5.179  31.365  0.3530 -0.1712  0.1439
43826W        W52626   9.340   6.162  14.656  0.3214  0.1117 -0.1904
43827W        W52627   9.916   0.734  30.290 -0.1313 -0.5549  0.0683
43828W        W52628   5.881   0.100  12.481  0.2393 -0.1425  0.0847
43829W        W52629   9.916   2.554  42.250  0.0050 -0.1600 -0.1091
43830W        W52630  20.312   3.041   9.748 -0.2094  0.0633  0.0940
43831W        W52631   5.558   4.933  42.303  0.2659  0.1348  0.1296
43832W        W52632  19.565   0.160   5.263  0.1079  0.0658 -0.1821
43833W        W52633  13.339   3.910  17.232 -0.0828  0.3344  0.0382
43834W        W52634   8.174   3.540  31.143  0.1687  0.1807 -0.0424
43835W        W52635  12.275   3.016  29.566 -0.1344 -0.5475  0.0134
43836W        W52636  17.975   0.893   5.266  0.1400 -0.0931 -0.0755
43837W        W52637   8.617   4.525  35.697  0.0952 -0.0632  0.2151
43838W        W52638  18.176   5.263  13.669  0.0317 -0.0931  0.1241
43839W        W52639  17.833   1.677  16.157  0.1938 -0.1959 -0.0077
43840W        W52640   9.738   2.529  32.447  0.1119  0.0129  0.0838
43841W        W52641  17.072   4.347  32.818  0.0766  0.2566 -0.1274
43842W        W52642   1.370   5.149   8.587 -0.0942 -0.2533  0.3896
43843W        W52643  10.770   5.936  29.249  0.1621 -0.1567  0.0906
43844W        W52644   4.738   0.782  40.595  0.0235  0.3366 -0.2096
43845W        W52645   8.193   5.814  11.296  0.0650 -0.1318  0.0191
43846W        W52646   7.770   6.202  41.309  0.1182  0.3266 -0.0116
43847W        W52647   7.697   5.154  20.708  0.0319 -0.2393  0.2913
43848W        W52648  10.950   5.568  35.745 -0.1057 -0.2199  0.1073
43849W        W52649  19.471   0.742  10.914 -0.0052 -0.2391  0.3532
43850W        W52650  16.664   3.373  38.973 -0.1684  0.2692  0.0936
43851W        W52651   0.941   2.762  34.346  0.0499 -0.2900 -0.0466
43852W        W52652  11.912   3.891  19.209 -0.2807 -0.1594  0.0540
43853W        W52653  16.031   2.493   0.497  0.1939  0.3092 -0.2096
43854W        W52654  13.246   2.184  44.465 -0.1759 -0.1023 -0.1148
43855W        W52655   9.158   1.457  43.472  0.0698 -0.2336  0.0144
43856W        W52656   7.604   0.035  13.077  0.2889 -0.1936 -0.1168
43857W        W52657   0.461   4.476  44.374  0.1812  0.1925 -0.1324
43858W        W52658  10.427   4.604  22.264  0.0935  0.0668  0.1580
43859W        W52659  19.030   4.648  10.985 -0.0715  0.3118  0.1038
43860W        W52660   7.247   1.154   6.370  0.0686 -0.2127  0.0215
43861W        W52661   9.022   0.716  44.192 -0.0625  0.0911  0.2339
43862W        W52662  19.961   3.574   6.521  0.2662 -0.0783 -0.1934
43863W        W52663  12.994   6.126  41.599  0.0561 -0.1070 -0.0392
43864W        W52664   5.701   0.711  44.768  0.2788 -0.0837 -0.0006
43865W        W52665   2.332   3.906   6.253  0.1639  0.0105 -0.0540
43866W        W52666   4.582   2.893  43.545 -0.1019 -0.0698  0.2819
43867W        W52667  19.540   6.577  41.180  0.3021 -0.0248 -0.0072
43868W        W52668   1.789   3.733   8.012 -0.0689 -0.0049 -0.3490
43869W        W52669   8.776   2.240  20.660 -0.1291 -0.0090 -0.3049
43870W        W52670  12.292   2.737  32.332 -0.0520  0.2477  0.1405
43871W        W52671  15.963   4.514  33.645 -0.1133  0.0538  0.2548
43872W        W52672   5.442   0.106  18.348 -0.1107  0.0916  0.1874
43873W        W52673   4.167   0.147  10.450 -0.0754  0.1078  0.3132
43874W        W52674   2.471   2.931  38.354 -0.0642 -0.1040  0.1801
43875W        W52675  13.894   1.701   6.117  0.1256  0.0191  0.1448
43876W        W52676  13.357   5.629  13.532  0.1172 -0.1712 -0.1758
43877W        W52677  15.988   4.150  27.844  0.0074  0.2558  0.2335
43878W        W52678  16.066   3.568   2.767 -0.3121  0.1881  0.3375
43879W        W52679  14.505   1.320  19.352  0.0436  0.2558  0.1117
43880W        W52680   7.484   3.518   9.454  0.1076 -0.0353  0.0950
43881W        W52681   6.623   3.912  11.329 -0.0869 -0.0846 -0.0584
43882W        W52682  18.508   0.817   5.233 -0.0897  0.1696  0.1121
43883W        W52683   6.549   2.517  32.599  0.1054 -0.1423  0.1528
43884W        W52684   0.640   4.718  37.896 -0.0204  0.0006  0.0891
43885W        W52685  13.252   1.339  12.256 -0.0858 -0.0588 -0.4158
43886W        W52686   5.593   3.970   8.942  0.1762 -0.3659 -0.0477
43887W        W52687  18.922   0.999  41.682 -0.1469  0.2552 -0.1740
43888W        W52688  13.215   3.523  19.577  0.0922  0.1360  0.0016
43889W        W52689   2.079   4.445  36.459  0.0967  0.0496  0.1666
43890W        W52690   8.978   2.232  43.712 -0.2067 -0.0418 -0.0614
43891W        W52691  12.618   4.656  17.281 -0.0723 -0.0015  0.1103
43892W        W52692   3.345   3.324   9.755 -0.0598 -0.0652 -0.0734
43893W        W52693   0.191   1.120  11.856 -0.0878 -0.0984 -0.2696
43894W        W52694   3.316   2.827  17.190  0.0852 -0.1450  0.0305
43895W        W52695  18.236   3.639  25.517  0.0676 -0.0001 -0.5327
43896W        W52696   3.277   1.078  31.679  0.0710  0.0621  0.0449
43897W        W52697  19.101   2.087  23.307  0.0187 -0.3054  0.2743
43898W        W52698  10.923   6.050  36.609  0.1503 -0.1988 -0.1429
43899W        W52699  19.191   1.754  28.089 -0.0008 -0.1551 -0.0296
43900W        W52700  11.104   4.457  16.048  0.2861 -0.0777 -0.0338
43901W        W52701  14.246   2.701  29.191 -0.1482  0.1682 -0.0966
43902W        W52702  17.406   0.849  31.335  0.0476  0.2404  0.1682
43903W        W52703   5.954   4.184  37.941  0.2239  0.1078 -0.1828
43904W        W52704  10.633   0.673   9.466  0.3421 -0.0127 -0.2792
43905W        W52705   8.071   4.175  39.979  0.1487  0.1090 -0.0177
43906W        W52706   3.413   0.473  31.766 -0.1148  0.0273  0.0724
43907W        W52707  14.142   5.795  10.216  0.0657  0.2405 -0.1086
43908W        W52708  18.148   5.619  30.584  0.0499 -0.0410  0.2684
43909W        W52709  13.624   5.325  44.991  0.1074 -0.2812 -0.0585
43910W        W52710  14.993   2.035  33.088  0.0660  0.0895 -0.0999
43911W        W52711   0.222   5.434  32.682 -0.1722 -0.1201  0.0654
43912W        W52712  13.932   2.506  29.524 -0.1975  0.0831  0.2652
43913W        W52713  17.112   1.881  13.403 -0.0447 -0.0530 -0.1104
43914W        W52714   5.433   0.213   7.060  0.0044 -0.2406 -0.1632
43915W        W52715   9.038   6.265  11.538  0.1343  0.3204  0.1478
43916W        W52716  14.374   6.441  11.209 -0.2172  0.0652 -0.1699
43917W        W52717  15.407   2.768  12.930  0.1161  0.0147  0.0573
43918W        W52718  13.847   2.384  38.263  0.0467  0.0493  0.0263
43919W        W52719   5.229   2.372  18.914 -0.1436 -0.2169 -0.0408
43920W        W52720   4.073   3.695  16.871 -0.2895 -0.0478  0.1465
43921W        W52721   0.005   6.373  37.926 -0.3218 -0.3751  0.2859
43922W        W52722   3.544   0.289  35.042  0.0360  0.1044 -0.2793
43923W        W52723   9.906   1.888  11.112 -0.0716 -0.0170 -0.0521
43924W        W52724   4.506   1.081  39.578 -0.0243 -0.1457  0.3594
43925W        W52725   5.079   4.164  29.707 -0.0029 -0.0757 -0.0255
43926W        W52726   9.768   3.500  17.860  0.1660 -0.1357 -0.0543
43927W        W52727   1.883   2.589   9.690 -0.1091  0.2670  0.0176
43928W        W52728  10.179   2.677  13.422 -0.0984 -0.1996 -0.1129
43929W        W52729  19.571   5.701   3.948 -0.2265 -0.0298  0.0060
43930W        W52730  16.779   4.824  42.469  0.0057  0.0736 -0.0382
43931W        W52731  19.011   5.163  27.312 -0.1430  0.1703  0.1987
43932W        W52732   4.009   5.964  39.492 -0.1843 -0.0759  0.0018
43933W        W52733   6.458   1.608  39.857 -0.3778 -0.0054 -0.0461
43934W        W52734  19.041   5.446  13.300  0.0100  0.1702 -0.1183
43935W        W52735  11.601   2.150  36.500  0.3033 -0.1166  0.1347
43936W        W52736  17.783   4.547   5.379  0.0405 -0.0583  0.2673
43937W        W52737  15.509   0.295  26.258  0.0757  0.0084  0.1868
43938W        W52738  13.459   6.333  33.118 -0.0783 -0.3262  0.2683
43939W        W52739  18.769   4.173  44.768  0.0047 -0.0986  0.2485
43940W        W52740   8.754   1.838   2.469  0.0869 -0.0029  0.0443
43941W        W52741  14.118   6.509  27.927 -0.0247 -0.0172 -0.2097
43942W        W52742  20.036   3.640  24.214  0.0939 -0.1330  0.2082
43943W        W52743   1.058   4.131  10.710 -0.2005  0.0435 -0.2833
43944W        W52744  11.417   2.564   9.241  0.2689 -0.0798  0.3274
43945W        W52745   3.658   1.159  12.372 -0.0471 -0.0952  0.0260
43946W        W52746   9.533   2.453  43.539 -0.0364 -0.2543 -0.1464
43947W        W52747   9.219   1.077   0.840 -0.2755 -0.1960 -0.0736
43948W        W52748  10.893   0.815  34.837 -0.3047  0.2595 -0.2237
43949W        W52749   7.760   1.203  35.211  0.2619 -0.0292 -0.0628
43950W        W52750  13.389   0.452  41.115  0.0720 -0.1015  0.2781
43951W        W52751   3.540   1.286  13.783  0.2855 -0.0513 -0.1247
43952W        W52752   5.877   2.281  34.470  0.0694  0.1926 -0.2089
43953W        W52753  12.129   4.293  19.499  0.2281  0.1677  0.0740
43954W        W52754  20.665   1.741   8.762  0.2422  0.3456 -0.2040
43955W        W52755  16.656   1.352  16.980 -0.1042 -0.1764 -0.2480
43956W        W52756   7.816   0.104  35.427 -0.0720  0.0672 -0.0336
43957W        W52757   9.144   5.217  39.976 -0.4224 -0.2941  0.1418
43958W        W52758  20.272   1.813  26.804  0.0993  0.5185 -0.1335
43959W        W52759  17.263   2.677  41.269 -0.0710  0.2846  0.0081
43960W        W52760  19.786   6.422  34.287 -0.0580  0.2374 -0.0542
43961W        W52761   9.427   3.059  20.614 -0.1742 -0.0765  0.1651
43962W        W52762  20.935   4.368  31.008  0.0446  0.0025 -0.2348
43963W        W52763   0.390   4.332  30.005  0.0195 -0.1187  0.1561
43964W        W52764  13.875   0.357  38.538  0.2139 -0.1713  0.2453
43965W        W52765   4.425   3.482  14.606  0.1846 -0.0408  0.1118
43966W        W52766  10.982   6.530  19.156 -0.1590  0.0058 -0.0550
43967W        W52767  17.693   4.592  27.168  0.0904  0.0578 -0.1778
43968W        W52768  20.975   5.789  10.832  0.1586  0.0856 -0.0770
43969W        W52769   7.538   3.399  15.693 -0.1756  0.0227 -0.2823
43970W        W52770  17.262   3.530  26.732  0.2582  0.1224  0.1710
43971W        W52771  11.103   1.498   4.482 -0.1153 -0.0483 -0.3017
43972W        W52772  14.924   4.204   5.952 -0.0698 -0.1145  0.3033
43973W        W52773  20.095   1.052  34.532 -0.2436 -0.2546  0.4393
43974W        W52774  14.554   0.447  15.889  0.1629  0.1626  0.0501
43975W        W52775   4.210   3.297   6.887 -0.1813  0.0764  0.1681
43976W        W52776  11.352   2.955   7.840 -0.3039 -0.0863 -0.1927
43977W        W52777  20.121   1.129  43.694 -0.0971 -0.0767 -0.0389
43978W        W52778   5.121   2.149  29.026 -0.1778  0.0785  0.3803
43979W        W52779  20.685   4.415  38.823  0.0523 -0.1101  0.5644
43980W        W52780   1.371   0.764  13.953  0.0785 -0.1448 -0.1779
43981W        W52781  10.321   0.648  21.755 -0.2088  0.1960 -0.1160
43982W        W52782   5.938   4.569  11.182 -0.3718  0.2950  0.0988
43983W        W52783  15.155   6.555  16.555  0.3572 -0.0422 -0.3795
43984W        W52784  16.913   3.555  13.957 -0.0171  0.0107  0.1386
43985W        W52785  10.843   5.750   1.447  0.1695  0.2039  0.3836
43986W        W52786  18.115   1.958  41.854 -0.3871  0.0411 -0.0797
43987W        W52787  18.477   2.997  24.985 -0.0649  0.2663 -0.1023
43988W        W52788  12.574   5.489  36.870  0.1888  0.0325 -0.1674
43989W        W52789  19.341   4.221  32.037  0.1797 -0.2117 -0.0782
43990W        W52790   6.357   1.398  18.089  0.0559 -0.1245  0.1361
43991W        W52791   1.489   0.895  44.598 -0.2088 -0.1429 -0.0343
43992W        W52792   8.493   5.428  32.590  0.0526  0.1868  0.0524
43993W        W52793   2.961   5.880  42.476 -0.1145 -0.4485 -0.1308
43994W        W52794   6.589   5.161  35.839  0.1051 -0.0539 -0.2516
43995W        W52795  10.200   2.159   0.942 -0.0482 -0.1264  0.0130
43996W        W52796  16.370   4.070   4.233  0.0904  0.0359  0.0493
43997W        W52797   3.804   0.302  28.469 -0.0212  0.2650 -0.0035
43998W        W52798   1.239   5.862  24.655  0.0407 -0.1628 -0.1721
43999W        W52799  16.647   1.127  24.939  0.1938 -0.0714  0.0532
44000W        W52800  14.998   3.630  38.015  0.1157  0.2647 -0.2356
44001W        W52801  17.224   6.381   4.013  0.0347  0.0271 -0.2444
44002W        W52802   5.713   4.177   9.985 -0.0803  0.3661 -0.0116
44003W        W52803  10.567   6.396   0.195  0.2041 -0.1575  0.1055
44004W        W52804  10.924   2.409   7.396  0.0644  0.0683 -0.0068
44005W        W52805   1.410   2.678  26.553  0.3633 -0.3790 -0.0492
44006W        W52806  17.187   0.010  41.978  0.0805 -0.1396 -0.1134
44007W        W52807  13.405   4.614   6.775  0.0876  0.0156  0.1152
44008W        W52808   4.647   5.269   0.376 -0.0475 -0.1320 -0.1079
44009W        W52809   1.547   5.097  27.550 -0.0543 -0.1238  0.1507
44010W        W52810  16.477   4.137  31.792  0.1557 -0.2723  0.0361
44011W        W52811  18.203   0.142  32.692 -0.2507  0.1978  0.2704
44012W        W52812  18.910   2.479   5.477 -0.0096 -0.0059 -0.0533
44013W        W52813  14.141   1.529   9.504  0.1264  0.2865  0.3991
44014W        W52814  10.328   4.722  19.292  0.1892 -0.3353 -0.1720
44015W        W52815  11.764   4.305  11.611  0.0303 -0.0077 -0.3754
44016W        W52816   3.861   6.209  44.356  0.2188 -0.1485 -0.3773
44017W        W52817   4.427   3.516  33.948  0.3425  0.1558 -0.3162
44018W        W52818  12.617   2.800  33.642  0.1074  0.1593 -0.1850
44019W        W52819   6.722   4.610  33.525  0.1444  0.0580 -0.2837
44020W        W52820   6.524   5.905  16.252  0.1187 -0.1384  0.2290
44021W        W52821  18.836   6.390   4.227  0.1308  0.1252 -0.0548
44022W        W52822  16.782   3.694  13.045  0.0192 -0.1388 -0.0346
44023W        W52823  19.482   5.201   0.906 -0.1277  0.3765  0.1098
44024W        W52824  20.635   4.628  12.162 -0.2094  0.4270 -0.2207
44025W        W52825  15.377   1.856   1.698 -0.1545  0.2151  0.0351
44026W        W52826  10.767   3.217  19.991 -0.3505 -0.0421 -0.1378
44027W        W52827  15.790   2.116  44.150  0.0269  0.0731  0.0036
44028W        W52828   9.397   5.807   3.538 -0.2617 -0.3773  0.0594
44029W        W52829   1.498   3.891  35.481 -0.0079 -0.0217 -0.2703
44030W        W52830  18.700   5.204  42.009 -0.1578 -0.0214 -0.2356
44031W        W52831  17.997   6.378  24.914 -0.1245 -0.2132 -0.1010
44032W        W52832  18.626   0.250  28.092  0.1090  0.0032  0.1704
44033W        W52833  17.369   0.047   2.049 -0.2632  0.1660  0.1910
44034W        W52834   6.990   3.177  19.594 -0.0226  0.2628  0.0910
44035W        W52835   7.139   3.658  16.214 -0.1671 -0.0387  0.0612
44036W        W52836  15.920   3.964  44.979  0.1928 -0.0149 -0.4382
44037W        W52837  20.043   0.705  35.572 -0.3437  0.2117 -0.0829
44038W        W52838   1.451   2.503  34.636  0.0867  0.1363  0.0945
44039W        W52839  18.966   3.311  29.644  0.0316 -0.1712  0.1054
44040W        W52840  16.915   6.034   3.996  0.1811 -0.1053 -0.1321
44041W        W52841  13.476   2.435  37.895  0.0005  0.1306 -0.2303
44042W        W52842   5.679   3.170  37.121 -0.0265 -0.0959  0.2928
44043W        W52843   5.905   0.138   6.914 -0.0150  0.1183  0.2319
44044W        W52844  19.944   2.024   0.878  0.3780 -0.4093  0.0145
44045W        W52845  14.941   1.743   9.156 -0.1315  0.1524  0.3324
44046W        W52846   9.050   1.216  34.766  0.1886  0.0362 -0.2205
44047W        W52847  19.990   1.900  19.693 -0.0932  0.1063 -0.1740
44048W        W52848   7.569   3.998  32.966 -0.0655  0.1007 -0.1095
44049W        W52849  19.246   0.135  24.341 -0.1403  0.2398 -0.2980
44050W        W52850  12.874   6.600   6.588  0.2742 -0.2528  0.2034
44051W        W52851  18.765   6.052  41.636  0.2020  0.0993 -0.4591
44052W        W52852   5.215   0.972  40.174  0.2602 -0.0495  0.3158
44053W        W52853   6.653   3.616   7.956  0.1387  0.0646  0.0039
44054W        W52854  18.675   0.302  29.885 -0.2953  0.1006  0.0231
44055W        W52855   6.241   5.988  20.278  0.0595  0.0456  0.1206
44056W        W52856   8.622   4.904  44.756 -0.1294  0.0342 -0.0841
44057W        W52857   5.629   2.216  33.996 -0.3528 -0.1328  0.2950
44058W        W52858   0.252   6.151   0.186  0.0638  0.2645 -0.1298
44059W        W52859   6.160   4.864  14.891 -0.1201 -0.0013 -0.0625
44060W        W52860  13.289   1.017  12.724  0.0302 -0.0074 -0.0741
44061W        W52861  20.774   5.476  35.112  0.0296  0.0911 -0.0454
44062W        W52862   9.536   6.422  41.988 -0.0930  0.1442  0.4337
44063W        W52863   8.831   6.436  36.680 -0.1511 -0.2143  0.0900
44064W        W52864  10.945   4.998  20.850 -0.1524 -0.1834  0.2797
44065W        W52865  17.293   0.684  13.015 -0.1823 -0.0376  0.0509
44066W        W52866   3.067   2.283  37.791  0.0043  0.0326 -0.2712
44067W        W52867   6.929   5.080  42.939  0.2526  0.1665 -0.0313
44068W        W52868  11.033   2.574  28.944  0.0731  0.0534 -0.0284
44069W        W52869   5.943   2.624  43.795 -0.0002  0.0647  0.3310
44070W        W52870  17.173   0.151  40.197 -0.2138  0.0523  0.1220
44071W        W52871  12.361   2.778  16.274 -0.2228  0.0335  0.2187
44072W        W52872  19.529   2.572  27.699 -0.3323  0.0051 -0.0059
44073W        W52873  19.546   6.418   2.870  0.0345  0.1814  0.1258
44074W        W52874   8.273   5.485  24.453  0.0207 -0.2602 -0.3344
44075W        W52875  20.643   1.579  27.077 -0.1366 -0.0858  0.1439
44076W        W52876  14.669   5.067  28.114  0.2390 -0.1367 -0.2628
44077W        W52877   7.370   3.631  22.372  0.0346 -0.2424 -0.3145
44078W        W52878   0.734   4.309  31.678 -0.0904  0.0837  0.0864
44079W        W52879  19.412   2.447  41.461  0.3400  0.0147  0.1785
44080W        W52880  11.791   4.260  44.545  0.0008 -0.1905  0.0559
44081W        W52881  12.509   5.062  34.021 -0.0721  0.0605 -0.3114
44082W        W52882  13.739   5.413  33.183 -0.0366  0.0213 -0.1006
44083W        W52883  18.489   2.422  39.768 -0.1672  0.0501 -0.1819
44084W        W52884   0.742   2.075  26.157 -0.0171 -0.0500  0.0773
44085W        W52885   3.095   2.611  18.214 -0.1858  0.1162 -0.0874
44086W        W52886  10.077   2.847  43.358  0.1314  0.1163  0.2194
44087W        W52887  12.319   2.858  13.579 -0.3348 -0.0220  0.1075
44088W        W52888   9.067   6.472  32.718 -0.3662  0.1043  0.1387
44089W        W52889   8.914   0.167  38.390 -0.1863  0.0532 -0.0755
44090W        W52890  10.930   1.966  40.750 -0.1416  0.1113 -0.0001
44091W        W52891  17.854   6.425   0.092  0.2687 -0.1423  0.1571
44092W        W52892   5.809   0.192  30.793 -0.0641 -0.0753  0.3570
44093W        W52893  13.614   4.174  37.635 -0.0237  0.0293 -0.2049
44094W        W52894   9.470   2.698  42.498  0.1669 -0.0608  0.2092
44095W        W52895   4.077   1.822   6.312  0.1180 -0.0401  0.0179
44096W        W52896  11.953   0.208  35.233 -0.0902 -0.2323 -0.0797
44097W        W52897  18.547   4.231   8.547 -0.0021  0.0150 -0.2797
44098W        W52898  12.879   4.703  13.329  0.1403 -0.3040 -0.1530
44099W        W52899   9.809   3.710  14.925 -0.4162  0.3448 -0.1387
44100W        W52900  15.789   5.382  28.848  0.0991  0.1007  0.0266
44101W        W52901  10.363   5.697  44.664  0.0530 -0.0603 -0.2346
44102W        W52902   2.161   5.207  25.484  0.1399 -0.1141  0.0065
44103W        W52903   2.890   0.073  16.854  0.1572  0.3001  0.0463
44104W        W52904   2.888   4.252  28.357 -0.0135 -0.0401  0.1534
44105W        W52905  16.141   5.434  39.340  0.2203 -0.2601  0.0397
44106W        W52906  14.010   4.356  32.613 -0.1040  0.1936 -0.1227
44107W        W52907  16.771   5.788   1.537  0.0975  0.0595 -0.1084
44108W        W52908  12.140   5.389  31.147  0.1461 -0.0235 -0.0748
44109W        W52909   7.347   5.181  35.301  0.0954 -0.2668 -0.0959
44110W        W52910  18.664   4.091   7.262  0.2360 -0.0625  0.0783
44111W        W52911   7.780   0.544  41.109 -0.2637  0.2178  0.0695
44112W        W52912   5.185   3.884  28.455  0.1799 -0.0540  0.1701
44113W        W52913   7.481   1.569  15.850  0.2252  0.0280 -0.1016
44114W        W52914  11.353   0.014   0.587 -0.2428 -0.2603  0.0915
44115W        W52915  13.745   0.953   6.901 -0.0786  0.2124 -0.1297
44116W        W52916   5.482   3.711   2.679  0.1128  0.0700 -0.2546
44117W        W52917  13.498   4.021   4.817  0.1113 -0.0452 -0.0144
44118W        W52918   6.349   1.949  14.100 -0.0207  0.2180 -0.0230
44119W        W52919   2.167   3.287   0.898  0.1569  0.0697 -0.0282
44120W        W52920   2.586   2.112  42.539  0.2374 -0.1010  0.1897
44121W        W52921  13.916   0.496  10.817 -0.1571 -0.1085 -0.0288
44122W        W52922  17.810   5.344   5.873  0.1164 -0.0859  0.0602
44123W        W52923  15.164   0.965   8.622 -0.0908  0.0609 -0.1489
44124W        W52924  14.300   3.661  12.237  0.2142  0.4383 -0.0936
44125W        W52925  10.285   2.841  39.107 -0.3168 -0.1068 -0.0837
44126W        W52926  19.541   3.651  27.926 -0.4789 -0.2664 -0.0963
44127W        W52927  15.010   1.207  43.148 -0.0147  0.1471  0.0418
44128W        W52928  13.296   3.624   4.470 -0.1968  0.1851  0.0214
44129W        W52929  14.745   3.168  10.662 -0.5621 -0.0457  0.3048
44130W        W52930   6.494   0.816  20.244  0.0624 -0.1762 -0.0953
44131W        W52931  14.460   0.927  44.652 -0.1024  0.2884  0.2186
44132W        W52932  11.032   3.072  20.542  0.0939  0.0935 -0.0396
44133W        W52933  17.847   3.156  34.235  0.1814  0.1322  0.2203
44134W        W52934  17.289   0.378   4.895 -0.0308 -0.1762 -0.2963
44135W        W52935   1.675   2.285  41.857  0.1589  0.0771 -0.0822
44136W        W52936  15.665   0.014  36.399  0.1505  0.0323 -0.1589
44137W        W52937  20.569   6.404   2.795  0.3101  0.0905  0.0127
44138W        W52938   0.900   1.844  44.682 -0.1307  0.0887 -0.0041
44139W        W52939   6.786   1.807   8.994  0.1528 -0.3445  0.1929
44140W        W52940   4.327   2.239  33.015  0.0713 -0.0380 -0.0054
44141W        W52941  14.883   5.612   7.876  0.0207  0.1008 -0.1825
44142W        W52942  20.585   3.783  11.148  0.2773  0.0509 -0.2921
44143W        W52943   6.226   4.013  38.996  0.2484  0.0540 -0.0904
44144W        W52944  20.411   0.249  39.434  0.1854 -0.0545  0.0747
44145W        W52945   9.736   5.098  17.951  0.2924  0.1950  0.0636
44146W        W52946  11.085   6.459  32.945 -0.0705 -0.2512  0.1123
44147W        W52947  16.790   6.338   5.381 -0.0916  0.2532  0.0077
44148W        W52948  11.665   0.509  35.559  0.1932 -0.0028  0.0559
44149W        W52949  14.325   6.002   1.429  0.3941 -0.2302  0.0513
44150W        W52950  20.956   2.762  24.255 -0.1592 -0.0406  0.2160
44151W        W52951   3.031   3.641  10.829 -0.0724 -0.0279  0.0703
44152W        W52952  17.428   0.497  12.442 -0.1155  0.1318  0.0928
44153W        W52953  10.816   0.091   5.102  0.3126 -0.0058 -0.3657
44154W        W52954   5.230   1.140   1.563 -0.1093 -0.0252 -0.0198
44155W        W52955   1.599   4.474  15.135  0.2597  0.1700  0.1522
44156W        W52956   7.576   0.251  19.350  0.2074 -0.1882  0.0378
44157W        W52957   3.650   6.316  26.111  0.0942 -0.2969  0.1698
44158W        W52958   5.714   1.874  44.837 -0.0321  0.0370 -0.0833
44159W        W52959   2.723   3.209  43.286  0.0171  0.0477  0.1055
44160W        W52960   5.824   2.735  28.264 -0.3483 -0.1114  0.0612
44161W        W52961   2.009   1.551  31.821 -0.3565  0.0216  0.0728
44162W        W52962   8.211   5.318  41.522 -0.1740 -0.0807  0.0135
44163W        W52963  20.879   5.530  27.360 -0.0514  0.0923  0.0359
44164W        W52964   0.462   3.129   6.007 -0.0544 -0.0606 -0.0925
44165W        W52965   4.968   6.131  35.486 -0.3310 -0.1878 -0.0179
44166W        W52966   8.750   4.614  36.271  0.3261  0.1196  0.0798
44167W        W52967   7.854   6.419  14.757  0.0070  0.2456 -0.0520
44168W        W52968   9.453   1.883   4.298 -0.3658  0.0401 -0.1442
44169W        W52969  12.056   3.226  41.935  0.0131 -0.0978 -0.0682
44170W        W52970   9.255   0.699  37.856 -0.0876  0.0531  0.0226
44171W        W52971  17.402   6.098  14.342 -0.0391 -0.1393 -0.1860
44172W        W52972   4.977   3.020   2.782 -0.1739  0.0427  0.1653
44173W        W52973   7.953   0.392  43.214  0.0088  0.0509  0.0425
44174W        W52974   4.501   5.492  35.047 -0.1394 -0.3386 -0.1615
44175W        W52975  13.589   3.937  39.931  0.0488  0.1158  0.0399
44176W        W52976   1.833   4.767   6.912  0.1242  0.1953 -0.0401
44177W        W52977   9.648   6.430  13.266 -0.0596 -0.1277 -0.2225
44178W        W52978  10.038   0.778  40.693 -0.0761 -0.0037  0.2238
44179W        W52979   4.191   5.649  34.620 -0.0674 -0.0203  0.2236
44180W        W52980   5.421   6.486  34.853 -0.1418  0.0157 -0.1387
44181W        W52981   0.172   6.280  22.865  0.3862  0.3557  0.1004
44182W        W52982  14.005   2.951  32.259  0.0490 -0.0701  0.1703
44183W        W52983  20.861   5.381  12.651  0.0034  0.1040 -0.3472
44184W        W52984   9.816   1.992  20.738 -0.0929  0.1885 -0.1001
44185W        W52985   4.998   1.309   8.989 -0.0787 -0.1705 -0.0120
44186W        W52986  14.870   0.939  34.015  0.1500  0.0905  0.0097
44187W        W52987   1.817   2.012  31.637  0.0810 -0.0832 -0.0057
44188W        W52988   4.716   6.146   9.937  0.3146 -0.1819 -0.2947
44189W        W52989  17.796   2.277  33.094  0.1514  0.0899  0.1226
44190W        W52990   5.852   4.624  41.552  0.1089 -0.2576 -0.0552
44191W        W52991  10.404   5.468  14.127  0.1039 -0.0914  0.1459
44192W        W52992   7.773   4.241  29.907 -0.0023  0.4350  0.0025
44193W        W52993  16.147   1.933  36.854  0.0543  0.0587 -0.2399
44194W        W52994  18.912   3.186   4.511 -0.0128 -0.2037 -0.4319
44195W        W52995   8.336   5.584  18.195 -0.0358  0.1498 -0.4688
44196W        W52996  17.701   5.125  40.882 -0.0847  0.0047  0.0054
44197W        W52997  20.488   0.278  39.982 -0.0275 -0.0342 -0.1179
44198W        W52998  13.114   0.751   0.407 -0.0748 -0.1023  0.2239
44199W        W52999  20.529   1.626  21.688  0.2184 -0.0174  0.1022
44200W        W53000  11.498   2.644   0.133 -0.0780  0.0141  0.1151
44201W        W53001  14.666   5.662  29.830  0.0156 -0.0488  0.2379
44202W        W53002   7.876   2.589  18.852  0.1657  0.0760  0.0324
44203W        W53003   1.789   2.394  14.703 -0.0150  0.1758  0.1711
44204W        W53004  18.175   3.543  26.438  0.3878  0.1118  0.0774
44205W        W53005   0.309   4.554   1.655 -0.0689 -0.2931 -0.2033
44206W        W53006   5.170   3.850  10.578 -0.0134 -0.1388 -0.1108
44207W        W53007  13.192   3.080   7.906 -0.0238 -0.0108 -0.2573
44208W        W53008   4.853   2.664  31.348  0.1328  0.0874  0.0886
44209W        W53009   2.045   3.960  24.425  0.0412 -0.3737 -0.0269
44210W        W53010  18.533   4.175  30.917  0.1950  0.0383 -0.2372
44211W        W53011  13.268   4.250  44.026  0.0245  0.2333 -0.0150
44212W        W53012  18.570   2.977  32.971 -0.0689 -0.3690 -0.1310
44213W        W53013  19.536   3.353  33.320 -0.1495 -0.2626 -0.5128
44214W        W53014  14.933   1.998  36.992  0.2250  0.2053  0.0561
44215W        W53015   5.619   0.656  40.059  0.1811 -0.3245 -0.0559
44216W        W53016  16.791   5.730   6.706 -0.0703 -0.0440 -0.0539
44217W        W53017   9.552   4.460  43.264 -0.1946  0.3584 -0.1961
44218W        W53018  20.224   2.713  16.050  0.1097  0.1367  0.1196
44219W        W53019  12.280   4.828  29.172  0.2865 -0.0497  0.0464
44220W        W53020  17.673   5.388  28.570 -0.0125  0.1071  0.2878
44221W        W53021   7.663   5.275  37.597  0.0464  0.1468 -0.1420
44222W        W53022   1.623   5.572  13.550 -0.0105  0.0634  0.2115
44223W        W53023  10.052   2.667  38.177  0.0589 -0.1985 -0.2512
44224W        W53024  16.124   0.053  11.360 -0.2490 -0.0551  0.2020
44225W        W53025   4.802   4.007  13.809  0.1004 -0.2305 -0.0264
44226W        W53026  20.026   1.028  27.077  0.1841 -0.0491 -0.1449
44227W        W53027   1.066   0.371   4.835  0.2783  0.2025 -0.2608
44228W        W53028  15.464   1.686  28.655  0.1220  0.0743 -0.0627
44229W        W53029   4.997   6.065  31.618 -0.1830 -0.0436 -0.0535
44230W        W53030   0.802   1.367  43.875  0.2394  0.0862  0.0568
44231W        W53031   4.979   0.131  11.070  0.2556  0.2695  0.0840
44232W        W53032  17.384   4.601   3.767  0.0207 -0.1673  0.0282
44233W        W53033  16.615   3.649  12.241  0.1448  0.1044  0.0051
44234W        W53034   1.353   3.561  41.344  0.3245 -0.2440  0.1301
44235W        W53035   9.767   2.857  20.245  0.0952 -0.1684  0.1028
44236W        W53036   4.025   3.069  36.742 -0.0721 -0.3344 -0.1711
44237W        W53037   9.694   3.838  10.954  0.2520  0.0879 -0.0961
44238W        W53038  21.018   4.307  29.405  0.0268 -0.0749 -0.1643
44239W        W53039   9.889   0.279  10.814 -0.0660  0.1622 -0.0689
44240W        W53040  16.372   3.239  30.523  0.1041  0.0291  0.0630
44241W        W53041  21.104   3.815  21.793 -0.2939 -0.0271 -0.2855
44242W        W53042  10.288   4.675  14.083 -0.0805 -0.2578 -0.1722
44243W        W53043  18.027   1.741  15.135  0.4054 -0.4763  0.2138
44244W        W53044  17.141   2.616  34.169 -0.1835  0.1253 -0.1128
44245W        W53045   3.155   0.213  33.175  0.0075  0.0503  0.2470
44246W        W53046   7.902   4.293   0.982 -0.3144 -0.0958 -0.0916
44247W        W53047  20.768   2.727  22.647  0.0882 -0.2698 -0.0925
44248W        W53048  18.206   3.730   0.824  0.4115  0.3368 -0.2598
44249W        W53049  16.352   4.608   8.759 -0.3868 -0.0661 -0.0763
44250W        W53050  10.093   2.392  12.161  0.1130 -0.1592 -0.1840
44251W        W53051   6.631   0.178  33.768 -0.0602 -0.1887  0.1099
44252W        W53052  13.521   1.094  44.339 -0.2777  0.1469 -0.3235
44253W        W53053  14.498   4.130  31.303  0.0299 -0.0295  0.0182
44254W        W53054  13.363   6.304  44.669  0.1927 -0.0205 -0.2348
44255W        W53055  17.772   1.005  36.389  0.1996  0.0607  0.0689
44256W        W53056   6.300   4.844   4.782 -0.1077  0.1149 -0.2061
44257W        W53057   3.928   6.547   2.837 -0.0264 -0.2954 -0.0322
44258W        W53058   8.613   2.758  42.714  0.0897 -0.0936 -0.2343
44259W        W53059  13.406   2.244  11.387  0.1800  0.0125  0.0802
44260W        W53060  16.994   5.950  40.830  0.2097 -0.2145  0.0657
44261W        W53061  10.716   3.673  19.293  0.1179 -0.0865  0.0550
44262W        W53062   1.476   1.199   4.925 -0.1718 -0.1183 -0.2223
44263W        W53063   3.446   2.096  29.067 -0.0052 -0.2546  0.0848
44264W        W53064  17.160   3.110  12.414  0.0676 -0.0108 -0.0649
44265W        W53065  20.213   3.172  23.991 -0.1793 -0.1378  0.3080
44266W        W53066   4.485   0.513  14.612  0.1215 -0.1297  0.1636
44267W        W53067  15.049   4.979  31.017  0.2085  0.1546  0.1362
44268W        W53068   4.722   4.018  38.886 -0.1423 -0.1096 -0.3045
44269W        W53069   3.626   3.787  39.558 -0.0225 -0.0066 -0.0752
44270W        W53070  10.918   3.074  22.670 -0.1353  0.1240  0.3875
44271W        W53071   6.556   5.197  11.054 -0.4539 -0.0238 -0.1477
44272W        W53072  16.106   4.686  31.886  0.2863  0.1262  0.1601
44273W        W53073   2.429   2.706  41.443  0.0589  0.0510  0.0634
44274W        W53074  17.285   1.597  14.268  0.0440 -0.1034 -0.0110
44275W        W53075  18.035   4.190   0.944  0.3026  0.0090 -0.3086
44276W        W53076  20.447   0.887   1.296  0.1480 -0.2943  0.0467
44277W        W53077   1.345   1.046   2.048  0.3045 -0.1293  0.0092
44278W        W53078  20.929   0.331  35.485 -0.0327  0.0376 -0.0503
44279W        W53079  20.058   1.122   6.044  0.4001  0.0281  0.1360
44280W        W53080  14.303   4.312  28.480 -0.1374 -0.1507  0.1758
44281W        W53081  15.492   3.492  42.227  0.0927 -0.2090 -0.1316
44282W        W53082  14.945   6.042  16.439  0.2297 -0.0237 -0.0186
44283W        W53083  13.315   4.131  20.432  0.1815 -0.0644  0.1875
44284W        W53084  20.168   6.592  36.853 -0.1383  0.0272  0.1949
44285W        W53085   0.774   0.635   0.355  0.4683 -0.2472 -0.0747
44286W        W53086  17.519   0.325   8.245  0.1164  0.0809 -0.1891
44287W        W53087  14.365   4.202  36.685  0.0236  0.1029  0.0879
44288W        W53088  20.400   0.848   0.823  0.1822  0.0869  0.0895
44289W        W53089  12.564   3.375  35.798 -0.0093  0.0719  0.4196
44290W        W53090   3.358   0.414   1.795  0.0010  0.2989  0.1255
44291W        W53091   0.784   4.817  11.234  0.1180 -0.2100  0.2379
44292W        W53092   8.479   4.434   1.810 -0.1207 -0.1971  0.4210
44293W        W53093  10.668   0.523  37.020  0.2239  0.2419  0.0134
44294W        W53094  12.490   1.950  10.912 -0.1450  0.0087  0.0363
44295W        W53095   5.363   4.399  20.087 -0.0574 -0.0833  0.1679
44296W        W53096  20.883   6.443  24.718 -0.2243  0.0932 -0.3925
44297W        W53097   4.773   3.480  11.364 -0.1086  0.0282  0.0559
44298W        W53098  11.358   2.066   0.127  0.4828 -0.3286 -0.0164
44299W        W53099  20.255   0.039  21.473  0.2009 -0.2426 -0.0472
44300W        W53100  10.984   1.404  43.060  0.2775 -0.3749  0.5872
44301W        W53101  15.031   0.171  37.876  0.0133 -0.0242  0.0427
44302W        W53102  13.399   0.625   4.865  0.0851  0.1938 -0.2653
44303W        W53103  18.239   2.612  35.481  0.0162  0.0270 -0.0478
44304W        W53104  11.880   3.632  41.210  0.2230 -0.1005  0.2403
44305W        W53105   2.715   5.155  14.679  0.1005 -0.3990 -0.1150
44306W        W53106  14.517   0.655   9.591  0.0292 -0.0401 -0.1622
44307W        W53107  18.671   4.532  29.224 -0.0495 -0.0065  0.0574
44308W        W53108  10.168   0.045  37.749 -0.3583 -0.1647  0.0777
44309W        W53109   6.186   6.389  30.584 -0.1675  0.0415  0.2860
44310W        W53110  12.156   3.148  18.048  0.4118 -0.0486  0.1524
44311W        W53111  12.117   4.119  42.809  0.2517 -0.1306  0.1990
44312W        W53112   1.758   3.470  24.404 -0.0744  0.1470  0.5627
44313W        W53113   3.677   5.371  31.151 -0.1633  0.2240 -0.1870
44314W        W53114   2.211   5.322  15.503  0.1849  0.1651 -0.0211
44315W        W53115   4.792   6.349  31.979  0.2842 -0.0320 -0.0333
44316W        W53116  11.767   5.061  20.994 -0.3594  0.1732 -0.1900
44317W        W53117  15.621   3.187  29.518 -0.0718  0.1026  0.0160
44318W        W53118   4.351   2.879  31.292 -0.1348  0.1218  0.0715
44319W        W53119  16.325   6.223  27.202  0.0082  0.3519 -0.1753
44320W        W53120   5.140   4.002  44.509 -0.0225  0.0701 -0.1220
44321W        W53121  10.531   4.211  23.753  0.0297 -0.2845  0.1788
44322W        W53122   7.595   5.419   2.491 -0.1178  0.0922  0.0399
44323W        W53123   1.709   4.323  33.949  0.0013 -0.2245 -0.0636
44324W        W53124  19.191   3.707  11.209  0.1340  0.0703 -0.0649
44325W        W53125   2.268   0.324  42.780 -0.1319  0.0866  0.1177
44326W        W53126  10.855   0.763  17.625 -0.0006 -0.0653  0.2008
44327W        W53127  14.575   6.257  38.805 -0.0179  0.0892  0.0191
44328W        W53128  15.847   3.432  16.184  0.1351  0.1483  0.2280
44329W        W53129  19.036   2.533   6.563 -0.0706 -0.1829  0.2018
44330W        W53130   0.747   4.694  41.361  0.0399  0.0436  0.1854
44331W        W53131  17.125   0.672   0.074 -0.3218  0.0158 -0.1756
44332W        W53132   1.598   3.323  30.450  0.0546 -0.1740  0.5282
44333W        W53133   0.300   2.195   1.358  0.1105  0.3024  0.0026
44334W        W53134  17.310   2.912  10.049 -0.0184 -0.0512 -0.0229
44335W        W53135   8.119   4.936  33.487  0.0082  0.1793  0.0751
44336W        W53136   6.914   4.439  34.522 -0.3844  0.0027  0.2288
44337W        W53137  17.862   5.834  32.708 -0.2266 -0.0415  0.0718
44338W        W53138  16.606   1.065   4.473 -0.1644 -0.1883  0.0354
44339W        W53139   8.897   3.280  42.416  0.1097  0.2305 -0.2182
44340W        W53140   5.913   5.410  28.184 -0.1141 -0.0842 -0.2428
44341W        W53141  14.892   3.370  11.103 -0.0756 -0.1773 -0.1120
44342W        W53142  11.934   4.188  36.440 -0.1209 -0.1334 -0.1607
44343W        W53143  19.960   6.026  19.567 -0.0309  0.2511  0.0970
44344W        W53144  18.293   1.080   0.312 -0.1800  0.2140 -0.1538
44345W        W53145   9.380   6.358  16.814 -0.0662  0.0759  0.2209
44346W        W53146   9.393   1.976  43.559 -0.0618 -0.0063  0.0220
44347W        W53147  12.519   3.784  20.870 -0.3668 -0.0117  0.0403
44348W        W53148   5.320   2.419  32.348  0.1172 -0.2982 -0.0594
44349W        W53149  17.091   5.785   3.236  0.0223 -0.0524  0.1774
44350W        W53150  19.547   6.469  14.692 -0.0724  0.1578 -0.1787
44351W        W53151   9.271   0.523  35.868 -0.0890  0.0806 -0.0745
44352W        W53152  12.617   3.833  42.998 -0.3329 -0.0701  0.1143
44353W        W53153  18.058   3.549  27.965  0.1169  0.0006 -0.2072
44354W        W53154   6.878   4.776   6.916 -0.0379  0.0880  0.1392
44355W        W53155  19.060   6.582  13.788 -0.0430  0.2234 -0.1500
44356W        W53156   3.036   3.683   9.504 -0.1512 -0.1404 -0.0352
44357W        W53157   6.506   5.705  33.893  0.3716  0.3037 -0.1190
44358W        W53158  12.314   5.218   4.539 -0.0209  0.1582 -0.0038
44359W        W53159  14.616   2.775   2.204  0.0068  0.2162  0.1080
44360W        W53160  17.355   0.682  28.725  0.1409  0.0484 -0.0017
44361W        W53161   9.375   1.636  22.703  0.1479 -0.0921 -0.0779
44362W        W53162   5.138   4.207   6.971 -0.1227  0.0809  0.0078
44363W        W53163  19.192   4.194   5.914  0.2570  0.0596  0.1110
44364W        W53164   2.056   3.445   8.831  0.4055  0.1425 -0.3507
44365W        W53165  20.769   5.878  38.086 -0.3252 -0.0580 -0.1362
44366W        W53166   5.250   4.289  30.603 -0.0773 -0.1725 -0.0622
44367W        W53167   7.150   5.602   8.604  0.2924 -0.0550  0.1829
44368W        W53168   2.583   4.078   4.046 -0.0501 -0.1208  0.1207
44369W        W53169   7.536   6.077  34.675  0.0820  0.1152  0.1498
44370W        W53170  10.795   2.076  21.588  0.1938 -0.0311  0.2845
44371W        W53171  19.267   1.633  24.005  0.1937 -0.1071 -0.1656
44372W        W53172   5.132   0.481   0.447 -0.1571 -0.1377 -0.0809
44373W        W53173   9.454   6.083  12.936  0.1368  0.1590 -0.2621
44374W        W53174  12.593   0.861   7.737 -0.0301  0.0118  0.2189
44375W        W53175   9.458   0.051   3.822 -0.0199  0.1601  0.3095
44376W        W53176  15.708   0.269  11.594  0.0624 -0.0615 -0.0036
44377W        W53177  13.555   3.728  33.868 -0.3032 -0.0142 -0.1175
44378W        W53178   0.162   3.148  24.248 -0.0184  0.2418 -0.0509
44379W        W53179   2.465   4.284  15.070 -0.3938  0.0623  0.1934
44380W        W53180   2.726   5.876  30.105 -0.0299 -0.0421  0.1730
44381W        W53181   9.504   2.481  30.307  0.1665  0.0200  0.1150
44382W        W53182   0.567   4.422  11.579 -0.0196  0.1230  0.0546
44383W        W53183  17.133   3.322  44.514 -0.3685  0.1277  0.0367
44384W        W53184  11.328   0.452  42.235  0.0161  0.1888  0.0243
44385W        W53185  16.943   5.084  10.634  0.1493  0.1805 -0.1510
44386W        W53186  15.714   5.842  16.948  0.4590 -0.1696 -0.2205
44387W        W53187   3.469   5.535  28.158 -0.0290  0.2521 -0.1510
44388W        W53188  12.738   5.040  10.997  0.0494  0.0924 -0.0871
44389W        W53189  16.658   6.326  38.510 -0.2406 -0.3019 -0.1287
44390W        W53190   2.330   1.359  13.268  0.0401  0.2850  0.1013
44391W        W53191  10.795   0.157  44.673 -0.1749  0.2433 -0.0579
44392W        W53192   3.382   5.205  44.416  0.1267  0.1077  0.1899
44393W        W53193  10.622   1.743  21.238 -0.5149 -0.1214  0.1301
44394W        W53194  13.032   0.376  21.099  0.1185 -0.2675 -0.0619
44395W        W53195   9.213   1.331  32.566 -0.1432 -0.3263 -0.1319
44396W        W53196  21.083   3.051  13.008 -0.0110  0.2500  0.1287
44397W        W53197   5.467   2.035  30.207  0.0325 -0.0825  0.3631
44398W        W53198  13.576   3.538   9.830 -0.1323 -0.1170 -0.0606
44399W        W53199   9.735   4.190  20.653  0.0178 -0.3277 -0.0100
44400W        W53200  17.801   3.510  24.625  0.1434  0.0106 -0.0535
44401W        W53201  18.744   1.278   7.671  0.2207 -0.0202  0.1300
44402W        W53202   2.266   1.610  34.508 -0.1621 -0.1970 -0.2802
44403W        W53203  11.626   1.886  36.042 -0.0223 -0.2530  0.0783
44404W        W53204   5.839   0.355  41.961 -0.0218  0.0253 -0.2028
44405W        W53205   8.768   3.020  31.156 -0.0375  0.1447  0.1728
44406W        W53206  18.142   6.532   0.843 -0.3180 -0.2243  0.2217
44407W        W53207  15.203   5.814  39.621 -0.1890  0.0752 -0.2401
44408W        W53208   5.749   5.859   4.016 -0.2200  0.1293  0.2198
44409W        W53209   9.155   0.548  16.871 -0.2187 -0.1214 -0.0273
44410W        W53210   7.819   2.940  10.216  0.1187 -0.1952  0.1067
44411W        W53211   3.489   2.346  38.974  0.0841 -0.0931 -0.0585
44412W        W53212   4.452   1.652  33.826  0.1582 -0.1005  0.1193
44413W        W53213  11.584   6.238  10.004 -0.0202  0.0612 -0.1631
44414W        W53214   9.421   2.707   3.701  0.0217  0.0302 -0.1920
44415W        W53215   4.256   3.646  40.488  0.0781 -0.0051 -0.1153
44416W        W53216  15.335   4.186  40.585  0.2721  0.0857 -0.0161
44417W        W53217  18.381   4.069  40.990 -0.1028 -0.0765 -0.1557
44418W        W53218   5.239   1.553   7.291 -0.3784  0.1977 -0.0759
44419W        W53219  19.670   1.067  22.572 -0.1545 -0.0770  0.1923
44420W        W53220   6.390   4.511  34.556  0.1992 -0.1071 -0.0013
44421W        W53221  15.484   4.993  27.574  0.2527  0.0666  0.0825
44422W        W53222  20.598   4.125  25.278 -0.0968 -0.0786 -0.1844
44423W        W53223  18.712   3.120  43.803  0.3462  0.3150  0.1216
44424W        W53224   0.474   6.517   3.947  0.0550 -0.3397  0.2509
44425W        W53225   3.702   3.544  35.304 -0.2222  0.1044 -0.2085
44426W        W53226  12.002   4.745   6.367 -0.1725  0.0779 -0.3063
44427W        W53227   6.537   4.710  31.251 -0.0699 -0.0138  0.2089
44428W        W53228  20.556   2.653   1.161  0.1605  0.0403 -0.1007
44429W        W53229  20.616   0.674   8.607  0.1680 -0.1995 -0.0666
44430W        W53230  20.507   1.465  36.900 -0.1418  0.0272  0.1618
44431W        W53231  11.156   5.727  21.537  0.0914 -0.3737  0.0849
44432W        W53232  17.831   5.590   7.353 -0.1114 -0.0089 -0.3455
44433W        W53233   9.132   0.657  40.871 -0.0814 -0.4375 -0.0038
44434W        W53234  12.206   3.273  34.837  0.1186 -0.0502  0.0604
44435W        W53235  10.577   5.206  10.445 -0.0215 -0.0781 -0.0279
44436W        W53236  12.761   2.691  32.580  0.0505 -0.0180  0.0541
44437W        W53237   0.846   5.583   6.028  0.0225 -0.2059  0.2745
44438W        W53238   7.722   0.263   1.339  0.2514 -0.1661  0.1992
44439W        W53239   3.918   5.028   5.572  0.3633 -0.0941  0.0378
44440W        W53240  14.082   3.669  44.856  0.1663 -0.3154 -0.1686
44441W        W53241  12.690   0.611  19.493  0.1036 -0.1036  0.0127
44442W        W53242   5.103   0.166  38.347 -0.1952 -0.3959  0.0568
44443W        W53243  13.934   2.563  35.670  0.0067 -0.0378  0.1157
44444W        W53244   6.379   6.115  35.511 -0.1949  0.0854 -0.1652
44445W        W53245   2.954   0.243  31.838 -0.0859  0.0325 -0.1118
44446W        W53246   8.701   1.267   1.660 -0.0732  0.2748  0.0447
44447W        W53247  11.982   5.968  44.395  0.2157 -0.0595  0.1410
44448W        W53248  15.857   3.307  15.635 -0.2849  0.1775 -0.0095
44449W        W53249   6.711   4.950  39.315 -0.0499  0.1149 -0.0257
44450W        W53250  19.894   0.344  39.150 -0.1037  0.2572  0.3230
44451W        W53251   2.922   1.347  11.995  0.2846 -0.1409  0.0101
44452W        W53252  19.538   1.097   7.096 -0.0675  0.2220 -0.0763
44453W        W53253  19.537   0.212  10.619 -0.0271 -0.2612 -0.1645
44454W        W53254   6.507   4.488  37.723  0.0271 -0.2130  0.0402
44455W        W53255  20.274   0.990   8.405  0.0483 -0.0950 -0.1277
44456W        W53256  13.273   5.763   0.921  0.2349 -0.2149  0.1302
44457W        W53257   7.279   2.708  30.256  0.1661  0.1236  0.1757
44458W        W53258  16.680   5.514  27.570 -0.0353 -0.0653 -0.0574
44459W        W53259   7.516   3.960   8.503  0.1791  0.0612 -0.0694
44460W        W53260   4.394   1.251  15.234 -0.2647 -0.2256  0.3413
44461W        W53261  16.085   5.875   8.891 -0.0905 -0.0935  0.1170
44462W        W53262   6.864   1.849  30.156 -0.3049 -0.1073 -0.2843
44463W        W53263  13.072   4.480   7.214  0.0994  0.0674 -0.2153
44464W        W53264  11.364   1.173  20.713  0.1544 -0.3295  0.0691
44465W        W53265  13.138   5.756  42.412 -0.1047 -0.0660 -0.3350
44466W        W53266   0.502   0.188   5.815 -0.4934  0.3518  0.2210
44467W        W53267  17.811   4.381   8.739 -0.2942 -0.0308 -0.1700
44468W        W53268   8.821   4.594   7.244 -0.0108  0.0760 -0.1246
44469W        W53269   0.829   1.449  27.471 -0.2227 -0.0334 -0.1150
44470W        W53270   8.191   1.615  21.879  0.0388 -0.1008  0.2984
44471W        W53271   8.171   0.666  38.565  0.2747 -0.0958 -0.2393
44472W        W53272   8.681   0.121  14.511 -0.1934 -0.0084  0.0439
44473W        W53273   0.494   6.161  11.232 -0.2538 -0.0836  0.1992
44474W        W53274   4.047   1.567  15.620 -0.2153 -0.0745 -0.1789
44475W        W53275  17.545   5.521  34.528  0.0328  0.0947 -0.1478
44476W        W53276  15.048   2.122  39.914 -0.1510 -0.1750  0.1359
44477W        W53277  18.683   3.765  11.175 -0.0587  0.0587  0.2439
44478W        W53278   7.078   4.631  19.978 -0.1444 -0.4071 -0.2507
44479W        W53279   5.382   5.486  41.490  0.1046 -0.1157  0.0255
44480W        W53280   6.458   1.288   0.628 -0.0368 -0.2733  0.1669
44481W        W53281  12.271   1.957  20.011  0.4999 -0.1622 -0.0878
44482W        W53282   2.979   2.708  12.744  0.3787 -0.0763 -0.4931
44483W        W53283  12.230   1.371   3.898 -0.0792  0.3852  0.0126
44484W        W53284  11.972   1.033   8.432  0.3692 -0.2853  0.0908
44485W        W53285  19.232   6.516  43.941  0.0727  0.1304  0.0577
44486W        W53286  19.333   4.185  21.448 -0.1096 -0.0289  0.2813
44487W        W53287  10.442   2.913  33.994 -0.1984 -0.4311 -0.1459
44488W        W53288   7.437   4.453   9.385  0.2903  0.0171  0.2050
44489W        W53289   7.798   5.205  42.536 -0.3988 -0.2049 -0.1623
44490W        W53290   8.446   2.125   8.511  0.0633 -0.0160  0.0325
44491W        W53291   9.733   1.182  44.768 -0.1798 -0.2070  0.2164
44492W        W53292  12.844   3.465   2.885  0.0522  0.2192 -0.0790
44493W        W53293   2.481   0.672  27.092  0.0341 -0.1324 -0.1524
44494W        W53294   7.561   2.783  39.226 -0.1766  0.0112  0.0566
44495W        W53295  20.696   5.237  11.768  0.4963  0.2343  0.0615
44496W        W53296  20.446   2.013  39.633 -0.3282  0.0148 -0.1676
44497W        W53297  14.895   0.799  29.057  0.0689  0.0506 -0.1260
44498W        W53298   8.177   3.269  19.079  0.0455 -0.2278 -0.1607
44499W        W53299   1.343   1.200  26.107  0.3145 -0.2407  0.2305
44500W        W53300  14.405   0.185   5.433  0.1974  0.0857 -0.2423
44501W        W53301   4.386   1.232  13.224  0.0651 -0.0225  0.1717
44502W        W53302   9.727   6.180  13.738 -0.0958  0.0810 -0.0854
44503W        W53303   2.166   4.788  11.012 -0.2409 -0.5847  0.1259
44504W        W53304   1.026   3.659  24.223  0.0984  0.2913 -0.0652
44505W        W53305  19.812   5.643   9.961 -0.0047 -0.1194 -0.0219
44506W        W53306   0.639   3.743  30.819 -0.2351  0.0168 -0.1108
44507W        W53307   3.234   3.850  40.905 -0.0536 -0.0875  0.2894
44508W        W53308   1.148   6.303  41.828 -0.1623  0.0913 -0.0980
44509W        W53309  15.387   0.636  25.101  0.0949  0.1506  0.1251
44510W        W53310  18.137   5.128  44.926  0.0906  0.1510 -0.0201
44511W        W53311  18.176   1.186  30.558  0.0429 -0.1293 -0.0312
44512W        W53312  14.621   1.553   1.170 -0.0737  0.1959 -0.2229
44513W        W53313  15.414   3.387  14.392  0.1060  0.2300  0.1029
44514W        W53314  16.844   3.104  35.098 -0.2069  0.2300 -0.1251
44515W        W53315  15.374   5.374   6.138 -0.0514  0.0262  0.1532
44516W        W53316  19.422   0.526  41.376  0.1302 -0.2723  0.0019
44517W        W53317  15.338   4.144  29.753  0.0147  0.1835  0.1852
44518W        W53318  16.533   4.348  37.929 -0.1272 -0.7024  0.0895
44519W        W53319  11.456   0.228  35.270  0.2527 -0.2421  0.1519
44520W        W53320  13.708   5.329  10.406 -0.0832 -0.0953  0.0411
44521W        W53321   9.620   1.943  37.673  0.1119 -0.1879  0.0874
44522W        W53322   1.834   5.305   2.801  0.2519 -0.2127 -0.0707
44523W        W53323  13.182   4.489   9.635  0.2669 -0.1903 -0.2225
44524W        W53324  15.459   5.655  26.412  0.2523 -0.2015  0.1193
44525W        W53325  13.196   6.157   6.553  0.0711 -0.1397 -0.1174
44526W        W53326  17.659   2.611  41.745  0.1719 -0.2329 -0.0391
44527W        W53327  20.341   0.222   8.594 -0.4036  0.1702 -0.1634
44528W        W53328  20.065   2.406  42.953  0.0531 -0.1822 -0.1831
44529W        W53329  15.315   3.396  38.982 -0.6425  0.1579 -0.1936
44530W        W53330  10.858   0.834  29.021  0.1008 -0.1023  0.0147
44531W        W53331   5.899   1.486  12.449  0.0392  0.2715 -0.0816
44532W        W53332   1.287   2.722  10.240 -0.1495 -0.1520 -0.0898
44533W        W53333   8.616   2.049  34.992  0.0020 -0.1294  0.1868
44534W        W53334  16.965   0.795  35.797  0.2519 -0.1718 -0.3466
44535W        W53335  14.355   6.051  17.758  0.1656 -0.0118  0.0452
44536W        W53336  16.209   2.864  11.707 -0.0989 -0.0755  0.1606
44537W        W53337  12.370   1.386  13.573 -0.0745  0.1257  0.1511
44538W        W53338  10.378   5.801  36.052 -0.1056 -0.1208  0.0589
44539W        W53339   8.866   1.865  44.912  0.0247 -0.0448  0.2214
44540W        W53340   4.838   1.776  39.576  0.0979 -0.2161 -0.0302
44541W        W53341   9.456   3.926   1.678 -0.2187 -0.3593 -0.0644
44542W        W53342   5.169   3.136  19.323 -0.1669  0.2778  0.0771
44543W        W53343   3.565   1.000   0.821  0.1189  0.2767  0.0898
44544W        W53344   9.384   4.872  14.488 -0.0644  0.0497 -0.2359
44545W        W53345  20.942   0.176  26.058 -0.1378 -0.4359 -0.0807
44546W        W53346  11.609   0.148  41.997  0.0601 -0.1623 -0.0700
44547W        W53347  18.053   3.352  16.617 -0.4475 -0.0619  0.0589
44548W        W53348   2.278   2.892   6.393  0.0013 -0.2102  0.0146
44549W        W53349   6.705   2.586  35.376 -0.2616  0.1325  0.0786
44550W        W53350   3.705   0.680  13.115  0.2513  0.1049  0.1243
44551W        W53351   2.519   4.782  28.754 -0.1230 -0.0255  0.3910
44552W        W53352   4.133   2.766  30.021 -0.3271  0.0294  0.2633
44553W        W53353   1.519   1.633  43.419  0.0325  0.1256  0.1225
44554W        W53354   9.644   5.416  38.193 -0.1346  0.0240  0.0007
44555W        W53355  12.703   4.074  38.068  0.1564 -0.3233 -0.3823
44556W        W53356  17.411   4.433  40.839 -0.3363 -0.2564  0.4264
44557W        W53357   7.430   3.928  30.830 -0.2166  0.1184  0.0166
44558W        W53358   5.708   3.607  14.951 -0.1660 -0.5206  0.2803
44559W        W53359  12.689   3.626  34.888 -0.4337 -0.1303 -0.0938
44560W        W53360  13.199   5.027  17.758  0.1763 -0.1254  0.0597
44561W        W53361   9.237   4.076  38.085 -0.3463  0.1973  0.1536
44562W        W53362   2.333   1.825  37.644 -0.2491 -0.1070  0.2123
44563W        W53363   4.149   0.183  12.593 -0.0137  0.3475  0.0748
44564W        W53364   0.645   4.971  32.703  0.0983  0.0135 -0.0933
44565W        W53365  13.442   5.451   4.001  0.3546 -0.3857 -0.2686
44566W        W53366  13.593   5.651  34.747 -0.1464 -0.0726  0.1017
44567W        W53367  13.811   3.260   3.479  0.1597  0.2203 -0.3082
44568W        W53368   5.420   5.537   3.321  0.1198  0.3532 -0.0398
44569W        W53369   2.431   1.244  27.255 -0.1228 -0.2034 -0.1375
44570W        W53370  11.722   5.534  41.093  0.0789  0.1277 -0.5453
44571W        W53371  12.705   5.947  33.926 -0.3654 -0.1699 -0.2757
44572W        W53372   8.182   6.467  30.319 -0.2385 -0.1425 -0.0797
44573W        W53373  16.732   3.146  11.448  0.2519  0.0643 -0.0189
44574W        W53374   7.459   5.266  34.751  0.0506 -0.2075  0.2299
44575W        W53375  16.898   2.247  30.445 -0.2830 -0.0785  0.0876
44576W        W53376   9.250   2.339  33.569 -0.2405 -0.1216  0.0150
44577W        W53377  10.318   0.828  28.557  0.3021  0.0689  0.2932
44578W        W53378   0.860   2.963  35.348  0.1094  0.0253  0.2247
44579W        W53379   5.390   5.823  39.454  0.1261  0.2412 -0.1610
44580W        W53380  19.770   2.696  23.227  0.0638  0.1448  0.0598
44581W        W53381  11.285   5.653  40.187  0.3437 -0.2531  0.0867
44582W        W53382  13.805   4.748  31.084 -0.0572 -0.0896 -0.1841
44583W        W53383  15.472   2.197  35.363 -0.0033 -0.2426 -0.1783
44584W        W53384   4.989   1.544  14.163  0.3082  0.1004  0.0685
44585W        W53385   7.647   3.542  14.138  0.0859 -0.0224 -0.0098
44586W        W53386   6.889   3.427  18.957  0.1867 -0.1611 -0.2095
44587W        W53387   6.717   0.135  21.276 -0.1441  0.0580 -0.0884
44588W        W53388   2.215   6.357  36.950  0.1325  0.1432  0.0419
44589W        W53389  13.381   4.089  28.497 -0.6163 -0.1729  0.0671
44590W        W53390  11.873   5.307  29.978  0.1826 -0.1373 -0.2458
44591W        W53391  19.415   2.650   6.265 -0.3448 -0.0838  0.0299
44592W        W53392  20.331   4.047  40.661  0.0640  0.1736  0.2892
44593W        W53393  15.075   3.437  30.491 -0.1955 -0.2847 -0.3160
44594W        W53394   0.561   1.291  22.564  0.2867 -0.4126  0.1294
44595W        W53395  17.539   1.817  32.743  0.0444 -0.0160 -0.1833
44596W        W53396  13.316   0.621   2.552 -0.1175  0.0478 -0.0064
44597W        W53397  18.658   5.948  24.476 -0.0226 -0.1921  0.0601
44598W        W53398   8.467   6.244  32.130 -0.1361 -0.1971 -0.3087
44599W        W53399  18.303   2.657  24.132 -0.0745  0.0815  0.1172
44600W        W53400   2.677   0.731   8.363 -0.2209 -0.0860 -0.0972
44601W        W53401  11.123   5.606  36.792  0.1532  0.0895  0.0266
44602W        W53402   1.319   1.698  10.342  0.1869 -0.1519 -0.0830
44603W        W53403  12.757   3.560   8.875 -0.1875  0.3559 -0.0068
44604W        W53404  15.696   5.110   2.720 -0.0190  0.1331 -0.2630
44605W        W53405   6.681   3.236  18.172  0.1119  0.1069  0.0203
44606W        W53406  10.543   4.523  18.045 -0.0597 -0.0845  0.1127
44607W        W53407   1.280   3.263  14.318  0.0875 -0.0712  0.0842
44608W        W53408  14.724   1.447   3.073 -0.0953 -0.0401  0.1564
44609W        W53409   2.119   3.753   0.304  0.1065  0.0220  0.0543
44610W        W53410  16.842   3.055   2.628  0.1976 -0.0623  0.1089
44611W        W53411  16.713   0.810  41.549  0.4308  0.0039 -0.3441
44612W        W53412   4.477   5.796  41.436  0.1884 -0.1858 -0.0533
44613W        W53413  20.513   4.075  37.228 -0.1620 -0.3738 -0.0295
44614W        W53414   3.136   5.225  37.245  0.0595  0.0644 -0.0380
44615W        W53415   9.778   0.383  35.016  0.0438  0.2265  0.4260
44616W        W53416   3.430   6.238   4.833 -0.0097 -0.0027 -0.2151
44617W        W53417  15.444   5.233  40.783 -0.0462 -0.1883 -0.1891
44618W        W53418   6.427   4.814  21.673  0.0141 -0.0063  0.1182
44619W        W53419   7.065   2.021  22.476 -0.2954  0.2392 -0.1040
44620W        W53420   7.184   4.130   7.643  0.2806  0.3801 -0.1072
44621W        W53421  20.492   1.034  10.963 -0.0284 -0.2892 -0.0299
44622W        W53422   3.869   1.706  12.263 -0.0706 -0.0529 -0.1580
44623W        W53423   8.103   6.133  19.886  0.2111  0.2661 -0.3035
44624W        W53424  18.407   4.492  12.989  0.2144  0.1628  0.0276
44625W        W53425   8.797   4.808  32.299 -0.1058  0.0435  0.2677
44626W        W53426  11.590   0.923  32.346  0.2056  0.1959 -0.1101
44627W        W53427  19.877   4.589  42.687 -0.2230  0.0361 -0.2239
44628W        W53428  18.112   1.516  13.328 -0.0315 -0.1361  0.0096
44629W        W53429   6.959   2.933   9.206 -0.1861  0.0496 -0.0587
44630W        W53430   9.158   2.936  41.241 -0.0393 -0.3179  0.1722
44631W        W53431   9.682   4.316  17.490 -0.0113 -0.0389  0.0602
44632W        W53432  12.273   4.731  40.199 -0.1653  0.0639  0.0765
44633W        W53433  17.601   2.202  26.614  0.0280  0.0282  0.0355
44634W        W53434  19.514   2.639  26.949  0.0053  0.0994  0.0721
44635W        W53435  18.193   2.810   9.047 -0.0298 -0.2389 -0.0089
44636W        W53436   2.078   0.018  31.731 -0.1865 -0.0512  0.1588
44637W        W53437  14.387   5.313  40.112 -0.0849 -0.1184 -0.2511
44638W        W53438  20.407   3.096  30.768 -0.0874  0.4839  0.0716
44639W        W53439   3.361   5.651  33.699 -0.0982  0.4735  0.1975
44640W        W53440   4.580   5.661  43.800 -0.2708 -0.1414  0.0829
44641W        W53441  13.430   3.412  17.136 -0.2370  0.2842 -0.1127
44642W        W53442  19.802   0.112  44.666  0.0514 -0.0568 -0.0636
44643W        W53443  15.254   3.323  37.216 -0.1153 -0.2109 -0.1387
44644W        W53444   1.330   1.891   1.017 -0.1525 -0.1424  0.0989
44645W        W53445   2.783   3.747  35.310 -0.1266  0.0321  0.4910
44646W        W53446   1.259   5.357  31.093 -0.2534 -0.1459  0.3883
44647W        W53447  14.178   1.362  43.664  0.1566  0.1835  0.2162
44648W        W53448   3.601   1.103   6.144 -0.0132 -0.1040 -0.1411
44649W        W53449   6.749   5.265   8.330 -0.1431  0.4186  0.1289
44650W        W53450   2.876   1.048  41.066  0.1502 -0.5022 -0.2528
44651W        W53451  11.518   3.826  14.218  0.0252  0.1782  0.1121
44652W        W53452  16.388   4.508  33.911  0.3539  0.1076 -0.2399
44653W        W53453  11.378   1.654   3.438 -0.0704 -0.4868  0.2175
44654W        W53454   7.417   2.490   1.348  0.0545  0.2143  0.1925
44655W        W53455  10.729   3.628  19.792  0.2564  0.0351 -0.0392
44656W        W53456   8.032   1.409  11.496  0.0208 -0.1847 -0.0542
44657W        W53457  20.518   6.594  33.598 -0.0541  0.0217 -0.0270
44658W        W53458  18.823   6.084  29.987 -0.0406  0.0574  0.1204
44659W        W53459  13.657   4.010  29.426  0.3124  0.0431  0.1166
44660W        W53460  11.924   2.493  31.288 -0.0118 -0.4083  0.1003
44661W        W53461  16.682   4.838  25.980 -0.1590  0.2110  0.0032
44662W        W53462  13.504   6.017  38.135 -0.1538  0.0840  0.1768
44663W        W53463   6.471   2.710   4.722 -0.1446  0.0634  0.1405
44664W        W53464   4.786   5.465  39.773 -0.1589  0.3514 -0.0228
44665W        W53465  19.678   2.039   8.649  0.0864 -0.2798  0.2813
44666W        W53466  15.300   6.336   0.783 -0.4216 -0.0704  0.0448
44667W        W53467  17.618   3.313  31.435  0.1591  0.0707  0.4405
44668W        W53468   9.465   4.094   9.507 -0.0830  0.2246 -0.2145
44669W        W53469   4.038   6.585   3.765 -0.1665  0.1325  0.1296
44670W        W53470  17.054   4.871  44.552  0.0700  0.1298  0.0337
44671W        W53471  19.977   0.240   3.017  0.1769  0.4186  0.0879
44672W        W53472   1.451   4.934  35.526  0.0988  0.2731 -0.0862
44673W        W53473   5.348   4.834   3.902  0.2096  0.0373  0.0008
44674W        W53474  15.384   3.900   4.613  0.0768 -0.0665 -0.0319
44675W        W53475   5.304   0.571  16.777  0.0505 -0.0171  0.0707
44676W        W53476  14.761   3.184  35.822 -0.2074 -0.1237  0.0029
44677W        W53477  13.938   1.599  10.426  0.0224 -0.0288  0.0811
44678W        W53478   5.065   3.359  16.070  0.3305 -0.1852  0.2152
44679W        W53479  16.650   1.153   1.983 -0.1358  0.1816  0.1291
44680W        W53480  21.104   6.539  36.374 -0.0714  0.0631  0.0460
44681W        W53481  10.526   2.906  18.754  0.3359  0.1033 -0.2149
44682W        W53482   7.132   2.871   1.557 -0.2408 -0.0307  0.2321
44683W        W53483   8.406   4.797   4.337 -0.1927  0.2770 -0.0495
44684W        W53484   2.640   1.772  35.218 -0.0723 -0.3128  0.1202
44685W        W53485   7.376   4.707  40.693 -0.1009 -0.1381 -0.2108
44686W        W53486  15.915   4.827  39.635 -0.0086  0.1310 -0.0473
44687W        W53487   5.462   1.204   6.306  0.4095  0.2109  0.0838
44688W        W53488   3.521   1.038   0.318  0.1925 -0.3886 -0.0755
44689W        W53489  14.034   4.498  14.451 -0.0009 -0.0734 -0.0179
44690W        W53490   8.575   5.469  11.218 -0.1371  0.1927 -0.1413
44691W        W53491   9.056   4.527  40.998  0.0939 -0.3038 -0.0113
44692W        W53492  12.944   1.920   8.930  0.0147  0.2684  0.1080
44693W        W53493   7.740   1.536  35.999  0.0953  0.2764  0.1253
44694W        W53494  11.771   0.204  20.653  0.0511 -0.1280 -0.0533
44695W        W53495   8.727   5.270  38.805  0.3802  0.0764 -0.3848
44696W        W53496  21.068   2.411  33.043 -0.1723  0.0200  0.3110
44697W        W53497   6.174   4.484  42.386 -0.1769  0.2257 -0.2009
44698W        W53498   6.357   5.409  21.441  0.3312 -0.1484 -0.3923
44699W        W53499  18.100   3.962  12.455 -0.1008 -0.0414  0.2170
44700W        W53500  14.227   4.879  40.875 -0.2150  0.2273  0.0449
44701W        W53501   6.504   0.734  12.423 -0.2975  0.1699 -0.2004
44702W        W53502   4.561   5.402  41.707 -0.2085  0.0808  0.5097
44703W        W53503   5.556   2.360   7.073 -0.0351 -0.0143 -0.2387
44704W        W53504  18.542   1.872   4.283 -0.0735 -0.2409 -0.0904
44705W        W53505  20.054   6.088  37.000  0.0571  0.1781 -0.0806
44706W        W53506   4.481   0.346  13.437 -0.0351  0.1266  0.2199
44707W        W53507   3.035   3.075  31.312 -0.1208 -0.0015  0.1808
44708W        W53508   5.232   2.834  12.063  0.0273  0.1197 -0.3187
44709W        W53509  14.998   0.804  32.031  0.3490 -0.0561  0.0539
44710W        W53510   3.816   2.534  38.609 -0.3018 -0.0080 -0.0540
44711W        W53511   0.138   0.830   6.930 -0.0080 -0.1591 -0.0282
44712W        W53512   0.856   4.353  39.060 -0.0692 -0.1450 -0.0920
44713W        W53513  15.514   2.135  12.431 -0.0426 -0.0543 -0.1322
44714W        W53514   1.378   1.814  15.081 -0.2213 -0.0659  0.0575
44715W        W53515  17.930   5.332  24.184 -0.3144  0.0243 -0.3118
44716W        W53516  12.656   1.349  20.055 -0.1065 -0.1757 -0.2721
44717W        W53517  19.287   0.695  15.555  0.0459 -0.2798 -0.2062
44718W        W53518  18.168   2.107  15.458 -0.0006  0.0496  0.0701
44719W        W53519  19.159   1.026  26.421 -0.3079 -0.0794  0.1508
44720W        W53520  19.625   1.904  39.364  0.1321 -0.2995  0.0028
44721W        W53521  12.628   5.115   7.775  0.5297  0.0076  0.0808
44722W        W53522   6.489   4.859   6.562 -0.0995  0.1328 -0.0813
44723W        W53523  19.030   5.086  43.443  0.0131 -0.3337  0.0880
44724W        W53524  16.758   4.220  35.717  0.0849 -0.2977 -0.0634
44725W        W53525   4.832   0.957  34.018 -0.2331 -0.5964  0.0717
44726W        W53526  15.466   3.549  43.315 -0.0457 -0.1257  0.1813
44727W        W53527  19.152   2.524  29.958 -0.2367 -0.1984 -0.0305
44728W        W53528   5.135   4.599  14.833 -0.3565 -0.2710  0.0066
44729W        W53529   8.383   1.409  33.110 -0.0686 -0.0477 -0.1801
44730W        W53530  15.042   0.227   4.735 -0.0535 -0.0923  0.2091
44731W        W53531   0.678   3.179  38.347  0.3840 -0.3402  0.3041
44732W        W53532   8.083   5.068  15.631 -0.1917 -0.3802 -0.1129
44733W        W53533   5.933   5.041  30.138 -0.1735 -0.1502  0.1701
44734W        W53534   4.710   5.945  34.975  0.1542 -0.0601  0.0542
44735W        W53535  11.954   3.949  12.640  0.3337  0.1136  0.3704
44736W        W53536  10.417   1.914  14.286  0.1545  0.2568 -0.3235
44737W        W53537  17.306   6.007  10.492 -0.2369  0.0366 -0.0064
44738W        W53538  14.718   3.866  11.123  0.2360 -0.0294 -0.3489
44739W        W53539  20.793   3.353  37.682 -0.2246 -0.2433 -0.0929
44740W        W53540  10.791   3.268   8.962  0.1653  0.0647  0.0103
44741W        W53541   1.557   5.423  42.906 -0.2356 -0.0600  0.5951
44742W        W53542  12.498   5.726  29.037 -0.1094 -0.3459 -0.1944
44743W        W53543   5.186   1.969  33.176 -0.0104  0.0258  0.2068
44744W        W53544   4.106   4.950  28.356 -0.1440 -0.0638 -0.1571
44745W        W53545   6.078   6.284   3.432  0.0171  0.1338  0.0716
44746W        W53546  11.627   0.110   2.271  0.2509  0.1365  0.0066
44747W        W53547   5.658   5.966   6.139  0.0998 -0.1464 -0.0058
44748W        W53548   7.183   2.364   6.896 -0.0119  0.0727  0.0122
44749W        W53549  19.085   2.163  11.859  0.0717 -0.0861  0.0424
44750W        W53550  10.658   4.422   4.286 -0.0426 -0.1521 -0.1704
44751W        W53551   0.936   0.659  31.012  0.0416  0.0295  0.1337
44752W        W53552  15.655   0.497  43.647 -0.0747  0.3143  0.1236
44753W        W53553   3.037   6.232  11.313 -0.0079 -0.0325  0.1142
44754W        W53554   0.719   0.296  23.063 -0.1498  0.3607 -0.1210
44755W        W53555  19.759   1.101   0.123  0.0422 -0.0298 -0.2453
44756W        W53556   1.201   3.352  16.019  0.0742 -0.1943  0.1429
44757W        W53557   3.485   0.326  44.638 -0.0232  0.3527 -0.0754
44758W        W53558  19.301   4.366  40.800 -0.3262  0.3561  0.1324
44759W        W53559   7.384   3.452  44.971 -0.1491  0.0027 -0.4265
44760W        W53560   0.485   2.361   4.178  0.0881 -0.0326  0.0765
44761W        W53561  17.841   6.462  37.682  0.1875  0.0625  0.2046
44762W        W53562  11.624   4.207  19.949 -0.1604 -0.0940  0.0758
44763W        W53563  15.052   6.088  29.338 -0.1110 -0.0266 -0.0202
44764W        W53564   5.774   0.010  41.464 -0.1898  0.0294 -0.1958
44765W        W53565  12.476   4.613  20.347 -0.0384 -0.0234 -0.2099
44766W        W53566   4.617   1.222   7.374  0.1042 -0.1460  0.2064
44767W        W53567  19.802   3.928  15.159  0.1509  0.0236 -0.1227
44768W        W53568   5.803   1.236  19.954 -0.0534  0.3257 -0.1774
44769W        W53569   7.671   1.111  15.172 -0.0121  0.0383  0.0171
44770W        W53570   9.464   6.444  10.763 -0.0869  0.1275 -0.2369
44771W        W53571  10.642   0.525  39.965  0.3580  0.1183  0.0268
44772W        W53572   7.880   3.523  37.507 -0.0343  0.0869  0.3961
44773W        W53573   8.933   1.822  31.356  0.0474 -0.4113  0.1804
44774W        W53574  16.892   4.931  28.092  0.0058  0.0202  0.1698
44775W        W53575  11.683   3.436  32.550  0.1747 -0.1928  0.2201
44776W        W53576   7.873   1.954  22.522  0.0796 -0.3722 -0.1214
44777W        W53577  20.140   4.329  12.952 -0.0803  0.1586 -0.0259
44778W        W53578  16.561   1.583  30.786 -0.0445 -0.2034 -0.1884
44779W        W53579  14.960   2.170  16.784 -0.2441 -0.2173  0.1657
44780W        W53580   1.040   3.909  32.743  0.1808  0.2186  0.1290
44781W        W53581  20.435   1.704   0.228  0.2220 -0.2828  0.1245
44782W        W53582  14.561   4.565  31.603 -0.3028  0.1837  0.0400
44783W        W53583   7.784   5.288   1.623  0.0945 -0.0616  0.2502
44784W        W53584  20.612   1.022  35.218  0.1001 -0.3286  0.0961
44785W        W53585  16.371   0.284  41.880 -0.0012  0.2052 -0.1989
44786W        W53586   8.676   2.453  41.896  0.0614 -0.2646  0.3771
44787W        W53587   9.689   3.151  18.990 -0.2887  0.0530 -0.3826
44788W        W53588   5.330   0.757   5.755  0.0827 -0.0143 -0.3696
44789W        W53589   3.555   0.487   4.896  0.0173  0.1018 -0.0091
44790W        W53590   2.732   0.068  35.516 -0.2363 -0.0576 -0.0452
44791W        W53591   8.039   4.214   7.063  0.3285  0.0168 -0.0779
44792W        W53592  12.466   3.041  16.717 -0.0036  0.0062 -0.0575
44793W        W53593  20.959   0.233  37.720 -0.1470 -0.1019 -0.0578
44794W        W53594  10.113   4.531  41.093 -0.0254  0.1408  0.0832
44795W        W53595  14.925   2.580  10.403  0.3019  0.3914  0.1564
44796W        W53596  18.814   4.954  25.210 -0.0491 -0.4336  0.0330
44797W        W53597   2.221   2.753   0.394 -0.5943  0.0552  0.1149
44798W        W53598  13.706   0.161  17.503  0.2729  0.0487  0.1621
44799W        W53599  19.881   3.320  30.640 -0.0388 -0.4089 -0.1292
44800W        W53600  19.739   1.844  26.019 -0.2085 -0.0740  0.0944
44801W        W53601  16.431   0.558  12.743  0.0176  0.2102 -0.1976
44802W        W53602   3.354   0.266  26.744 -0.0817  0.3359 -0.1390
44803W        W53603  10.577   1.824   6.868  0.1076 -0.0796 -0.1685
44804W        W53604   2.646   0.020  36.923  0.0704  0.2414 -0.0913
44805W        W53605   7.963   3.544  16.873 -0.2573 -0.0008  0.1060
44806W        W53606  12.949   0.006  40.373  0.2592 -0.5631  0.0648
44807W        W53607  11.676   5.963  43.876 -0.0109  0.0917  0.1648
44808W        W53608  13.465   0.231   5.503 -0.1965 -0.2476  0.2889
44809W        W53609  14.670   2.349  40.259 -0.1034  0.0980  0.2316
44810W        W53610   6.236   4.611  41.936 -0.0289  0.0879 -0.1049
44811W        W53611   5.895   3.493  45.058  0.0964  0.1740 -0.3572
44812W        W53612   9.292   5.434  18.559 -0.0639 -0.3496 -0.0592
44813W        W53613   8.645   5.763  32.197  0.0855 -0.0069 -0.3462
44814W        W53614  19.713   2.376  45.038 -0.0314 -0.1284 -0.0958
44815W        W53615  16.971   6.198  12.727 -0.4059  0.1330 -0.0763
44816W        W53616   3.998   0.699   4.738  0.0475  0.1830 -0.1338
44817W        W53617  11.205   4.683  10.415  0.0282  0.1860 -0.0283
44818W        W53618   9.716   1.453  39.361  0.2024  0.0564 -0.2431
44819W        W53619  10.003   3.369  21.663 -0.2364 -0.2656  0.0551
44820W        W53620   6.597   3.134  40.313 -0.1385  0.1741 -0.1068
44821W        W53621  19.569   5.078  23.541 -0.0788  0.0237 -0.2028
44822W        W53622  20.885   3.537  41.168 -0.0258 -0.0353  0.2137
44823W        W53623   7.025   3.499  30.018 -0.2034  0.0007 -0.2265
44824W        W53624  16.779   5.671   7.574  0.1681  0.0289 -0.1568
44825W        W53625   6.871   2.883   8.561  0.3156  0.1876  0.3237
44826W        W53626  17.191   2.227  29.424  0.1550  0.2312  0.0371
44827W        W53627  15.865   3.453  27.227 -0.0575 -0.2108  0.0663
44828W        W53628  17.251   3.964  43.205 -0.0490 -0.0149  0.0395
44829W        W53629  18.534   2.433   9.163  0.1646  0.0232 -0.0458
44830W        W53630  19.422   6.352  30.329 -0.1649  0.1988  0.0593
44831W        W53631  10.321   4.963   6.636 -0.4154  0.1840  0.2482
44832W        W53632   9.924   2.682  43.901 -0.3331 -0.1760  0.0248
44833W        W53633   7.107   4.663  16.089 -0.1560  0.0631 -0.2544
44834W        W53634   0.971   0.814  32.930 -0.1481  0.0360  0.2160
44835W        W53635  13.074   2.499  13.576  0.1876  0.1026 -0.0967
44836W        W53636  17.298   1.617  44.430  0.2057 -0.0576 -0.3091
44837W        W53637   2.349   2.581   8.954  0.1635  0.2243 -0.2206
44838W        W53638  10.670   1.494   1.123  0.0103  0.0033  0.1582
44839W        W53639  11.149   0.694   6.851 -0.2153 -0.1498 -0.1426
44840W        W53640  18.280   1.392   4.582 -0.2145  0.0730 -0.1301
44841W        W53641  12.782   4.689  43.285  0.1903  0.1443  0.1227
44842W        W53642  17.277   4.202  10.453 -0.2404 -0.0912  0.0167
44843W        W53643   0.140   2.267   0.553  0.0881  0.1668  0.2037
44844W        W53644   1.310   2.356  28.051  0.1011  0.2185  0.1040
44845W        W53645   8.424   4.784  31.637  0.1725 -0.1134 -0.0902
44846W        W53646   8.206   3.184  41.416 -0.0211  0.1331  0.1674
44847W        W53647  13.065   3.306  37.607  0.0126  0.0676 -0.2249
44848W        W53648  11.709   3.392  16.768 -0.1351  0.0671 -0.0189
44849W        W53649   3.746   6.052  39.060  0.0451 -0.0428 -0.0326
44850W        W53650   3.350   1.028  16.586  0.2423  0.1793 -0.2484
44851W        W53651  17.611   5.465  23.377 -0.0090  0.1196  0.0076
44852W        W53652   9.722   1.687   4.797  0.2384 -0.2712 -0.1306
44853W        W53653   1.235   3.986  24.847 -0.0774 -0.1075 -0.1451
44854W        W53654  14.095   1.033  17.735 -0.1533  0.0383 -0.1788
44855W        W53655   0.621   2.215  10.091  0.2538 -0.0452 -0.0593
44856W        W53656   6.174   3.646  20.029 -0.0794 -0.0279 -0.2188
44857W        W53657  13.575   0.617  38.252  0.0689 -0.1948  0.0384
44858W        W53658   0.002   1.523   5.083  0.1503 -0.0468 -0.2882
44859W        W53659  13.898   5.805   2.913 -0.0567 -0.1563  0.2443
44860W        W53660  18.036   4.806  38.197 -0.1931  0.0018 -0.2220
44861W        W53661  21.093   0.925  31.194 -0.0223  0.0810 -0.2228
44862W        W53662  17.651   0.995   8.631 -0.0380 -0.0348 -0.1426
44863W        W53663  18.173   6.512  40.348  0.0491  0.0690  0.2187
44864W        W53664   0.908   5.896   3.381  0.0419  0.1698  0.3439
44865W        W53665   7.490   2.640   4.457  0.0164 -0.1934 -0.1808
44866W        W53666   5.333   5.418  36.439 -0.0414 -0.0927 -0.0544
44867W        W53667   0.024   2.369   3.855  0.1453 -0.2927  0.2444
44868W        W53668  12.428   3.511  31.981  0.1163 -0.1193  0.3404
44869W        W53669  11.561   0.436   1.413  0.1061  0.0620  0.1576
44870W        W53670  18.532   2.701  26.789 -0.0613 -0.1613 -0.1547
44871W        W53671  16.571   3.902   6.497  0.0375 -0.0568 -0.0919
44872W        W53672  18.792   0.033  16.005  0.0779  0.2326 -0.1457
44873W        W53673  19.353   3.668  32.660 -0.0496 -0.5707  0.0637
44874W        W53674   0.538   0.462  40.658  0.1178 -0.1548  0.1071
44875W        W53675  17.193   6.412   6.270 -0.1027  0.3473  0.3342
44876W        W53676  14.805   1.309   8.869 -0.2401 -0.0691 -0.1687
44877W        W53677   4.657   1.914  34.863  0.1143  0.1902  0.0833
44878W        W53678   0.185   0.111   8.407  0.1113 -0.0593 -0.0436
44879W        W53679  14.752   1.718  30.463 -0.0032 -0.1253  0.1260
44880W        W53680  19.728   3.805  13.189 -0.2200  0.0096 -0.4525
44881W        W53681  10.664   4.890   0.163 -0.0247  0.2084  0.1883
44882W        W53682  15.576   5.407  29.331  0.2619 -0.1636 -0.1002
44883W        W53683  16.965   5.717   1.074 -0.2746 -0.0915 -0.0420
44884W        W53684  20.621   5.746   0.757  0.1983  0.1012  0.0119
44885W        W53685   1.838   0.221  38.985  0.0094 -0.1356  0.1831
44886W        W53686   7.814   5.590  24.636  0.0409  0.0781  0.0302
44887W        W53687   9.627   3.697   6.625 -0.2129  0.3850 -0.2784
44888W        W53688  12.533   3.868  28.657  0.1203 -0.1185  0.2574
44889W        W53689   4.058   6.036  28.932 -0.0102  0.0920  0.1022
44890W        W53690  17.073   5.516   4.785 -0.0472 -0.2315  0.0586
44891W        W53691  14.807   4.662  44.863  0.1367 -0.2341 -0.1346
44892W        W53692  21.050   1.693  13.045 -0.4583 -0.1957 -0.0030
44893W        W53693   2.683   3.842   7.982  0.2477 -0.1343 -0.0918
44894W        W53694  16.887   4.495  10.195 -0.1470 -0.0039 -0.0221
44895W        W53695  10.779   5.038  35.750  0.1484 -0.1337 -0.0056
44896W        W53696  20.931   1.523  33.982  0.0529 -0.1987  0.0856
44897W        W53697   2.521   4.513  39.266 -0.1928  0.1271  0.1174
44898W        W53698   4.378   0.193   1.119 -0.1687  0.1550 -0.0376
44899W        W53699   8.078   5.163  21.518 -0.1393  0.2205  0.1689
44900W        W53700  14.435   2.447  10.356  0.4239 -0.0213  0.2116
44901W        W53701   9.146   2.252  38.400  0.0617 -0.2121  0.3493
44902W        W53702  12.112   6.506  41.289  0.4138 -0.1886 -0.1950
44903W        W53703  15.630   4.266  44.692  0.2139  0.0200  0.1149
44904W        W53704   2.779   4.305  13.440 -0.2369  0.1597 -0.1769
44905W        W53705  16.852   3.927  42.940  0.2114 -0.3996  0.0264
44906W        W53706   9.059   1.796  15.257  0.0563  0.0616 -0.0841
44907W        W53707  12.319   3.344  36.839  0.1376  0.0933 -0.2844
44908W        W53708  19.846   0.375  12.079 -0.0129  0.1279 -0.0999
44909W        W53709  10.794   6.042   8.177 -0.0726  0.0010 -0.3772
44910W        W53710   2.554   5.187   5.720  0.2918 -0.1122  0.2572
44911W        W53711  15.186   5.552  30.853 -0.0806 -0.0429 -0.0171
44912W        W53712   1.899   4.051  41.494  0.0619 -0.2402 -0.1983
44913W        W53713  15.080   0.166  35.883  0.1408  0.1115 -0.0772
44914W        W53714  12.932   5.281  14.300  0.1776  0.0395  0.2753
44915W        W53715   0.923   1.541  32.332 -0.0323  0.0833 -0.0263
44916W        W53716   0.702   3.071  25.232  0.1242  0.0383  0.0784
44917W        W53717  16.304   2.778  33.345  0.0586  0.2447 -0.0774
44918W        W53718  14.492   2.061  35.505 -0.1600 -0.2236  0.0642
44919W        W53719   4.563   6.548   0.657  0.3068 -0.1662 -0.0655
44920W        W53720  16.016   1.458  43.030  0.0578  0.0269 -0.0353
44921W        W53721   7.724   3.801  39.733  0.0067 -0.2850  0.1711
44922W        W53722   9.793   1.324  29.838 -0.2292  0.2883 -0.2126
44923W        W53723  17.845   4.747  34.770 -0.0750  0.4426  0.3285
44924W        W53724  15.564   6.290  12.213 -0.0052 -0.2144 -0.0611
44925W        W53725   8.404   6.169  14.919 -0.0721  0.1930  0.0656
44926W        W53726   2.185   1.925  34.876  0.2164  0.0596 -0.3478
44927W        W53727   9.714   5.031  34.422  0.3022  0.3378  0.2150
44928W        W53728  15.473   1.598  28.158 -0.4320  0.0850 -0.0237
44929W        W53729   9.956   3.563  31.271 -0.0310  0.0058  0.0203
44930W        W53730  17.026   4.150  30.561 -0.1222  0.0888 -0.1684
44931W        W53731  20.104   1.182  15.923  0.1418 -0.1368 -0.1510
44932W        W53732   3.379   5.411  40.779 -0.0105 -0.2089 -0.0343
44933W        W53733   7.682   1.652  14.569 -0.0256 -0.3800  0.0084
44934W        W53734  14.530   3.714  32.586  0.3405 -0.1787 -0.0418
44935W        W53735   0.867   5.124   8.562  0.2199 -0.3297 -0.0493
44936W        W53736  19.912   4.002  18.647 -0.2233 -0.1936 -0.2577
44937W        W53737  11.351   2.412  44.279  0.1433  0.1809  0.0744
44938W        W53738   9.895   4.425  11.961 -0.2828  0.0911 -0.3182
44939W        W53739  10.384   1.297  12.545  0.2051  0.2287 -0.0555
44940W        W53740  11.085   3.061   1.278 -0.0736 -0.0882 -0.3993
44941W        W53741   7.787   6.094   6.217 -0.2217 -0.0441 -0.1403
44942W        W53742  17.303   4.595  30.589  0.1198  0.0381  0.4760
44943W        W53743   5.295   3.794  11.999 -0.1099 -0.0310  0.2659
44944W        W53744  20.037   0.386  21.915 -0.1004 -0.0332  0.0171
44945W        W53745  14.708   1.899  34.898  0.1068 -0.1274 -0.1979
44946W        W53746  15.496   2.926  34.985  0.0306  0.0507  0.0052
44947W        W53747  14.366   0.468  43.119  0.2181  0.1228 -0.1124
44948W        W53748  10.789   6.337  12.684 -0.0814 -0.2035  0.0603
44949W        W53749  17.944   6.048  39.029  0.1197  0.1460  0.2006
44950W        W53750  13.917   0.195   1.669 -0.0954 -0.0717  0.3001
44951W        W53751   0.659   0.738  34.121  0.0534 -0.0797 -0.0832
44952W        W53752   5.055   2.355   9.609  0.0238  0.0145 -0.1758
44953W        W53753  14.797   5.025  11.869 -0.2152  0.0709 -0.0737
44954W        W53754   1.808   5.540  11.748 -0.0223  0.4749  0.1036
44955W        W53755   8.512   5.643  12.699 -0.2642 -0.4383  0.0166
44956W        W53756  17.261   1.444   3.476 -0.2297 -0.1133  0.3436
44957W        W53757  18.137   3.621  16.155  0.0528 -0.0939 -0.0560
44958W        W53758   9.343   3.172  32.478  0.0366  0.1482  0.2376
44959W        W53759   8.274   1.028  29.417  0.2775  0.2983  0.0708
44960W        W53760   3.384   5.647  37.122 -0.3045  0.0093 -0.2892
44961W        W53761  14.500   4.804  27.706  0.1826  0.0725 -0.0990
44962W        W53762  17.618   5.010  25.671 -0.2546 -0.2299 -0.1565
44963W        W53763   9.813   1.910  19.287 -0.2083  0.0529 -0.1432
44964W        W53764   6.466   0.535   8.402  0.3180 -0.1029 -0.1488
44965W        W53765   3.910   5.834   8.827  0.3533 -0.0616  0.1542
44966W        W53766  11.772   5.944  13.428  0.1290 -0.2550 -0.1608
44967W        W53767  11.143   6.065  42.280  0.1800  0.2729 -0.1597
44968W        W53768  20.688   5.664  33.764  0.0065 -0.1225  0.2145
44969W        W53769  20.999   1.074  13.059 -0.1679 -0.1792 -0.3683
44970W        W53770   3.888   1.527  40.645 -0.0241 -0.0066 -0.1511
44971W        W53771  18.844   6.455   3.726  0.0046 -0.1007  0.2918
44972W        W53772   7.188   1.432  15.450 -0.2553 -0.3115 -0.0217
44973W        W53773   9.656   0.797  35.558  0.2473  0.1372 -0.1877
44974W        W53774   3.466   4.469   7.384  0.0588  0.0082  0.0524
44975W        W53775   8.626   4.214   3.841 -0.0206  0.2177 -0.0617
44976W        W53776  17.303   6.535  35.515  0.0250 -0.0406  0.2991
44977W        W53777  11.717   5.584   7.078 -0.1470 -0.2178  0.1370
44978W        W53778  10.772   0.843  36.540 -0.1076  0.0837 -0.0096
44979W        W53779   2.010   3.312  43.914  0.0717 -0.2567  0.3499
44980W        W53780  17.358   6.126  31.806  0.1524  0.2098 -0.0889
44981W        W53781   7.699   3.476  32.900  0.2680 -0.0540 -0.2624
44982W        W53782  15.874   4.704  14.067  0.0729  0.2401  0.2323
44983W        W53783  11.635   0.515   4.031 -0.0963 -0.2205 -0.2305
44984W        W53784  11.580   3.166  42.506 -0.3181  0.0967 -0.0685
44985W        W53785  14.744   1.783   7.014  0.3006 -0.2038  0.2624
44986W        W53786   0.840   2.900  32.555  0.1407 -0.0724 -0.0349
44987W        W53787  15.650   3.038  12.161  0.1333 -0.1061  0.0363
44988W        W53788   2.734   2.761   2.900  0.1318 -0.0970  0.1188
44989W        W53789   1.043   5.977  23.209  0.3601  0.4601  0.2367
44990W        W53790  17.493   0.513  29.927 -0.2370  0.0472  0.2590
44991W        W53791   8.428   1.937  13.351  0.1554  0.1316 -0.1115
44992W        W53792   9.547   3.898  31.115  0.1132 -0.2146  0.0595
44993W        W53793   4.616   6.095  28.662  0.0045 -0.0271 -0.0207
44994W        W53794   7.705   3.996  17.614 -0.2251  0.1521 -0.2436
44995W        W53795   2.946   4.026  36.272  0.0726 -0.2144 -0.0777
44996W        W53796  13.364   3.131  36.016 -0.0028 -0.0676 -0.1955
44997W        W53797  16.902   6.328  11.232 -0.1003  0.0316 -0.1515
44998W        W53798  17.477   0.646  16.545 -0.1416 -0.0426  0.3458
44999W        W53799  18.317   1.852  37.045 -0.0579 -0.2286  0.1388
45000W        W53800  10.196   3.154   1.415 -0.2903 -0.2193  0.1708
45001W        W53801  15.973   1.639  38.804 -0.0016  0.0969 -0.0491
45002W        W53802   9.606   2.753  17.278 -0.0041  0.1129  0.0156
45003W        W53803   0.783   3.111   3.724 -0.0205  0.1488 -0.0747
45004W        W53804  13.185   6.563  43.908  0.1367  0.1719  0.0663
45005W        W53805  16.217   5.736  40.049  0.1718  0.2036 -0.0730
45006W        W53806  20.788   4.576  38.335  0.1315 -0.2543  0.0124
45007W        W53807   1.575   3.229   8.970  0.3018  0.1618 -0.0305
45008W        W53808   5.515   6.379  43.875  0.0104 -0.2314 -0.1145
45009W        W53809  18.205   5.787  13.530  0.0293  0.1838 -0.0209
45010W        W53810  21.008   1.068  30.237  0.0064 -0.3233  0.1188
45011W        W53811  12.696   1.970   9.917  0.3823  0.0075 -0.2484
45012W        W53812   0.416   5.965  44.680 -0.1573  0.2238  0.2216
45013W        W53813   0.910   5.652  23.660  0.0465  0.0562 -0.1875
45014W        W53814   3.067   1.154   1.549  0.0956 -0.1795 -0.3327
45015W        W53815   9.241   0.238   3.398 -0.1470 -0.2110 -0.1969
45016W        W53816   1.312   0.417  35.377  0.0054 -0.0210 -0.3152
45017W        W53817  20.615   5.222  34.229 -0.0222 -0.2344 -0.0358
45018W        W53818   0.631   4.068  26.060 -0.0822 -0.0553  0.2141
45019W        W53819   8.181   4.986  30.391 -0.4378 -0.1388 -0.2261
45020W        W53820  14.262   3.757  11.696 -0.1032  0.0524 -0.2441
45021W        W53821   2.487   6.086  26.842  0.0235  0.1013 -0.1325
45022W        W53822   6.703   4.740  11.869  0.0888 -0.1183  0.1423
45023W        W53823  11.439   2.983  37.665  0.3117 -0.1337  0.2496
45024W        W53824  15.901   5.994  12.355 -0.3324  0.1391  0.0269
45025W        W53825   6.586   6.300  34.800 -0.0863  0.3279 -0.0642
45026W        W53826   8.441   2.967  37.053 -0.0588 -0.0684 -0.0712
45027W        W53827   1.103   3.914   2.672 -0.0944 -0.2213  0.1498
45028W        W53828  19.691   2.678  28.531 -0.0222  0.1814  0.3526
45029W        W53829   2.601   3.293  38.778  0.1679 -0.0150  0.2169
45030W        W53830  20.173   2.296   6.984  0.1047  0.0063 -0.0520
45031W        W53831  14.348   4.394  35.907  0.1432  0.0406  0.3877
45032W        W53832   4.549   4.240  39.738  0.0872  0.3428 -0.0284
45033W        W53833  16.644   0.574  40.404 -0.1877  0.1946 -0.1346
45034W        W53834  18.118   6.548  41.821  0.0304 -0.1001 -0.1144
45035W        W53835   8.134   1.105   1.149  0.2154  0.3480 -0.1444
45036W        W53836   2.041   3.760  43.552 -0.1730  0.1507  0.0658
45037W        W53837   0.269   2.757  29.781 -0.1828 -0.0499  0.1275
45038W        W53838   1.968   3.015  38.495  0.2093  0.0714  0.1297
45039W        W53839  12.157   3.169  40.076 -0.3164 -0.0032  0.1204
45040W        W53840   2.325   4.756  11.512  0.0788 -0.1030 -0.2555
45041W        W53841  20.763   6.171  40.711  0.2012  0.0873  0.1523
45042W        W53842  14.608   6.408  29.429  0.2180  0.1986  0.3777
45043W        W53843   3.575   2.216  29.637 -0.1562  0.0691  0.1224
45044W        W53844   4.346   2.402  13.064 -0.0123  0.1545 -0.0247
45045W        W53845   1.120   0.399  27.424  0.1269 -0.0003  0.3650
45046W        W53846  12.488   5.060  14.193 -0.1437  0.0741  0.1291
45047W        W53847   9.787   2.024  32.277  0.0237  0.1364 -0.4191
45048W        W53848  17.143   2.170   9.038 -0.4509  0.1689 -0.0368
45049W        W53849  18.283   4.820  28.431  0.1419 -0.1269 -0.2385
45050W        W53850  18.930   3.720  37.287  0.1264  0.3222  0.0224
45051W        W53851  11.176   3.570  11.429  0.0975 -0.1790  0.4749
45052W        W53852  13.913   4.915  18.962 -0.1600 -0.4165  0.0253
45053W        W53853   6.638   4.240  29.647 -0.1180 -0.0372 -0.1344
45054W        W53854   5.141   4.117  19.536 -0.2430  0.2413  0.1645
45055W        W53855  11.078   5.738  41.828 -0.0550 -0.2285  0.2055
45056W        W53856   3.755   3.874   6.538  0.1415 -0.0555 -0.2254
45057W        W53857  18.521   0.794  36.683  0.0472 -0.3002  0.0464
45058W        W53858   8.663   5.190  31.951 -0.1999  0.0651 -0.2960
45059W        W53859  10.252   1.436  43.835 -0.0717 -0.2133 -0.1559
45060W        W53860   6.686   5.599  17.834  0.0130  0.1037 -0.1157
45061W        W53861   6.066   5.728  16.304  0.2710  0.0679 -0.2303
45062W        W53862  12.906   3.198  38.084 -0.2325  0.4129  0.3067
45063W        W53863  19.299   6.580   3.780  0.0833  0.2196 -0.1711
45064W        W53864  13.542   1.473  40.380  0.0043 -0.1012 -0.1210
45065W        W53865  10.181   6.596   1.646  0.1296 -0.3579  0.1916
45066W        W53866  11.965   5.076  30.386 -0.2426  0.0594  0.2253
45067W        W53867   6.767   4.276  19.306 -0.1004 -0.2278 -0.0707
45068W        W53868   2.672   1.553  43.276 -0.0084  0.2834 -0.2223
45069W        W53869  10.710   3.432  18.670 -0.1225  0.0089  0.0039
45070W        W53870  20.222   5.315  31.230 -0.1697 -0.1529  0.1241
45071W        W53871  19.954   3.476   6.018 -0.1518  0.0673 -0.1096
45072W        W53872  16.118   3.513  41.177 -0.3584  0.0823  0.0777
45073W        W53873   5.391   5.191  28.932 -0.0254  0.1230 -0.2348
45074W        W53874   1.199   4.060   9.605  0.1759  0.2640 -0.1984
45075W        W53875  11.794   2.308  22.239  0.3100 -0.0576  0.2677
45076W        W53876  17.842   5.454  39.857  0.0963 -0.1139 -0.2179
45077W        W53877  17.563   2.403   6.555  0.0122  0.1991 -0.0389
45078W        W53878  12.947   1.092  31.086 -0.3118 -0.0785  0.2886
45079W        W53879  19.240   0.561  40.479 -0.0333 -0.0126  0.3423
45080W        W53880   4.350   3.153   0.547  0.1290 -0.1175  0.1461
45081W        W53881   9.030   4.869  37.637  0.0702  0.0918 -0.1329
45082W        W53882   7.534   1.461  41.560  0.3633  0.0268  0.1015
45083W        W53883   2.497   0.869  15.031  0.0365  0.1222  0.1814
45084W        W53884   4.566   5.944  39.972  0.0950  0.1005  0.2544
45085W        W53885  18.697   0.387  14.129 -0.0140  0.1233 -0.1897
45086W        W53886  16.538   2.607   5.187 -0.0328 -0.2015  0.0264
45087W        W53887   0.413   6.303   8.365  0.4923 -0.0290  0.1894
45088W        W53888  14.030   4.517   1.783  0.5797 -0.0394  0.0900
45089W        W53889   8.500   0.584  44.865 -0.1068 -0.0361  0.3469
45090W        W53890  17.182   2.083  26.359 -0.0127  0.1647 -0.0730
45091W        W53891  13.845   0.790   7.942  0.1173 -0.1032  0.2700
45092W        W53892  14.283   6.332  28.642 -0.2520 -0.0974  0.2044
45093W        W53893  17.424   6.328   1.232 -0.1068 -0.0222 -0.3425
45094W        W53894   9.030   3.507  37.386 -0.0115 -0.0957  0.0456
45095W        W53895  13.764   6.000   9.829  0.1866  0.3189 -0.1798
45096W        W53896  13.490   5.610  32.234 -0.0255  0.0047  0.0304
45097W        W53897   6.952   0.102  35.581  0.1901  0.1036 -0.0266
45098W        W53898   6.064   2.454   7.310 -0.0755 -0.0516  0.1386
45099W        W53899  16.505   5.238  16.492 -0.2992  0.0606 -0.2492
45100W        W53900  20.855   5.324   3.363  0.0426 -0.2700 -0.0704
45101W        W53901   6.493   0.453   1.414  0.3273  0.0670  0.1914
45102W        W53902  10.550   1.207  16.906  0.2978  0.4147  0.0425
45103W        W53903   0.544   3.153  41.394  0.0446 -0.0999 -0.2021
45104W        W53904   2.886   5.726   4.930  0.0697 -0.1049 -0.0077
45105W        W53905  10.487   1.280  36.711  0.0795  0.0706  0.1008
45106W        W53906  14.734   0.433  38.800  0.3012  0.3563 -0.0337
45107W        W53907   7.022   5.256  34.169  0.1810  0.1335 -0.0817
45108W        W53908  12.935   6.428  18.843 -0.0419 -0.1770  0.1918
45109W        W53909  18.640   1.003  38.577 -0.2814  0.2059  0.0002
45110W        W53910  13.100   3.007   6.247  0.0557  0.0528 -0.0511
45111W        W53911   8.396   3.473  30.378  0.0121 -0.0151  0.2693
45112W        W53912   2.495   3.498  11.828  0.0047 -0.2675 -0.0950
45113W        W53913   5.468   0.069  13.291 -0.2488 -0.1235  0.0245
45114W        W53914   4.074   3.007  10.214 -0.0529  0.1371 -0.3282
45115W        W53915   6.910   3.538  44.821  0.0226  0.4810 -0.2046
45116W        W53916  19.965   3.675  12.251  0.0624  0.1174  0.0885
45117W        W53917   8.574   1.109  43.405 -0.2575 -0.0872 -0.1077
45118W        W53918  14.607   0.426  44.988 -0.0670 -0.2486  0.0383
45119W        W53919   2.859   4.547   4.039  0.0017 -0.0131  0.1238
45120W        W53920   6.651   2.126  16.201 -0.0098  0.0836  0.2347
45121W        W53921  17.474   0.376   3.389 -0.2161 -0.1152  0.0596
45122W        W53922  10.856   1.004  30.666 -0.1062  0.1254 -0.1105
45123W        W53923   4.729   6.054   9.222  0.2420 -0.2615  0.4331
45124W        W53924   8.229   1.091  36.898  0.1885 -0.2351 -0.1956
45125W        W53925   0.240   1.852   8.988  0.1476 -0.1362 -0.0799
45126W        W53926   4.541   4.817  35.455  0.0985 -0.1655  0.0266
45127W        W53927  18.332   4.028  22.768  0.2590  0.1998  0.1038
45128W        W53928   9.346   3.329  43.813  0.0752  0.1013 -0.5094
45129W        W53929  11.385   5.864  19.516 -0.1451 -0.0783 -0.2916
45130W        W53930   9.483   4.899  18.665 -0.1389  0.1831  0.0232
45131W        W53931  20.612   5.591  44.535  0.1779 -0.1583  0.1948
45132W        W53932  20.457   6.562  27.997  0.2432  0.1718 -0.0833
45133W        W53933  15.520   0.205  43.252 -0.1914  0.3795  0.0527
45134W        W53934  14.950   3.286   5.644 -0.0650  0.2136 -0.2043
45135W        W53935   3.653   3.107  33.581 -0.0929  0.0677  0.0133
45136W        W53936   4.906   1.619   8.072 -0.2649  0.0325  0.2832
45137W        W53937   4.974   5.706  38.242 -0.1643 -0.2006 -0.1189
45138W        W53938   5.430   2.223   5.504 -0.0860  0.2601  0.2493
45139W        W53939   9.277   1.989  40.551  0.3436 -0.1269 -0.0888
45140W        W53940   6.546   1.883  13.215  0.0875  0.1844  0.2458
45141W        W53941   3.272   5.537  25.396  0.0413  0.2321 -0.1528
45142W        W53942  19.369   2.880  34.848 -0.0584  0.3516 -0.3113
45143W        W53943   0.528   3.640   5.286 -0.1109 -0.0629  0.1012
45144W        W53944  20.287   5.369  33.940  0.2121 -0.1133  0.1955
45145W        W53945  21.089   5.846  33.409 -0.2148  0.1320 -0.1576
45146W        W53946   5.313   1.651  33.545  0.3972  0.0400  0.0715
45147W        W53947  11.954   1.112  41.955  0.0332 -0.1592  0.0033
45148W        W53948  12.306   4.122  39.966 -0.0830  0.0939 -0.3114
45149W        W53949  13.991   3.245   5.165 -0.1531 -0.0640  0.1047
45150W        W53950   8.945   3.011  43.910  0.0005 -0.0061  0.0092
45151W        W53951  13.590   5.047  37.333  0.0135  0.0659  0.1377
45152W        W53952   0.185   0.295   4.180  0.1660  0.1541 -0.2692
45153W        W53953   5.269   1.357   2.013  0.0703 -0.0146 -0.1816
45154W        W53954  13.903   3.563   2.653 -0.2430 -0.2424 -0.4007
45155W        W53955   3.703   6.405  13.802 -0.0537  0.2369 -0.0007
45156W        W53956   4.216   4.624  31.102 -0.2773  0.1576 -0.1529
45157W        W53957   8.831   2.442  35.220 -0.3132 -0.0510 -0.1814
45158W        W53958  11.076   6.183  16.279 -0.1222  0.0320 -0.1507
45159W        W53959  16.324   3.613  33.754  0.1739 -0.0656 -0.0678
45160W        W53960   5.925   1.350   6.176 -0.0940 -0.1957 -0.3671
45161W        W53961   2.865   3.823  41.475 -0.1161  0.0356 -0.1190
45162W        W53962   1.652   1.839  11.215 -0.3605  0.1044  0.0637
45163W        W53963  20.939   5.973  22.984  0.2142  0.3370  0.2131
45164W        W53964  12.596   2.507   8.842  0.2829 -0.0407 -0.1091
45165W        W53965  14.220   0.361  28.131  0.2170  0.0660 -0.0076
45166W        W53966  16.992   4.623   1.112 -0.1673 -0.1773  0.0058
45167W        W53967  17.567   2.307   5.994  0.0305 -0.0483  0.1149
45168W        W53968   7.477   0.378  29.395  0.1108  0.2603 -0.1600
45169W        W53969   3.288   2.203  11.772 -0.0826 -0.0553  0.2565
45170W        W53970   1.501   1.864   0.411  0.0854  0.3587 -0.3213
45171W        W53971   1.263   0.942   1.366 -0.1645 -0.0984 -0.0882
45172W        W53972  12.675   5.109  37.918  0.0431 -0.2008  0.3777
45173W        W53973   4.145   3.179  12.599 -0.2255 -0.1737  0.0076
45174W        W53974  20.340   3.480  22.761 -0.0244 -0.1550  0.1312
45175W        W53975  19.610   4.106  20.102  0.1690  0.0270  0.3131
45176W        W53976  17.757   0.836  29.023 -0.1305 -0.0640  0.1057
45177W        W53977   4.210   5.282  44.001 -0.0038 -0.3344  0.1210
45178W        W53978  18.980   1.968  37.851 -0.1112 -0.3357  0.1132
45179W        W53979  11.350   5.120  40.375  0.0919 -0.0316  0.2505
45180W        W53980   7.441   2.843  40.175 -0.1775 -0.0296  0.1843
45181W        W53981  15.644   1.029  25.620  0.1794 -0.1127  0.0245
45182W        W53982   6.875   2.275  19.104  0.0894 -0.0138  0.0774
45183W        W53983   3.426   4.959   6.534 -0.1659 -0.2471  0.0907
45184W        W53984   7.698   1.140   5.318  0.0513 -0.0430 -0.1016
45185W        W53985   0.700   2.226  39.935 -0.0218 -0.0124 -0.2349
45186W        W53986   7.172   0.605  19.852 -0.1504  0.1421 -0.0209
45187W        W53987   0.838   4.120   5.174 -0.1140  0.0903  0.1821
45188W        W53988  13.620   1.008  14.175 -0.1164  0.1581 -0.1538
45189W        W53989   7.828   3.663  37.030 -0.0922  0.0263  0.0434
45190W        W53990  17.760   1.519  11.687 -0.2710  0.0906 -0.1040
45191W        W53991   5.555   5.610  14.825 -0.1533  0.1597  0.1735
45192W        W53992   3.241   1.104  37.370 -0.1301  0.0519  0.0626
45193W        W53993  16.577   3.184  10.021 -0.0064 -0.2828  0.0365
45194W        W53994   1.903   2.365  34.799  0.3129 -0.2808 -0.1973
45195W        W53995   5.005   6.282  17.079 -0.1167 -0.0026  0.0813
45196W        W53996  13.316   2.561  35.353  0.0407 -0.3649 -0.2932
45197W        W53997   7.179   3.892  18.077 -0.0862 -0.0566 -0.1402
45198W        W53998   8.975   5.899   8.451  0.0322 -0.2520 -0.0982
45199W        W53999  20.802   4.360  40.665  0.1256 -0.2115 -0.3068
45200W        W54000  10.728   5.741  12.287 -0.1804 -0.0428  0.1108
45201W        W54001  14.300   4.384  40.772  0.3623  0.2871 -0.1187
45202W        W54002   6.003   4.728  20.812 -0.4219  0.1117  0.0833
45203W        W54003   9.600   6.142   6.486  0.0813  0.0303  0.0138
45204W        W54004  18.858   1.003  31.069  0.3584  0.0725  0.0216
45205W        W54005   0.184   5.478  42.349 -0.1301 -0.0935 -0.0598
45206W        W54006  17.554   5.577  11.624 -0.2155  0.0052  0.1696
45207W        W54007  13.466   4.621  15.098 -0.0403 -0.2335  0.2756
45208W        W54008   5.863   5.770  29.770  0.0441  0.0333 -0.1575
45209W        W54009  19.427   6.108   8.190 -0.0134 -0.2272  0.1017
45210W        W54010  12.724   5.515  15.541 -0.2405 -0.1562 -0.0951
45211W        W54011  11.988   6.453   3.586  0.1600 -0.1720 -0.2125
45212W        W54012   7.588   3.629  33.890 -0.1531  0.1255 -0.0714
45213W        W54013  18.085   4.277  11.519 -0.0091 -0.2203  0.1752
45214W        W54014  20.819   0.092  23.102  0.0372  0.1169 -0.0252
45215W        W54015  19.549   3.693  33.974 -0.3395 -0.0508 -0.2969
45216W        W54016  14.910   3.928  28.941  0.1775 -0.1180  0.0400
45217W        W54017   7.095   6.567   1.900  0.2531 -0.3062  0.0249
45218W        W54018  16.273   6.102  29.246 -0.0355 -0.1294  0.0918
45219W        W54019   2.635   4.915  25.566 -0.0874  0.2538  0.0307
45220W        W54020  20.883   5.064  28.711 -0.0571  0.2611 -0.0775
45221W        W54021   7.839   1.923   2.058  0.0694 -0.0911 -0.2551
45222W        W54022   1.673   0.810   5.591  0.0519  0.0152 -0.0576
45223W        W54023   5.396   4.409  39.504 -0.0077  0.3174  0.0545
45224W        W54024  10.242   0.335  20.802  0.0915  0.0656  0.1860
45225W        W54025   7.522   5.897  38.719  0.2626 -0.0578 -0.0718
45226W        W54026  11.445   4.103  18.926  0.2391 -0.1189  0.1698
45227W        W54027  20.006   2.264  34.500  0.1305  0.0817 -0.3676
45228W        W54028  16.577   4.783   9.524 -0.0523 -0.0126 -0.1846
45229W        W54029  16.989   4.787  25.071 -0.0641 -0.0820  0.0112
45230W        W54030   0.731   3.859   2.362 -0.3151  0.0125 -0.1531
45231W        W54031  19.177   5.270  23.248  0.1962  0.0647  0.0380
45232W        W54032  14.000   3.892   6.905 -0.2420 -0.2677 -0.1911
45233W        W54033   4.357   4.555  40.682 -0.1825  0.0707 -0.1154
45234W        W54034   4.326   4.788  34.085 -0.2942  0.2020 -0.1024
45235W        W54035  17.543   5.719  10.788  0.1604  0.2557 -0.2152
45236W        W54036  20.333   2.618  30.996 -0.0429 -0.1423 -0.2328
45237W        W54037   5.189   1.903  33.958 -0.2947 -0.3751  0.5622
45238W        W54038   7.360   1.087  20.133  0.2563  0.1673  0.0964
45239W        W54039   6.527   1.888  43.594 -0.0472  0.1313  0.1171
45240W        W54040  15.087   2.531  38.720  0.0562  0.2119 -0.1157
45241W        W54041  15.107   4.768  37.997  0.1514 -0.0051  0.2170
45242W        W54042  20.289   5.714  42.409 -0.0060 -0.0721 -0.0692
45243W        W54043  11.657   3.282   4.446  0.0608 -0.1436  0.1209
45244W        W54044  16.732   2.482  12.847 -0.0046  0.2265  0.3681
45245W        W54045  21.003   3.030  40.271 -0.0580  0.0529 -0.1848
45246W        W54046  13.517   6.123  18.077  0.1699  0.1479  0.0961
45247W        W54047  19.851   3.827  35.732  0.0502 -0.2136  0.0025
45248W        W54048  18.954   5.948  29.502  0.0567 -0.2746  0.0464
45249W        W54049  16.086   5.762   7.111  0.2530  0.1487  0.0929
45250W        W54050  11.724   5.753  32.417  0.0767 -0.2263  0.4422
45251W        W54051  19.685   5.916  13.116  0.1014 -0.0781  0.0204
45252W        W54052   7.343   1.037   9.352  0.3170  0.1470 -0.1944
45253W        W54053  19.849   4.521  38.351 -0.2622 -0.0176 -0.0100
45254W        W54054   4.076   2.822  40.247 -0.0777  0.2477  0.0947
45255W        W54055   6.349   1.347  40.297  0.0474  0.1816 -0.0831
45256W        W54056  19.772   6.503  31.031 -0.3174 -0.2749  0.0489
45257W        W54057  17.483   1.867  24.976 -0.1386 -0.2734 -0.4928
45258W        W54058   4.589   0.485  12.177 -0.1792  0.0678 -0.0477
45259W        W54059  17.225   2.370  37.850 -0.1317 -0.0343  0.0783
45260W        W54060   9.053   1.318   1.289  0.0951 -0.0154  0.3151
45261W        W54061  20.108   0.918  31.326 -0.1179  0.2833 -0.0772
45262W        W54062  11.577   6.410  16.405  0.1056  0.0549  0.1150
45263W        W54063  17.849   0.020  27.945 -0.0232 -0.1489 -0.0463
45264W        W54064   4.666   2.836  42.040  0.0442  0.3039 -0.2576
45265W        W54065   0.272   5.893  43.368  0.2285 -0.0973 -0.0194
45266W        W54066   7.450   5.327   5.118  0.2637 -0.2676  0.0457
45267W        W54067   2.862   1.861  11.921  0.1977 -0.3226  0.1095
45268W        W54068  17.085   1.001  25.872  0.0309 -0.4265  0.0082
45269W        W54069  19.393   6.435   0.344 -0.1483  0.2499  0.2006
45270W        W54070  12.116   5.513  18.277  0.1695  0.1372  0.0771
45271W        W54071  16.220   4.960  12.070  0.0754  0.0274 -0.0855
45272W        W54072  18.066   1.145  22.733 -0.0252 -0.1308 -0.0624
45273W        W54073   3.465   0.912  14.699 -0.2173  0.1109  0.0870
45274W        W54074   9.595   4.256   9.013 -0.1921  0.2103 -0.2549
45275W        W54075  13.185   0.063  43.343  0.2245 -0.0773  0.0839
45276W        W54076   1.917   4.901  22.861  0.2527  0.1089  0.1372
45277W        W54077   3.650   4.368  16.828  0.0281 -0.1797 -0.1313
45278W        W54078  11.828   3.799  19.702 -0.3200 -0.1845  0.1051
45279W        W54079  16.079   1.333  27.001  0.0524  0.1716 -0.1456
45280W        W54080  17.583   1.426   0.765  0.0543  0.0540  0.0881
45281W        W54081   5.438   2.716  37.374  0.0103  0.1111 -0.1741
45282W        W54082   7.751   3.398  19.438 -0.2509  0.0962  0.1505
45283W        W54083  11.275   5.198  37.637  0.2188 -0.0590  0.2957
45284W        W54084  14.232   4.355  17.408 -0.1251 -0.0848  0.0370
45285W        W54085   8.943   3.568  22.698  0.4163  0.0498 -0.2080
45286W        W54086   6.536   6.165  15.240 -0.0423  0.3443 -0.2841
45287W        W54087   8.377   4.765  29.399  0.0081  0.2188 -0.1239
45288W        W54088  13.977   4.320   1.108  0.0774 -0.1858 -0.0168
45289W        W54089  20.746   2.956   4.696  0.4387  0.4465 -0.2677
45290W        W54090   9.581   3.082   9.814  0.0530  0.0594  0.0108
45291W        W54091  16.599   5.264  13.049 -0.1726 -0.1580  0.1385
45292W        W54092   7.328   5.535   4.394 -0.1914 -0.0231  0.1309
45293W        W54093   7.992   0.529  37.667  0.1173  0.0031  0.3708
45294W        W54094  11.662   2.406  40.837  0.0219  0.0703 -0.3850
45295W        W54095   7.365   0.858  44.053  0.1280  0.1751  0.0593
45296W        W54096   5.835   6.550  15.731 -0.2906  0.2714 -0.2668
45297W        W54097  19.640   5.391   7.141 -0.2438 -0.1821  0.2127
45298W        W54098  20.918   6.164  41.863 -0.0289  0.0710 -0.2144
45299W        W54099   5.093   3.038  11.189 -0.0205 -0.1230  0.1819
45300W        W54100  10.216   0.166   5.764  0.2271 -0.0816 -0.0587
45301W        W54101   0.516   1.057  23.294  0.0252  0.2239 -0.1857
45302W        W54102   7.486   1.827  32.778 -0.2473 -0.1864  0.2058
45303W        W54103   7.167   0.231   0.230  0.1127 -0.0405  0.2336
45304W        W54104  14.724   2.929  27.386  0.4929 -0.0058 -0.0520
45305W        W54105   1.781   0.861   2.187 -0.2989  0.1138  0.1391
45306W        W54106   2.136   1.188  37.264  0.0092  0.0453  0.1224
45307W        W54107  14.242   5.158  33.071 -0.0379  0.0268  0.2195
45308W        W54108  12.719   4.980  31.141 -0.3088  0.0426 -0.0522
45309W        W54109  13.355   5.558  11.807  0.2980 -0.1346  0.4477
45310W        W54110  10.050   4.545  39.695 -0.0379 -0.3308  0.1054
45311W        W54111   1.028   0.306  32.858 -0.1130  0.0587  0.2958
45312W        W54112  20.285   2.813  41.843 -0.0991 -0.0728 -0.1398
45313W        W54113   1.053   1.026  15.558  0.3490  0.1528 -0.0724
45314W        W54114  16.046   2.637   4.956 -0.2174  0.0824  0.1742
45315W        W54115  10.574   6.111   5.418  0.0265 -0.0434 -0.0466
45316W        W54116  10.896   2.378  41.670  0.2291 -0.1471  0.0543
45317W        W54117  19.724   1.394  30.673 -0.0147  0.2557 -0.1546
45318W        W54118  18.785   4.357  11.966  0.1502  0.2369  0.0760
45319W        W54119  21.045   1.976  39.225  0.1816 -0.3075  0.0557
45320W        W54120  15.900   1.692   3.061  0.0091 -0.3208 -0.0415
45321W        W54121  10.531   4.486  38.245 -0.2170 -0.2313 -0.0371
45322W        W54122  11.513   2.392  15.340  0.1528 -0.0675 -0.0423
45323W        W54123  17.036   2.772  29.393  0.0090  0.0245 -0.1057
45324W        W54124  17.397   6.472  34.470 -0.0527  0.1421  0.0540
45325W        W54125   4.080   4.543   5.819  0.1625 -0.0739 -0.3230
45326W        W54126   0.332   1.018   8.877  0.1508  0.1878  0.3175
45327W        W54127   0.515   1.149  42.104  0.0952  0.1232  0.0520
45328W        W54128  16.706   0.418  16.205  0.0873 -0.2368  0.5387
45329W        W54129   4.099   4.981   9.986 -0.0844 -0.1252  0.0861
45330W        W54130  10.850   1.139  13.746 -0.1852 -0.1216  0.1850
45331W        W54131  18.578   3.715  33.697  0.2175  0.0456  0.3169
45332W        W54132   5.398   3.993  13.848 -0.0907 -0.1971 -0.1257
45333W        W54133  16.382   0.448  15.358  0.1926  0.2059  0.1484
45334W        W54134  16.048   1.149  35.049 -0.1778  0.2253  0.1362
45335W        W54135  17.997   5.776  25.592  0.1187  0.0258 -0.4998
45336W        W54136  19.612   5.338   4.292  0.0450 -0.1300  0.3559
45337W        W54137  17.386   0.296  10.092  0.2886 -0.1145  0.0346
45338W        W54138   1.102   6.234  36.260  0.2970  0.1310 -0.0059
45339W        W54139  14.405   5.274  17.271  0.0286  0.2075 -0.4098
45340W        W54140  16.292   4.541  25.832  0.1572  0.2169 -0.0285
45341W        W54141   5.536   4.085  32.555 -0.1073 -0.0937  0.2017
45342W        W54142   5.987   2.156  13.766 -0.1583  0.1504 -0.0695
45343W        W54143   6.024   3.419  41.719  0.1383  0.0969  0.1193
45344W        W54144  12.473   3.654  40.203 -0.0194 -0.3592 -0.0519
45345W        W54145   1.712   5.660  13.034  0.1338  0.0259  0.2226
45346W        W54146  13.457   6.594   0.070  0.0857  0.0394  0.1271
45347W        W54147  14.856   1.330  33.148 -0.0916  0.0525 -0.1179
45348W        W54148   7.121   4.947   1.098 -0.0077 -0.0512 -0.0568
45349W        W54149  11.027   4.936  12.082 -0.0950  0.1741 -0.3002
45350W        W54150  11.689   5.868  11.384 -0.1077  0.0200 -0.1698
45351W        W54151   5.681   1.435  11.987 -0.2167  0.0390 -0.1269
45352W        W54152  10.098   0.718   7.464 -0.0350  0.0237 -0.2265
45353W        W54153  20.275   1.456  38.768  0.3217  0.0565  0.3463
45354W        W54154   5.417   5.967  36.637  0.0177  0.0917  0.2266
45355W        W54155   7.514   2.572  39.677 -0.1423 -0.1553 -0.1666
45356W        W54156   2.890   0.222   0.748 -0.2175 -0.3237  0.2420
45357W        W54157  12.354   0.051   9.876 -0.0859  0.2809 -0.0028
45358W        W54158   3.131   0.704  28.106 -0.3529  0.3526 -0.0063
45359W        W54159  19.826   1.147  39.164 -0.1012  0.1346  0.3221
45360W        W54160  11.126   5.119  15.406 -0.2800 -0.2413 -0.1635
45361W        W54161   4.199   0.139   1.594 -0.0044 -0.0179 -0.0027
45362W        W54162   0.003   5.826  15.015 -0.2626 -0.0605 -0.0029
45363W        W54163   1.502   3.545  16.399  0.2317 -0.2429  0.2391
45364W        W54164  11.197   5.299  43.871  0.1396  0.0133 -0.2045
45365W        W54165  19.238   5.532  29.206  0.1983 -0.1266 -0.1278
45366W        W54166  16.271   5.694  30.294 -0.1918  0.2673  0.0491
45367W        W54167  11.283   3.736   7.172 -0.0396 -0.0864 -0.0664
45368W        W54168  17.973   0.173  11.722  0.0081  0.0492  0.3399
45369W        W54169   2.470   2.927  12.914 -0.3617  0.0967  0.2279
45370W        W54170   8.662   5.504   0.825 -0.5052  0.0118  0.0160
45371W        W54171   8.214   3.458  10.894  0.0788  0.2284  0.0134
45372W        W54172  19.476   4.982  38.331 -0.0270  0.1033  0.2243
45373W        W54173   1.567   5.033   7.921 -0.0332  0.2267  0.0499
45374W        W54174  14.177   6.577  10.805  0.1380  0.0573 -0.0941
45375W        W54175   1.390   5.475  31.598  0.1514  0.0315 -0.2014
45376W        W54176   2.983   6.457   7.400 -0.2818  0.5155  0.1402
45377W        W54177   3.664   3.702   0.888  0.2638  0.2766 -0.0368
45378W        W54178   5.368   0.493  13.596  0.0766  0.0644  0.1676
45379W        W54179  12.296   0.177  20.643 -0.3378  0.2214  0.1676
45380W        W54180  13.078   5.029   4.931  0.1557 -0.2147 -0.2598
45381W        W54181  19.332   1.556   5.626  0.0523 -0.0444  0.0686
45382W        W54182   5.134   4.941  15.180  0.3372 -0.0601 -0.2196
45383W        W54183   9.389   1.868  11.874 -0.1814  0.0424  0.2106
45384W        W54184  20.267   1.265  39.551 -0.2424 -0.1456  0.0885
45385W        W54185   6.404   2.534  13.986  0.0082 -0.0949  0.0584
45386W        W54186   5.044   0.637  33.446 -0.0417  0.0566 -0.1799
45387W        W54187  17.590   0.136  16.509  0.1598 -0.1974  0.0758
45388W        W54188   7.296   1.173  22.371  0.0195  0.2428 -0.0681
45389W        W54189   3.953   5.590   0.043 -0.1269  0.5476  0.1452
45390W        W54190   1.371   2.726  40.342 -0.2387  0.0296 -0.1120
45391W        W54191   4.750   2.322  39.782  0.0544  0.0315  0.3670
45392W        W54192   7.656   0.402  13.514 -0.4912 -0.1682 -0.3398
45393W        W54193  20.756   1.566   2.266  0.0285 -0.2534  0.0860
45394W        W54194   9.583   3.579  39.232  0.1215 -0.1710 -0.3079
45395W        W54195   0.307   3.926  27.271 -0.0041  0.1901 -0.1799
45396W        W54196  11.857   2.386  10.605 -0.0565 -0.1327  0.2054
45397W        W54197   2.723   3.733  17.315  0.2024 -0.2699 -0.0461
45398W        W54198   9.828   3.479   5.718 -0.2759  0.1407  0.0679
45399W        W54199  11.781   5.212   6.164  0.1726 -0.0349  0.0003
45400W        W54200  14.219   4.336  10.371  0.0532 -0.0201  0.0998
45401W        W54201   2.231   0.834  34.847  0.1251 -0.3247  0.0251
45402W        W54202   2.610   5.526   3.192 -0.3788  0.0238  0.0768
45403W        W54203  16.798   5.580  26.776  0.5301  0.0095  0.3244
45404W        W54204  17.342   0.453  34.008  0.1533  0.0900 -0.0407
45405W        W54205  14.973   2.092   7.795 -0.0528 -0.0942  0.0494
45406W        W54206  18.422   3.043  23.734  0.0721 -0.0899 -0.1125
45407W        W54207   6.531   2.284   8.542  0.0848 -0.0488  0.0389
45408W        W54208  19.196   4.158  42.199  0.1678  0.1556 -0.0808
45409W        W54209  16.788   0.364   4.652  0.0590 -0.2263  0.0392
45410W        W54210   7.352   4.490   3.568  0.0056  0.0517  0.2059
45411W        W54211  11.441   1.588  36.446  0.0601 -0.1203  0.1279
45412W        W54212  16.493   3.829  16.184  0.0266 -0.0130 -0.1554
45413W        W54213  21.136   2.717  32.571 -0.3876 -0.0382  0.1434
45414W        W54214  15.073   3.720  43.059  0.0613  0.1328 -0.0060
45415W        W54215  13.227   1.384  15.069  0.1170  0.1413 -0.2537
45416W        W54216  10.674   1.922  15.291 -0.1779  0.0861 -0.1365
45417W        W54217   1.133   2.010   6.007  0.0798 -0.2750  0.2822
45418W        W54218   7.935   4.332  31.953 -0.0907 -0.1297  0.0868
45419W        W54219   0.319   4.099   2.399 -0.0123  0.1469  0.0517
45420W        W54220   2.712   3.218  10.814  0.1907 -0.0339  0.0066
45421W        W54221   7.695   4.627   7.872 -0.1224 -0.3625  0.0799
45422W        W54222  15.124   3.057   4.485 -0.3792 -0.1149 -0.0459
45423W        W54223   7.210   1.977  17.534  0.0051  0.1149 -0.0571
45424W        W54224  11.753   5.128   3.031 -0.1320 -0.1516 -0.0890
45425W        W54225   9.961   5.277  18.749  0.2585 -0.1997 -0.3306
45426W        W54226  20.523   5.250  23.522 -0.0840  0.1872  0.3785
45427W        W54227   2.398   4.951  16.698  0.1398  0.0425 -0.1028
45428W        W54228  21.095   5.963  41.029 -0.0592  0.1409  0.2386
45429W        W54229  17.250   3.959  41.929  0.2227  0.0706 -0.3027
45430W        W54230  20.295   5.029  20.562  0.0741 -0.1664 -0.1692
45431W        W54231  19.014   3.703  13.157  0.3283 -0.2793 -0.1097
45432W        W54232   6.294   5.160  16.100  0.0446 -0.0960  0.1856
45433W        W54233  11.148   5.925  11.138 -0.0465 -0.1312 -0.0403
45434W        W54234  16.358   2.936  26.173  0.0324 -0.0262 -0.1069
45435W        W54235   3.491   4.667  38.857 -0.1768  0.0169 -0.0671
45436W        W54236   7.207   5.514  19.473 -0.0735  0.0152  0.1918
45437W        W54237   9.900   4.125  30.533 -0.0083  0.1175  0.2473
45438W        W54238   7.116   2.111   6.475  0.0832 -0.2833 -0.2992
45439W        W54239   7.322   0.014  44.423  0.0218 -0.1021 -0.1229
45440W        W54240   6.111   2.610  40.818 -0.0017  0.1149 -0.1916
45441W        W54241   4.501   6.396  29.636  0.1156 -0.1563  0.0206
45442W        W54242   8.170   5.353   7.495 -0.0051 -0.3011 -0.0065
45443W        W54243  20.520   0.804  27.131 -0.1031 -0.2898  0.2560
45444W        W54244  17.643   3.309   5.370  0.1945  0.3275  0.1315
45445W        W54245  17.814   4.872  10.742 -0.0951 -0.0445  0.2221
45446W        W54246  13.138   5.237   2.590  0.0188 -0.0087  0.0178
45447W        W54247  10.728   6.180  10.400  0.1240 -0.1322  0.0720
45448W        W54248   2.361   0.044  29.403 -0.0768 -0.0517 -0.0462
45449W        W54249  11.603   3.560  10.192  0.0032  0.2128  0.0926
45450W        W54250  15.906   2.942  27.862 -0.1723 -0.0564  0.1667
45451W        W54251   7.737   5.067  12.662  0.0960 -0.0923  0.1074
45452W        W54252  12.940   0.794  13.004 -0.0586 -0.2484 -0.0021
45453W        W54253   3.993   4.207  29.855  0.0796  0.2801  0.1089
45454W        W54254  12.154   0.727  14.713  0.0874 -0.2728 -0.2722
45455W        W54255  18.834   4.616  20.283 -0.2635 -0.2493  0.2876
45456W        W54256   9.004   4.969   7.787 -0.0699  0.0761 -0.0048
45457W        W54257  19.538   1.205  43.770  0.0123 -0.2006  0.2582
45458W        W54258  17.136   4.427  41.682  0.2519  0.2267  0.0378
45459W        W54259  20.028   4.410  39.343  0.0784 -0.2963 -0.1344
45460W        W54260  19.345   3.285   0.440 -0.5569  0.1036  0.2412
45461W        W54261   0.636   1.601  14.112 -0.1455 -0.0619 -0.1052
45462W        W54262  17.131   4.145  33.324 -0.0955 -0.2184  0.2418
45463W        W54263   8.802   5.540  34.220  0.1302  0.0130 -0.0658
45464W        W54264   3.336   0.030  13.618  0.0412 -0.2709 -0.1900
45465W        W54265   4.119   4.672  39.907 -0.0564 -0.1891  0.1541
45466W        W54266  15.058   2.953   2.113 -0.0911  0.3083  0.2011
45467W        W54267   9.083   5.411  11.366 -0.0177  0.1851  0.2353
45468W        W54268  13.227   2.371  32.667  0.2516 -0.1964 -0.1703
45469W        W54269  17.394   2.303   0.134  0.0376  0.1523 -0.1909
45470W        W54270  20.456   1.531  32.759 -0.1694 -0.1396 -0.3120
45471W        W54271   8.465   3.632  10.481  0.2365 -0.3138 -0.0177
45472W        W54272  13.989   3.052  38.667  0.1659  0.0081  0.0394
45473W        W54273   0.220   4.588   9.000  0.1435 -0.0523 -0.1089
45474W        W54274  20.900   3.410  28.062 -0.1504  0.0475 -0.0844
45475W        W54275  11.787   2.260  15.895 -0.1688 -0.0206 -0.0511
45476W        W54276  14.204   0.530  32.363 -0.0608 -0.0144 -0.0842
45477W        W54277  11.183   4.051  39.091 -0.1129 -0.2314  0.1403
45478W        W54278   9.165   2.468   4.941  0.2710 -0.1611  0.1445
45479W        W54279  19.982   2.846   2.742  0.0632 -0.1256  0.1323
45480W        W54280   9.200   6.594   8.986  0.1000  0.1797 -0.1725
45481W        W54281   0.379   3.355  29.182  0.0616  0.0822 -0.1309
45482W        W54282  10.621   3.507  32.934 -0.3185  0.1348  0.2481
45483W        W54283   8.787   2.686  40.990  0.1547 -0.2645 -0.0947
45484W        W54284  12.422   1.409  43.445  0.0887  0.0224 -0.4462
45485W        W54285   3.278   2.564  41.478  0.2602  0.1191  0.1267
45486W        W54286  10.684   4.161   1.889  0.4286 -0.2954 -0.0398
45487W        W54287  15.630   2.924  31.626 -0.0044  0.1821 -0.1388
45488W        W54288   2.308   0.296  44.336 -0.0153 -0.0969 -0.2816
45489W        W54289  13.400   1.255  16.042  0.0056 -0.1441  0.0558
45490W        W54290  13.984   1.953  36.098  0.0782  0.0184 -0.2732
45491W        W54291  11.054   1.769  44.848 -0.1202 -0.1745 -0.2616
45492W        W54292  19.682   6.124  32.393  0.1381  0.0709 -0.1449
45493W        W54293  12.755   0.088  13.541  0.0237  0.0167 -0.0914
45494W        W54294  12.390   2.603   5.964  0.4556 -0.1251 -0.0336
45495W        W54295  16.587   0.550  33.426 -0.2437  0.2578 -0.2320
45496W        W54296   0.469   2.102  38.377 -0.2332  0.1052 -0.1793
45497W        W54297   0.916   2.490  37.645 -0.0096  0.0311  0.2150
45498W        W54298  11.038   3.813  13.869 -0.1537 -0.1896  0.0624
45499W        W54299  14.064   5.046  36.498 -0.2968 -0.0989  0.4107
45500W        W54300  20.694   5.373  26.470  0.2703  0.1956 -0.0211
45501W        W54301  20.118   2.444  28.871 -0.0296  0.3052 -0.1074
45502W        W54302  14.485   0.707  31.087 -0.0134  0.4101  0.0625
45503W        W54303   3.746   3.828   5.117  0.0272  0.2087 -0.0961
45504W        W54304  14.505   0.880  29.418  0.0210  0.1401 -0.3621
45505W        W54305  10.682   5.931   9.926 -0.1765 -0.0077 -0.0061
45506W        W54306   9.296   0.188  30.681 -0.1710  0.0068 -0.0779
45507W        W54307   8.907   3.495   9.233 -0.0789  0.2129  0.1654
45508W        W54308  15.619   4.467  31.663  0.2379  0.1730  0.0909
45509W        W54309   5.636   2.294  15.365  0.1999 -0.1250 -0.1849
45510W        W54310  18.824   6.346  29.224  0.0686 -0.0096 -0.0593
45511W        W54311  20.735   1.300  38.640 -0.0436 -0.0993 -0.4655
45512W        W54312   5.940   5.216  39.955 -0.0023  0.0154  0.1637
45513W        W54313   6.236   0.877   6.429  0.3640  0.2319  0.2290
45514W        W54314   2.007   0.925  41.830  0.1968  0.1509  0.2066
45515W        W54315  17.448   1.673  24.539 -0.0575 -0.1327  0.2913
45516W        W54316   4.336   4.852  43.325 -0.0861  0.0456  0.0295
45517W        W54317  17.067   2.043  28.805 -0.1207 -0.0041  0.2949
45518W        W54318  13.013   1.439  19.357  0.0204  0.0806 -0.1074
45519W        W54319   6.556   3.024  17.500 -0.2881 -0.0520 -0.3694
45520W        W54320  11.650   4.235  34.758  0.3268  0.0817 -0.1256
45521W        W54321   9.077   4.891  38.866  0.0967  0.1892 -0.0314
45522W        W54322   2.111   6.413  32.278  0.0663  0.2720  0.0081
45523W        W54323  12.474   2.059   3.512  0.0172  0.0717 -0.0740
45524W        W54324  20.203   0.382   4.887 -0.0610  0.2130  0.1082
45525W        W54325  10.411   5.171   4.849 -0.0091 -0.3523  0.2497
45526W        W54326  17.715   3.521  15.152 -0.1784  0.0630 -0.1699
45527W        W54327   7.155   2.247  39.554  0.1773  0.0803 -0.0832
45528W        W54328   0.169   4.280   0.315  0.0073  0.3502  0.3989
45529W        W54329  20.110   1.606   3.627  0.2079 -0.3781  0.0223
45530W        W54330  15.828   4.097   9.539 -0.0612  0.2571  0.0644
45531W        W54331   6.037   2.667   4.208  0.2520 -0.0658  0.0529
45532W        W54332  14.218   6.388  40.504 -0.2506  0.1798  0.0916
45533W        W54333   7.712   4.490  21.130  0.2159  0.1103 -0.2421
45534W        W54334  10.014   2.520  24.074  0.1097 -0.2729  0.1684
45535W        W54335   9.577   5.164   5.270 -0.2432 -0.2508 -0.2837
45536W        W54336  17.920   2.819  14.368 -0.0611 -0.2089  0.0899
45537W        W54337   7.176   3.630  17.131 -0.2982 -0.0415 -0.0549
45538W        W54338  17.245   5.015  12.402 -0.0443  0.1677  0.3064
45539W        W54339  12.484   1.633  16.384 -0.0382  0.1701  0.2079
45540W        W54340  15.088   0.662  35.118 -0.0640  0.3005 -0.0563
45541W        W54341  12.920   5.625   7.787 -0.2690 -0.0757  0.0187
45542W        W54342  10.865   3.091  17.958  0.0687  0.1775 -0.0345
45543W        W54343   8.190   2.126  38.913 -0.2142  0.0254  0.1704
45544W        W54344  12.853   0.593  14.023 -0.4572  0.1361  0.1494
45545W        W54345   9.247   1.485  38.507 -0.3184  0.2121  0.0719
45546W        W54346  16.287   2.049   2.573  0.1071 -0.1635 -0.3311
45547W        W54347   8.018   6.086  17.437 -0.0106  0.0740  0.4070
45548W        W54348  14.717   5.616  42.021 -0.1518 -0.0559  0.1912
45549W        W54349   1.889   3.896  29.061 -0.0123  0.0551  0.2338
45550W        W54350   6.320   3.300  20.332 -0.3491 -0.2080 -0.2988
45551W        W54351  15.467   0.860  31.721 -0.0729  0.0266  0.2502
45552W        W54352  19.765   6.496  26.801 -0.0743  0.3631 -0.1816
45553W        W54353   6.372   5.753  29.909  0.2806 -0.0264 -0.2214
45554W        W54354   6.743   5.674  10.062 -0.0625  0.2124 -0.1111
45555W        W54355   0.314   3.526  33.816 -0.0399 -0.0018 -0.2140
45556W        W54356   9.007   1.030  13.723 -0.0467  0.5065 -0.0390
45557W        W54357   3.197   5.806  26.775 -0.2478  0.0451 -0.3521
45558W        W54358  15.159   2.404  12.663 -0.2780 -0.0239 -0.1908
45559W        W54359   2.486   2.670  15.200  0.0277  0.0216 -0.1625
45560W        W54360  12.118   0.258  12.115 -0.2440  0.0883 -0.0169
45561W        W54361  21.026   2.246  44.775 -0.0098 -0.4224 -0.1460
45562W        W54362  17.704   0.733  27.197  0.0298 -0.0591  0.0146
45563W        W54363  10.934   1.812   4.114 -0.0061 -0.1634  0.0175
45564W        W54364  11.422   5.652  31.662 -0.0664 -0.0383  0.0614
45565W        W54365   6.386   5.289  19.694 -0.1625  0.0415  0.1203
45566W        W54366   4.550   4.793  44.000 -0.2910 -0.1361  0.2427
45567W        W54367  20.156   0.753  22.845 -0.1200  0.1151  0.3071
45568W        W54368  10.522   2.916  11.644 -0.1178 -0.0231 -0.1469
45569W        W54369   7.514   5.780  41.160  0.1118  0.1919 -0.2520
45570W        W54370  18.674   0.564   9.518  0.0263 -0.1047  0.1086
45571W        W54371  20.170   4.843  19.178  0.0642  0.1547  0.0274
45572W        W54372   7.765   1.766  40.986  0.2594 -0.2878 -0.0713
45573W        W54373  20.441   1.320   3.955  0.0460  0.2042  0.0733
45574W        W54374  13.900   1.274  42.405  0.0558 -0.1032 -0.4982
45575W        W54375   7.857   0.583  17.886  0.2917  0.2636 -0.2186
45576W        W54376   5.737   3.796   7.513  0.0070  0.1751 -0.1614
45577W        W54377  20.361   1.742  10.300 -0.1632 -0.1391  0.3657
45578W        W54378  16.656   5.366  23.369 -0.1296  0.1761  0.4073
45579W        W54379   8.550   0.286  37.431 -0.0451 -0.1525  0.1311
45580W        W54380  20.039   3.163  23.001  0.0752  0.1163 -0.6837
45581W        W54381  14.514   2.871  43.165  0.0179  0.1939  0.1306
45582W        W54382  15.694   1.458  30.994 -0.0195 -0.2018  0.4805
45583W        W54383  12.495   5.404  12.855  0.1452  0.0500 -0.3294
45584W        W54384  10.477   4.822  35.014  0.0534  0.0773 -0.0025
45585W        W54385  12.171   1.853  10.577 -0.1712  0.0657  0.0883
45586W        W54386  13.660   3.728  34.979 -0.2509  0.2022  0.1516
45587W        W54387   2.265   4.032   5.366 -0.0497  0.1584 -0.2971
45588W        W54388  13.238   4.913  11.205  0.2215  0.3977  0.2539
45589W        W54389  10.925   1.434   3.288 -0.2379 -0.2324 -0.0759
45590W        W54390  16.226   1.175  39.889 -0.0684  0.1312  0.1701
45591W        W54391  11.275   1.358  33.939  0.1752 -0.1744  0.4747
45592W        W54392   0.373   0.573  31.842 -0.2050 -0.0390  0.1086
45593W        W54393  11.388   5.533  34.953 -0.0836  0.1133  0.3296
45594W        W54394   1.597   3.017  24.273  0.0257  0.0641  0.2364
45595W        W54395  17.552   0.965  23.135 -0.2213 -0.1383  0.0772
45596W        W54396   5.918   1.217   9.653  0.2155  0.2246 -0.2481
45597W        W54397  16.812   2.913  41.428  0.0795 -0.1016 -0.5539
45598W        W54398   8.317   0.928   8.498 -0.1644 -0.2027  0.0302
45599W        W54399  12.998   0.518  33.431  0.0538  0.0055  0.2234
45600W        W54400   8.611   2.891   4.199  0.0169  0.0655  0.2331
45601W        W54401  10.385   2.960  14.905  0.4118  0.0109 -0.4081
45602W        W54402   6.581   5.451  42.831  0.0472  0.2101  0.2110
45603W        W54403  17.152   5.275  27.615 -0.2188  0.1629 -0.0892
45604W        W54404   4.817   6.476  33.901  0.0199  0.2840 -0.0229
45605W        W54405  19.354   2.509  22.938  0.4355  0.2152 -0.0571
45606W        W54406   3.220   1.795  10.190  0.1879  0.2925 -0.1692
45607W        W54407   7.813   1.870  18.183  0.0304 -0.0389 -0.0379
45608W        W54408   7.379   0.688   8.976  0.0001 -0.0618 -0.0893
45609W        W54409   6.347   3.209   7.839 -0.2806 -0.2854  0.1181
45610W        W54410   1.654   6.023  24.826 -0.2027  0.3026  0.1022
45611W        W54411   2.809   0.225  37.846  0.0195  0.1979  0.1553
45612W        W54412  11.197   5.661   4.824 -0.0565  0.3511  0.0675
45613W        W54413   2.809   1.104  42.392  0.2066 -0.2042 -0.1280
45614W        W54414  16.727   2.142  44.020  0.1849 -0.2181  0.4280
45615W        W54415  10.257   1.512  37.647  0.0604  0.3095 -0.0220
45616W        W54416   2.526   4.940  38.454  0.0352  0.0325  0.2871
45617W        W54417  11.808   1.409  18.892  0.0446  0.3697  0.0199
45618W        W54418   5.726   6.530  43.463  0.0697 -0.1290  0.2305
45619W        W54419   1.799   1.709  35.692 -0.1518 -0.1946  0.1130
45620W        W54420  17.031   5.130  26.594 -0.0636 -0.4201 -0.2145
45621W        W54421  19.590   5.745  10.835  0.0663  0.2709 -0.3370
45622W        W54422   8.921   5.787  10.050 -0.1750  0.1065  0.0087
45623W        W54423   0.716   2.919  37.927 -0.3474 -0.0240 -0.0254
45624W        W54424  11.917   1.241  43.337 -0.1981 -0.0567 -0.0180
45625W        W54425   2.490   3.106   3.600  0.1117 -0.2035 -0.1268
45626W        W54426   9.198   2.931  19.371 -0.0693 -0.0077  0.0121
45627W        W54427  16.795   0.297  25.475 -0.1417 -0.1539 -0.1812
45628W        W54428   5.354   0.051  31.595 -0.0475 -0.3105 -0.1888
45629W        W54429   7.602   4.696   5.181 -0.1842  0.1357 -0.0030
45630W        W54430  16.776   2.780   7.376 -0.2399  0.1208 -0.2287
45631W        W54431   7.792   1.682  23.211  0.0081  0.2147  0.1687
45632W        W54432  18.940   3.610  40.482  0.4098  0.0509  0.0152
45633W        W54433   6.283   1.484  32.375  0.2160  0.1826  0.0654
45634W        W54434  20.103   1.624  24.804 -0.2543  0.2115  0.1683
45635W        W54435  14.349   2.308  45.076  0.0471 -0.1525 -0.0604
45636W        W54436   6.621   3.029  36.105  0.2592 -0.4762  0.2065
45637W        W54437   2.265   5.431   6.327  0.2917  0.1340  0.0785
45638W        W54438  20.232   6.066  30.596  0.2277 -0.3019  0.0055
45639W        W54439   6.415   5.109  10.546  0.1976 -0.1025 -0.1964
45640W        W54440   7.443   0.104  33.406 -0.0533 -0.0559  0.0503
45641W        W54441  17.476   5.175  16.545 -0.1082 -0.0486 -0.1135
45642W        W54442  11.135   3.572  33.138  0.0696 -0.0758 -0.1053
45643W        W54443  14.725   4.157  32.446  0.0229  0.0955 -0.1317
45644W        W54444  12.066   1.241  29.669  0.0343 -0.1493  0.0158
45645W        W54445  12.508   3.095  21.327 -0.2587  0.1504 -0.3047
45646W        W54446  10.475   2.048   4.217 -0.1454 -0.1756 -0.0034
45647W        W54447  12.271   6.447  34.960  0.0596  0.3016 -0.0200
45648W        W54448   8.456   2.227  43.696 -0.0067  0.2175 -0.0468
45649W        W54449  10.164   0.517  31.672  0.2171  0.2700 -0.0069
45650W        W54450   1.024   1.791  40.158  0.1090  0.1615  0.0664
45651W        W54451  20.826   3.550   3.588 -0.1812 -0.1756 -0.0871
45652W        W54452  16.096   3.023  40.984  0.0068  0.3178  0.1077
45653W        W54453  16.155   1.580  26.264 -0.1620  0.0243  0.1821
45654W        W54454   4.325   3.658   9.042 -0.0299 -0.0595 -0.1244
45655W        W54455   7.987   1.054   4.739  0.0206  0.1332  0.0267
45656W        W54456   8.495   4.212   2.630 -0.1991  0.0899  0.1543
45657W        W54457   3.446   4.693  35.836  0.1409  0.1077 -0.1208
45658W        W54458  10.149   2.771  33.606 -0.0275 -0.3213  0.3498
45659W        W54459   9.963   2.013  16.438  0.0916  0.2677  0.1144
45660W        W54460   1.051   3.548   8.093  0.0098 -0.0958  0.0120
45661W        W54461  12.018   5.904  14.478 -0.0341 -0.0481  0.3062
45662W        W54462   4.623   0.957  31.638  0.4919 -0.2390 -0.0465
45663W        W54463   8.359   0.126  17.811 -0.1879 -0.1595  0.0998
45664W        W54464  14.855   2.152   7.291 -0.2104 -0.1909 -0.2993
45665W        W54465  16.058   0.186  32.919  0.0087  0.0773 -0.0245
45666W        W54466   4.087   6.555  13.019 -0.3474 -0.1286 -0.0324
45667W        W54467  10.879   2.076  29.516 -0.0298 -0.1015  0.2304
45668W        W54468  10.098   0.447  42.301  0.2216 -0.0503  0.0790
45669W        W54469  11.445   6.326  28.316 -0.0766  0.1325 -0.0186
45670W        W54470   3.730   0.708   6.433  0.0747 -0.1490 -0.2495
45671W        W54471  20.734   4.648  11.581  0.2047  0.0008 -0.1096
45672W        W54472  18.165   3.157  33.782  0.1364  0.2470 -0.0329
45673W        W54473  20.245   6.071   3.452  0.1425 -0.2499  0.0195
45674W        W54474   1.317   1.918   4.143 -0.1513 -0.2783 -0.1578
45675W        W54475  13.976   5.219  41.203 -0.1012 -0.2026 -0.1615
45676W        W54476   3.020   6.088  38.279 -0.2022 -0.2423  0.2013
45677W        W54477   2.874   1.107  26.360  0.0231  0.1973  0.2409
45678W        W54478  12.101   1.764   7.813  0.0681 -0.0904 -0.0755
45679W        W54479  17.173   3.281  15.381 -0.0128 -0.0385  0.2543
45680W        W54480  14.850   6.280  35.710  0.0985  0.1258 -0.0582
45681W        W54481   7.833   3.938  34.293  0.0969  0.1025 -0.0909
45682W        W54482  12.855   0.429   2.149 -0.0669  0.0959  0.2587
45683W        W54483  13.671   3.390  43.718 -0.3284  0.1828  0.1112
45684W        W54484  12.861   4.555  36.710  0.0250  0.0313 -0.1715
45685W        W54485   2.367   1.511  33.468 -0.0373  0.1517 -0.2248
45686W        W54486  18.649   4.181  12.532  0.2174  0.2091  0.2229
45687W        W54487   0.679   4.602  26.948 -0.0160  0.2961 -0.2978
45688W        W54488  13.011   2.014  37.232  0.1155 -0.0269 -0.0179
45689W        W54489  16.322   4.513  42.258 -0.0385 -0.0245 -0.1388
45690W        W54490  17.842   0.484  44.160 -0.2116  0.0788  0.2725
45691W        W54491  10.976   3.055  13.231 -0.0275 -0.1370 -0.2097
45692W        W54492   9.611   0.788  14.536 -0.1249 -0.2308 -0.0368
45693W        W54493  16.592   5.813  32.324 -0.2368  0.2400 -0.0744
45694W        W54494  16.882   2.970  26.370 -0.0228 -0.0445 -0.0337
45695W        W54495  11.991   4.762   8.294  0.1015 -0.1577 -0.0963
45696W        W54496  15.627   4.829  33.430  0.2674 -0.1014  0.1052
45697W        W54497  10.545   5.140   2.854  0.0290 -0.1595 -0.1282
45698W        W54498  11.111   5.073   8.023 -0.0510 -0.1915 -0.0914
45699W        W54499   6.731   3.881  30.313 -0.0871  0.0837 -0.2038
45700W        W54500  19.652   2.250  43.131 -0.2184 -0.1514 -0.1672
45701W        W54501  20.968   0.976  43.821  0.0112  0.1478 -0.0010
45702W        W54502   5.218   0.257   5.971  0.1771 -0.1232 -0.2698
45703W        W54503  16.865   4.646  27.506 -0.0170  0.3292 -0.0206
45704W        W54504   6.124   4.124   7.355 -0.1878  0.0152  0.0687
45705W        W54505   2.790   0.105   8.195  0.3344  0.0622 -0.0696
45706W        W54506  17.388   5.638  41.729  0.3430 -0.1931 -0.1409
45707W        W54507  12.099   2.436  33.813 -0.0637  0.0841 -0.4052
45708W        W54508   8.598   3.036   1.785 -0.0318  0.1417  0.0097
45709W        W54509  11.990   3.868  11.553 -0.0081  0.1061 -0.0079
45710W        W54510   0.638   1.216  14.801 -0.3735  0.0664  0.0147
45711W        W54511   6.490   3.446  32.405  0.0430 -0.0320  0.0668
45712W        W54512   3.837   6.483  39.291 -0.1238  0.2070  0.1732
45713W        W54513  10.418   4.192   0.339  0.4525 -0.2601 -0.0494
45714W        W54514  11.663   0.773   3.525 -0.1512 -0.1046 -0.0533
45715W        W54515   0.321   4.476  36.770  0.0118  0.1343  0.5895
45716W        W54516  17.844   4.401  24.865  0.1533  0.0728 -0.1309
45717W        W54517   2.574   2.138  31.103  0.0821  0.0224  0.1542
45718W        W54518  20.776   5.223   6.709  0.0034 -0.1163 -0.0228
45719W        W54519   8.119   6.464   7.524 -0.1912 -0.1955  0.1194
45720W        W54520  13.914   5.558  43.467  0.0414  0.2405 -0.1201
45721W        W54521  12.726   1.580  31.050  0.0317 -0.0620  0.0221
45722W        W54522  20.941   4.081  23.645  0.1617  0.1529 -0.1133
45723W        W54523   8.848   5.268  43.159  0.4099  0.5850  0.1362
45724W        W54524   3.457   0.873  15.981 -0.2195 -0.0525  0.2131
45725W        W54525  17.775   4.306   3.687  0.0709  0.0724 -0.0312
45726W        W54526  17.555   0.820  15.993  0.0993  0.0257 -0.2012
45727W        W54527  16.172   1.697  39.900 -0.1214  0.3069 -0.0085
45728W        W54528   0.089   2.753   8.631  0.0217  0.1542 -0.3434
45729W        W54529   2.106   4.372  35.883 -0.0820 -0.2440 -0.1678
45730W        W54530   9.777   2.969   5.568 -0.1213  0.1172 -0.0146
45731W        W54531  16.478   6.579  38.024 -0.3474  0.0142 -0.1270
45732W        W54532   7.850   0.237  21.293 -0.1258 -0.2874 -0.1787
45733W        W54533   9.056   5.282  38.442  0.3062 -0.1342  0.1987
45734W        W54534  13.262   1.281  13.875  0.1283  0.0774  0.1562
45735W        W54535  18.568   3.616  35.498 -0.0091 -0.4226 -0.0161
45736W        W54536   8.219   6.448  42.944 -0.1367  0.2417 -0.0540
45737W        W54537  12.162   3.603   0.431  0.0942 -0.0526 -0.0654
45738W        W54538  19.059   1.268  42.086  0.0276  0.1185 -0.0866
45739W        W54539   3.319   3.071  26.780  0.0814  0.1841 -0.0282
45740W        W54540   3.606   3.992   2.776  0.0481 -0.4527  0.0742
45741W        W54541   8.937   3.002  20.360 -0.0140  0.1786  0.1989
45742W        W54542   0.344   5.374  44.099 -0.0521  0.2045  0.0668
45743W        W54543  15.396   1.094  12.876  0.0374 -0.0252 -0.3404
45744W        W54544  17.254   3.774  15.375  0.1013 -0.3601 -0.0729
45745W        W54545   6.119   1.340  10.309  0.1057  0.0531  0.1315
45746W        W54546   7.111   4.137  11.786  0.3840  0.1212  0.1385
45747W        W54547   0.146   1.080   4.682  0.2073  0.0426  0.2646
45748W        W54548   6.883   6.422  32.680  0.2918 -0.0670 -0.3020
45749W        W54549   1.960   1.175   5.524 -0.0063  0.2833 -0.1782
45750W        W54550  17.000   3.652   0.741 -0.0025  0.2208  0.0712
45751W        W54551   3.123   0.430  33.683  0.0521 -0.0948  0.0477
45752W        W54552   3.403   4.280  31.182  0.2770  0.0634  0.0913
45753W        W54553  17.459   6.181  24.935  0.0239  0.1037 -0.1025
45754W        W54554  15.767   2.074  41.190 -0.0271  0.0482  0.1187
45755W        W54555  18.284   1.401  37.366  0.2412 -0.0655 -0.0379
45756W        W54556  11.339   4.160   6.181  0.1335  0.0741  0.1078
45757W        W54557  10.226   0.556  36.048  0.3057 -0.2197  0.3436
45758W        W54558  15.875   4.334  43.316 -0.0050  0.3730 -0.0045
45759W        W54559  15.438   1.042  35.985  0.3700  0.3990 -0.0631
45760W        W54560  19.210   3.881   2.398  0.1495  0.0449 -0.1238
45761W        W54561   0.834   1.023   4.343  0.0693  0.0761  0.0515
45762W        W54562  20.453   3.920   9.630  0.2775  0.1930 -0.2284
45763W        W54563   2.493   0.395  31.524 -0.1524 -0.1558 -0.2201
45764W        W54564  13.747   1.440  13.940 -0.0788  0.0670 -0.0364
45765W        W54565  13.614   1.901  17.613 -0.1033 -0.0265  0.0291
45766W        W54566  20.425   1.805  27.461  0.1486 -0.0286 -0.1174
45767W        W54567   3.016   1.503  26.055  0.5322 -0.2288  0.1027
45768W        W54568   1.202   6.031   8.139 -0.2684 -0.2755 -0.0681
45769W        W54569  12.368   3.351  39.067  0.1976  0.1573  0.1076
45770W        W54570  19.443   0.025  15.117  0.0392  0.2564 -0.0829
45771W        W54571  20.564   1.669   1.435 -0.1477 -0.0860  0.2650
45772W        W54572   6.087   5.966  37.363 -0.0607 -0.0527  0.2678
45773W        W54573  17.381   3.049   3.362  0.2301 -0.0265 -0.0994
45774W        W54574   8.994   6.492  18.818  0.2520  0.1461  0.3911
45775W        W54575  21.070   1.752  32.295  0.0582 -0.1393 -0.1277
45776W        W54576   0.789   5.796  26.883  0.1791  0.2561  0.2224
45777W        W54577   1.862   3.195  23.208 -0.0958 -0.0632 -0.2473
45778W        W54578   0.016   0.913  14.531  0.0446 -0.0754  0.1509
45779W        W54579  14.646   0.309  41.490 -0.0879  0.1270  0.0709
45780W        W54580   2.516   4.016  28.128  0.0104 -0.2179 -0.0339
45781W        W54581   6.871   0.164   3.572 -0.0147  0.0080  0.2814
45782W        W54582   7.524   1.927  39.698  0.2688 -0.2467 -0.2027
45783W        W54583   8.906   5.833  19.556  0.3832  0.3207  0.0091
45784W        W54584   0.215   5.156  43.641 -0.1609 -0.1995 -0.0933
45785W        W54585   2.256   5.812  39.038  0.0180  0.1387  0.1089
45786W        W54586  10.434   1.351  17.974 -0.0562  0.0722 -0.1665
45787W        W54587   8.999   4.905  19.532  0.1551 -0.0433 -0.0777
45788W        W54588   7.075   3.813  17.592 -0.2766 -0.1756  0.0507
45789W        W54589  20.543   3.346  45.036  0.0471  0.1346  0.3210
45790W        W54590  20.876   3.710  28.572 -0.3861  0.0240 -0.4252
45791W        W54591   7.244   1.053   1.188 -0.0873 -0.1624 -0.2139
45792W        W54592   4.902   4.210  40.300 -0.3745  0.2376 -0.2701
45793W        W54593   7.813   2.511  44.701 -0.1725 -0.1961  0.0909
45794W        W54594   7.866   2.128  42.836 -0.0325 -0.2194 -0.1503
45795W        W54595  15.003   4.886  37.489 -0.1811 -0.0402 -0.0686
45796W        W54596   6.645   0.066  37.814 -0.2837  0.1430 -0.3057
45797W        W54597   2.171   5.650   8.531  0.2809 -0.1002  0.1091
45798W        W54598  20.615   6.210  32.369  0.0451  0.0446  0.0672
45799W        W54599  10.498   0.881  43.661  0.2947 -0.2984 -0.0324
45800W        W54600  12.015   1.641  28.606  0.0142  0.0839 -0.1357
45801W        W54601   5.276   4.686  42.575 -0.0724 -0.2499  0.1652
45802W        W54602   1.256   3.255  39.105 -0.0735 -0.0012  0.0713
45803W        W54603   6.879   0.495   5.096 -0.1949 -0.0120 -0.0838
45804W        W54604  10.464   4.279  13.288  0.3328 -0.1829 -0.1341
45805W        W54605   5.866   2.908  18.235 -0.1176 -0.1835 -0.0978
45806W        W54606   4.798   0.984  12.231 -0.2536 -0.1757 -0.1023
45807W        W54607   1.283   4.969  39.293 -0.0517 -0.1195 -0.0801
45808W        W54608   8.139   4.094  33.987  0.0499  0.3161  0.0772
45809W        W54609   5.850   4.163  18.941 -0.0360 -0.2199  0.1428
45810W        W54610  19.157   1.543   7.804 -0.2574  0.1785  0.0931
45811W        W54611   3.706   5.630  37.991  0.0777  0.0718 -0.1627
45812W        W54612  15.382   2.415  35.827 -0.1587  0.3495 -0.2539
45813W        W54613  20.960   1.183  12.219 -0.2530  0.1280 -0.1271
45814W        W54614  10.744   1.528   6.310  0.0117  0.2426 -0.0147
45815W        W54615  17.940   1.157   6.616 -0.1351  0.1890 -0.0460
45816W        W54616   8.492   3.277   6.929 -0.2991 -0.0899 -0.2831
45817W        W54617  18.549   3.532   2.154  0.0191 -0.0877  0.2359
45818W        W54618   2.135   6.317  27.578 -0.1829  0.3401 -0.0375
45819W        W54619   4.842   6.020  18.091 -0.0654 -0.0230 -0.0735
45820W        W54620  12.034   5.938  41.146 -0.0771 -0.0928  0.0946
45821W        W54621   2.626   4.466  32.711 -0.0835  0.0106 -0.0597
45822W        W54622  10.966   5.637  10.319  0.2362 -0.0537  0.2256
45823W        W54623  17.232   1.949  41.784  0.2332 -0.1319  0.2813
45824W        W54624   7.808   4.849  39.504  0.2436  0.0563 -0.0922
45825W        W54625   4.101   3.467  33.472  0.0670  0.2545 -0.2882
45826W        W54626   7.190   4.746  15.176 -0.1084  0.1373 -0.1051
45827W        W54627  18.099   3.917  35.588  0.3323  0.2698  0.0794
45828W        W54628   3.555   2.414  17.320  0.2013  0.0602  0.2145
45829W        W54629  19.163   2.091  26.122 -0.0648 -0.0695 -0.0945
45830W        W54630  12.259   3.299   3.407  0.1252  0.0152  0.1667
45831W        W54631   9.702   2.185  40.163 -0.1251  0.2184  0.2886
45832W        W54632   7.699   5.440  41.571  0.2187 -0.0916  0.0200
45833W        W54633  14.834   6.184  42.670  0.0952  0.1549  0.0030
45834W        W54634  13.904   0.747  39.865 -0.1185 -0.0925 -0.0956
45835W        W54635  19.262   5.654  37.026 -0.2664 -0.1618  0.2867
45836W        W54636  13.482   2.568   0.970  0.2175 -0.0932 -0.0739
45837W        W54637  11.835   3.381   6.545  0.0911 -0.1242 -0.1167
45838W        W54638   1.832   2.174  33.113 -0.1336  0.2872 -0.0496
45839W        W54639  13.211   3.703   3.135 -0.1529 -0.0257 -0.2878
45840W        W54640  13.333   4.710   0.838  0.0214 -0.1399 -0.0049
45841W        W54641  19.662   2.483  29.721  0.2841  0.3350  0.0444
45842W        W54642   4.502   1.857   6.143  0.1257 -0.1388 -0.0204
45843W        W54643  20.720   2.477  32.671 -0.0373  0.0463 -0.0449
45844W        W54644  15.889   5.740  26.635  0.2541 -0.3454 -0.1268
45845W        W54645  17.791   3.283   7.854  0.2583 -0.0596 -0.0297
45846W        W54646  20.183   5.580  10.314  0.1300  0.0953  0.1613
45847W        W54647  19.272   5.258   7.915  0.2984 -0.2082 -0.0481
45848W        W54648   9.079   1.417   7.138  0.2985  0.2789  0.1343
45849W        W54649   0.316   0.877   4.249 -0.0098 -0.0662  0.1321
45850W        W54650  19.200   2.629  26.052 -0.0331 -0.1797  0.2423
45851W        W54651  19.207   2.464   0.855 -0.2039  0.0691  0.1519
45852W        W54652  19.381   6.118  25.409  0.0056  0.1900 -0.3841
45853W        W54653  12.322   5.813  40.529  0.4824  0.0101 -0.1699
45854W        W54654   5.924   3.954   5.376 -0.0355 -0.1807  0.0044
45855W        W54655  15.533   6.284  30.449 -0.0833  0.0783  0.3329
45856W        W54656   2.427   1.214  36.055 -0.1779 -0.0564  0.0444
45857W        W54657   3.657   2.885  40.655  0.2549  0.0100  0.1990
45858W        W54658   7.404   6.009  21.389  0.0936  0.0512  0.0610
45859W        W54659  16.404   2.740   8.032  0.3608  0.0417 -0.4339
45860W        W54660  19.021   1.883  43.098 -0.2017  0.2035  0.2856
45861W        W54661  17.789   3.656   7.004 -0.1187  0.2404 -0.1821
45862W        W54662   7.528   3.907  15.935  0.0591 -0.0613  0.0104
45863W        W54663   5.604   3.168   9.038 -0.3177  0.0931  0.1131
45864W        W54664   5.265   3.861  43.682  0.1408  0.1104 -0.0927
45865W        W54665  10.916   5.648   3.510  0.0489  0.1790  0.2273
45866W        W54666  17.299   2.459  27.010  0.1772  0.4043 -0.1615
45867W        W54667   7.149   1.690  20.783  0.1275 -0.0788 -0.0908
45868W        W54668   7.542   3.458  30.595  0.1564 -0.0206 -0.2272
45869W        W54669  11.773   5.614  37.361 -0.1643 -0.2321 -0.1925
45870W        W54670  14.396   4.728  11.723  0.0066 -0.0347 -0.0758
45871W        W54671   3.536   3.715  27.957 -0.0910 -0.1913  0.1144
45872W        W54672   7.129   5.992  19.419  0.0062  0.1919 -0.1435
45873W        W54673  18.789   4.217  33.025  0.1321  0.3040  0.1728
45874W        W54674  17.028   4.618  44.981 -0.1647 -0.1106  0.2656
45875W        W54675  12.343   6.164   3.926  0.2350  0.1397  0.1206
45876W        W54676   8.294   6.555   3.195  0.4817 -0.1159  0.0145
45877W        W54677  19.805   2.581  41.108 -0.1418 -0.0633  0.0865
45878W        W54678   8.642   4.187   8.837  0.0794 -0.1177 -0.2076
45879W        W54679  17.734   1.699   1.640  0.0532 -0.1609 -0.0449
45880W        W54680  13.881   4.575  41.132 -0.0408  0.1570  0.1382
45881W        W54681  18.706   6.111   5.258 -0.0654  0.0269 -0.0870
45882W        W54682   4.929   2.707  29.912  0.0729 -0.2071 -0.1158
45883W        W54683   7.754   1.166  33.889  0.1478 -0.1038  0.0229
45884W        W54684   3.380   3.678   6.819  0.1782 -0.1664  0.0475
45885W        W54685  16.329   3.979  38.467 -0.1090  0.2754 -0.0447
45886W        W54686   3.814   5.678  11.051  0.0595  0.0856 -0.3470
45887W        W54687   3.287   3.851  30.917  0.0326 -0.0708  0.0063
45888W        W54688   8.758   3.494  21.139 -0.1179  0.1495  0.2390
45889W        W54689   4.295   1.775  18.783 -0.0897 -0.0706  0.1188
45890W        W54690   0.901   4.004  24.498  0.0035 -0.1926  0.0468
45891W        W54691  12.592   2.079  17.140 -0.0842  0.0090  0.1761
45892W        W54692   8.712   2.371   4.125  0.0803  0.0583 -0.1425
45893W        W54693  20.406   6.438  24.904 -0.1294 -0.0701  0.0192
45894W        W54694  20.109   3.824  42.438  0.4226  0.0664  0.0388
45895W        W54695   5.370   6.253  41.513 -0.0698 -0.1548  0.1303
45896W        W54696   2.688   1.796  15.616  0.0457  0.0829  0.0039
45897W        W54697  10.214   1.149  29.679 -0.1630 -0.0807 -0.0820
45898W        W54698   9.373   0.306  41.840 -0.1410  0.1765  0.1760
45899W        W54699   1.681   0.860  13.109  0.2371 -0.3265 -0.1424
45900W        W54700  16.944   1.462  44.858 -0.0954 -0.2664 -0.2822
45901W        W54701  16.677   1.207   7.662  0.1127  0.2532  0.1425
45902W        W54702   6.868   4.883  39.859 -0.1831 -0.0080  0.1450
45903W        W54703   1.148   4.514  15.271  0.0785  0.0888  0.0717
45904W        W54704   8.900   0.688  38.215  0.3778 -0.3347  0.1299
45905W        W54705  20.688   1.848  38.791 -0.1583 -0.1483  0.1329
45906W        W54706  17.773   2.029  30.887 -0.3846  0.0848  0.0679
45907W        W54707  13.937   3.934   0.204  0.5855 -0.0660 -0.3983
45908W        W54708   1.202   0.561  44.336  0.0461  0.0283 -0.0133
45909W        W54709  12.195   4.463  44.729 -0.0358  0.1090  0.2090
45910W        W54710   5.371   0.421  37.959  0.2073  0.0628  0.0559
45911W        W54711  18.787   0.479   5.419 -0.0521  0.1356  0.0424
45912W        W54712  20.198   5.134   2.362  0.4245  0.0375  0.1135
45913W        W54713  19.901   4.944  27.462  0.2440  0.1389  0.1317
45914W        W54714   9.079   4.517  31.024 -0.0025 -0.0192  0.1374
45915W        W54715  11.492   0.840  21.558 -0.0475  0.2073  0.0082
45916W        W54716  20.589   6.355  30.971 -0.0567 -0.0393  0.3647
45917W        W54717  17.319   4.167  24.772  0.1614 -0.3100  0.1684
45918W        W54718   7.255   2.417  29.716  0.1325  0.1348 -0.0651
45919W        W54719  11.988   4.948  43.224  0.0651  0.0395 -0.1183
45920W        W54720  15.608   3.157  25.968  0.3193 -0.3183 -0.0928
45921W        W54721   8.319   2.997  22.931 -0.0532  0.1373  0.2814
45922W        W54722  16.649   6.098  17.184  0.0475  0.0394  0.1978
45923W        W54723  21.017   0.648   3.999  0.0851  0.0008 -0.0100
45924W        W54724   5.972   0.652  32.046  0.2660 -0.0230 -0.0935
45925W        W54725   9.785   5.961  19.591  0.0597 -0.0358  0.0940
45926W        W54726  20.554   2.189   1.057 -0.1397  0.1416  0.5012
45927W        W54727  15.385   3.500   3.378  0.3556 -0.1901  0.3289
45928W        W54728   6.210   5.213   4.413 -0.0951  0.0861 -0.0353
45929W        W54729   5.435   2.435  41.725 -0.1682  0.0335 -0.1136
45930W        W54730   7.338   2.250  41.120  0.1121 -0.2572 -0.0976
45931W        W54731  20.214   5.141  45.013  0.1182  0.0522 -0.0778
45932W        W54732   4.071   0.681   8.528  0.0764  0.2561 -0.0841
45933W        W54733  11.770   0.759   5.947 -0.1805  0.1668 -0.1524
45934W        W54734   8.464   5.275  10.653  0.1798  0.0032  0.0356
45935W        W54735   9.280   2.363  12.165  0.1542  0.0193  0.2039
45936W        W54736   6.070   0.552  12.115  0.3231 -0.1424 -0.0791
45937W        W54737   7.860   4.209  36.931  0.0597 -0.4063  0.0528
45938W        W54738  15.027   2.501  39.583  0.2002 -0.3998  0.1135
45939W        W54739   3.617   6.158   0.372  0.1195  0.2262  0.2458
45940W        W54740  16.063   4.826   6.452  0.0042  0.1675  0.3379
45941W        W54741  13.193   3.094   1.633  0.2093 -0.1344 -0.0712
45942W        W54742  20.060   6.270  15.787  0.1688  0.0490  0.4103
45943W        W54743  13.702   6.535   8.147 -0.0464  0.1395  0.0300
45944W        W54744   3.685   2.275   1.045  0.3429 -0.2190  0.0381
45945W        W54745  17.806   3.960  24.519  0.2068  0.0792  0.1361
45946W        W54746  15.152   1.923  30.172 -0.3254 -0.2180 -0.3184
45947W        W54747  18.059   1.239   8.437 -0.1655 -0.2360 -0.2370
45948W        W54748   1.143   0.565   3.672  0.0133  0.2266 -0.5812
45949W        W54749  14.270   1.056   7.193 -0.1247  0.2058  0.3226
45950W        W54750  16.288   2.311  43.899  0.0061  0.2414  0.0467
45951W        W54751  11.684   2.745  31.759 -0.2015 -0.0428 -0.0406
45952W        W54752   9.115   0.561  15.388  0.1441 -0.2397 -0.1464
45953W        W54753  17.523   3.559   0.508 -0.1129  0.1539 -0.5812
45954W        W54754   6.794   6.001  21.132  0.0144  0.0609 -0.1890
45955W        W54755  14.076   1.199  28.295  0.0098  0.0253 -0.2103
45956W        W54756  14.559   5.113  41.856 -0.2628 -0.1981 -0.0849
45957W        W54757  15.014   1.667   9.947  0.2981 -0.2038 -0.1303
45958W        W54758   1.374   2.193  33.015 -0.0310 -0.0098  0.1330
45959W        W54759  14.588   0.241  16.811 -0.0359 -0.0976  0.1136
45960W        W54760   8.669   4.722  37.992 -0.1353  0.3747  0.1594
45961W        W54761  11.177   4.168  38.430 -0.0725 -0.1574 -0.0997
45962W        W54762  17.427   1.711  15.061  0.2394 -0.1755  0.0567
45963W        W54763   4.418   0.955  35.904  0.0392 -0.2551 -0.0836
45964W        W54764  13.420   5.587  38.487 -0.0144  0.1889 -0.0462
45965W        W54765   0.464   1.091  38.570 -0.1862 -0.1547 -0.0101
45966W        W54766  20.645   4.862  36.700  0.1069  0.1518  0.0593
45967W        W54767  11.169   2.407  11.803 -0.0787  0.2535 -0.0633
45968W        W54768  13.328   4.543  36.337  0.0673  0.3716  0.0025
45969W        W54769   0.083   3.679  10.770  0.0422 -0.1535  0.0433
45970W        W54770   2.786   3.531  36.148 -0.2662 -0.0427 -0.2271
45971W        W54771  12.534   6.025  44.409  0.0619  0.0066 -0.2142
45972W        W54772  11.732   2.469  13.029 -0.4309 -0.0001  0.0572
45973W        W54773   4.343   0.612  15.264  0.0253 -0.1474 -0.0274
45974W        W54774   5.069   6.435  38.878  0.1493  0.1874  0.2887
45975W        W54775  17.655   2.906  29.968 -0.1159 -0.0811 -0.3229
45976W        W54776  15.193   4.989  11.024  0.0010 -0.1768  0.3003
45977W        W54777  11.499   1.292  35.166 -0.0964  0.1921  0.0086
45978W        W54778  17.353   0.322  27.371 -0.1282  0.0608 -0.3308
45979W        W54779   1.367   5.776  14.518 -0.1470  0.0793  0.0000
45980W        W54780  10.669   1.977   0.849  0.1601  0.1727 -0.2711
45981W        W54781  13.807   0.075  14.416 -0.1013 -0.4193 -0.3896
45982W        W54782  12.428   1.591  29.986 -0.3339 -0.2701 -0.1066
45983W        W54783   8.748   0.072  11.493 -0.0843 -0.1504 -0.1250
45984W        W54784   1.456   2.298  39.392 -0.1575  0.1459  0.2764
45985W        W54785   6.932   1.603  42.833 -0.2925 -0.0248  0.0872
45986W        W54786  17.020   2.058  10.461  0.2922 -0.3671 -0.2301
45987W        W54787  12.403   5.409   0.448  0.2799 -0.0054 -0.2785
45988W        W54788   0.942   1.216  30.196 -0.3242 -0.0426 -0.0462
45989W        W54789   7.276   0.238  23.333 -0.0847 -0.1457 -0.0830
45990W        W54790   7.926   5.668  37.571  0.1982  0.0622 -0.0434
45991W        W54791   1.880   4.325  38.114  0.1999 -0.1944 -0.2167
45992W        W54792   4.915   5.913   2.755 -0.1855  0.2202 -0.1233
45993W        W54793  19.653   0.712  22.960  0.0684  0.1868 -0.0779
45994W        W54794   5.375   1.340   7.967  0.3328  0.1366 -0.0361
45995W        W54795   3.663   5.838   2.465 -0.2944 -0.2568 -0.1480
45996W        W54796  16.146   5.617  37.385  0.1073 -0.0908 -0.0366
45997W        W54797   2.008   0.787  36.948 -0.0407  0.3299  0.0872
45998W        W54798   5.583   0.922  28.647  0.2927 -0.0173  0.0103
45999W        W54799  18.823   1.534   1.614  0.1670 -0.0423 -0.1387
46000W        W54800   1.535   5.408   4.896 -0.0472 -0.0469  0.1477
46001W        W54801   5.810   3.050  29.587 -0.0703  0.0229  0.1652
46002W        W54802   0.196   5.824   4.767  0.0150 -0.1522  0.0158
46003W        W54803   4.428   3.795  43.890  0.1143  0.0151  0.0860
46004W        W54804  14.306   5.121   3.059 -0.1434 -0.0586 -0.0420
46005W        W54805  19.206   0.595   3.430  0.2020 -0.2669  0.1274
46006W        W54806   9.904   5.291  17.490  0.2028 -0.2410 -0.2174
46007W        W54807   9.445   1.206  19.547  0.5062 -0.1142 -0.2488
46008W        W54808  19.199   4.332  41.370 -0.2674  0.2051  0.0137
46009W        W54809  15.342   3.805  39.226 -0.1299  0.0527  0.2000
46010W        W54810   9.760   1.802  36.925 -0.1398  0.2337  0.0831
46011W        W54811   8.218   2.513  43.350  0.0883 -0.2874  0.3463
46012W        W54812  15.878   1.057  40.728 -0.1155 -0.0805  0.2086
46013W        W54813   0.657   0.370   3.503  0.0017 -0.3841 -0.2591
46014W        W54814  17.274   6.091  24.442  0.0548 -0.0142  0.0288
46015W        W54815  19.768   2.200  33.429  0.1281 -0.2757  0.1077
46016W        W54816   2.264   3.872  13.656  0.1914 -0.0439  0.2382
46017W        W54817  19.407   3.323  10.996 -0.2944  0.1244 -0.0465
46018W        W54818   6.454   2.859   0.042 -0.1082  0.0278 -0.1337
46019W        W54819  15.373   5.375   9.599 -0.0463  0.3174  0.1475
46020W        W54820  11.803   5.170  30.826 -0.0245  0.0008 -0.2675
46021W        W54821  10.783   5.749  40.307 -0.2578  0.0542 -0.1386
46022W        W54822  20.299   5.212  35.223 -0.4165  0.3187  0.2761
46023W        W54823   5.730   5.033   4.156  0.2430 -0.2568 -0.0390
46024W        W54824   9.550   4.468  43.810  0.1384  0.1532 -0.4857
46025W        W54825  14.423   6.001  33.660  0.2586 -0.1619 -0.0010
46026W        W54826   5.007   2.264  30.185 -0.0376 -0.0196 -0.2437
46027W        W54827  19.769   0.237   0.592 -0.2245 -0.0107  0.1646
46028W        W54828   3.554   1.422   3.810 -0.1872 -0.0866 -0.3900
46029W        W54829   3.327   4.568  14.222  0.1011 -0.1580  0.0600
46030W        W54830   0.485   2.505  34.451  0.1870 -0.1412  0.1296
46031W        W54831   9.696   3.963  39.487  0.1368 -0.0880 -0.2579
46032W        W54832  19.001   4.743  12.242  0.0840  0.0375 -0.0473
46033W        W54833  19.000   5.577   8.917 -0.0922 -0.0570 -0.0704
46034W        W54834  13.018   2.657   3.296 -0.2850  0.0641  0.2777
46035W        W54835  15.837   5.053  38.618 -0.2346  0.1365 -0.0193
46036W        W54836   0.952   5.807  11.497 -0.0880  0.1342 -0.1300
46037W        W54837  17.844   2.697  31.820 -0.0348 -0.1727  0.1857
46038W        W54838  12.030   5.939  13.970  0.0550  0.0756 -0.0293
46039W        W54839  17.134   2.889  15.686  0.0191 -0.3645 -0.0504
46040W        W54840   6.758   5.009  36.704  0.2529 -0.2196 -0.2140
46041W        W54841  11.101   6.448  14.082 -0.3814 -0.0823 -0.1738
46042W        W54842   1.867   1.460   5.147 -0.0758 -0.5070 -0.0836
46043W        W54843  12.651   3.899  40.712 -0.0968 -0.1612  0.0920
46044W        W54844   6.830   5.626  15.205  0.0162 -0.3136 -0.1278
46045W        W54845  17.306   4.956  30.229 -0.2668  0.1378  0.1985
46046W        W54846   0.035   6.532  34.667 -0.3359  0.2869 -0.1906
46047W        W54847   2.364   1.017  35.602  0.3072 -0.0523  0.0079
46048W        W54848  13.501   4.326  40.288 -0.0041 -0.2115 -0.0438
46049W        W54849   2.092   6.291   3.877 -0.0548 -0.1953  0.0244
46050W        W54850  20.016   5.692   4.331 -0.2840  0.0605 -0.1552
46051W        W54851   6.823   6.008  17.112 -0.1561 -0.1927 -0.1307
46052W        W54852  19.863   4.720  11.580 -0.0266  0.2234  0.0693
46053W        W54853   6.304   6.469  44.841 -0.3704  0.0666 -0.2802
46054W        W54854  19.396   2.405  38.568 -0.2725  0.1832  0.1488
46055W        W54855   6.480   4.607  37.064  0.0406 -0.2365 -0.1756
46056W        W54856  18.275   6.000   1.085 -0.3281  0.2393 -0.1401
46057W        W54857  14.179   6.398   6.840 -0.1720  0.1031 -0.0664
46058W        W54858  20.533   5.017  34.792  0.0563  0.1673 -0.1445
46059W        W54859  16.742   6.165   1.216 -0.1668  0.3162  0.2615
46060W        W54860  20.836   2.394   9.916  0.1428  0.2351  0.1648
46061W        W54861  20.184   2.533  14.131 -0.1722  0.0911 -0.1501
46062W        W54862  11.131   1.076  11.252 -0.0585 -0.1021 -0.2481
46063W        W54863  18.998   0.352   1.278  0.2191  0.0397 -0.2393
46064W        W54864  17.244   0.215  25.953  0.0944 -0.1974 -0.0935
46065W        W54865  18.493   3.350  34.155  0.3141  0.2143  0.0481
46066W        W54866   0.433   5.498  13.764 -0.0217 -0.2138 -0.1942
46067W        W54867  11.775   1.419   2.718 -0.2386  0.1272  0.1845
46068W        W54868   6.414   0.946  38.115 -0.2549 -0.1490 -0.0540
46069W        W54869   7.874   3.492  17.523 -0.2210 -0.0310 -0.0654
46070W        W54870  20.459   4.356   6.811  0.1753 -0.2663 -0.0145
46071W        W54871   1.534   3.435  26.964 -0.0817 -0.1612 -0.1443
46072W        W54872  16.716   1.768   8.400 -0.2048  0.2015 -0.0574
46073W        W54873   8.936   1.196  44.201  0.1163  0.0178  0.1667
46074W        W54874  12.972   2.704   5.331 -0.0263  0.1983 -0.0936
46075W        W54875  18.995   3.148   5.021  0.0652  0.0366  0.0321
46076W        W54876  20.625   5.248  26.945 -0.0084  0.1374  0.2317
46077W        W54877   3.092   4.070  15.999  0.0551 -0.0956 -0.3801
46078W        W54878  14.261   0.657  16.354 -0.2102  0.0705  0.0816
46079W        W54879  14.227   6.429   1.729 -0.0156 -0.2381 -0.3650
46080W        W54880   8.381   0.775  18.626  0.1491 -0.0883  0.1163
46081W        W54881   7.540   4.961  21.191 -0.1012  0.0095  0.2033
46082W        W54882   0.331   5.155  42.711  0.1631 -0.0334 -0.1620
46083W        W54883  18.895   2.248   2.267 -0.0112  0.0010 -0.3116
46084W        W54884   8.263   3.307  22.147  0.0698  0.1147 -0.0649
46085W        W54885   8.929   3.634  15.189 -0.1467 -0.1365 -0.0456
46086W        W54886   8.835   0.749  37.542  0.0552 -0.1104  0.0010
46087W        W54887   4.483   5.819  42.851 -0.1502  0.1025  0.0311
46088W        W54888   7.723   6.439   5.419 -0.0338 -0.1936 -0.4133
46089W        W54889   9.600   2.614  24.360 -0.0046  0.2425 -0.1137
46090W        W54890   0.984   3.636  11.096  0.3721  0.1754  0.0944
46091W        W54891  15.177   1.063  16.427  0.2157  0.0353 -0.3618
46092W        W54892  16.543   3.955  11.796 -0.1256  0.0899 -0.0436
46093W        W54893   2.621   6.290  16.702  0.2706 -0.0234  0.0873
46094W        W54894   0.629   1.254   3.960  0.1448 -0.0515  0.1616
46095W        W54895  16.481   3.030  34.395 -0.0813  0.0651  0.0554
46096W        W54896   8.400   5.524  37.796  0.0928  0.1176 -0.2558
46097W        W54897  16.069   2.342  36.393  0.0392  0.1982 -0.1504
46098W        W54898  20.494   4.024  30.167  0.0593  0.0909 -0.0246
46099W        W54899   9.894   2.986  38.587  0.0531 -0.2638  0.0310
46100W        W54900  12.456   3.975  11.287 -0.3032 -0.1132  0.1560
46101W        W54901   9.589   5.545  20.815 -0.0241  0.1900 -0.1123
46102W        W54902   7.106   3.631  12.117  0.2454  0.0491  0.1296
46103W        W54903  16.841   5.091  13.790  0.2647 -0.2354 -0.4679
46104W        W54904  11.469   0.189  15.668  0.2271  0.0226 -0.0110
46105W        W54905  11.733   2.463  43.996 -0.1296 -0.3820 -0.0654
46106W        W54906   4.103   2.090  31.441  0.1450  0.2891 -0.1770
46107W        W54907   8.507   4.771  23.712  0.2984  0.1575 -0.2003
46108W        W54908   9.832   2.480  14.244  0.3562  0.0117  0.0318
46109W        W54909  13.981   1.881  37.649  0.2539  0.2298  0.0523
46110W        W54910   0.146   0.634  33.920 -0.1354 -0.2351 -0.2415
46111W        W54911  18.491   0.337   9.957 -0.2390 -0.2106 -0.1250
46112W        W54912   4.148   2.015   8.473 -0.2819  0.1412  0.0320
46113W        W54913   1.763   1.261  39.360  0.0088 -0.2201 -0.0938
46114W        W54914  12.251   6.343  35.962  0.1346 -0.0504 -0.2416
46115W        W54915  19.312   2.755  13.675  0.2710  0.2176 -0.0463
46116W        W54916   1.441   0.624   6.674 -0.0728  0.0188 -0.1371
46117W        W54917  12.302   3.278  36.335  0.0904  0.1317  0.0690
46118W        W54918   9.075   3.243   0.102  0.2943 -0.1090 -0.2228
46119W        W54919  13.176   3.583   7.827  0.2819 -0.0750 -0.1489
46120W        W54920   7.307   6.425  43.691  0.2341  0.0040  0.1401
46121W        W54921   3.473   1.780  28.387  0.3742 -0.3928  0.2023
46122W        W54922   5.306   1.149  10.432  0.2098 -0.1283 -0.0152
46123W        W54923   8.650   3.000  39.436 -0.1223  0.1757 -0.3325
46124W        W54924  18.727   0.814  29.730 -0.1557  0.1540  0.4680
46125W        W54925   5.358   5.499   6.998  0.0408  0.1387 -0.1440
46126W        W54926  14.826   4.692   9.500  0.1371 -0.1573  0.1738
46127W        W54927   5.263   2.108  39.626 -0.2669  0.0065  0.0604
46128W        W54928   4.617   1.023  44.139  0.0237 -0.0130 -0.1043
46129W        W54929   0.148   2.199   9.928  0.1935 -0.3068 -0.1068
46130W        W54930  19.348   5.856  32.822 -0.0922 -0.1592 -0.0415
46131W        W54931   1.584   5.248   3.815  0.5004  0.0223  0.0915
46132W        W54932  11.046   4.089  15.678 -0.1163  0.0841 -0.1487
46133W        W54933  11.434   3.712  14.775  0.5783 -0.1814  0.0015
46134W        W54934   1.286   3.724   1.819 -0.0857 -0.1390 -0.0372
46135W        W54935   5.313   5.784  18.082 -0.2687 -0.1713 -0.1233
46136W        W54936  14.562   4.401  12.079  0.0062  0.0203  0.3750
46137W        W54937  13.433   2.692  38.336 -0.0792 -0.0338  0.0721
46138W        W54938  15.191   4.365   1.570 -0.1689 -0.0789  0.0689
46139W        W54939   0.475   3.161  40.891  0.0104 -0.1671 -0.0079
46140W        W54940   6.492   1.530  34.538 -0.3820 -0.0592  0.1026
46141W        W54941   8.589   2.701  44.765  0.1030 -0.0650  0.2651
46142W        W54942  10.402   6.260  23.995 -0.1085 -0.0195  0.0983
46143W        W54943  14.024   6.033   3.360 -0.1312 -0.1987  0.0808
46144W        W54944  12.101   3.056  17.047 -0.1789 -0.2465 -0.0496
46145W        W54945   4.609   6.424  33.122 -0.0744  0.0621  0.0800
46146W        W54946  15.204   5.250   5.087 -0.0625 -0.0552  0.2042
46147W        W54947  15.338   5.731  29.080 -0.1868 -0.0503  0.1362
46148W        W54948   3.101   6.017  37.341 -0.1565 -0.2682  0.2616
46149W        W54949   9.333   1.141  23.806  0.0004  0.0784  0.1317
46150W        W54950   3.660   6.358   5.865 -0.1385  0.0409 -0.0104
46151W        W54951  13.447   5.429   8.278  0.1841 -0.0363  0.0156
46152W        W54952  19.543   2.012   5.765  0.2001 -0.0484 -0.0825
46153W        W54953   3.841   0.576   1.624  0.1951  0.1395  0.0138
46154W        W54954   5.856   4.393  12.917 -0.0349 -0.0889  0.1214
46155W        W54955  13.823   3.868  34.344  0.2067  0.1669 -0.1658
46156W        W54956  11.941   0.997   6.367 -0.0380  0.0470 -0.0192
46157W        W54957   7.991   0.725  15.271 -0.3322 -0.1599  0.2329
46158W        W54958   8.129   1.829   1.659  0.0386  0.1940 -0.1052
46159W        W54959  19.134   1.532  29.021  0.2516  0.0392  0.0185
46160W        W54960   0.535   1.522  25.499  0.0590 -0.1798 -0.1649
46161W        W54961  20.669   1.215   9.059  0.0117 -0.0515 -0.3217
46162W        W54962  10.462   0.655  14.292 -0.0279  0.0282  0.1589
46163W        W54963   7.167   6.133  10.974  0.0110 -0.1121  0.0190
46164W        W54964   2.574   2.649   7.310 -0.0366 -0.0224 -0.1146
46165W        W54965  16.230   4.230  15.377  0.0803  0.1787 -0.2898
46166W        W54966   2.511   0.397  44.817 -0.1239 -0.0900  0.1659
46167W        W54967   0.791   6.391  27.584  0.0033 -0.0061  0.1290
46168W        W54968  12.158   3.852   5.128 -0.3273  0.2215 -0.0030
46169W        W54969  14.152   4.549  28.911 -0.2485 -0.1561  0.0535
46170W        W54970   6.369   4.952  39.944  0.0592 -0.2751  0.0308
46171W        W54971   8.679   3.609  31.157  0.3873 -0.1472  0.0292
46172W        W54972   1.294   2.498  43.825  0.0531  0.0037  0.3206
46173W        W54973   3.201   0.122  11.452  0.2466 -0.0154 -0.1342
46174W        W54974   7.668   3.172   5.049 -0.3507  0.3215  0.1316
46175W        W54975  15.565   3.136  26.910  0.0862  0.4068 -0.1874
46176W        W54976  16.170   4.301  44.742 -0.0410  0.2448 -0.1193
46177W        W54977   4.939   4.606  12.215 -0.0690  0.0153 -0.0161
46178W        W54978  14.076   3.648  29.434 -0.1885  0.3337 -0.0822
46179W        W54979  12.528   2.400  37.964 -0.0493 -0.1972  0.0194
46180W        W54980   0.889   5.200  10.941 -0.1638  0.0845  0.2492
46181W        W54981  21.033   0.529  23.994  0.3465 -0.2137 -0.1553
46182W        W54982   6.911   1.762  19.422 -0.2218 -0.0725  0.0437
46183W        W54983  19.771   0.023  31.590  0.3298 -0.0086  0.1694
46184W        W54984   7.965   5.501  30.417 -0.1798  0.1229  0.0775
46185W        W54985   4.753   4.246  34.117  0.0839  0.1686  0.0158
46186W        W54986  11.393   3.101  43.331  0.1034 -0.1681 -0.0050
46187W        W54987  19.752   0.691  25.445  0.0865  0.0420  0.0538
46188W        W54988   6.722   0.819  21.287 -0.0778  0.0198 -0.2218
46189W        W54989  14.447   5.909  40.802  0.1159 -0.0290  0.0206
46190W        W54990  16.085   3.855  25.271  0.0929 -0.1646 -0.0958
46191W        W54991   6.007   0.268  42.495 -0.2626  0.1584  0.0818
46192W        W54992   6.028   0.697  35.683 -0.2184  0.1854  0.2413
46193W        W54993   5.835   6.141  35.443  0.1511 -0.1168  0.3446
46194W        W54994   4.947   5.325  18.522 -0.0433  0.0332  0.0508
46195W        W54995  10.598   6.297  12.191 -0.3021 -0.0503 -0.0389
46196W        W54996  17.654   1.133   3.889  0.2779 -0.1782  0.0379
46197W        W54997   5.625   0.664  29.745  0.1591  0.0517  0.3689
46198W        W54998   2.400   2.398  39.636  0.1981  0.2391  0.0638
46199W        W54999   0.997   0.841   7.138  0.0492 -0.1023  0.0133
46200W        W55000   8.304   1.057  23.834  0.1168  0.2620 -0.0277
46201W        W55001  11.686   1.738   2.335  0.0711  0.2353  0.2278
46202W        W55002   8.276   0.972  31.847  0.0102  0.2475 -0.1392
46203W        W55003  15.557   2.926  15.525  0.2214 -0.0999 -0.3196
46204W        W55004  12.592   6.011   9.166  0.0359  0.1564 -0.0651
46205W        W55005  14.941   4.706  42.049 -0.0062  0.1269  0.1761
46206W        W55006   3.355   4.082  36.504 -0.1418 -0.1459 -0.0887
46207W        W55007   9.195   3.268  39.854 -0.1271 -0.0715 -0.0279
46208W        W55008  11.204   1.156   6.964 -0.1913  0.1528  0.1078
46209W        W55009   0.734   5.697  26.173  0.2304 -0.1876 -0.0211
46210W        W55010  20.922   1.101  11.162  0.2707  0.2588 -0.2981
46211W        W55011   9.763   0.698   6.405 -0.0305  0.0171  0.0557
46212W        W55012  11.417   3.427  31.216  0.0313  0.0378 -0.0002
46213W        W55013   8.187   1.376   4.434 -0.3930  0.0572  0.1603
46214W        W55014  14.340   5.301  32.102  0.0009  0.3465  0.1614
46215W        W55015   4.341   2.141  16.514 -0.2475  0.4825 -0.0259
46216W        W55016  18.496   3.186  25.500  0.2577 -0.1097  0.0768
46217W        W55017   2.609   5.616  26.926 -0.0230  0.0271 -0.0752
46218W        W55018  16.433   3.634  45.075  0.1135  0.0357 -0.1516
46219W        W55019  15.077   4.996  41.252 -0.0571 -0.0400  0.2622
46220W        W55020  11.307   1.101  18.956 -0.0295 -0.0570 -0.3357
46221W        W55021   3.317   0.755  35.118 -0.2521 -0.3268 -0.0460
46222W        W55022  10.556   1.493   4.247 -0.0940 -0.2353  0.0269
46223W        W55023  11.009   5.697  31.883  0.1698  0.0033  0.0870
46224W        W55024   8.271   2.968   1.162  0.1596 -0.1949 -0.0108
46225W        W55025  10.094   4.739   4.727  0.1037 -0.0693 -0.3440
46226W        W55026   9.809   6.141  42.301  0.0944  0.1711  0.0895
46227W        W55027  12.009   0.942  21.456  0.1647  0.0667 -0.1722
46228W        W55028  15.752   6.313   4.468  0.3305 -0.2237  0.1597
46229W        W55029   0.182   4.742   8.432 -0.1608 -0.0904  0.0867
46230W        W55030  18.156   3.936   1.979  0.1788 -0.0129 -0.1986
46231W        W55031  15.488   4.042  30.341  0.2782 -0.0643  0.2107
46232W        W55032   1.478   5.251  12.791  0.1556  0.0553 -0.2007
46233W        W55033  11.541   0.616  40.927 -0.2237  0.2306  0.2583
46234W        W55034  19.395   5.911  38.684 -0.0733 -0.1745  0.2655
46235W        W55035  18.247   4.848  42.197  0.1981  0.2432  0.3584
46236W        W55036   6.574   6.229   9.670  0.1879  0.0499  0.0415
46237W        W55037   9.119   2.707  43.496  0.0792 -0.0416  0.1278
46238W        W55038   1.056   4.779  10.175 -0.0337  0.1616  0.2579
46239W        W55039  19.361   5.453  45.019  0.1076 -0.0268  0.1310
46240W        W55040  17.398   1.895  34.953  0.2015  0.1068  0.1346
46241W        W55041   1.484   5.691  43.363 -0.0788  0.0844 -0.0012
46242W        W55042   6.013   0.136  40.462  0.0521 -0.1560  0.0642
46243W        W55043   7.373   1.822  32.209  0.0059  0.2806 -0.2707
46244W        W55044  10.147   3.338  22.265 -0.0406  0.2207 -0.2225
46245W        W55045  17.076   5.442  38.229  0.0495 -0.0124  0.3436
46246W        W55046   3.198   5.205  15.836  0.1408  0.2791 -0.2018
46247W        W55047  11.081   4.864  21.796 -0.4245 -0.0624 -0.1879
46248W        W55048  19.346   0.824  31.288  0.0055  0.1170 -0.0610
46249W        W55049  20.518   3.094  25.111  0.4966 -0.0928  0.1868
46250W        W55050  17.950   2.942  35.747 -0.3404 -0.1086  0.2889
46251W        W55051   6.023   3.776   0.568 -0.2132 -0.1757  0.0520
46252W        W55052  10.882   0.475  36.102  0.0853 -0.3478 -0.2577
46253W        W55053  17.085   3.696  13.470 -0.4147 -0.0405 -0.1212
46254W        W55054   7.904   1.094  30.727  0.0088 -0.0612 -0.2399
46255W        W55055   6.139   1.590  44.868  0.0494 -0.2127  0.0116
46256W        W55056   4.905   1.395  16.074  0.3481 -0.2021 -0.3070
46257W        W55057   3.316   4.600   7.966  0.1538  0.1607 -0.1563
46258W        W55058  17.883   6.263  14.903 -0.0817 -0.0951  0.1929
46259W        W55059  21.095   3.422  10.333  0.1072 -0.0145 -0.2285
46260W        W55060  11.932   0.022  28.083  0.0401 -0.3249  0.1863
46261W        W55061  20.650   3.239  22.483 -0.0809  0.1513 -0.0811
46262W        W55062  14.673   2.216  30.353  0.1969 -0.0603  0.1141
46263W        W55063   7.674   5.188  29.337  0.1743  0.0889 -0.0761
46264W        W55064   9.383   5.937  42.159 -0.0998  0.0260  0.0194
46265W        W55065   8.787   2.207  40.869  0.0190 -0.3049  0.1084
46266W        W55066  17.365   2.535  29.818 -0.4071 -0.0042 -0.2089
46267W        W55067  13.232   6.188  11.726  0.0018 -0.0241  0.0808
46268W        W55068  20.042   4.564   8.122  0.0900  0.2618  0.1115
46269W        W55069  14.537   6.375  36.609 -0.0274 -0.2605 -0.0953
46270W        W55070   3.755   1.935  16.519 -0.1132  0.4495 -0.2250
46271W        W55071   9.852   3.189  41.767 -0.0470 -0.0614  0.1739
46272W        W55072   4.179   4.652  27.419  0.2412  0.0397 -0.0772
46273W        W55073   3.383   4.215  12.044 -0.1432  0.0220  0.0235
46274W        W55074  16.322   3.708  30.932  0.0547  0.0962 -0.0244
46275W        W55075  13.017   2.183   7.537  0.0605  0.0823 -0.2496
46276W        W55076  14.661   1.762  11.567  0.3220  0.2290  0.2260
46277W        W55077  10.827   6.439  33.992  0.0829 -0.3580 -0.0912
46278W        W55078   3.893   2.850   4.561 -0.0277 -0.1715  0.2109
46279W        W55079  18.926   1.204   8.634  0.0735  0.0673  0.1536
46280W        W55080  19.384   4.745  25.269 -0.0869  0.1199  0.3356
46281W        W55081  19.678   2.468  12.512 -0.4067 -0.0263 -0.0926
46282W        W55082   8.796   5.182   3.426 -0.0932 -0.2787  0.0383
46283W        W55083   8.352   6.251  23.732  0.1244  0.0875  0.0393
46284W        W55084   2.974   2.870  27.392  0.1511 -0.1866 -0.5282
46285W        W55085  12.393   5.284  29.372 -0.1050 -0.1598  0.1130
46286W        W55086  18.044   5.440  42.694 -0.2289  0.0700 -0.1183
46287W        W55087   5.213   0.642  44.533 -0.1404 -0.0902 -0.1732
46288W        W55088   4.404   0.736  33.934 -0.0660  0.1049  0.0799
46289W        W55089  10.570   5.406  35.445 -0.0129 -0.0651  0.0534
46290W        W55090   8.297   0.696   4.809 -0.3083 -0.0890 -0.3357
46291W        W55091   0.940   4.390  32.223  0.0191  0.0987 -0.0045
46292W        W55092  17.790   0.939  12.623  0.2072  0.1105  0.1311
46293W        W55093   4.230   6.103  30.838 -0.1028 -0.1998 -0.2820
46294W        W55094  11.120   0.856  21.003 -0.0854 -0.0277  0.2343
46295W        W55095  15.358   1.837   4.103 -0.1218  0.2138  0.0321
46296W        W55096  10.147   0.177  42.935  0.0399 -0.1016  0.2267
46297W        W55097   0.188   1.903   5.340  0.0331 -0.3046  0.2550
46298W        W55098   9.950   1.180  12.820  0.1446 -0.1859 -0.0681
46299W        W55099  10.921   1.422  23.706 -0.5237  0.0659  0.2401
46300W        W55100  16.831   3.234  30.777  0.1190 -0.0548 -0.0848
46301W        W55101  17.498   3.382   9.641 -0.3087 -0.0182 -0.0213
46302W        W55102   2.198   4.742  10.039 -0.1058 -0.0161  0.1168
46303W        W55103  19.826   5.862  42.438  0.0320  0.0494 -0.1309
46304W        W55104   7.531   2.087  11.617  0.2099  0.1158 -0.3889
46305W        W55105  21.112   1.094  14.061  0.0111 -0.0628 -0.0604
46306W        W55106   8.037   4.398  31.383  0.0484 -0.0602 -0.2379
46307W        W55107  11.360   2.286  38.631 -0.0019  0.2805 -0.0401
46308W        W55108   6.494   1.230  35.927 -0.1239 -0.1530 -0.2422
46309W        W55109   9.190   5.548  22.226 -0.0413  0.1195  0.0847
46310W        W55110  13.613   5.124  38.221 -0.0453 -0.4286  0.0740
46311W        W55111  14.750   6.429   4.653 -0.2981 -0.0535 -0.1032
46312W        W55112   0.270   2.024  25.412 -0.1499  0.2107 -0.0690
46313W        W55113   4.372   4.402  43.690 -0.0098 -0.2204 -0.1793
46314W        W55114  19.978   3.132   7.430 -0.0212  0.0161 -0.1130
46315W        W55115  11.807   3.646  36.531  0.1420 -0.0885 -0.2690
46316W        W55116  17.837   2.154   3.457  0.1795  0.1515  0.2198
46317W        W55117  14.271   1.228  10.392 -0.0548  0.0803 -0.2321
46318W        W55118  10.924   3.775   8.214  0.0626 -0.1270  0.0290
46319W        W55119  13.487   4.199   3.087 -0.1360 -0.1217 -0.0584
46320W        W55120   6.130   2.298  30.673  0.3005  0.0649 -0.2213
46321W        W55121   8.996   1.387  37.141  0.3205 -0.1603  0.1464
46322W        W55122   4.510   4.143  38.008  0.0597 -0.0306 -0.0316
46323W        W55123  21.128   5.824  44.359  0.1735 -0.0489 -0.3684
46324W        W55124   9.787   4.886  14.806 -0.2238  0.0782 -0.1329
46325W        W55125  13.357   2.202  38.309  0.1792 -0.0115  0.0476
46326W        W55126  15.248   3.981   3.285  0.3532 -0.0289  0.0420
46327W        W55127   3.383   0.001  14.124 -0.2661  0.0093  0.0867
46328W        W55128   8.731   0.466  39.341  0.4775 -0.1805 -0.1352
46329W        W55129   8.415   3.540  34.581  0.0851 -0.3006 -0.0641
46330W        W55130   8.442   4.528   0.914 -0.2158  0.0126 -0.1761
46331W        W55131   2.943   0.613  42.242  0.0770  0.0585  0.1148
46332W        W55132  13.350   4.451   2.697 -0.0507 -0.0532  0.2605
46333W        W55133  19.554   2.333  15.599  0.1544  0.0578 -0.3800
46334W        W55134  15.249   1.593  14.743 -0.1812 -0.2246  0.2735
46335W        W55135  17.698   2.127  15.875 -0.1609 -0.1268 -0.1317
46336W        W55136  12.383   2.280  20.917  0.2999 -0.2671  0.3209
46337W        W55137   8.526   2.639  17.548  0.2538 -0.1017 -0.0077
46338W        W55138   6.451   2.199  30.291  0.0581 -0.3151 -0.1330
46339W        W55139   9.216   5.104  41.061 -0.1444  0.1657  0.2958
46340W        W55140  11.511   2.553  37.341 -0.0469  0.1141  0.0435
46341W        W55141  16.072   2.275   5.319  0.0648 -0.1088  0.0472
46342W        W55142   5.665   3.805   4.696  0.0335 -0.1199  0.0668
46343W        W55143  10.845   3.903  42.173 -0.0602  0.3918 -0.3366
46344W        W55144  19.593   6.455  21.156 -0.0123  0.1834  0.2344
46345W        W55145  19.391   4.321  22.254 -0.1089  0.0402 -0.0403
46346W        W55146  11.199   3.571  43.424  0.1114  0.2996 -0.1716
46347W        W55147  18.254   0.952  11.441  0.0442 -0.3199  0.2485
46348W        W55148  14.404   2.134  14.106  0.3631 -0.2156 -0.0954
46349W        W55149  19.625   5.637  43.505 -0.3310  0.0939 -0.1084
46350W        W55150  10.024   1.840   3.172 -0.0733 -0.0183 -0.0751
46351W        W55151  19.772   6.315  27.466 -0.2760  0.2411 -0.0830
46352W        W55152  19.866   5.368  44.727  0.1872  0.0292 -0.2096
46353W        W55153  11.137   2.009  31.550 -0.0651 -0.1644  0.0737
46354W        W55154  18.888   0.493  34.205  0.1066 -0.0498 -0.2149
46355W        W55155   3.640   2.024  31.466  0.1287 -0.2635 -0.1007
46356W        W55156  20.040   4.315  37.260 -0.3602 -0.1874  0.0068
46357W        W55157   0.580   4.194   1.969 -0.1755  0.0762  0.0633
46358W        W55158  20.096   6.302  35.419  0.1917  0.0327  0.0762
46359W        W55159  13.838   5.283  39.322 -0.0059 -0.1745 -0.2658
46360W        W55160  18.741   6.264  14.623 -0.2169  0.2834 -0.0989
46361W        W55161  12.948   6.574  42.914 -0.0788  0.1985 -0.1329
46362W        W55162  11.188   4.763   9.118  0.1260  0.1871 -0.0297
46363W        W55163  14.797   3.732  25.535  0.0269 -0.2238 -0.1225
46364W        W55164   1.076   2.697  28.780  0.0950 -0.3735 -0.1753
46365W        W55165   3.465   1.687  36.707 -0.0076 -0.1083  0.0395
46366W        W55166   9.424   3.138   9.353  0.2659 -0.2420 -0.0131
46367W        W55167  10.645   3.969  21.919 -0.0572 -0.0540  0.1722
46368W        W55168  13.491   1.686  44.308  0.0240 -0.2538  0.1769
46369W        W55169  18.138   3.006   3.338 -0.0360  0.0999 -0.0248
46370W        W55170  11.100   3.667  20.200  0.0470  0.3413 -0.1179
46371W        W55171  20.201   2.270  41.935  0.3382 -0.2476  0.1068
46372W        W55172  13.519   3.536  28.690 -0.0479 -0.1301  0.0246
46373W        W55173   8.694   3.509   0.039 -0.3450  0.4168 -0.1648
46374W        W55174   2.485   4.800  34.806 -0.0401  0.1237  0.2556
46375W        W55175   6.678   0.480   2.249  0.0422 -0.0220 -0.1301
46376W        W55176   2.376   5.573  34.469 -0.1751  0.2331 -0.0837
46377W        W55177   4.895   1.227  36.885 -0.3008 -0.1570  0.1867
46378W        W55178   1.606   0.699  26.841  0.1755 -0.3871 -0.2654
46379W        W55179  17.841   1.488  28.638  0.1935  0.1009 -0.0754
46380W        W55180  15.736   2.894   2.641  0.0431 -0.2780  0.2996
46381W        W55181   2.703   1.699  44.172 -0.0185 -0.2805 -0.0460
46382W        W55182   4.389   1.203   1.301 -0.1686 -0.2278 -0.1211
46383W        W55183   0.670   1.728  36.865  0.1186 -0.5019  0.0234
46384W        W55184  13.373   5.242   2.083  0.1741 -0.0803 -0.0302
46385W        W55185   2.185   0.366  26.181 -0.0155  0.0830 -0.0666
46386W        W55186   3.571   0.829   2.575  0.0756 -0.1374 -0.1166
46387W        W55187   2.796   4.876  14.280  0.0499 -0.1653  0.0610
46388W        W55188   0.893   0.877  43.984 -0.1064 -0.1599 -0.2474
46389W        W55189   4.145   2.257   6.793  0.1978 -0.2043  0.1383
46390W        W55190   1.406   0.381  33.632 -0.1742  0.3628 -0.0706
46391W        W55191  15.148   3.654  12.499  0.2220 -0.1019 -0.0933
46392W        W55192   2.715   2.018  29.821  0.2184  0.0255 -0.1006
46393W        W55193   0.404   2.545   7.395 -0.4008 -0.2011 -0.0388
46394W        W55194   3.307   3.562   5.351 -0.1464 -0.2962 -0.2402
46395W        W55195   1.561   5.728   6.592  0.0772  0.0552 -0.2731
46396W        W55196   7.903   5.395   5.570 -0.2160  0.2946  0.1194
46397W        W55197  10.253   6.206  15.179  0.2199 -0.0229  0.0802
46398W        W55198   2.640   0.317   7.079  0.0929 -0.1409 -0.0805
46399W        W55199   8.650   6.258  32.931 -0.3980 -0.2896  0.4063
46400W        W55200   3.112   4.021  12.504 -0.1776  0.0898 -0.1390
46401W        W55201   3.186   0.113  42.196 -0.3697 -0.2136  0.0623
46402W        W55202   5.240   6.246   6.917 -0.4309  0.1357 -0.1403
46403W        W55203   4.063   3.351  19.109 -0.0446 -0.0202 -0.4044
46404W        W55204   8.381   3.083  32.855 -0.1276 -0.0232 -0.0274
46405W        W55205   2.270   0.375  40.549 -0.0371  0.0527  0.2215
46406W        W55206  10.870   0.348  36.577 -0.2356  0.0129  0.0642
46407W        W55207   8.777   0.660   6.667  0.1159  0.1101 -0.0584
46408W        W55208  12.465   0.376  29.670  0.0102 -0.2121  0.0577
46409W        W55209  19.534   4.716  29.902 -0.1358  0.2068  0.3098
46410W        W55210   7.673   1.836  21.571 -0.1273  0.1238 -0.0685
46411W        W55211  11.000   3.055  40.597  0.1737 -0.2189 -0.1628
46412W        W55212   7.951   3.752  32.622  0.2784  0.0659 -0.0913
46413W        W55213   7.390   3.134  14.178  0.1926 -0.0353 -0.1572
46414W        W55214  19.079   0.997  28.917  0.1107 -0.0290 -0.1111
46415W        W55215  18.235   5.873  24.735  0.1038  0.0165 -0.2509
46416W        W55216  16.447   6.482  31.557 -0.0180 -0.1708 -0.1756
46417W        W55217   4.483   0.513  41.400  0.4139 -0.0040  0.0842
46418W        W55218   8.611   2.587  38.068 -0.1643  0.0763 -0.1690
46419W        W55219  13.059   3.599  17.862  0.0944 -0.0639 -0.1442
46420W        W55220  18.193   2.500  10.766 -0.0871 -0.1791 -0.2072
46421W        W55221   2.572   1.900   3.941 -0.2030  0.0004  0.0141
46422W        W55222  19.399   6.153  34.154  0.1802 -0.0664 -0.0823
46423W        W55223  20.594   2.891  38.845  0.0952  0.2248  0.0310
46424W        W55224  12.026   3.783  42.004  0.2100 -0.0046  0.3316
46425W        W55225  20.504   0.758   3.284 -0.2321  0.1817  0.0562
46426W        W55226  15.457   1.500  12.673 -0.4201 -0.4603 -0.3140
46427W        W55227   7.196   2.506   9.307  0.5100 -0.1101 -0.1894
46428W        W55228   7.893   6.316   0.177 -0.1782  0.1841 -0.2288
46429W        W55229  14.328   1.079  40.797 -0.0906 -0.1866  0.2136
46430W        W55230  19.501   1.761  39.898 -0.0008 -0.0676  0.0277
46431W        W55231  12.156   3.529  21.746  0.0057  0.0834 -0.1614
46432W        W55232   6.402   4.907  33.752 -0.2245 -0.2482 -0.0652
46433W        W55233   9.516   4.340  41.101  0.1798  0.1366 -0.0277
46434W        W55234   9.564   0.077   3.007 -0.1505 -0.2349 -0.3355
46435W        W55235   3.676   5.365  41.833  0.0414 -0.1829 -0.1073
46436W        W55236  18.785   3.385  28.393  0.2253 -0.1938  0.5095
46437W        W55237   4.101   0.496  38.384  0.1170  0.1119  0.0182
46438W        W55238   7.360   4.170  16.963  0.0244  0.2378  0.0417
46439W        W55239  20.837   1.975  37.814  0.1387 -0.0822  0.0401
46440W        W55240   2.120   4.780  31.291  0.0722  0.3782 -0.2217
46441W        W55241   3.143   5.590  39.412 -0.1179  0.0263  0.1020
46442W        W55242   2.153   4.974  10.536 -0.0928  0.0344 -0.1543
46443W        W55243  19.683   3.576   4.802  0.4287  0.1092 -0.0741
46444W        W55244   6.328   5.404  20.172 -0.2608 -0.1552  0.1783
46445W        W55245  20.599   0.333  29.647  0.1017 -0.3457  0.1112
46446W        W55246  15.897   1.551  45.041  0.2657 -0.3566 -0.4330
46447W        W55247   8.587   0.973   5.790  0.1108 -0.1674  0.0021
46448W        W55248  16.700   2.605   5.791 -0.0267  0.0044 -0.0710
46449W        W55249  18.552   6.370  31.271  0.0870 -0.3261  0.2196
46450W        W55250  15.162   3.300  33.641  0.2336  0.0573  0.0440
46451W        W55251  19.172   6.344  21.594 -0.3888 -0.1085 -0.1239
46452W        W55252  18.585   0.113   9.080 -0.0111  0.1873 -0.3921
46453W        W55253   8.732   0.565  43.194 -0.1045 -0.1631 -0.1453
46454W        W55254   3.136   1.610  15.224  0.2888 -0.2994  0.3855
46455W        W55255  19.305   6.347  32.654  0.1408  0.2282 -0.2148
46456W        W55256   4.886   0.041  29.740 -0.0791 -0.4158  0.1321
46457W        W55257  14.488   5.120  12.732 -0.4791  0.1274 -0.0605
46458W        W55258   4.526   1.382  12.247  0.1609 -0.1104  0.0228
46459W        W55259   0.308   5.793   2.067  0.2698 -0.1439 -0.0134
46460W        W55260  20.502   3.828   4.194 -0.0103  0.1127 -0.1960
46461W        W55261   2.382   5.440   7.127  0.0339 -0.0422  0.1580
46462W        W55262   6.705   3.869  19.015  0.2293 -0.1576 -0.1368
46463W        W55263  16.485   1.637  36.600  0.0575 -0.0151 -0.0161
46464W        W55264   4.913   2.582  19.223  0.2109 -0.0071  0.1873
46465W        W55265   7.222   2.885   2.980  0.2141  0.0875 -0.0832
46466W        W55266  15.454   5.616  44.376  0.0333 -0.2795  0.0337
46467W        W55267  16.237   5.478  36.167  0.0351  0.2965  0.1064
46468W        W55268  16.795   6.192  26.678  0.0879 -0.0151 -0.1908
46469W        W55269   5.752   3.961  11.987 -0.0832  0.1919 -0.0722
46470W        W55270   1.811   6.133   6.866 -0.3110 -0.0742  0.2532
46471W        W55271   9.080   5.623  43.370 -0.2243  0.2297 -0.2456
46472W        W55272   3.009   2.187   6.626 -0.1841 -0.2056 -0.1324
46473W        W55273  20.212   1.553   8.995 -0.1425 -0.0446  0.0748
46474W        W55274   5.984   3.831   1.895  0.1290  0.0923  0.0042
46475W        W55275  11.031   1.539  18.152  0.0295  0.2951 -0.0670
46476W        W55276   9.752   4.793   9.085 -0.1554 -0.1621  0.0891
46477W        W55277   2.954   1.215   5.615  0.1163 -0.0904 -0.0515
46478W        W55278  18.322   1.681  44.406  0.0285 -0.1744 -0.0802
46479W        W55279   1.613   1.784  27.150  0.0070 -0.1751  0.0819
46480W        W55280   1.595   0.768  11.553  0.0784 -0.0798  0.0236
46481W        W55281  15.221   5.201   2.151  0.0511 -0.0996  0.0043
46482W        W55282   7.991   3.745  23.645  0.2983  0.1387  0.1690
46483W        W55283  17.942   0.723  23.020  0.0747 -0.1177 -0.2769
46484W        W55284  19.764   0.815  12.948 -0.1335  0.0304  0.0566
46485W        W55285   0.689   4.239   8.831  0.4936  0.4054 -0.0671
46486W        W55286   3.051   4.038   8.733  0.0954 -0.2028  0.0153
46487W        W55287   3.469   5.162  39.076 -0.1252 -0.1516 -0.0184
46488W        W55288   7.672   2.903  12.260 -0.0591 -0.4964 -0.5096
46489W        W55289   9.253   4.618  14.104  0.1617  0.3437  0.1159
46490W        W55290  10.471   1.813   5.073  0.0812  0.1488  0.1132
46491W        W55291   3.527   5.140   1.139 -0.0459 -0.0520 -0.2542
46492W        W55292  16.965   4.196  38.697  0.0810  0.2052  0.1699
46493W        W55293   5.054   0.486  12.013 -0.0985 -0.0456 -0.3256
46494W        W55294  11.947   5.298   2.574 -0.3116 -0.2354 -0.0244
46495W        W55295   1.152   2.377   6.872  0.5319  0.0257 -0.0736
46496W        W55296   7.881   5.938  40.896  0.2332 -0.2419 -0.3039
46497W        W55297  16.575   0.987   9.513  0.1150 -0.1795  0.0327
46498W        W55298  11.543   3.090  18.795  0.1405 -0.1683 -0.1071
46499W        W55299  11.011   4.435  20.571 -0.1245  0.3498 -0.1020
46500W        W55300   3.621   1.597  36.046  0.1107  0.0343 -0.1255
46501W        W55301   1.702   1.103  15.585 -0.0930  0.0293 -0.4211
46502W        W55302  16.695   0.393  33.880  0.0686 -0.1667 -0.0104
46503W        W55303  18.839   0.855  13.010  0.1844 -0.4496 -0.0806
46504W        W55304   5.938   3.628   1.372 -0.2297  0.2406 -0.1502
46505W        W55305  10.588   3.017  22.275  0.1278  0.2708  0.1192
46506W        W55306  13.281   2.561  11.084  0.2914  0.1382 -0.1887
46507W        W55307   4.750   1.243  10.864 -0.0316  0.0122 -0.1069
46508W        W55308  16.458   2.386  31.813 -0.0547 -0.1777  0.1841
46509W        W55309  19.003   2.114  11.372  0.0479  0.4892  0.2766
46510W        W55310  18.989   3.581  23.826 -0.0685 -0.1360  0.0752
46511W        W55311  16.044   1.859  44.684 -0.1214 -0.0169 -0.0701
46512W        W55312  13.453   2.906  19.068 -0.0226  0.3380  0.4281
46513W        W55313   5.472   3.443  10.472  0.1154  0.0383 -0.1302
46514W        W55314   8.002   0.564  44.810  0.1539  0.1844 -0.4224
46515W        W55315   7.014   4.653  38.650 -0.3766  0.3258  0.1437
46516W        W55316   0.783   6.450  31.217 -0.0123 -0.2261 -0.2551
46517W        W55317   5.000   0.490  32.779 -0.2471  0.2941 -0.3132
46518W        W55318  19.107   2.478   5.030  0.0423 -0.2355 -0.2304
46519W        W55319   7.917   4.679   3.629 -0.1229  0.2441  0.0734
46520W        W55320   5.565   1.648  34.691 -0.0707 -0.1150 -0.2694
46521W        W55321  12.362   0.762   4.728  0.1221 -0.0780 -0.0070
46522W        W55322  13.667   0.981  30.029  0.0866  0.0474 -0.1828
46523W        W55323   5.890   1.895   3.810 -0.0997 -0.0024  0.2171
46524W        W55324  14.843   6.590  15.083  0.0276 -0.0532  0.2393
46525W        W55325  10.392   5.665   8.302  0.2130  0.0816 -0.2010
46526W        W55326   6.986   4.411  10.043  0.1905  0.0737  0.0036
46527W        W55327   9.106   5.273  14.641 -0.1588  0.1053 -0.0373
46528W        W55328   6.820   5.084   8.882  0.0618 -0.1418  0.0158
46529W        W55329   8.593   1.062  45.047  0.0017  0.2372  0.0449
46530W        W55330  20.270   6.253   2.393  0.1557 -0.5603  0.4833
46531W        W55331   8.942   0.974  16.799  0.3384 -0.1187  0.2178
46532W        W55332  16.015   0.179   6.096 -0.0572  0.2601  0.0079
46533W        W55333  11.527   6.337  13.133 -0.3842  0.0322  0.1114
46534W        W55334  19.705   4.989  40.301  0.0759 -0.0861  0.0912
46535W        W55335   4.672   5.698  11.213  0.2001  0.1051  0.2228
46536W        W55336   8.793   3.460   1.428  0.0139 -0.1458  0.2938
46537W        W55337  16.750   5.105  40.973  0.2375  0.1894  0.0477
46538W        W55338   6.982   6.261   3.877 -0.1777  0.2132 -0.1068
46539W        W55339   1.919   1.562  15.895 -0.0777  0.1646 -0.2728
46540W        W55340  10.747   1.528  17.273  0.2817  0.0370  0.0528
46541W        W55341   3.816   2.581   7.163 -0.2213 -0.2495 -0.1622
46542W        W55342   6.315   1.190  19.592 -0.2452  0.0745  0.1226
46543W        W55343   4.107   0.889  34.834 -0.1531 -0.5649  0.1085
46544W        W55344  10.674   6.023   3.133  0.1873  0.1162 -0.1648
46545W        W55345  16.593   1.026  12.431 -0.0916  0.0501  0.0981
46546W        W55346   2.756   3.994  43.271 -0.0391 -0.0493 -0.1797
46547W        W55347   5.376   6.418  20.079 -0.0227  0.3700  0.0137
46548W        W55348   1.544   3.491  28.916 -0.1865  0.1489 -0.2732
46549W        W55349  10.244   0.749  16.149  0.1411 -0.0072  0.3423
46550W        W55350  19.034   1.649  20.410 -0.0886 -0.0160  0.1348
46551W        W55351   7.512   3.758   2.383 -0.0581 -0.1011  0.0323
46552W        W55352  19.932   5.564   3.458  0.2914  0.0065 -0.1397
46553W        W55353  19.227   0.540  26.769 -0.0881  0.0249  0.0474
46554W        W55354   7.610   6.305  40.001  0.0718  0.1002 -0.1909
46555W        W55355  16.767   3.144  37.608 -0.2349 -0.1388 -0.1307
46556W        W55356   8.792   1.642  21.890 -0.1374 -0.1059  0.1201
46557W        W55357   6.776   2.515   8.180 -0.1169  0.1008 -0.3032
46558W        W55358   5.761   0.608   8.249 -0.0404  0.1208 -0.1078
46559W        W55359  11.307   0.619  36.357 -0.2349 -0.0664  0.2302
46560W        W55360  14.026   1.698   4.434 -0.0815  0.0140  0.0630
46561W        W55361  18.789   5.737  41.158 -0.2322  0.2657 -0.0052
46562W        W55362   7.946   4.755  33.013  0.0041  0.2949  0.1852
46563W        W55363  19.017   3.143  27.351  0.1800  0.0837  0.3419
46564W        W55364  19.603   1.314   7.647 -0.1091  0.0441  0.1138
46565W        W55365  12.009   0.993  13.327  0.0986  0.1248 -0.0812
46566W        W55366   9.936   0.795  43.722 -0.1654 -0.0012  0.0356
46567W        W55367  19.091   2.594   9.201 -0.0667  0.1144 -0.0455
46568W        W55368  13.545   5.889   2.573  0.1187  0.0202  0.0296
46569W        W55369   9.579   1.391  16.854  0.1682  0.0071 -0.2669
46570W        W55370   3.411   0.051   2.707 -0.0275 -0.0097  0.1672
46571W        W55371   9.031   5.325  23.425 -0.1357  0.0418 -0.2975
46572W        W55372   4.149   6.497   2.175  0.0342  0.1611  0.0587
46573W        W55373   4.254   2.224  12.107 -0.2207  0.1527  0.0869
46574W        W55374   3.753   2.839  37.954 -0.1726 -0.0406 -0.0345
46575W        W55375   5.153   5.190   3.566  0.0635  0.0796 -0.1168
46576W        W55376  10.645   2.680  19.996 -0.0738 -0.2399  0.1105
46577W        W55377   3.575   3.410  39.940  0.0628 -0.0192 -0.1141
46578W        W55378  11.851   6.251  11.613  0.1351  0.0971 -0.3187
46579W        W55379   4.518   2.740  40.680  0.2808 -0.0988  0.4578
46580W        W55380   1.998   6.186  35.021 -0.0253  0.3963 -0.1784
46581W        W55381   5.946   5.890  38.229 -0.3128  0.0581 -0.1678
46582W        W55382   0.295   3.975  44.289 -0.0913  0.0176 -0.0611
46583W        W55383  13.407   5.317  41.309 -0.0281 -0.0457  0.1270
46584W        W55384   1.820   2.115  12.605 -0.2813 -0.1941  0.0816
46585W        W55385  21.046   3.849  25.140 -0.0936  0.0367  0.1142
46586W        W55386  15.185   5.505  16.737 -0.1269  0.1711  0.1867
46587W        W55387  19.743   5.829  44.748 -0.2605  0.0755 -0.1222
46588W        W55388   7.494   0.809   7.710 -0.1325  0.0393  0.2809
46589W        W55389   4.474   5.245  38.170  0.2209  0.0039 -0.2687
46590W        W55390   0.646   1.795  43.640  0.0973  0.0576 -0.0075
46591W        W55391   5.229   0.423   0.961  0.0540  0.2859 -0.0035
46592W        W55392   7.520   6.202  18.714  0.0064 -0.3086 -0.0560
46593W        W55393  20.819   4.132  31.658  0.0680 -0.1759  0.1058
46594W        W55394   4.424   0.004   2.851 -0.1053 -0.1863 -0.1640
46595W        W55395  18.801   4.341  34.518  0.1246 -0.0175  0.2306
46596W        W55396   2.804   4.014  44.368  0.3056  0.0613  0.2138
46597W        W55397   3.770   1.966  28.682  0.0332 -0.3566 -0.0710
46598W        W55398  14.425   1.954  15.487 -0.0017  0.1607  0.3047
46599W        W55399  10.779   3.169  11.284  0.0005 -0.0622  0.0738
46600W        W55400   7.948   2.729  22.846  0.1768  0.2002  0.1862
46601W        W55401  18.307   3.997  28.622 -0.1937  0.2044  0.0017
46602W        W55402  17.433   6.123  40.735 -0.2171 -0.1094  0.2216
46603W        W55403   5.556   1.314  16.710  0.0776 -0.0010 -0.0507
46604W        W55404   5.842   4.047  17.902 -0.3630  0.2145 -0.1958
46605W        W55405  20.645   2.236  10.770  0.0016 -0.4143  0.0842
46606W        W55406  15.936   4.620   2.839  0.0267 -0.2133 -0.0487
46607W        W55407   2.927   1.933   9.020 -0.2533  0.0706  0.1947
46608W        W55408   5.680   0.424  14.020  0.1657 -0.2563 -0.2004
46609W        W55409  16.882   0.926   2.377 -0.3396 -0.1108  0.2995
46610W        W55410   9.674   0.742  12.643  0.0966 -0.2416  0.1250
46611W        W55411  14.261   2.348  14.920  0.1941  0.0172 -0.1500
46612W        W55412   9.864   0.457  21.616  0.0496 -0.0555 -0.0381
46613W        W55413  12.061   5.110   4.027 -0.1585 -0.1458  0.1338
46614W        W55414   7.782   4.232   3.276 -0.2708  0.1100 -0.3114
46615W        W55415  20.864   3.535  42.164  0.2384  0.1745  0.0261
46616W        W55416   4.011   0.753   2.898 -0.0849  0.1782  0.1843
46617W        W55417  16.441   1.598   7.896  0.1879 -0.0240  0.3643
46618W        W55418   3.117   2.797   4.135  0.0310 -0.1980 -0.0567
46619W        W55419   8.315   5.188   1.788  0.0237 -0.1875  0.0770
46620W        W55420  20.226   0.436  33.844 -0.1570 -0.1911  0.0911
46621W        W55421   6.600   5.862   6.610  0.1126 -0.0251 -0.2408
46622W        W55422   8.015   1.619  29.574 -0.1894  0.0037 -0.0600
46623W        W55423   0.434   0.867  37.145  0.3076  0.1679 -0.2251
46624W        W55424  14.594   2.320  39.749 -0.0198  0.1335 -0.4695
46625W        W55425  16.389   4.047  34.785  0.1325 -0.0719  0.4403
46626W        W55426   6.983   1.187  17.653 -0.0282  0.0550  0.0166
46627W        W55427  20.096   1.211  32.538 -0.3005  0.1642  0.5750
46628W        W55428  14.769   1.876  14.758 -0.1595  0.0949  0.3839
46629W        W55429  19.591   5.956  24.474 -0.1775 -0.2435  0.3702
46630W        W55430  17.228   4.576   6.167 -0.1386 -0.0526 -0.0729
46631W        W55431  18.078   2.008   2.946  0.0912 -0.3834  0.0849
46632W        W55432   4.553   0.212  17.078  0.0633  0.0223 -0.0222
46633W        W55433   3.263   1.951   8.552  0.0908 -0.1351 -0.1517
46634W        W55434   0.598   2.237   5.180 -0.1057 -0.3132 -0.1526
46635W        W55435  11.326   2.504  21.256  0.3413 -0.0114  0.0377
46636W        W55436   6.081   0.780  17.280 -0.1284  0.0441  0.1619
46637W        W55437   4.861   5.465   1.895  0.1980 -0.2210  0.0160
46638W        W55438  20.559   5.128  30.903  0.2734  0.0466  0.4372
46639W        W55439   9.615   4.888  38.896 -0.1985 -0.0923 -0.2673
46640W        W55440  12.834   3.540  42.620 -0.0090  0.2919 -0.0685
46641W        W55441   4.228   2.273   3.106 -0.0387  0.0904  0.0539
46642W        W55442  16.756   1.910   6.554  0.1049  0.1237 -0.1354
46643W        W55443   1.239   4.657  12.864  0.1062  0.1438 -0.2218
46644W        W55444   6.649   2.124   3.070 -0.1249 -0.2332 -0.3544
46645W        W55445  15.340   6.282  37.801 -0.0855 -0.1834  0.0554
46646W        W55446   7.728   3.914   1.969 -0.1358 -0.1501 -0.2958
46647W        W55447   5.946   2.039   7.039  0.4919 -0.1149  0.1377
46648W        W55448   8.528   1.971  10.955  0.0766  0.1323 -0.0203
46649W        W55449  19.279   1.107  21.821 -0.0571  0.0640  0.2744
46650W        W55450   8.936   6.475  41.035  0.2039 -0.1087  0.1129
46651W        W55451   8.019   4.309   4.228 -0.1097 -0.3457 -0.0346
46652W        W55452   8.299   5.545  17.620  0.0381 -0.2410 -0.0829
46653W        W55453  18.856   3.025  42.288 -0.1291 -0.0986  0.0949
46654W        W55454   2.880   2.228  15.804 -0.2384 -0.0331 -0.1662
46655W        W55455   4.262   5.422  10.982  0.1926  0.0194 -0.0606
46656W        W55456   7.092   2.275  14.529  0.0913 -0.1020 -0.1267
46657W        W55457  15.674   5.765  31.477 -0.1424 -0.0311 -0.1860
46658W        W55458   0.873   0.319  38.804  0.1474  0.1900  0.0526
46659W        W55459   7.420   6.411   3.683  0.2120 -0.0223  0.3338
46660W        W55460  18.347   4.600  34.626  0.0758  0.0404 -0.0748
46661W        W55461  12.945   2.331   2.637 -0.1745  0.1886  0.3085
46662W        W55462  20.004   5.283  13.180 -0.0568  0.2434  0.1130
46663W        W55463   9.144   4.336  29.937 -0.2144  0.1622 -0.0743
46664W        W55464   1.105   1.271  32.837 -0.0106 -0.2904  0.0905
46665W        W55465  10.135   0.670   3.049  0.0591  0.1516 -0.0537
46666W        W55466  11.140   0.121  37.829 -0.3085  0.0452 -0.3670
46667W        W55467   1.452   4.773   9.789 -0.2660  0.1100  0.0804
46668W        W55468   5.051   4.455  38.835  0.1930  0.4372  0.0063
46669W        W55469  20.171   0.281  37.429 -0.0912  0.0563  0.2771
46670W        W55470   6.013   5.363   8.782  0.1366 -0.5814  0.0832
46671W        W55471  15.520   0.436  42.825  0.1285 -0.1791  0.1013
46672W        W55472  15.793   5.091   4.347  0.1216 -0.3169 -0.3772
46673W        W55473   3.176   2.790   7.988  0.0887 -0.1930 -0.0847
46674W        W55474  11.328   4.267  44.769  0.1905 -0.1126  0.2446
46675W        W55475   7.251   3.266  42.582 -0.0099  0.0992 -0.1195
46676W        W55476   7.787   6.029  39.119  0.1551  0.0392 -0.0114
46677W        W55477  15.896   5.427  27.523 -0.1991  0.2152 -0.0611
46678W        W55478  19.953   2.063  23.652  0.0375  0.2112  0.0654
46679W        W55479  19.214   6.520  25.568 -0.0770  0.1143  0.0819
46680W        W55480   7.274   1.449  44.009  0.0632 -0.0093 -0.0587
46681W        W55481  13.804   4.488  27.229 -0.0819 -0.0131  0.2499
46682W        W55482  19.336   3.250  26.956  0.2146  0.2759  0.0103
46683W        W55483  14.051   0.563  33.548  0.0628 -0.0156  0.0346
46684W        W55484   3.616   3.110   2.612  0.0311  0.2642  0.0999
46685W        W55485  12.420   5.264  30.771 -0.0070 -0.0758 -0.3816
46686W        W55486   1.355   3.350  29.697 -0.1697 -0.0706 -0.0096
46687W        W55487  17.968   3.577  32.134  0.2817 -0.0198 -0.3291
46688W        W55488  12.720   4.694  37.584 -0.2504 -0.2406 -0.2654
46689W        W55489   2.078   6.137  30.266  0.0233 -0.1479  0.2129
46690W        W55490   4.749   2.495   4.941 -0.0042  0.0395 -0.0150
46691W        W55491  11.091   1.532  38.453  0.0952 -0.1667 -0.0757
46692W        W55492  12.897   3.108   0.831 -0.3695 -0.1461  0.0304
46693W        W55493  19.502   1.976  19.663 -0.0936 -0.2714  0.4502
46694W        W55494   0.830   2.404  29.115 -0.2228  0.0420 -0.3338
46695W        W55495   1.677   2.855  44.404  0.0022 -0.0499 -0.0150
46696W        W55496   6.286   1.866   2.250  0.2256 -0.2280 -0.0286
46697W        W55497  17.956   5.773   0.825  0.0432  0.1391  0.1173
46698W        W55498  16.199   4.264  12.502 -0.0097 -0.2291 -0.0249
46699W        W55499   8.109   4.931  23.317 -0.0460  0.1898  0.0760
46700W        W55500  11.481   2.330  19.251  0.0135  0.0329 -0.0727
46701W        W55501   7.716   6.123   8.937 -0.1038 -0.0865  0.1343
46702W        W55502  12.069   1.567  34.372  0.0110  0.0329  0.0475
46703W        W55503  20.945   6.561  23.629  0.2691  0.0104  0.1118
46704W        W55504   5.919   3.029   6.715  0.0308  0.0957 -0.1637
46705W        W55505   4.120   2.206  34.488 -0.1380  0.1572 -0.1121
46706W        W55506  16.514   0.994  39.028 -0.2809 -0.1756 -0.0928
46707W        W55507   1.111   2.445  11.634  0.1784 -0.2572  0.0257
46708W        W55508   1.594   1.190  26.936  0.0725 -0.2630 -0.0198
46709W        W55509  13.696   4.447  13.546 -0.0811  0.0316 -0.0368
46710W        W55510   3.015   2.997  44.468  0.1256 -0.1251  0.2264
46711W        W55511   6.058   0.073  29.460 -0.0366 -0.0811  0.2274
46712W        W55512  12.867   0.784  17.225  0.3590 -0.2216  0.0949
46713W        W55513   8.912   0.909  41.386  0.2003 -0.1754 -0.2737
46714W        W55514  12.343   0.888   4.114 -0.0431 -0.0252  0.1824
46715W        W55515   9.847   0.222   7.501  0.0462  0.1681  0.3601
46716W        W55516   8.973   6.601  13.637 -0.0214  0.1671  0.0869
46717W        W55517   4.605   3.701   5.650  0.2387  0.0967 -0.0979
46718W        W55518  10.211   0.148  25.213 -0.1646 -0.0213  0.0834
46719W        W55519   2.852   5.906  33.078 -0.2227 -0.2470  0.1802
46720W        W55520   5.361   0.048  28.527 -0.0268  0.1364 -0.0180
46721W        W55521  19.896   6.398  37.952  0.0187 -0.0494  0.0566
46722W        W55522   7.508   6.517  15.178 -0.1681  0.2048 -0.1199
46723W        W55523   8.603   0.986   9.769  0.3000  0.0369 -0.2994
46724W        W55524   2.242   2.686   5.270  0.0227 -0.1234  0.0324
46725W        W55525   5.307   2.612  39.610 -0.0316  0.0098  0.0884
46726W        W55526   2.850   4.403  36.006  0.2822 -0.0370  0.2529
46727W        W55527   2.077   6.436  28.135  0.1804 -0.1385  0.1854
46728W        W55528   5.819   0.807  18.970 -0.1208  0.6703  0.2332
46729W        W55529  20.851   4.775  13.581 -0.1324  0.0855  0.0958
46730W        W55530   2.067   4.321   2.289  0.0937 -0.0185 -0.0810
46731W        W55531   4.824   4.235  28.499 -0.2260 -0.1390 -0.0002
46732W        W55532  20.012   3.088   6.553 -0.2552  0.0077 -0.0609
46733W        W55533  13.719   2.671   7.009  0.1559  0.1068  0.0137
46734W        W55534  10.093   4.002  43.261 -0.0046 -0.3085  0.0144
46735W        W55535  16.056   4.738   3.450  0.1766 -0.2969 -0.2574
46736W        W55536  14.405   2.266  13.221 -0.0164  0.1925 -0.1431
46737W        W55537  20.075   0.451  26.158 -0.0330 -0.4392 -0.0519
46738W        W55538  19.747   0.733  27.437  0.2659  0.2925  0.0350
46739W        W55539   3.421   0.455  40.718 -0.2421  0.1311 -0.0886
46740W        W55540  15.223   3.041   4.002  0.1878  0.1004 -0.0957
46741W        W55541   0.694   2.968   7.287 -0.2016  0.1865  0.0593
46742W        W55542  19.614   4.754  21.500  0.2697 -0.2330  0.2259
46743W        W55543  13.130   5.628  33.938 -0.0767 -0.0976  0.0662
46744W        W55544  12.826   6.292  43.683 -0.0344  0.2772  0.3416
46745W        W55545   7.350   3.513  11.176 -0.0328 -0.2586  0.0395
46746W        W55546   6.608   2.400  43.318 -0.2077 -0.0217 -0.0674
46747W        W55547  18.347   2.013  35.211  0.0445  0.2602  0.3213
46748W        W55548  20.607   6.147  31.489  0.0709  0.1750  0.4419
46749W        W55549  12.495   3.917  19.422  0.0565 -0.1145  0.1444
46750W        W55550  15.738   6.244   1.054 -0.1085 -0.2023  0.0726
46751W        W55551  18.103   1.723  42.739  0.1298  0.0210  0.1005
46752W        W55552  14.919   4.001  34.420  0.0785 -0.0187  0.1125
46753W        W55553   3.463   2.965   0.551 -0.2674  0.1082  0.0751
46754W        W55554   0.014   6.142   9.993 -0.3076 -0.2512 -0.0209
46755W        W55555  20.958   3.412  22.090  0.2528 -0.1820 -0.1464
46756W        W55556  17.816   5.362  14.546 -0.0452 -0.0717  0.2092
46757W        W55557  16.226   3.426  34.755 -0.0940 -0.0411  0.1909
46758W        W55558   9.891   5.755  39.771  0.0836  0.0167 -0.1346
46759W        W55559  14.990   2.950  31.506 -0.1091 -0.0461 -0.1036
46760W        W55560   0.987   0.313  43.844  0.1381 -0.2093 -0.0616
46761W        W55561   8.818   6.023   2.040  0.1391  0.2583  0.3816
46762W        W55562   5.804   1.456  41.579 -0.4416 -0.1758 -0.0817
46763W        W55563   1.980   6.080  41.703  0.0429  0.0045 -0.2754
46764W        W55564   0.724   4.420   8.262 -0.1975  0.1778  0.0419
46765W        W55565  17.773   5.371  43.452  0.3388 -0.1534  0.2446
46766W        W55566  18.961   3.315  38.825  0.2120  0.0702 -0.0762
46767W        W55567  16.350   5.377   7.542 -0.1301  0.0839 -0.0642
46768W        W55568  15.296   5.774  37.733 -0.0873  0.0854 -0.2226
46769W        W55569   3.698   4.715  29.940  0.1236 -0.0185 -0.3440
46770W        W55570  19.313   4.056  36.652  0.2910  0.3745 -0.0916
46771W        W55571  17.935   6.448  16.189  0.0762 -0.2516 -0.1350
46772W        W55572  19.880   2.165   9.734  0.2939  0.0613  0.2001
46773W        W55573   4.062   1.021  27.240 -0.0849  0.1055  0.0672
46774W        W55574   2.102   3.788  31.581  0.0793  0.1118  0.0570
46775W        W55575   3.588   4.644   5.293 -0.0464  0.1114 -0.0325
46776W        W55576  18.584   5.791  21.913  0.1269  0.4782  0.3024
46777W        W55577  12.375   5.601   2.710  0.3360 -0.4837  0.0304
46778W        W55578  14.274   5.880  43.386  0.1823 -0.2977  0.0996
46779W        W55579   5.265   3.857  36.649 -0.0184  0.0901 -0.0747
46780W        W55580  10.168   4.853  12.153 -0.1621 -0.0142  0.0132
46781W        W55581   4.009   3.944  28.130 -0.0148 -0.1428  0.3056
46782W        W55582   3.593   5.496  27.658  0.0188  0.2370 -0.2022
46783W        W55583   9.638   4.965  33.298 -0.0806  0.2335 -0.2874
46784W        W55584  14.358   2.723  16.207  0.0140 -0.2965  0.2248
46785W        W55585   6.179   6.243  35.112  0.0844  0.1090  0.3457
46786W        W55586   6.043   4.839  33.305 -0.0866 -0.2453  0.0815
46787W        W55587   0.379   3.698  26.283  0.3916  0.1620 -0.0400
46788W        W55588  17.019   4.197   1.803 -0.0923  0.1389  0.1154
46789W        W55589  10.389   2.452   3.001 -0.0202 -0.1769  0.0039
46790W        W55590  18.819   1.727  20.900 -0.3209  0.0536 -0.1948
46791W        W55591  11.801   3.072  31.324  0.2879 -0.2670  0.0626
46792W        W55592   5.389   0.551  19.144 -0.1479  0.3629  0.0258
46793W        W55593  18.862   1.428  13.965 -0.1129  0.1016  0.0737
46794W        W55594  14.304   2.763  39.914 -0.1041 -0.0034  0.3374
46795W        W55595   0.747   0.397  27.731 -0.0196 -0.0465  0.1136
46796W        W55596  10.679   2.944  32.167 -0.2082  0.4405 -0.0990
46797W        W55597   5.369   5.431  32.350 -0.2799  0.0807  0.2235
46798W        W55598  14.657   0.716   7.833 -0.1224  0.1702 -0.1047
46799W        W55599   3.337   5.322   4.130  0.0976  0.1785  0.3487
46800W        W55600   9.751   4.764  30.082 -0.0665  0.1252 -0.0753
46801W        W55601  11.792   1.020   3.992  0.1426 -0.0356  0.3502
46802W        W55602   2.331   6.554  33.359 -0.0404  0.1001  0.0280
46803W        W55603  13.435   2.069   5.744  0.1749 -0.0314  0.2225
46804W        W55604   4.285   2.765   8.660  0.0538 -0.1645  0.2505
46805W        W55605   0.361   0.438  26.467 -0.3467  0.1346  0.2822
46806W        W55606   7.478   3.418  36.090  0.3464 -0.1115  0.1741
46807W        W55607  14.398   5.974  42.770  0.6021 -0.4521 -0.0408
46808W        W55608   3.260   3.918  28.335  0.1390 -0.0544  0.0829
46809W        W55609   5.048   1.215  11.713 -0.1703 -0.2471  0.1122
46810W        W55610   4.876   0.311   2.754  0.0101 -0.1017 -0.2155
46811W        W55611   8.512   3.492   4.530 -0.0875 -0.1848 -0.3167
46812W        W55612  14.915   0.621  36.533 -0.1661  0.0687  0.1306
46813W        W55613  16.144   3.404  35.325  0.3637 -0.1160  0.0314
46814W        W55614   6.975   5.156  19.689  0.0167 -0.0737  0.1819
46815W        W55615  12.527   4.407  10.435 -0.4606 -0.0181 -0.1288
46816W        W55616  17.588   4.739  31.620  0.0081 -0.1330 -0.1772
46817W        W55617  13.689   1.553  12.199 -0.0826  0.4109 -0.0033
46818W        W55618  10.317   3.685  14.167  0.1255  0.1050 -0.1600
46819W        W55619  14.446   4.300  14.967 -0.0735  0.3427  0.3178
46820W        W55620   5.892   3.678  38.764  0.1557 -0.0273  0.1568
46821W        W55621  16.710   3.598  40.771  0.0404 -0.0184 -0.1721
46822W        W55622  11.913   2.758  12.528  0.0536 -0.1525  0.1404
46823W        W55623  16.259   1.828  38.336  0.2347 -0.3258  0.1913
46824W        W55624  15.200   3.297  40.679  0.0157 -0.1600 -0.4029
46825W        W55625   6.375   0.782  18.843 -0.2079  0.1485 -0.0784
46826W        W55626  12.069   0.545   8.423  0.2705  0.3681  0.1202
46827W        W55627  13.021   2.543  14.139  0.0874  0.5225 -0.0306
46828W        W55628   8.734   2.017   6.494  0.1923 -0.0138 -0.2687
46829W        W55629  16.829   4.668  16.997 -0.1730  0.0598  0.0315
46830W        W55630  18.646   0.275  26.667 -0.0944 -0.0011  0.1721
46831W        W55631   9.202   3.969  16.998  0.0877  0.0783  0.1577
46832W        W55632  13.902   6.303  35.011  0.1900 -0.0995  0.0207
46833W        W55633  17.856   1.805  24.177  0.2647  0.0325 -0.0676
46834W        W55634   6.984   5.147   1.539 -0.0812  0.2751 -0.0831
46835W        W55635  20.685   0.704   9.148 -0.3083 -0.0793 -0.0461
46836W        W55636   8.045   3.300  44.150 -0.0740  0.0686  0.0423
46837W        W55637   1.325   0.888   3.145 -0.2758  0.3418  0.2130
46838W        W55638  15.169   4.243  32.258 -0.2024  0.0590  0.2055
46839W        W55639  21.107   0.989   3.279 -0.1033  0.0763 -0.0762
46840W        W55640  20.836   0.974  41.505  0.2014 -0.1851 -0.0332
46841W        W55641   4.192   3.553  34.411 -0.0712 -0.3521  0.1426
46842W        W55642  13.826   6.332  32.732 -0.2759  0.1473  0.0360
46843W        W55643  12.008   6.412  10.202  0.0106 -0.0699  0.1215
46844W        W55644   6.596   2.314  14.440 -0.1574 -0.3555  0.2493
46845W        W55645   5.153   6.053  30.369 -0.1188  0.1116 -0.2625
46846W        W55646  12.835   6.236  42.509 -0.1268 -0.0444 -0.0006
46847W        W55647   1.348   2.341  27.423  0.0023  0.0450  0.0532
46848W        W55648  12.082   4.640  42.835 -0.0124 -0.0950 -0.0451
46849W        W55649   9.195   3.531  34.297  0.1348 -0.3115  0.0051
46850W        W55650   5.049   3.497  10.234  0.1210 -0.0086 -0.0981
46851W        W55651   2.871   1.879   2.188  0.0799  0.0230  0.2106
46852W        W55652   5.023   5.328  32.663 -0.1332  0.3664 -0.0178
46853W        W55653   9.164   3.341  18.998  0.0329 -0.2858 -0.2675
46854W        W55654  16.616   2.084  38.755  0.2073  0.1354  0.0221
46855W        W55655   5.190   0.894  14.996 -0.0073  0.0216 -0.3185
46856W        W55656   4.003   5.391  34.972  0.0354  0.4430 -0.1005
46857W        W55657   9.764   5.269  37.567 -0.2170 -0.0412 -0.1490
46858W        W55658   4.781   5.222   4.581  0.1023  0.0472 -0.0789
46859W        W55659   2.068   0.906   1.721  0.1103  0.2695  0.1162
46860W        W55660  11.922   2.202  41.707 -0.0839 -0.0638  0.1426
46861W        W55661   7.939   1.908  41.943  0.2960  0.1557  0.0769
46862W        W55662   8.509   5.237  38.302 -0.2675  0.1832 -0.1952
46863W        W55663   0.094   5.282  36.853  0.0420 -0.1009 -0.2785
46864W        W55664   8.290   2.689  19.866  0.1119  0.0496  0.2047
46865W        W55665  18.304   5.305   2.268 -0.0140 -0.0584 -0.3284
46866W        W55666  12.492   0.457  21.167  0.0419  0.1483 -0.2533
46867W        W55667  19.506   4.584  30.765 -0.0022 -0.3101  0.0522
46868W        W55668   1.791   3.129  11.454  0.1495  0.0700 -0.0503
46869W        W55669  18.748   4.967  27.659  0.0927  0.2220 -0.0982
46870W        W55670   2.967   4.417  10.690 -0.0685 -0.1008  0.0203
46871W        W55671  12.587   2.080  37.000  0.0593 -0.0081  0.1089
46872W        W55672  12.972   3.119  33.320 -0.0328  0.0404  0.0446
46873W        W55673   2.957   6.142  27.054  0.0788 -0.0071 -0.1922
46874W        W55674  16.197   1.174   6.244 -0.0096 -0.4887 -0.0149
46875W        W55675  20.381   2.136  20.880  0.0110  0.0618 -0.1468
46876W        W55676  15.241   6.312  42.437  0.0392 -0.2279  0.2035
46877W        W55677  13.008   0.922  35.740  0.3999 -0.1714  0.1304
46878W        W55678  13.449   2.431  17.427  0.2501 -0.2017 -0.1023
46879W        W55679   6.889   1.117  20.209  0.2302 -0.0887  0.0409
46880W        W55680  10.676   4.225  43.576  0.0520  0.1426  0.1447
46881W        W55681   8.963   2.861  33.141  0.2282  0.0934 -0.1239
46882W        W55682  13.273   2.076  31.809 -0.1386  0.1692  0.3692
46883W        W55683  12.157   4.645   7.344  0.0163 -0.1904 -0.2825
46884W        W55684  11.204   1.590  10.599 -0.0733  0.1279  0.3106
46885W        W55685  14.683   0.328  29.391  0.1130  0.1691  0.2575
46886W        W55686   4.542   1.712  36.846  0.0387 -0.0387 -0.1952
46887W        W55687   8.073   6.182  20.744  0.0603 -0.0280  0.2147
46888W        W55688   4.787   1.717   5.333  0.2633  0.0216  0.0396
46889W        W55689  14.414   5.942  14.063 -0.0384 -0.0066 -0.3104
46890W        W55690  14.148   2.348  35.238  0.1307 -0.0699  0.0366
46891W        W55691   1.544   3.830  44.333  0.0922 -0.0467  0.2272
46892W        W55692  20.657   3.492  26.528  0.1571 -0.0789  0.0232
46893W        W55693  18.327   2.743  26.195 -0.2353 -0.1618 -0.0164
46894W        W55694   9.260   3.356  12.320 -0.1710  0.0635  0.1714
46895W        W55695  18.675   0.098  23.972  0.3203  0.0962 -0.0306
46896W        W55696  13.862   0.224  37.231  0.0000 -0.0488 -0.0628
46897W        W55697  11.415   5.337  29.828  0.1265 -0.0885 -0.1465
46898W        W55698   7.922   0.908  37.314  0.3194  0.2517  0.0773
46899W        W55699  13.862   0.134  15.455  0.0630 -0.1740 -0.1805
46900W        W55700  18.792   0.538   0.221 -0.3178  0.2540 -0.0031
46901W        W55701  19.567   5.615   8.604  0.0333 -0.1033 -0.0192
46902W        W55702  19.483   4.980  27.135 -0.1201 -0.1258  0.1368
46903W        W55703   3.156   4.294  29.290 -0.2769  0.0608  0.1218
46904W        W55704   6.207   1.466   1.510 -0.0003  0.2240  0.1459
46905W        W55705   4.996   2.609   7.157 -0.1889 -0.0604 -0.0343
46906W        W55706  19.601   4.755  39.403 -0.3757  0.2281 -0.0150
46907W        W55707  12.723   5.944   5.979 -0.0148  0.1240 -0.0123
46908W        W55708  18.740   0.791  26.621  0.1345  0.1324  0.2313
46909W        W55709   6.871   3.352  10.238 -0.1869  0.3137  0.2131
46910W        W55710   5.252   5.274  18.108 -0.0465 -0.0740  0.0265
46911W        W55711   8.029   0.203  40.098 -0.1214 -0.0634 -0.2291
46912W        W55712  15.985   6.510  37.399 -0.1793  0.0858 -0.2335
46913W        W55713   7.082   3.855  36.380  0.1126  0.3286 -0.3591
46914W        W55714  14.207   0.495  15.276  0.1922 -0.0643  0.0618
46915W        W55715  16.905   0.474  34.310 -0.1529 -0.0924  0.0336
46916W        W55716  10.854   2.243  43.589  0.1534 -0.0134  0.0546
46917W        W55717   8.039   1.493  19.168  0.3609 -0.2434 -0.1579
46918W        W55718  20.342   2.903  37.124 -0.1728  0.3431  0.0172
46919W        W55719   8.807   1.977   5.749  0.1783 -0.1947  0.1931
46920W        W55720  12.397   0.233  35.874  0.2765 -0.0320  0.1628
46921W        W55721   4.642   5.000  41.337 -0.2159  0.1267 -0.0423
46922W        W55722  19.652   1.834   7.781 -0.4693  0.1841 -0.0308
46923W        W55723  19.210   3.592   4.639 -0.0363 -0.1836  0.1771
46924W        W55724  15.341   0.709   0.423 -0.0315 -0.2886 -0.2427
46925W        W55725   8.739   1.942  35.495 -0.0383  0.1044 -0.2703
46926W        W55726   9.209   3.321   2.233  0.0645  0.0204 -0.0185
46927W        W55727   4.053   0.670  27.602  0.1751 -0.2060 -0.1941
46928W        W55728   9.253   0.716  13.033 -0.0911 -0.0221  0.0166
46929W        W55729  19.283   3.249  33.887  0.0379 -0.1449 -0.3711
46930W        W55730   5.483   4.317  43.613 -0.0596 -0.4238 -0.0833
46931W        W55731  14.710   3.050   6.764  0.4993  0.1671 -0.0122
46932W        W55732  11.473   2.138  13.752  0.1106 -0.0197 -0.2222
46933W        W55733   8.285   4.606  14.162 -0.1385  0.1531  0.2133
46934W        W55734   6.889   3.850   9.224 -0.2438 -0.0861 -0.0381
46935W        W55735   1.652   0.274  33.038  0.5502 -0.0257  0.0385
46936W        W55736   7.287   0.657   3.454  0.0891  0.4853 -0.2897
46937W        W55737  15.516   6.107   2.145  0.1003  0.0547 -0.1789
46938W        W55738   3.644   0.421  42.744  0.0125  0.2141 -0.0120
46939W        W55739  10.218   0.413  40.297 -0.0449  0.2981 -0.3135
46940W        W55740   1.987   0.153  37.322  0.1334 -0.1075 -0.0386
46941W        W55741  11.540   0.039  30.050 -0.2741  0.2416  0.0881
46942W        W55742   3.278   2.653  37.236  0.1094  0.1596  0.1826
46943W        W55743   9.973   3.268   2.798  0.4413 -0.1355 -0.0106
46944W        W55744  18.186   3.822  15.404  0.2259 -0.1857  0.1447
46945W        W55745  11.854   0.776  30.530  0.0691 -0.0047 -0.0641
46946W        W55746   4.614   6.595  10.762  0.1280  0.1991  0.0982
46947W        W55747  15.775   5.721   6.341 -0.1479  0.2279  0.0764
46948W        W55748   5.492   4.727   2.448 -0.4499 -0.1567  0.0559
46949W        W55749   2.886   4.179  16.431  0.1774  0.2353 -0.1079
46950W        W55750  12.435   5.132   9.079 -0.1241 -0.2275 -0.2396
46951W        W55751   7.188   4.194   5.918 -0.0187 -0.0835 -0.2091
46952W        W55752  16.367   5.435  15.775 -0.1307 -0.1057 -0.1136
46953W        W55753   0.823   5.838  30.086 -0.0095 -0.0873  0.0226
46954W        W55754   6.118   1.162  17.719 -0.2855 -0.0706 -0.0560
46955W        W55755  21.118   3.600  27.099  0.1105  0.0235  0.4694
46956W        W55756  15.053   6.574  17.771  0.1696  0.0857 -0.1065
46957W        W55757  20.568   3.277  28.475  0.1402  0.1477 -0.1119
46958W        W55758  14.941   2.809   5.858 -0.3206 -0.1853 -0.1571
46959W        W55759  13.843   0.612  43.683 -0.1265 -0.0705  0.0784
46960W        W55760   3.109   5.547   8.415 -0.0604  0.0513  0.3214
46961W        W55761  13.954   0.668  43.235  0.1375 -0.0065 -0.1531
46962W        W55762  18.607   4.190  34.961  0.0839 -0.2316  0.0284
46963W        W55763   5.709   5.758  40.688 -0.0341  0.0113  0.1945
46964W        W55764  11.334   2.091  37.576  0.2192  0.2859 -0.0529
46965W        W55765   1.956   0.707   6.678 -0.3727 -0.1615  0.0602
46966W        W55766   0.015   5.158   9.837 -0.0789 -0.0756 -0.1524
46967W        W55767  16.507   2.170  26.653  0.0020 -0.0097  0.0411
46968W        W55768  10.435   5.786  23.435  0.5352  0.0463 -0.0899
46969W        W55769  20.021   6.423  23.242 -0.2406  0.0557  0.5924
46970W        W55770  16.185   6.255  13.207  0.1270  0.1521  0.0728
46971W        W55771  19.347   4.210  20.951 -0.1892 -0.2318 -0.0066
46972W        W55772  15.209   6.500  26.144  0.1665  0.0646  0.0422
46973W        W55773  15.974   1.314  25.886  0.0442  0.1618 -0.0542
46974W        W55774  20.035   2.618  29.416  0.3275  0.1705 -0.3391
46975W        W55775   9.469   2.093  37.216  0.3961 -0.0097  0.2249
46976W        W55776   3.994   0.270  11.255 -0.2081  0.3321 -0.1678
46977W        W55777  10.531   5.035  14.356  0.0547 -0.0973  0.0885
46978W        W55778  10.652   6.380  31.599 -0.1156  0.1210  0.0767
46979W        W55779  18.889   2.768  13.464 -0.0262  0.1847 -0.1025
46980W        W55780  12.483   5.322   8.621  0.2281 -0.0682  0.2444
46981W        W55781  18.303   3.144  30.238  0.0799 -0.1236  0.0667
46982W        W55782  13.856   1.275  10.029 -0.0601 -0.1524  0.0277
46983W        W55783   8.949   3.114  30.677  0.0793  0.2713 -0.2357
46984W        W55784  12.759   5.060  19.764  0.0414 -0.1509 -0.0658
46985W        W55785   4.091   4.793   1.986  0.2485 -0.1543 -0.1860
46986W        W55786  19.468   2.251  16.110  0.2463 -0.0500 -0.3058
46987W        W55787  18.379   0.024  12.609 -0.3053  0.0388 -0.1174
46988W        W55788  10.241   6.167   8.412  0.0770  0.1147  0.0088
46989W        W55789   6.351   0.933   1.625  0.1528 -0.3750 -0.1619
46990W        W55790   1.856   0.167   9.806  0.0657 -0.1061  0.0320
46991W        W55791  16.222   3.457  41.682  0.0257 -0.0083  0.1841
46992W        W55792   1.094   1.471  26.413 -0.1787 -0.0896 -0.0459
46993W        W55793  11.485   2.902  20.501 -0.0615 -0.0341 -0.1054
46994W        W55794   5.053   1.398   2.858  0.1176 -0.0167  0.0095
46995W        W55795  15.603   4.811   3.811 -0.2706  0.0239 -0.0273
46996W        W55796   5.957   1.945  34.823 -0.0182 -0.3493  0.2817
46997W        W55797  10.499   3.928  10.600 -0.0048 -0.0347 -0.0016
46998W        W55798  16.843   3.403  24.615  0.2457 -0.0589 -0.0586
46999W        W55799   4.993   0.441  40.183  0.0760 -0.1467  0.0021
47000W        W55800  15.668   1.132   6.014  0.0187 -0.0175  0.1700
47001W        W55801   6.350   6.517   7.625 -0.0009  0.2584  0.0287
47002W        W55802  14.582   2.076  37.758  0.0175 -0.0345 -0.2136
47003W        W55803  20.464   2.063  36.841 -0.0529  0.0554 -0.0420
47004W        W55804   9.121   3.883  18.948 -0.1256  0.0363 -0.0129
47005W        W55805   6.450   1.990  20.747 -0.2383  0.0314 -0.1743
47006W        W55806   4.590   0.772  36.785  0.1739 -0.0081 -0.0894
47007W        W55807  18.043   0.352   9.151  0.0636 -0.0059  0.1747
47008W        W55808  20.377   0.595  24.649 -0.2520  0.0689  0.2226
47009W        W55809  11.599   1.893  19.645  0.0032  0.0642  0.1684
47010W        W55810  10.026   1.830  34.745  0.0014 -0.0061 -0.0891
47011W        W55811  10.546   1.873  43.643  0.1450  0.0915  0.2463
47012W        W55812   7.387   0.464  41.571  0.1786 -0.2548 -0.1945
47013W        W55813  16.201   4.830  24.260 -0.3014 -0.2179 -0.1866
47014W        W55814   2.125   1.849   3.681  0.1857 -0.2042  0.1339
47015W        W55815   0.370   2.825  30.260 -0.0555  0.0026  0.0358
47016W        W55816   7.809   4.121  41.364  0.0572 -0.1921  0.2488
47017W        W55817  17.548   1.306  36.761 -0.1444 -0.1599 -0.2844
47018W        W55818  18.543   2.001  40.394 -0.4929  0.1653 -0.1006
47019W        W55819   1.426   0.348  37.420  0.1488  0.3151 -0.0945
47020W        W55820   8.303   3.714  20.890  0.1302  0.2712  0.0316
47021W        W55821  16.470   3.917  36.198 -0.1077  0.1815  0.0844
47022W        W55822   3.618   5.857  30.160  0.2189  0.0587 -0.1052
47023W        W55823   1.183   2.609   1.495  0.2117  0.1318 -0.0215
47024W        W55824   6.594   6.463  29.572  0.0898 -0.1457  0.0221
47025W        W55825  14.640   6.429  16.506 -0.1724  0.0566  0.0477
47026W        W55826  11.740   5.724  12.425  0.2482  0.2747 -0.2097
47027W        W55827   9.217   6.278   8.173  0.0675 -0.2002  0.1850
47028W        W55828   9.012   5.829  14.806  0.1306 -0.1979 -0.0635
47029W        W55829   9.132   1.612  19.370 -0.4047  0.2824 -0.2114
47030W        W55830   3.954   0.857  28.696  0.1169  0.2326  0.3552
47031W        W55831   8.195   1.629  31.044 -0.0972 -0.2731  0.1144
47032W        W55832   4.332   4.777  32.716  0.1481 -0.2442 -0.2115
47033W        W55833  12.278   1.808  13.222  0.3286 -0.2742  0.0459
47034W        W55834   3.962   5.973  37.686 -0.1898  0.1053  0.2033
47035W        W55835  19.250   4.311  11.911 -0.2662  0.0390 -0.1985
47036W        W55836  13.171   6.096  27.345  0.1457  0.1420  0.0552
47037W        W55837   8.354   0.561  17.563  0.0060 -0.1418  0.3114
47038W        W55838  18.852   1.162  27.850 -0.1273  0.0732 -0.0192
47039W        W55839   1.932   6.011  11.628  0.2489  0.1347  0.0570
47040W        W55840   1.019   3.312  36.036  0.0842 -0.1398 -0.1042
47041W        W55841   0.961   5.562  40.877  0.1058 -0.4764  0.0550
47042W        W55842   5.667   4.301  38.401  0.0474  0.0151  0.2790
47043W        W55843  18.763   6.573  26.182 -0.1284 -0.1212 -0.0951
47044W        W55844   9.641   3.998  20.172  0.0547 -0.1085  0.0779
47045W        W55845   0.542   5.562   6.616  0.3188  0.0606 -0.0979
47046W        W55846  18.016   3.608  25.966 -0.0621  0.1894 -0.2411
47047W        W55847   4.225   0.818  31.351  0.0259 -0.2423 -0.2027
47048W        W55848  20.583   0.259  25.011 -0.1616 -0.1483  0.1431
47049W        W55849  19.958   5.675  36.738  0.4050  0.1606 -0.0316
47050W        W55850  14.919   0.822  44.859  0.0342 -0.2750  0.3379
47051W        W55851  17.368   3.748  35.587 -0.1559 -0.2709 -0.0086
47052W        W55852  12.602   5.130   0.896 -0.0219 -0.2801 -0.3735
47053W        W55853   1.679   2.456  40.629 -0.1200 -0.1048  0.1435
47054W        W55854  13.480   1.022  38.012  0.4670  0.1823 -0.2070
47055W        W55855  16.462   6.221  36.677  0.1028 -0.0802 -0.1156
47056W        W55856   0.570   0.964  39.210  0.1715  0.0003  0.2746
47057W        W55857  10.568   4.407   6.632  0.2266  0.1537  0.0443
47058W        W55858  15.990   4.599  34.931 -0.0958 -0.3262  0.2130
47059W        W55859   7.961   6.401  12.902  0.2340  0.1012  0.0596
47060W        W55860  18.326   2.539  31.963 -0.0206  0.4567  0.0402
47061W        W55861  13.760   0.764  12.672 -0.0984 -0.2171 -0.0472
47062W        W55862  18.521   3.171  31.034 -0.2844  0.0086 -0.0025
47063W        W55863   1.046   3.733  26.879  0.1258  0.0568  0.2083
47064W        W55864  13.362   4.537  33.903 -0.1709 -0.0429 -0.0329
47065W        W55865   5.105   5.348  17.050  0.0873 -0.1413 -0.1084
47066W        W55866  13.649   3.502  36.232  0.1931  0.1901  0.2372
47067W        W55867  12.077   5.645  17.428 -0.2338  0.3184  0.1748
47068W        W55868  17.329   0.810   1.554  0.1200 -0.1319 -0.1559
47069W        W55869   9.760   5.303   0.150  0.1123  0.2379 -0.1096
47070W        W55870   5.665   2.803   1.921 -0.0056 -0.0496 -0.3445
47071W        W55871   2.987   3.043   4.553  0.2145 -0.2660  0.1061
47072W        W55872   1.322   0.921  41.325  0.3097 -0.2547 -0.2079
47073W        W55873  19.418   3.133  42.284 -0.3775  0.4911  0.1209
47074W        W55874  13.408   4.403   8.459 -0.2322 -0.2291 -0.0115
47075W        W55875  13.636   2.015   1.558  0.2826 -0.0014 -0.0659
47076W        W55876  17.480   3.985  12.610  0.1439  0.0518  0.0657
47077W        W55877   0.768   4.930   2.410 -0.2247 -0.2479 -0.0618
47078W        W55878  16.635   0.123  36.428  0.2941  0.0534  0.1973
47079W        W55879  17.287   1.568  26.600 -0.2103  0.1269  0.1160
47080W        W55880   6.743   1.984   4.008  0.1293  0.0278  0.1647
47081W        W55881  16.047   5.697   8.079 -0.1072 -0.1295 -0.1345
47082W        W55882   1.127   5.261  14.305 -0.3102 -0.1587  0.0343
47083W        W55883  12.017   6.136  11.153 -0.0796  0.1343 -0.1495
47084W        W55884   0.167   4.887  42.369 -0.0309 -0.1046 -0.2170
47085W        W55885  19.631   6.581  16.109  0.0458 -0.3386 -0.0883
47086W        W55886   1.759   5.393  33.225 -0.2376 -0.1068 -0.1078
47087W        W55887  13.091   5.931  31.690  0.0007  0.0604  0.0061
47088W        W55888   2.948   5.501  29.847  0.1313  0.0172  0.0954
47089W        W55889  17.338   6.588  15.651  0.1561  0.3874 -0.1467
47090W        W55890  10.223   4.260  42.091 -0.0595 -0.1689 -0.0042
47091W        W55891  17.542   0.917  35.317  0.1182 -0.0536 -0.2619
47092W        W55892   3.655   2.355  43.325 -0.0689 -0.0555 -0.1458
47093W        W55893  15.406   4.531   2.916 -0.3123  0.0972  0.0397
47094W        W55894  19.262   3.899  15.363 -0.3462 -0.1372 -0.0056
47095W        W55895   9.500   0.210  12.300  0.3552 -0.0457  0.0066
47096W        W55896   4.192   1.440  41.968 -0.0223 -0.1486 -0.1994
47097W        W55897  14.626   0.992  29.978  0.0145  0.3794  0.1927
47098W        W55898  19.269   0.177  15.619 -0.3245  0.4011  0.0654
47099W        W55899  17.414   5.125   4.594 -0.0469 -0.1300 -0.1127
47100W        W55900  19.904   4.358  15.476 -0.0778 -0.1419  0.0530
47101W        W55901  10.291   0.885   6.325 -0.0399 -0.0179  0.0489
47102W        W55902  19.008   3.010  39.215  0.0162  0.0159  0.1026
47103W        W55903  19.850   0.099  42.769  0.2176  0.4834  0.0708
47104W        W55904   8.920   6.180  39.865 -0.0404 -0.1087  0.0404
47105W        W55905  13.909   0.346  30.523  0.0095 -0.2767  0.0865
47106W        W55906  15.215   3.956   9.310 -0.3087 -0.0840 -0.2990
47107W        W55907   3.926   6.399  38.581  0.3362 -0.1437 -0.4246
47108W        W55908  11.270   2.127   4.021 -0.1894  0.0730 -0.1933
47109W        W55909  19.153   1.473  29.803  0.1344 -0.0503 -0.2045
47110W        W55910  20.787   3.936  40.354 -0.0959  0.2181  0.0254
47111W        W55911  18.448   6.256  13.540 -0.2614 -0.1969 -0.0309
47112W        W55912  11.323   6.391   7.502 -0.0284 -0.0672  0.1416
47113W        W55913  20.625   3.745   7.642  0.1303 -0.0503 -0.1578
47114W        W55914  13.648   6.320  40.523 -0.1678  0.2034  0.1437
47115W        W55915  13.807   3.496  40.834  0.0592  0.1371  0.1945
47116W        W55916   1.541   3.947  44.843  0.0461  0.2374  0.0416
47117W        W55917   3.714   0.751  12.072  0.1691  0.1343  0.1033
47118W        W55918   4.021   5.961   3.047 -0.1123 -0.1024  0.4867
47119W        W55919  19.744   3.881  32.856  0.1208 -0.0153 -0.1495
47120W        W55920   3.285   2.452  42.974  0.0270  0.0548 -0.1592
47121W        W55921  12.026   4.664  37.499  0.2669  0.1554 -0.3441
47122W        W55922  20.164   0.033  32.959 -0.1712 -0.1085  0.1187
47123W        W55923  11.786   4.922  39.841 -0.1358 -0.0899 -0.2017
47124W        W55924   9.192   3.073  13.249 -0.1324 -0.1566 -0.1042
47125W        W55925   1.967   2.554  10.970 -0.0742 -0.3985  0.2087
47126W        W55926  18.679   3.499  27.386  0.0733 -0.2726  0.0614
47127W        W55927  18.283   6.072  39.545 -0.0218 -0.3165 -0.2823
47128W        W55928   2.511   6.316  38.297  0.2358  0.0435 -0.1070
47129W        W55929   4.633   5.238  30.823 -0.2551 -0.0989 -0.0447
47130W        W55930  10.867   3.082  21.833  0.1226  0.3123 -0.1050
47131W        W55931   8.829   3.184  23.556 -0.0756  0.4782  0.0289
47132W        W55932  10.108   3.930  35.313 -0.1118 -0.1185 -0.0708
47133W        W55933  19.490   0.681  12.316 -0.1520 -0.3578  0.1632
47134W        W55934  15.202   4.637  34.176  0.2478  0.1529 -0.0916
47135W        W55935  16.236   0.787   3.520  0.1772 -0.0523 -0.2618
47136W        W55936  12.129   0.775  12.028 -0.0632 -0.2324  0.1402
47137W        W55937  15.853   1.274   2.228 -0.4334 -0.1119 -0.0036
47138W        W55938  18.773   0.883  44.091 -0.0865  0.2252 -0.0329
47139W        W55939   6.452   1.645  35.662  0.2224  0.0966 -0.1457
47140W        W55940  15.488   4.696  35.004 -0.2932 -0.1043 -0.0768
47141W        W55941  13.963   2.551  36.683  0.3665  0.0855 -0.2648
47142W        W55942  18.102   2.203  23.357  0.4358  0.0538 -0.0521
47143W        W55943  15.363   2.417  43.222 -0.1325 -0.0619 -0.1414
47144W        W55944   7.112   2.517  37.356 -0.0033  0.1375  0.2437
47145W        W55945  10.951   2.603  32.359  0.3859  0.2720 -0.2134
47146W        W55946  16.070   1.017  30.507  0.0412  0.5750 -0.0488
47147W        W55947  20.888   5.657  36.898  0.2805  0.3405 -0.1925
47148W        W55948   9.469   3.487  18.588 -0.0347  0.0751 -0.0573
47149W        W55949  10.809   0.677   0.824  0.0485 -0.1722  0.3818
47150W        W55950   2.253   3.792  14.198  0.0598  0.1019 -0.2402
47151W        W55951  10.384   2.441  22.147 -0.1864  0.1967  0.0052
47152W        W55952   6.379   0.614  43.644 -0.2669  0.1008  0.0070
47153W        W55953   9.506   6.154  38.127  0.1235 -0.1063  0.1610
47154W        W55954  16.841   0.216  10.958  0.0968 -0.0110  0.0694
47155W        W55955  16.194   1.653  34.297  0.2690 -0.1864 -0.0180
47156W        W55956   1.482   1.046  25.114  0.0531  0.1528 -0.3086
47157W        W55957  19.800   1.602  43.727  0.0354  0.0166  0.1637
47158W        W55958  19.938   2.714  13.424  0.1113  0.0632 -0.1007
47159W        W55959   8.747   2.544  33.744  0.2260  0.0115  0.1003
47160W        W55960   7.445   4.407  42.971  0.0028 -0.3340 -0.0438
47161W        W55961  15.672   5.625  38.065  0.0095  0.1898  0.1648
47162W        W55962   1.851   3.425  28.558 -0.3430  0.0764  0.0287
47163W        W55963  16.415   3.587  14.298  0.0468 -0.0201  0.1718
47164W        W55964   5.184   4.268  44.086 -0.2060 -0.0168  0.0810
47165W        W55965  15.833   1.316  42.060 -0.0446  0.4298 -0.3654
47166W        W55966   1.638   4.720  25.921  0.0977  0.0708  0.0908
47167W        W55967   5.724   1.745  37.527 -0.1560 -0.1087  0.3249
47168W        W55968   0.665   0.642   3.976 -0.1130 -0.0850  0.2486
47169W        W55969   4.319   5.921   9.544 -0.1530 -0.0553  0.0669
47170W        W55970  13.797   4.280   4.068  0.4145 -0.1466  0.0143
47171W        W55971   5.093   5.214   0.112  0.0830 -0.1207  0.1083
47172W        W55972  15.455   1.538  14.228  0.0198 -0.0015 -0.1195
47173W        W55973   1.649   6.305   3.670 -0.2685  0.0099  0.0906
47174W        W55974   3.664   1.844  15.486 -0.1407 -0.1583  0.2723
47175W        W55975  11.058   4.528  23.041  0.0918 -0.1961 -0.0790
47176W        W55976   8.843   2.684  21.083  0.2302 -0.3166  0.3476
47177W        W55977   4.388   5.734   8.390 -0.2057  0.1966  0.0850
47178W        W55978  16.949   4.545  39.738 -0.1813 -0.2326  0.1407
47179W        W55979   7.583   3.937  10.374  0.5602  0.0907  0.0457
47180W        W55980   7.430   6.528   6.333 -0.2230  0.1058  0.3035
47181W        W55981   7.838   2.879  16.157 -0.0121 -0.0250  0.0625
47182W        W55982  18.450   2.008  12.251 -0.2053 -0.1609  0.4124
47183W        W55983   1.100   1.727  43.866  0.1113  0.0713 -0.1170
47184W        W55984  12.408   5.670  17.844  0.2475 -0.0521 -0.1356
47185W        W55985   0.207   0.246  42.836  0.1556  0.0602 -0.0012
47186W        W55986   5.538   4.077  31.109  0.1425 -0.2452 -0.0189
47187W        W55987   4.907   1.507  19.976  0.2505  0.3133  0.3218
47188W        W55988  12.374   4.631  12.555  0.0956  0.0117 -0.3198
47189W        W55989  20.832   1.567  40.203  0.1585 -0.0266  0.0563
47190W        W55990  19.964   0.048  40.847 -0.0687  0.2532  0.2074
47191W        W55991   2.288   4.476  10.471  0.1682 -0.0724 -0.2062
47192W        W55992   8.123   1.021  17.778  0.0549  0.1220 -0.1275
47193W        W55993   0.110   2.521  43.465 -0.1736 -0.0255  0.1087
47194W        W55994   0.949   4.768  35.372 -0.0045 -0.0262  0.0836
47195W        W55995   3.148   4.673   1.360 -0.0846  0.0079 -0.1442
47196W        W55996  13.692   1.598  11.272  0.0409  0.0299 -0.0027
47197W        W55997   5.174   1.123  37.869 -0.2688  0.1406 -0.4639
47198W        W55998  16.378   1.241  25.530 -0.1923  0.0101  0.2924
47199W        W55999  10.151   5.672  12.230 -0.0055 -0.0037  0.0257
47200W        W56000   2.447   5.163  26.639  0.1380 -0.1567 -0.0803
47201W        W56001  20.176   3.608  43.456  0.0470 -0.0312  0.3554
47202W        W56002   3.930   1.168   3.505  0.2521  0.0831  0.2083
47203W        W56003  18.361   4.395  24.043 -0.1108 -0.0853 -0.3502
47204W        W56004   8.267   0.261  30.831 -0.1341  0.0100  0.0977
47205W        W56005   7.644   5.811  14.064 -0.1444 -0.2100  0.2806
47206W        W56006  16.636   2.975   8.448  0.0351  0.0270  0.0953
47207W        W56007   7.865   4.862  23.723 -0.1146 -0.3894  0.0219
47208W        W56008  16.271   4.059  33.508 -0.4479  0.0616  0.0928
47209W        W56009  10.074   2.000  32.709 -0.0990  0.1829 -0.2104
47210W        W56010   9.615   2.680  15.733  0.2875  0.1996  0.0657
47211W        W56011  19.007   0.993  10.702  0.0061  0.1430 -0.0972
47212W        W56012  16.094   4.753  10.105  0.1105 -0.0700 -0.0133
47213W        W56013   3.129   5.855  31.793  0.2328  0.1593 -0.1417
47214W        W56014   6.313   1.767  16.380 -0.0550  0.0554  0.3060
47215W        W56015  17.780   3.900  36.532 -0.0586  0.2744 -0.2930
47216W        W56016  13.499   0.750  17.706 -0.1997 -0.1975 -0.2943
47217W        W56017   2.166   4.006  12.159 -0.2230  0.4719  0.0281
47218W        W56018  20.098   4.060  40.222 -0.0633  0.1362  0.0400
47219W        W56019  10.262   1.018  31.818  0.1582 -0.2065  0.2945
47220W        W56020   5.765   4.769  33.771  0.4061  0.1274 -0.0305
47221W        W56021   5.369   2.763  29.649 -0.2280 -0.2757  0.1091
47222W        W56022  11.373   3.319  37.228 -0.0329  0.0085 -0.1746
47223W        W56023  13.792   6.558  18.401 -0.0647 -0.0986 -0.0971
47224W        W56024   4.439   0.016   9.057 -0.2185  0.0502  0.2065
47225W        W56025   8.767   2.743  22.831 -0.0051  0.0054  0.1083
47226W        W56026  11.131   3.902   0.112 -0.1470  0.1381  0.0547
47227W        W56027  15.385   0.925  42.294 -0.1463  0.3070 -0.0657
47228W        W56028  16.788   6.234  37.639  0.3040 -0.2335  0.0572
47229W        W56029  13.476   0.276   1.924  0.1852  0.0129  0.0500
47230W        W56030   0.647   5.736  12.439 -0.0124  0.0582 -0.2605
47231W        W56031  18.665   1.961  39.903  0.0959 -0.3739 -0.0979
47232W        W56032  15.462   3.024  11.396 -0.2294 -0.0826 -0.0542
47233W        W56033  14.392   5.568   9.858  0.1449  0.2166  0.1299
47234W        W56034   7.279   2.486  11.441  0.1117  0.3218  0.0322
47235W        W56035   6.701   4.695  10.406  0.0550 -0.0380  0.2226
47236W        W56036  10.955   2.020   9.073 -0.0160  0.1845 -0.0249
47237W        W56037   7.249   4.308  34.871 -0.1754  0.2177  0.3308
47238W        W56038  13.110   3.305  16.059 -0.1441 -0.0479 -0.5183
47239W        W56039   9.413   0.345  31.968 -0.1960 -0.4585  0.0647
47240W        W56040  15.436   3.207  35.911  0.0923  0.0684 -0.2646
47241W        W56041   7.046   3.294  36.323 -0.0780 -0.0836  0.1605
47242W        W56042   7.909   2.878  33.516 -0.1179  0.0474  0.1349
47243W        W56043   4.539   5.194  43.598 -0.1056  0.1071  0.0194
47244W        W56044  15.563   2.606  12.437  0.1197 -0.1593 -0.0083
47245W        W56045   9.644   2.886   8.440 -0.1201  0.0653 -0.1093
47246W        W56046  13.173   6.460  36.914  0.3943  0.1067  0.2160
47247W        W56047  20.868   4.831   9.219  0.2079 -0.1006 -0.3614
47248W        W56048  19.066   0.636  11.275 -0.3087 -0.0474  0.0643
47249W        W56049  10.193   5.275  29.704 -0.0079 -0.3448  0.0833
47250W        W56050  14.673   1.026  38.677  0.2665  0.2344 -0.2066
47251W        W56051  15.131   1.285   6.928 -0.0648  0.2169 -0.3093
47252W        W56052   2.882   5.204  30.701  0.0794  0.0217 -0.2641
47253W        W56053  11.272   0.136  41.184  0.0554  0.0227 -0.1650
47254W        W56054  13.442   3.367  18.234 -0.3470  0.2538  0.0925
47255W        W56055   4.025   6.161  17.461  0.3644 -0.0671  0.4681
47256W        W56056   4.695   0.535  11.024 -0.2108  0.2208  0.0098
47257W        W56057   9.409   1.416  44.355  0.0029  0.0675  0.1263
47258W        W56058   1.614   0.781  31.789  0.4552 -0.0839 -0.1214
47259W        W56059  16.961   2.899  33.806  0.1406  0.0417  0.0847
47260W        W56060  20.538   2.217  31.307  0.1141 -0.1286 -0.0869
47261W        W56061  20.354   4.634   9.735  0.1922  0.1077  0.1192
47262W        W56062  20.657   0.119   0.625  0.2640 -0.0218 -0.2153
47263W        W56063  12.469   4.339  34.420 -0.1005 -0.0955 -0.1508
47264W        W56064  17.930   4.752  12.904 -0.1320  0.0597 -0.0057
47265W        W56065   0.342   4.687  22.158 -0.2362  0.2782 -0.0354
47266W        W56066  13.223   5.660  41.960  0.0952 -0.1790 -0.1191
47267W        W56067   9.886   3.317   0.528 -0.2349 -0.4081  0.1505
47268W        W56068  20.248   4.557  38.681 -0.1777  0.0749  0.1443
47269W        W56069   8.242   2.284  44.836 -0.1131 -0.1007 -0.0725
47270W        W56070   2.369   4.640  17.241  0.2560 -0.3119 -0.1575
47271W        W56071  20.666   0.541   6.771  0.2613  0.2479 -0.0891
47272W        W56072  17.629   1.096  37.216 -0.0192 -0.0179  0.1397
47273W        W56073  19.590   2.190  40.757  0.2248  0.2255 -0.0575
47274W        W56074  12.409   0.042   8.821  0.1160  0.0693  0.1406
47275W        W56075  14.187   2.684  38.973 -0.2337 -0.1265 -0.0177
47276W        W56076  19.897   5.887  38.057 -0.1560  0.2574 -0.0364
47277W        W56077   7.776   4.626  20.648  0.0029 -0.0369 -0.0023
47278W        W56078  18.066   2.171  24.440  0.2965 -0.1537  0.2111
47279W        W56079  10.535   1.418  30.564 -0.1439 -0.0566 -0.3721
47280W        W56080  13.730   1.044  17.404  0.1140 -0.1201  0.0345
47281W        W56081  20.967   5.780  38.723 -0.3795 -0.0844 -0.2237
47282W        W56082  16.711   3.537  44.572 -0.0379 -0.1777 -0.0641
47283W        W56083  17.188   0.304  15.180  0.1829  0.2240 -0.1404
47284W        W56084   8.377   5.936  44.413  0.0112  0.0476  0.1206
47285W        W56085   6.560   3.993  19.697  0.1377  0.0633 -0.0154
47286W        W56086  19.242   5.891  28.035 -0.1764  0.0617  0.3069
47287W        W56087  11.534   5.377  29.249  0.1273 -0.1453  0.0906
47288W        W56088  19.091   1.634  42.424  0.0425 -0.3006  0.0238
47289W        W56089   9.547   6.472   4.693  0.3987 -0.0999 -0.1258
47290W        W56090   6.489   3.001  31.224  0.1178  0.1947  0.0923
47291W        W56091   8.032   1.851  39.556  0.0782  0.1342 -0.3692
47292W        W56092  12.434   0.169  18.076 -0.0337 -0.0736 -0.1072
47293W        W56093  15.246   3.561  35.162 -0.0028  0.0876 -0.2467
47294W        W56094  10.567   5.880  31.665 -0.3977 -0.0829  0.2365
47295W        W56095   1.864   0.299   2.019  0.2017  0.1887  0.2590
47296W        W56096  13.005   5.799  20.463 -0.2122 -0.1153  0.0811
47297W        W56097  17.540   5.663  31.882 -0.2212 -0.0220 -0.0315
47298W        W56098  17.701   0.051   4.733  0.1020  0.0624 -0.3217
47299W        W56099  10.370   5.256  15.867 -0.0851 -0.1646  0.1159
47300W        W56100  12.838   2.569  10.806  0.1301 -0.3324 -0.0480
47301W        W56101   5.428   5.841   4.482 -0.1646 -0.4398  0.0353
47302W        W56102   4.049   4.203  28.969  0.2100  0.1445 -0.1892
47303W        W56103  21.128   4.973  31.906  0.0601  0.0413 -0.1323
47304W        W56104   9.844   0.964  19.753 -0.0905  0.1452 -0.0865
47305W        W56105   4.337   6.304  14.963  0.0967 -0.3542  0.0442
47306W        W56106   5.883   3.950  40.220  0.0135 -0.0803 -0.0924
47307W        W56107  19.414   2.644  43.387  0.2248  0.3901  0.0202
47308W        W56108   3.877   5.242  28.015 -0.2066 -0.0355  0.0745
47309W        W56109  12.709   5.032  11.930  0.0336 -0.0885  0.1421
47310W        W56110  10.859   4.276   0.625 -0.2552  0.0050  0.0138
47311W        W56111  14.494   5.997  42.243  0.0608  0.1225 -0.1183
47312W        W56112   9.893   2.689   2.733  0.1871 -0.0675  0.2521
47313W        W56113  11.560   0.424  39.556  0.1022  0.0191  0.3114
47314W        W56114   4.226   6.118  12.409  0.1759  0.2005 -0.0729
47315W        W56115   2.548   5.193   4.792  0.0618 -0.0244  0.2127
47316W        W56116  16.899   6.326   2.142  0.2588  0.0439 -0.1923
47317W        W56117  20.910   1.818  34.459 -0.0362  0.2087  0.1430
47318W        W56118  16.403   1.214   0.050  0.1470  0.2652  0.1966
47319W        W56119   9.801   0.167  38.633 -0.2494 -0.2221 -0.2248
47320W        W56120   7.895   5.437   4.647  0.1479  0.0336 -0.0691
47321W        W56121  19.874   0.156  14.947  0.1255 -0.0863 -0.0237
47322W        W56122  18.879   3.857  34.481 -0.1825 -0.1116 -0.0708
47323W        W56123   9.648   4.817  13.223  0.1834 -0.3293  0.1442
47324W        W56124  19.327   3.523  25.783  0.0697  0.1616  0.0571
47325W        W56125   7.957   4.925  31.358  0.0407 -0.0482 -0.1281
47326W        W56126   9.916   4.777   2.129  0.0200  0.0161 -0.1403
47327W        W56127   9.125   4.461  18.844  0.0919 -0.0083  0.1521
47328W        W56128   1.748   0.275  41.325  0.2854 -0.2502 -0.1950
47329W        W56129   3.855   3.611   8.926  0.1876 -0.2766 -0.0752
47330W        W56130   1.415   1.534  12.129  0.2010 -0.0169  0.0102
47331W        W56131   1.076   2.472  32.107  0.0723  0.1755  0.0946
47332W        W56132  15.997   0.975  40.251 -0.1273  0.0451 -0.3932
47333W        W56133  11.786   0.529  15.659  0.2619 -0.0515  0.2525
47334W        W56134  13.155   2.302  15.428  0.2082  0.0787 -0.2177
47335W        W56135  14.104   3.282  41.170  0.1607  0.1199 -0.1305
47336W        W56136   9.952   2.987  42.615 -0.1759 -0.1042 -0.3623
47337W        W56137  12.834   3.992  42.281  0.2538 -0.1812  0.1324
47338W        W56138  20.955   0.866   0.974  0.1418  0.3795  0.0468
47339W        W56139  10.759   4.550  42.859 -0.0261  0.2578  0.0628
47340W        W56140  12.524   4.888  40.607  0.3230 -0.2057 -0.2078
47341W        W56141  14.721   5.127  13.957  0.1973  0.2112  0.2244
47342W        W56142  12.494   2.441  41.299  0.1558  0.1934  0.0986
47343W        W56143  15.646   5.304  41.857 -0.0148 -0.3036  0.1166
47344W        W56144   7.409   4.690  13.349 -0.2167  0.3996 -0.0617
47345W        W56145  11.044   4.217  36.869  0.2617 -0.3335  0.0236
47346W        W56146  11.549   1.193  17.138 -0.2801 -0.3164 -0.0078
47347W        W56147  20.617   5.128  42.004  0.0202  0.2640 -0.0824
47348W        W56148   8.133   5.514   0.830  0.0966  0.3048 -0.3020
47349W        W56149  10.873   2.671  40.309 -0.0595  0.2065  0.1277
47350W        W56150  10.010   0.017  43.500 -0.2873 -0.0618  0.0517
47351W        W56151   8.291   2.654  44.007 -0.0742  0.1565  0.2177
47352W        W56152   1.752   0.684  25.962 -0.2531  0.1238 -0.1474
47353W        W56153  14.763   0.998  27.437  0.0372 -0.0744  0.0233
47354W        W56154  17.387   4.648  31.138 -0.1622 -0.1235  0.1742
47355W        W56155  19.556   4.457   9.744 -0.0838  0.2540  0.0760
47356W        W56156  19.312   6.406  10.900 -0.3852  0.0821  0.0725
47357W        W56157   9.566   2.109  39.277 -0.1071  0.1509 -0.2573
47358W        W56158   4.098   3.242  39.914  0.0326 -0.1398  0.0186
47359W        W56159   1.707   5.502  24.783  0.1208  0.0603 -0.1887
47360W        W56160   2.178   5.251  29.142 -0.2833 -0.1215 -0.1334
47361W        W56161   7.431   1.927  34.578  0.1465  0.0709 -0.1565
47362W        W56162   0.947   3.755  12.550 -0.2144 -0.2722 -0.3356
47363W        W56163   5.766   0.054  34.144 -0.0188  0.3131 -0.3455
47364W        W56164  14.863   4.450   6.898 -0.0191  0.0063  0.3729
47365W        W56165   2.469   4.800   4.238  0.0053  0.0042  0.3952
47366W        W56166  18.266   5.882  44.396 -0.0255 -0.1015  0.1169
47367W        W56167  13.822   6.376   3.781 -0.0047  0.0446  0.2580
47368W        W56168  10.577   3.885  20.921  0.3159 -0.0436  0.1146
47369W        W56169   2.535   0.953  38.224 -0.0752  0.0666  0.1788
47370W        W56170  19.222   0.626  36.056 -0.3485  0.1906 -0.0040
47371W        W56171   1.229   2.517  13.150  0.0060 -0.0325  0.0565
47372W        W56172   7.503   3.004  35.175  0.3463  0.3834 -0.0122
47373W        W56173  12.773   0.186  21.956 -0.3484  0.1583 -0.2776
47374W        W56174  20.272   4.274  44.085 -0.2931  0.1069 -0.0140
47375W        W56175  11.977   4.485  34.567  0.1544 -0.0411  0.1103
47376W        W56176  18.937   2.172  38.709  0.1490  0.1294 -0.0736
47377W        W56177   7.935   1.513   5.067 -0.0790 -0.1791  0.1420
47378W        W56178  14.294   1.563  42.849  0.0558  0.1768 -0.0617
47379W        W56179   9.519   4.494  34.584 -0.2553  0.0856 -0.1636
47380W        W56180  10.189   5.018  39.401 -0.0670 -0.1076  0.0880
47381W        W56181  10.379   1.951  37.823  0.0115  0.2505  0.1267
47382W        W56182   9.736   2.782   6.644  0.1384  0.1652 -0.1674
47383W        W56183  12.690   2.758  43.885 -0.3084 -0.0993 -0.0902
47384W        W56184   9.930   4.940   9.579 -0.3181 -0.0751  0.1875
47385W        W56185   2.801   2.305  41.582  0.0743 -0.1529 -0.2857
47386W        W56186   0.749   0.096  12.414  0.2066 -0.1345 -0.0076
47387W        W56187  18.011   2.827  12.619  0.1442 -0.0920  0.1811
47388W        W56188   0.510   3.093  36.719  0.2585  0.0479  0.2501
47389W        W56189  14.527   4.894  29.644 -0.2930 -0.0110  0.2488
47390W        W56190  12.641   2.994  37.157  0.1086 -0.4169  0.0683
47391W        W56191   1.771   5.286  10.435  0.2206  0.1747  0.1249
47392W        W56192  17.961   1.927  28.817  0.2040 -0.2596 -0.0588
47393W        W56193  21.042   6.246  43.419 -0.1383  0.0953  0.0462
47394W        W56194  16.744   0.442  42.295 -0.0228  0.0634  0.0936
47395W        W56195  14.898   3.468  28.068  0.0882 -0.1899 -0.1211
47396W        W56196  14.633   4.809  17.114  0.0966 -0.0947  0.4186
47397W        W56197  15.581   5.137  15.122  0.2088  0.0021  0.1060
47398W        W56198  11.498   4.171  37.120  0.2653  0.2157 -0.2189
47399W        W56199   9.583   5.415  39.596  0.2007 -0.1353  0.3029
47400W        W56200   1.317   0.646  33.185 -0.0855  0.3386 -0.0915
47401W        W56201  15.572   4.118   6.463  0.2595  0.0616 -0.1224
47402W        W56202  14.132   0.372  35.410 -0.1835  0.1426 -0.0480
47403W        W56203  21.065   3.551   6.866 -0.0906  0.0162  0.0098
47404W        W56204  11.754   6.042  34.131  0.0381 -0.2127 -0.1109
47405W        W56205   6.879   0.232  42.384  0.1329 -0.0760  0.0380
47406W        W56206  11.585   4.171  35.615 -0.0320 -0.1466  0.0306
47407W        W56207  13.212   2.677  16.795  0.3942  0.1666 -0.0681
47408W        W56208  18.700   1.336  24.647 -0.0023  0.0727 -0.1908
47409W        W56209   7.789   1.428  39.608  0.3902  0.1743 -0.0263
47410W        W56210  18.638   1.208  39.031 -0.2443 -0.4270  0.2820
47411W        W56211  19.462   6.569   6.659 -0.2477  0.2097 -0.3242
47412W        W56212   8.286   3.658   8.649  0.3432 -0.0497 -0.1319
47413W        W56213   4.954   1.622  35.383 -0.4576 -0.1621 -0.1970
47414W        W56214  16.224   5.210  41.913  0.2190  0.1809 -0.1649
47415W        W56215   1.016   3.326   3.287 -0.2484 -0.0015 -0.1244
47416W        W56216  16.461   6.195  27.704  0.0984  0.0473  0.0048
47417W        W56217  16.810   4.350  26.136  0.1091 -0.0347  0.3206
47418W        W56218  11.384   2.933   2.669  0.0673  0.0512 -0.1487
47419W        W56219   3.022   0.922  11.581  0.0900 -0.0404 -0.0143
47420W        W56220  19.873   5.967  10.387 -0.0362  0.0924  0.0847
47421W        W56221  20.221   4.561  10.554 -0.3080  0.1833  0.1074
47422W        W56222   8.393   1.272  20.003 -0.1368  0.0951 -0.3533
47423W        W56223   9.656   2.893   7.516  0.0974 -0.3836 -0.0081
47424W        W56224  13.191   3.226  13.825  0.0953  0.0255 -0.2122
47425W        W56225  16.704   1.751   5.689 -0.1354 -0.0523 -0.1032
47426W        W56226   4.123   3.422  14.995  0.0867 -0.1853 -0.2126
47427W        W56227   1.714   0.991  13.662 -0.1329  0.0885  0.2820
47428W        W56228   6.785   0.424   0.595  0.1300 -0.0867  0.2047
47429W        W56229   9.623   5.160   6.044 -0.0431 -0.2589 -0.0876
47430W        W56230  14.294   4.139  16.645 -0.0270  0.2010  0.1866
47431W        W56231  17.996   4.470  42.448 -0.2033  0.0029 -0.1473
47432W        W56232   1.636   2.247   6.906 -0.2857  0.1545  0.1150
47433W        W56233  18.532   4.450   4.263  0.0423  0.0810  0.0445
47434W        W56234   7.643   2.607  16.988 -0.0645 -0.0402  0.0382
47435W        W56235  20.847   2.726  36.490  0.0182  0.1190 -0.0854
47436W        W56236   0.809   4.879  26.498  0.2823  0.2444 -0.0007
47437W        W56237  12.123   6.002  12.206 -0.2919  0.1278  0.0584
47438W        W56238  17.536   3.681  44.433 -0.3126 -0.1090  0.3037
47439W        W56239   5.515   3.209  15.370 -0.0252 -0.0277 -0.1363
47440W        W56240  14.668   3.886  12.008  0.3177 -0.1931  0.1222
47441W        W56241  10.629   1.584  16.523  0.0743 -0.1706  0.2228
47442W        W56242  13.719   2.195  44.321 -0.0477 -0.0464  0.0954
47443W        W56243  20.655   3.172  34.772  0.0651  0.1268 -0.0106
47444W        W56244   9.170   0.695   5.165 -0.3407  0.1022 -0.0435
47445W        W56245  10.572   4.149   2.817  0.1624 -0.0991  0.1289
47446W        W56246  17.059   5.524  34.573  0.1148  0.1220 -0.1288
47447W        W56247  14.780   2.145  10.066 -0.0698  0.1342 -0.0191
47448W        W56248   7.010   3.004  42.105  0.2166 -0.2116  0.1551
47449W        W56249  10.714   0.492  41.579 -0.1341 -0.1708  0.2528
47450W        W56250  10.708   5.653  17.442 -0.1790  0.2929  0.0049
47451W        W56251   2.238   3.568  16.345  0.1905  0.2192 -0.1428
47452W        W56252  17.600   5.524  16.189 -0.3173  0.0985 -0.0821
47453W        W56253  16.955   5.301  43.636  0.3999 -0.2345  0.0436
47454W        W56254  16.561   2.996   2.240 -0.0332 -0.1988  0.2026
47455W        W56255   0.773   5.387  26.672  0.1722  0.1085  0.0980
47456W        W56256  20.428   5.976   7.383  0.0481 -0.0168  0.1380
47457W        W56257  19.512   5.575  12.385 -0.0583  0.0744 -0.0530
47458W        W56258  16.224   3.604   6.225 -0.0275 -0.0260 -0.0170
47459W        W56259  13.602   2.954   6.319 -0.1657 -0.2006 -0.0745
47460W        W56260  12.062   2.395   3.722 -0.0553 -0.2438  0.1995
47461W        W56261   8.989   2.616  13.554  0.3014 -0.0750  0.3635
47462W        W56262  17.454   2.856  34.514  0.0901  0.0778 -0.2089
47463W        W56263  18.597   3.246   7.716  0.0491  0.0429  0.3462
47464W        W56264  19.951   1.783  43.224 -0.2830 -0.0645 -0.2162
47465W        W56265  12.014   2.229  19.127 -0.2888 -0.3188  0.0944
47466W        W56266   6.556   6.345  42.976  0.1216  0.0939 -0.0092
47467W        W56267  19.876   3.867  41.946  0.1358 -0.2403 -0.1750
47468W        W56268  10.908   4.771   3.965 -0.5469  0.1246 -0.1067
47469W        W56269  17.490   2.312  25.248  0.1974 -0.0362 -0.1880
47470W        W56270  17.982   3.777  44.260  0.2961  0.0924 -0.0510
47471W        W56271  16.946   6.150  36.427 -0.1546  0.2512 -0.0565
47472W        W56272   5.427   5.961   3.612  0.1787 -0.1766 -0.2233
47473W        W56273  15.142   1.925  36.250 -0.0528  0.2612 -0.1679
47474W        W56274   7.193   6.077  41.832 -0.2033 -0.1201 -0.0359
47475W        W56275   5.239   6.073  10.210 -0.1409 -0.1293 -0.1525
47476W        W56276   5.806   3.807  34.042 -0.1554 -0.1259  0.0299
47477W        W56277   5.162   5.644  29.845 -0.0878  0.0402 -0.0806
47478W        W56278   2.210   2.987  15.750 -0.1247  0.0198 -0.3925
47479W        W56279  15.203   1.955   6.272  0.3398  0.1387  0.0744
47480W        W56280  14.851   3.432  28.825 -0.3091 -0.2042 -0.1737
47481W        W56281   1.418   2.112   3.275 -0.0354 -0.2248  0.0690
47482W        W56282   6.766   1.290  21.112 -0.1637  0.1729 -0.0809
47483W        W56283  14.991   1.638  33.830 -0.1099 -0.3024  0.1767
47484W        W56284   8.633   2.773  23.313 -0.3071 -0.0100  0.1276
47485W        W56285  10.815   3.983  13.374 -0.0291 -0.0367 -0.3917
47486W        W56286   0.355   4.509  38.389  0.0599  0.1066  0.2984
47487W        W56287   9.036   2.938   0.524  0.1109  0.1535  0.1092
47488W        W56288   1.212   4.760   5.227  0.2087  0.2250 -0.1797
47489W        W56289  16.677   5.989   8.448 -0.0545  0.0839  0.2067
47490W        W56290   9.729   5.963  14.318  0.1419 -0.0669  0.1216
47491W        W56291   2.281   5.782  15.217 -0.1372  0.1966 -0.0828
47492W        W56292   5.960   0.931   8.579 -0.2837  0.2130  0.0225
47493W        W56293   4.090   4.063   7.909  0.2386 -0.1151  0.1650
47494W        W56294  18.074   0.775  16.178  0.3049 -0.1515  0.0143
47495W        W56295  13.154   0.368  11.315 -0.0984 -0.2836  0.0263
47496W        W56296   9.704   2.964  32.096 -0.2087  0.0122  0.0652
47497W        W56297  17.089   2.026   2.136  0.0899 -0.1000  0.2929
47498W        W56298   9.460   2.317  13.594  0.0846  0.1397 -0.0068
47499W        W56299   0.881   4.839  23.360 -0.1752 -0.2730 -0.0868
47500W        W56300   5.032   4.707  40.256 -0.0192 -0.1599 -0.3300
47501W        W56301  19.271   0.365   2.224  0.1598  0.0056  0.0913
47502W        W56302  17.871   5.357  35.025 -0.3732  0.2243 -0.0260
47503W        W56303   6.646   4.964   3.890 -0.0994  0.2416  0.1115
47504W        W56304   2.225   6.391  25.775  0.0152 -0.0244 -0.0903
47505W        W56305  13.318   3.960   1.979 -0.1786  0.2643 -0.1247
47506W        W56306   2.390   5.727  31.140  0.2196 -0.1693  0.0896
47507W        W56307  11.564   5.553  19.122 -0.0419  0.3526 -0.0712
47508W        W56308  14.430   6.570  35.126  0.0674 -0.1604  0.1452
47509W        W56309   7.441   2.533  19.112 -0.0995 -0.2643 -0.0863
47510W        W56310   4.772   4.898  15.533 -0.0102 -0.0384  0.0444
47511W        W56311  11.646   3.509  41.784  0.2213 -0.0895 -0.0441
47512W        W56312   9.422   2.194   1.132  0.0745 -0.1425 -0.1337
47513W        W56313   6.548   6.532   1.942 -0.1506 -0.0146  0.3116
47514W        W56314  12.112   5.156  37.639  0.3020 -0.2465 -0.2595
47515W        W56315  14.993   3.853  10.249  0.0941  0.0544  0.1972
47516W        W56316  11.059   6.584  10.513 -0.2266 -0.0121 -0.0712
47517W        W56317   6.829   2.764  38.942  0.0172  0.1572  0.0084
47518W        W56318   4.573   0.768  38.741 -0.0751 -0.1207  0.0527
47519W        W56319   7.082   0.198   8.285 -0.0705  0.1232  0.0792
47520W        W56320  16.169   4.216  35.804  0.0233  0.1609  0.0107
47521W        W56321   4.943   2.023  16.703 -0.0041  0.1799 -0.0310
47522W        W56322   2.429   0.691  14.347 -0.1687  0.2898 -0.0714
47523W        W56323   3.937   1.776  33.768  0.0864  0.1433  0.1223
47524W        W56324  19.501   4.122  28.024 -0.0350  0.3056 -0.0164
47525W        W56325  19.592   2.310  12.036 -0.3320 -0.1502 -0.1188
47526W        W56326   1.664   4.866  38.897 -0.4255  0.1430  0.2792
47527W        W56327   3.822   2.048  11.899  0.2730 -0.1179  0.0098
47528W        W56328   0.146   5.454  41.344 -0.0944 -0.3745 -0.2587
47529W        W56329  13.147   3.891  34.132  0.1395  0.2213  0.0255
47530W        W56330  17.322   0.413  35.234 -0.2443 -0.0515  0.1761
47531W        W56331  19.601   6.230   1.690  0.0623 -0.0930  0.1316
47532W        W56332  10.478   3.505   2.418  0.0627  0.0187 -0.1888
47533W        W56333   9.311   4.548  19.601  0.0150  0.2723  0.1774
47534W        W56334   3.614   1.125  30.672  0.0904 -0.3002  0.1132
47535W        W56335  17.017   1.388  30.865 -0.0535 -0.2083  0.1741
47536W        W56336   9.648   5.323   8.394  0.1896 -0.0236 -0.1026
47537W        W56337  18.236   0.060  27.637 -0.0234  0.0914  0.1692
47538W        W56338  14.474   0.345  42.603  0.0272  0.0968 -0.3312
47539W        W56339   9.825   4.543  25.137 -0.1907 -0.0499  0.1142
47540W        W56340   0.662   2.740   4.803 -0.0299  0.3443  0.0520
47541W        W56341   8.654   3.790  12.785 -0.0590 -0.1546 -0.3043
47542W        W56342   9.511   2.177  17.720  0.0453 -0.1195  0.0082
47543W        W56343   4.621   2.173   7.499  0.1100  0.0686  0.0617
47544W        W56344  14.727   4.546  28.093  0.0094  0.3047 -0.0402
47545W        W56345  10.941   0.788  37.393 -0.0305  0.2373 -0.0460
47546W        W56346  18.312   3.737  23.197 -0.1962 -0.2252 -0.2302
47547W        W56347   5.671   4.400  16.338  0.0826 -0.1103  0.1285
47548W        W56348   5.436   6.319  44.364 -0.0210  0.0497  0.1768
47549W        W56349   6.251   0.361  18.577 -0.1546  0.2402 -0.0639
47550W        W56350  17.153   5.685  15.707 -0.4003 -0.0439  0.1432
47551W        W56351   6.787   2.976  37.997  0.2411  0.0716  0.0598
47552W        W56352  15.527   2.852  40.830  0.0652 -0.2088 -0.2710
47553W        W56353  15.135   1.290  41.988  0.4456 -0.1796 -0.0235
47554W        W56354  16.624   6.140   6.415 -0.0395 -0.0651  0.3348
47555W        W56355  20.471   4.113  27.167  0.0032  0.1940  0.0064
47556W        W56356  10.082   4.266  31.267 -0.0239  0.1374  0.0080
47557W        W56357   6.071   3.710   4.262  0.1654 -0.1406  0.2720
47558W        W56358   7.027   0.357  41.919  0.2148 -0.1034 -0.1294
47559W        W56359   3.373   2.592  29.328  0.3688 -0.0331 -0.2429
47560W        W56360   4.806   2.602  18.720 -0.1640 -0.0721  0.0092
47561W        W56361  18.622   4.657  25.648 -0.0923  0.2435  0.0679
47562W        W56362  20.700   5.178  33.717  0.3765 -0.0862 -0.0900
47563W        W56363   2.892   1.245  29.142  0.0621  0.1452  0.0943
47564W        W56364   0.683   5.151   5.868 -0.3770  0.0369  0.2071
47565W        W56365  15.592   2.035  43.010 -0.1541  0.0983 -0.1380
47566W        W56366  15.041   1.620  31.400 -0.0021 -0.1102 -0.2036
47567W        W56367  10.055   4.348   1.955 -0.2527 -0.0293 -0.0252
47568W        W56368  17.081   5.957   1.947 -0.0812 -0.2187 -0.1885
47569W        W56369   1.381   1.266   3.480 -0.0112  0.0042 -0.0238
47570W        W56370  14.770   1.162   1.544 -0.1799 -0.2899  0.0041
47571W        W56371  17.004   6.433  45.014  0.2256 -0.0005  0.3662
47572W        W56372  17.608   3.162  31.952 -0.1278  0.1208 -0.1750
47573W        W56373  14.004   1.825  10.868 -0.0678  0.0820  0.1268
47574W        W56374   9.285   4.704  12.868 -0.3626 -0.0897 -0.0234
47575W        W56375  12.078   5.668   4.083 -0.0638  0.0929  0.0401
47576W        W56376  11.847   5.865  40.681 -0.1129 -0.2332 -0.1323
47577W        W56377  12.369   3.278   6.501  0.0618 -0.2385  0.4006
47578W        W56378  20.067   5.924  37.488  0.0207  0.1710  0.1945
47579W        W56379  12.320   5.192  18.589 -0.0454 -0.2324 -0.0730
47580W        W56380   1.097   4.663   2.063  0.1993 -0.0010 -0.0247
47581W        W56381   2.692   1.939   1.684  0.2368 -0.0767  0.0625
47582W        W56382  14.058   2.451  11.706  0.0620  0.2189 -0.1553
47583W        W56383  19.591   5.426  28.836 -0.1911  0.0241  0.2083
47584W        W56384  14.316   5.392  40.804  0.0635  0.1710 -0.3829
47585W        W56385   7.175   5.597  35.620  0.1339  0.3530  0.2592
47586W        W56386  12.776   1.016  29.006  0.1203  0.1033 -0.0296
47587W        W56387   2.999   3.773  35.760 -0.1882 -0.4013  0.1341
47588W        W56388  14.379   2.661  30.692  0.0350 -0.1501 -0.1542
47589W        W56389   8.371   2.866  21.934 -0.1723  0.0747 -0.3060
47590W        W56390  11.133   0.330   6.454 -0.0034  0.1709 -0.0304
47591W        W56391   1.549   3.979   6.716  0.2101  0.2059 -0.2979
47592W        W56392  17.039   3.799  36.004 -0.1556  0.1292  0.1920
47593W        W56393  12.352   3.433   4.744  0.1821 -0.0079 -0.0958
47594W        W56394   0.434   2.040  39.495 -0.1190  0.1310  0.2159
47595W        W56395  13.378   5.901   8.717 -0.2061 -0.1646  0.4804
47596W        W56396   5.781   5.561  15.359  0.3517 -0.0622 -0.0473
47597W        W56397   9.137   5.834  16.591  0.2845 -0.0122 -0.2451
47598W        W56398   1.230   6.183  27.776 -0.0110 -0.1624  0.1889
47599W        W56399  12.245   6.447  30.213  0.0652  0.0541 -0.2039
47600W        W56400  14.836   4.200  12.430 -0.2432 -0.0312 -0.1250
47601W        W56401  18.871   4.572  13.755  0.0391 -0.0733  0.0629
47602W        W56402   1.789   0.845  32.289 -0.1953 -0.1164  0.1384
47603W        W56403   7.563   5.700  31.998 -0.0526 -0.1742 -0.0217
47604W        W56404  18.194   6.584   9.904 -0.0446 -0.0951  0.0187
47605W        W56405   5.705   2.360   3.014  0.1169  0.1867  0.1701
47606W        W56406  15.121   2.596  41.798 -0.0726 -0.1609 -0.0896
47607W        W56407  17.209   3.736  40.405  0.0813 -0.2105  0.0939
47608W        W56408  20.864   0.753   2.477  0.2132 -0.0700 -0.2329
47609W        W56409   3.287   0.465  17.671 -0.1256 -0.0336  0.1110
47610W        W56410   4.076   2.759  36.177 -0.1844  0.0259  0.1274
47611W        W56411  12.028   4.416  35.063 -0.1633  0.1787 -0.1175
47612W        W56412  10.990   4.068  41.213  0.1597 -0.0314 -0.0789
47613W        W56413   5.199   5.785  37.190  0.0478 -0.0541  0.2137
47614W        W56414  20.798   3.684  22.892  0.2431 -0.1392  0.2606
47615W        W56415  14.813   0.837  12.423  0.0240 -0.2088 -0.0889
47616W        W56416  17.468   5.522  38.551 -0.0553  0.3399 -0.3512
47617W        W56417  15.360   5.847   9.934 -0.0619  0.0426 -0.0348
47618W        W56418  11.071   0.695  22.854 -0.2086  0.2124  0.1503
47619W        W56419  15.151   2.046  17.387  0.4194  0.0272 -0.0573
47620W        W56420   5.023   3.324  10.759 -0.1149  0.1385 -0.1016
47621W        W56421   1.989   0.436  27.182 -0.0593 -0.0634  0.2050
47622W        W56422  12.776   0.212  15.265  0.2038  0.1018 -0.1970
47623W        W56423   7.521   3.726  12.874  0.0882  0.0424  0.0552
47624W        W56424  20.170   1.002  44.257  0.3100  0.0339 -0.1370
47625W        W56425  12.722   0.004  30.081  0.3379 -0.1100  0.0427
47626W        W56426  18.211   4.221  14.594 -0.1882 -0.0671  0.0102
47627W        W56427  20.051   6.034  34.622 -0.0535  0.1401  0.0409
47628W        W56428   5.757   0.670   2.384  0.0661 -0.1087 -0.0420
47629W        W56429   0.590   3.347  37.500 -0.1330  0.1488 -0.0320
47630W        W56430   6.955   1.395  35.877 -0.0427 -0.0025  0.2756
47631W        W56431  15.170   4.821  42.986 -0.0624  0.2515  0.1997
47632W        W56432  12.898   1.309  32.155  0.0419 -0.1386 -0.0103
47633W        W56433   5.245   5.666  39.908  0.1105 -0.0894 -0.0171
47634W        W56434  18.113   5.692  27.525  0.1402  0.4365  0.1440
47635W        W56435   7.450   5.731   9.073  0.1083  0.1521  0.2627
47636W        W56436   2.488   4.799   0.362  0.3190  0.1139 -0.1850
47637W        W56437  17.044   4.793  31.537 -0.1459  0.1060  0.0300
47638W        W56438  15.400   2.680  33.066 -0.3643 -0.2553 -0.1489
47639W        W56439  14.027   3.159  44.887 -0.0043  0.4621  0.4379
47640W        W56440   5.200   6.090   9.301  0.0200 -0.1496 -0.1082
47641W        W56441  10.660   2.253   5.729  0.0035 -0.0600 -0.1480
47642W        W56442  19.568   0.998   4.274 -0.1116  0.2815  0.2864
47643W        W56443  10.340   5.044  10.839  0.0649  0.0902  0.3421
47644W        W56444   9.595   5.342  22.123  0.0339  0.0810  0.2008
47645W        W56445   2.224   5.063  43.744 -0.0465 -0.0834  0.0736
47646W        W56446   6.395   5.241   6.968  0.1703 -0.0338 -0.4423
47647W        W56447  10.319   3.880   5.849 -0.3733  0.1196 -0.2961
47648W        W56448  19.080   6.497  23.632  0.0602 -0.1369  0.0409
47649W        W56449  14.250   5.563  12.796 -0.2770 -0.1168  0.1351
47650W        W56450   9.445   4.121   8.015  0.0608  0.0359 -0.4081
47651W        W56451  19.532   6.471  23.201  0.2935  0.2014  0.1801
47652W        W56452  15.594   5.252  12.936 -0.0455  0.1683  0.0495
47653W        W56453  13.474   0.449  14.189  0.1802  0.2433 -0.3775
47654W        W56454   8.794   1.834  43.486  0.2002  0.0588  0.1965
47655W        W56455   9.129   2.184  36.322  0.0401  0.3203 -0.1679
47656W        W56456   7.458   4.240   8.093  0.0289 -0.0874  0.0477
47657ION     NA56457  16.492   5.710  25.454  0.3820 -0.2941 -0.3047
47658ION     NA56458  11.884   0.618   9.214 -0.0787  0.0577  0.1118
47659ION     NA56459   0.994   3.577  39.057  0.4229  0.1008 -0.1897
47660ION     NA56460   4.241   6.470   7.096  0.0531  0.1389  0.1277
47661ION     NA56461   8.238   2.193  36.160 -0.0791 -0.3095  0.1289
47662ION     NA56462  18.708   6.299   6.722 -0.5991 -0.4233  0.0237
47663ION     NA56463  19.733   3.574  19.263 -0.0670  0.0542  0.1043
47664ION     NA56464  19.596   5.641  37.669  0.2916  0.4562  0.0506
47665ION     NA56465  19.837   2.620  44.321  0.0766  0.0486  0.1193
47666ION     NA56466  12.999   2.658   1.576 -0.1294 -0.1397  0.0187
47667ION     NA56467   5.189   4.478   1.747 -0.0437  0.5777  0.4676
47668ION     NA56468  19.133   0.867  37.288  0.0166  0.1661 -0.0835
47669ION     NA56469   9.161   3.371  20.363 -0.2309  0.0161 -0.1122
47670ION     NA56470  13.405   1.805   9.730  0.1555  0.2308 -0.0292
47671ION     NA56471  13.372   1.545  36.077 -0.3082 -0.1912 -0.0051
47672ION     NA56472   6.365   5.582  40.970 -0.3774  0.4779 -0.1474
47673ION     NA56473   2.010   0.307  25.297  0.0358  0.5073  0.0134
47674ION     NA56474  20.336   4.670  34.824  0.0011  0.5010  0.0940
47675ION     NA56475  12.342   0.034  32.090  0.0853  0.2259 -0.0491
47676ION     NA56476  10.301   0.289  22.978  0.0852 -0.2502  0.1579
47677ION     NA56477  18.038   2.464  32.753 -0.1209  0.3438 -0.3157
47678ION     NA56478  10.512   4.168  22.272 -0.0550  0.2376  0.0070
47679ION     NA56479   7.094   5.791  33.070  0.2418 -0.2829  0.1653
47680ION     NA56480  14.439   5.006  44.525 -0.1091 -0.1043  0.4502
47681ION     NA56481   1.595   1.740  44.899  0.1382 -0.1705  0.0317
47682ION     NA56482  13.578   2.361  27.776 -0.5052 -0.1885 -0.2604
47683ION     NA56483  20.725   1.801  10.059  0.1955 -0.4288  0.2404
47684ION     NA56484   3.965   3.658  38.855 -0.1705 -0.2884 -0.4394
47685ION     NA56485   0.108   3.422  14.477  0.0013 -0.3280  0.1122
47686ION     NA56486  19.208   4.805  12.634 -0.0795 -0.0065  0.1433
47687ION     NA56487   3.609   1.809  44.262 -0.2594 -0.0546 -0.0690
47688ION     NA56488  15.693   3.647  16.510 -0.0932  0.3069 -0.3519
47689ION     NA56489   2.200   0.450  13.585 -0.0489 -0.3777  0.2312
47690ION     NA56490   0.247   1.420  14.012 -0.3052  0.0194  0.2266
47691ION     NA56491  14.854   0.259   5.482  0.0763 -0.5229  0.3181
47692ION     NA56492  13.527   3.098   6.998  0.0093 -0.2996  0.2618
47693ION     NA56493   7.440   4.071  29.659  0.3749 -0.3001  0.5769
47694ION     NA56494   5.271   5.461  33.040  0.2125  0.4308  0.0588
47695ION     NA56495   6.464   0.200  34.428  0.4812 -0.0140  0.1759
47696ION     NA56496  17.064   0.182  11.310  0.0628  0.0675 -0.1097
47697ION     NA56497   0.648   1.560   2.122 -0.4543  0.0937  0.0335
47698ION     NA56498   9.580   1.626   7.609 -0.1210 -0.1330  0.1164
47699ION     NA56499  14.465   5.474  18.436  0.3462 -0.0563 -0.2692
47700ION     NA56500  12.753   6.577  13.047 -0.1031 -0.1566  0.6054
47701ION     NA56501   0.215   3.954  36.055 -0.3838 -0.1635 -0.2493
47702ION     NA56502   6.233   4.864  16.677 -0.4492  0.1888 -0.1441
47703ION     NA56503   2.762   1.995   9.878  0.2955 -0.0946  0.0233
47704ION     NA56504  14.931   1.309  17.663  0.2366 -0.1157  0.1428
47705ION     NA56505  11.450   4.702  17.779  0.1333  0.2909 -0.1123
47706ION     NA56506   9.630   0.957  18.817 -0.3316 -0.6807  0.4033
47707ION     NA56507   0.050   4.642  30.771  0.2936 -0.4139  0.3444
47708ION     NA56508  16.588   2.889  36.808  0.1543 -0.3397 -0.1060
47709ION     NA56509  18.994   3.563  14.136  0.4223  0.1349 -0.1322
47710ION     NA56510  16.834   4.739  33.808 -0.1173  0.2137  0.0495
47711ION     NA56511   1.032   2.364  14.020 -0.1894 -0.3392 -0.0873
47712ION     NA56512  14.962   4.163  13.217  0.4117  0.2420 -0.0007
47713ION     NA56513  17.459   3.239  34.377  0.3181 -0.1994  0.3215
47714ION     NA56514  10.519   0.576  38.828  0.1919  0.0414 -0.4019
47715ION     NA56515  18.762   3.634   9.789  0.3683 -0.1128 -0.1466
47716ION     NA56516   5.137   5.515  27.736 -0.1646 -0.1377  0.0848
47717ION     NA56517   5.716   2.904  15.949 -0.0965  0.0132  0.3032
47718ION     NA56518  11.764   2.938  21.883  0.3113 -0.1912 -0.2954
47719ION     NA56519   9.710   4.595  19.479 -0.1365  0.0839  0.1194
47720ION     NA56520  12.004   3.372  28.866 -0.1439  0.6101 -0.1488
47721ION     NA56521   3.381   3.619  31.828  0.0698 -0.3218  0.2266
47722ION     NA56522   8.178   1.988  34.451 -0.1986 -0.4277 -0.3168
47723ION     NA56523  12.003   5.277  39.112  0.3014  0.1958  0.0436
47724ION     NA56524   1.693   6.299   1.287 -0.5650  0.1285 -0.3997
47725ION     NA56525  14.784   3.493  36.609 -0.2133 -0.1491  0.1867
47726ION     NA56526  17.334   5.051  24.930  0.3290  0.0161  0.0347
47727ION     NA56527  16.500   4.631  30.818  0.0624  0.1553 -0.3034
47728ION     NA56528   5.457   6.503  42.649 -0.0638 -0.0863  0.2097
47729ION     NA56529   0.539   1.869  32.171  0.0535 -0.1260 -0.2118
47730ION     NA56530   4.094   3.185  18.706  0.1514 -0.0078 -0.0946
47731ION     NA56531   8.071   0.456  34.794  0.0613 -0.1987 -0.3864
47732ION     NA56532   0.821   0.254  31.205  0.2621 -0.3279  0.2469
47733ION     NA56533  15.095   5.687  32.021  0.5681 -0.2563 -0.4246
47734ION     NA56534  13.282   3.581  17.510  0.1811 -0.0985  0.0346
47735ION     NA56535  13.568   0.632   9.865  0.0329 -0.1710  0.3732
47736ION     NA56536  10.425   4.343   3.201  0.1330  0.4333  0.1677
47737ION     NA56537  20.236   4.154  45.047  0.1398  0.1655  0.0071
47738ION     NA56538   3.256   2.479  10.803  0.5276  0.1665  0.0474
47739ION     NA56539  12.123   5.214  43.548  0.5719 -0.1640 -0.1320
47740ION     NA56540  11.214   1.037  18.224  0.2945  0.2408 -0.2047
47741ION     NA56541  20.140   1.995  34.824 -0.0795  0.2594  0.0359
47742ION     NA56542   3.550   1.080   2.083  0.2064 -0.3715 -0.3645
47743ION     NA56543   5.079   5.212   3.999 -0.0531 -0.6058  0.1204
47744ION     NA56544  10.621   1.421  39.644 -0.4864 -0.3606  0.1302
47745ION     NA56545  17.168   2.736  13.735 -0.2626  0.2892  0.4007
47746ION     NA56546  19.226   2.776  40.554  0.1713 -0.0439  0.0207
47747ION     NA56547   7.028   0.826  17.005  0.1281 -0.2579  0.0744
47748ION     NA56548   1.890   0.788  34.342 -0.1580 -0.0188 -0.0067
47749ION     NA56549  13.463   3.944  11.909 -0.2619  0.4291  0.1758
47750ION     NA56550   9.626   4.790  25.991 -0.2174  0.3657  0.0847
47751ION     NA56551  19.535   2.082   8.148  0.2583 -0.3592  0.2628
47752ION     NA56552   6.595   3.118  21.864 -0.3689  0.1331 -0.0687
47753ION     NA56553  20.297   1.058  14.163 -0.0228  0.4189 -0.1368
47754ION     NA56554  20.354   2.787  34.813  0.0060  0.2267 -0.2272
47755ION     NA56555   9.048   0.991  42.686 -0.2683  0.2060  0.3349
47756ION     NA56556   5.713   2.774   8.330  0.4196 -0.4341 -0.1247
47757ION     NA56557   4.670   5.637   9.371  0.5093 -0.2575 -0.0296
47758ION     NA56558  19.591   5.575  14.972 -0.1358  0.3552  0.0334
47759ION     NA56559   6.113   3.892  16.693  0.2179 -0.4816 -0.3716
47760ION     NA56560  10.180   4.688  37.173 -0.1304 -0.3820  0.3271
47761ION     NA56561   0.396   4.172  10.469  0.3833  0.2467 -0.4381
47762ION     NA56562  20.451   2.567  29.561 -0.3982  0.0433 -0.2483
47763ION     NA56563   2.316   2.806  39.620  0.5847  0.1300  0.2116
47764ION     NA56564  13.408   2.608  39.115  0.3062  0.3493 -0.1948
47765ION     NA56565  14.274   2.204  16.175  0.1333  0.4858 -0.1297
47766ION     NA56566   9.155   5.173  43.506  0.0381 -0.1473  0.1420
47767ION     NA56567   2.656   6.004   5.133 -0.0078 -0.2889 -0.0375
47768ION     NA56568  20.792   3.323   6.013  0.0408  0.0998  0.0288
47769ION     NA56569  16.872   3.607  36.435 -0.1197  0.3541  0.1472
47770ION     NA56570  17.680   2.641   0.173 -0.0058  0.4315 -0.0102
47771ION     NA56571  13.826   1.407  44.264 -0.0276  0.2326 -0.0161
47772ION     NA56572   8.708   5.768  19.155 -0.3396 -0.0572 -0.2502
47773ION     NA56573  20.641   0.502  23.033 -0.2113 -0.3804  0.5690
47774ION     NA56574  10.483   5.560  12.564  0.3443  0.3099 -0.3353
47775ION     NA56575  11.153   3.780  40.951 -0.3577 -0.0811  0.1039
47776ION     NA56576   9.584   5.874  32.676  0.1962 -0.6086  0.2928
47777ION     NA56577   1.888   1.020  33.011 -0.0066 -0.0628 -0.0145
47778ION     NA56578   8.466   0.234  12.680 -0.3448 -0.1845  0.0760
47779ION     NA56579   8.359   2.622  30.145 -0.1724  0.2290  0.0517
47780ION     NA56580  18.988   3.553  38.412  0.0920  0.3211 -0.1453
47781ION     NA56581   0.612   1.508   5.783  0.1315 -0.4176 -0.2094
47782ION     NA56582   2.992   1.253  16.539  0.5425  0.2521 -0.0975
47783ION     NA56583   0.166   4.713   2.905  0.2379 -0.2969  0.2599
47784ION     NA56584  13.799   3.695  19.382  0.0934 -0.1752  0.0419
47785ION     NA56585  12.539   6.252   8.853 -0.1972 -0.0215  0.0421
47786ION     NA56586  17.134   2.083  14.261  0.3721  0.0756 -0.1659
47787ION     NA56587  17.523   5.494   4.941 -0.1223  0.2518 -0.1603
47788ION     NA56588   2.851   4.364   6.515  0.0538  0.1562 -0.2537
47789ION     NA56589   4.758   3.943  17.444 -0.1132 -0.1445 -0.0182
47790ION     NA56590   6.292   2.249   6.804 -0.0778 -0.5489 -0.1663
47791ION     NA56591  17.045   5.333  32.894  0.3289 -0.4250 -0.1379
47792ION     NA56592  16.189   1.848  33.390  0.0719 -0.1064  0.0419
47793ION     NA56593  10.834   0.955  41.142  0.2417 -0.0163  0.0113
47794ION     NA56594   2.514   5.400  30.863 -0.0303 -0.1355  0.0074
47795ION     NA56595  15.787   1.115  31.926  0.0811 -0.3299  0.0960
47796ION     NA56596   3.254   2.853  34.187  0.1774 -0.1457 -0.3266
47797ION     NA56597   9.521   5.799  16.770  0.0644  0.0344  0.0935
47798ION     NA56598  15.725   0.751  13.781 -0.2568 -0.0296  0.3895
47799ION     NA56599   9.055   5.357  11.861 -0.1891  0.0441  0.2385
47800ION     NA56600   5.689   2.204  42.611  0.0834 -0.0176  0.0542
47801ION     NA56601   1.697   5.891  13.830 -0.6334  0.4178  0.1307
47802ION     NA56602   2.067   4.833   5.098 -0.3956  0.3537 -0.0488
47803ION     NA56603  12.537   4.699   3.572  0.0765  0.2178  0.4168
47804ION     NA56604   3.793   5.172   0.094  0.0876 -0.1297  0.2330
47805ION     NA56605   8.353   2.853  40.997 -0.1944 -0.1475 -0.0598
47806ION     NA56606  13.855   4.584  16.292 -0.0773  0.0992  0.1218
47807ION     NA56607  10.877   1.809  20.465 -0.4290  0.0804  0.0101
47808ION     NA56608   9.995   5.827  18.415 -0.0519  0.0015  0.0555
47809ION     NA56609  13.206   1.187  13.134  0.2938  0.3216  0.3452
47810ION     NA56610  19.031   2.576  38.510 -0.2998  0.1441  0.5186
47811ION     NA56611   0.548   1.612  33.850 -0.2637  0.0723 -0.1514
47812ION     NA56612   0.774   3.676  16.187 -0.4565 -0.2817  0.2705
47813ION     NA56613   2.330   6.219  43.203  0.1478 -0.0309  0.2395
47814ION     NA56614  19.817   4.802   8.414  0.3017  0.2206 -0.1490
47815ION     NA56615   5.173   5.332  43.156  0.7055  0.0861 -0.1410
47816ION     NA56616  16.495   6.533  10.188 -0.0792  0.5229 -0.0533
47817ION     NA56617  11.969   0.587  19.831 -0.2392  0.1776  0.0161
47818ION     NA56618   8.462   4.641  33.636  0.2013  0.1624 -0.1793
47819ION     NA56619   3.450   1.334   5.773  0.2715  0.0150 -0.0562
47820ION     NA56620  11.893   3.102   1.509  0.2503 -0.0521  0.0244
47821ION     NA56621  20.313   2.634  43.222 -0.0214 -0.4001  0.0336
47822ION     NA56622   0.129   4.325   6.289 -0.2782 -0.2484 -0.1105
47823ION     NA56623   7.082   2.632  18.887  0.0535 -0.0984  0.2672
47824ION     NA56624   0.313   0.221  25.241 -0.1117  0.0610  0.0242
47825ION     NA56625  12.476   5.386  34.332 -0.5500 -0.0780  0.1299
47826ION     NA56626  13.855   3.066  19.076 -0.0172 -0.0025 -0.3330
47827ION     NA56627   9.496   0.688  29.464 -0.1447  0.0586 -0.0010
47828ION     NA56628   1.187   0.736  38.498  0.1185 -0.4866 -0.0686
47829ION     NA56629   0.414   4.384  26.658  0.2996  0.1432 -0.3157
47830ION     NA56630  20.035   0.398   0.313 -0.0584  0.0196 -0.4136
47831ION     NA56631   2.577   2.822  11.638 -0.0879  0.3118 -0.1997
47832ION     NA56632  20.001   1.835  24.432  0.0961 -0.1815  0.1072
47833ION     NA56633  19.816   2.243  28.621 -0.0977 -0.3516  0.2487
47834ION     NA56634   3.457   1.986  14.568 -0.4405 -0.2045 -0.1049
47835ION     NA56635  20.593   4.518  29.388 -0.2274 -0.3484 -0.4757
47836ION     NA56636  14.372   3.670   6.898 -0.2945  0.0074  0.5992
47837ION     NA56637  11.204   0.009  11.041 -0.0796  0.0248 -0.1600
47838ION     NA56638   1.017   3.709   9.374 -0.2974 -0.3571 -0.1618
47839ION     NA56639   8.416   1.660  33.548  0.3019  0.0137  0.1853
47840ION     NA56640   0.580   6.532  22.877 -0.1894 -0.2282  0.2617
47841ION     NA56641   1.358   3.844  35.052  0.0973 -0.4784  0.1153
47842ION     NA56642   6.337   1.010  41.691 -0.2344 -0.2141 -0.1182
47843ION     NA56643   3.703   3.559  29.352 -0.0224  0.2637 -0.0028
47844ION     NA56644  14.399   2.782  17.089  0.4056  0.0259  0.1331
47845ION     NA56645  16.104   0.670  28.638 -0.3105 -0.0781 -0.0585
47846ION     NA56646   6.637   1.408  43.564  0.0953  0.0059 -0.2486
47847ION     NA56647  10.114   1.606   5.005  0.0990  0.5146  0.2871
47848ION     NA56648   5.559   6.574   6.678 -0.0891  0.1332  0.0290
47849ION     NA56649   8.712   5.027  36.308  0.0494  0.3687  0.0747
47850ION     NA56650   7.168   4.718  18.654 -0.0122 -0.0740 -0.0317
47851ION     NA56651   4.229   5.632  17.943 -0.0956 -0.2587  0.2975
47852ION     CL56652  13.482   3.516  17.810 -0.3049  0.2003  0.2297
47853ION     CL56653   6.203   2.837   7.678 -0.1396 -0.2177  0.1488
47854ION     CL56654  13.755   5.294  18.776 -0.1301  0.3784 -0.0286
47855ION     CL56655   2.497   0.695  13.638  0.5728 -0.4132 -0.3844
47856ION     CL56656  10.146   3.690  32.331  0.0227  0.0581  0.0959
47857ION     CL56657   1.904   3.419  39.542 -0.2598 -0.2436 -0.0056
47858ION     CL56658   9.407   0.941  18.207  0.1038 -0.2479  0.1114
47859ION     CL56659   9.192   4.755  36.225 -0.1995  0.1893  0.2633
47860ION     CL56660   2.727   2.649  39.671 -0.2937 -0.0188 -0.2876
47861ION     CL56661   1.831   3.633  35.369 -0.1742  0.4110  0.1610
47862ION     CL56662   0.807   0.300  45.064 -0.2359  0.0218 -0.2271
47863ION     CL56663  21.025   6.343  32.192 -0.4220  0.0504 -0.0333
47864ION     CL56664   8.367   0.001  12.897  0.4089  0.3359  0.6621
47865ION     CL56665   0.857   5.787  32.350  0.0554 -0.2827  0.5175
47866ION     CL56666  15.833   5.916  10.571 -0.1501 -0.0413 -0.3329
47867ION     CL56667   0.057   4.505   2.551  0.2587  0.1433  0.1920
47868ION     CL56668  19.674   4.554   2.067 -0.3239  0.4010 -0.1379
47869ION     CL56669   6.072   0.826  43.432  0.1488  0.0049  0.2601
47870ION     CL56670  11.985   0.568   2.272 -0.0267 -0.2580  0.0741
47871ION     CL56671   5.246   5.077  43.364 -0.1624 -0.4251  0.1446
47872ION     CL56672  11.123   5.740   9.102  0.2526 -0.3853  0.3295
47873ION     CL56673  19.097   1.770  40.028 -0.2558 -0.3603  0.1579
47874ION     CL56674  15.558   2.755   9.467 -0.2398  0.0352  0.0092
47875ION     CL56675  13.269   1.062  40.425 -0.1009 -0.0548 -0.1366
47876ION     CL56676  11.864   4.717   3.093  0.1265 -0.4929  0.1684
47877ION     CL56677  20.652   5.142   4.281 -0.1177 -0.0222  0.0455
47878ION     CL56678   0.712   3.163  30.974 -0.1565 -0.3032 -0.2028
47879ION     CL56679  10.624   0.341   2.282 -0.0377  0.0556  0.0436
47880ION     CL56680   6.471   2.724   8.556 -0.4485 -0.3428  0.0984
47881ION     CL56681   6.430   5.508  16.295  0.1732  0.0621 -0.0262
47882ION     CL56682   6.183   4.675  39.643 -0.0037  0.0180  0.1558
47883ION     CL56683   1.888   4.237  29.772  0.4369  0.3322  0.2947
47884ION     CL56684  13.870   5.931  14.673  0.4803 -0.0789 -0.3890
47885ION     CL56685  14.627   4.470   8.876 -0.0805  0.1579  0.3961
47886ION     CL56686   8.140   6.597  14.095 -0.3538  0.2492  0.2775
47887ION     CL56687  16.011   1.852  32.351  0.0301 -0.1427  0.0280
47888ION     CL56688   0.113   4.631  31.197 -0.2465 -0.1606 -0.0645
47889ION     CL56689   2.612   6.332  12.283 -0.2034 -0.3573  0.1638
47890ION     CL56690   4.337   3.026  10.568 -0.0506  0.0664  0.1243
47891ION     CL56691   7.107   4.081  31.158 -0.2760  0.2924  0.1230
47892ION     CL56692  15.228   5.036  40.033 -0.0222  0.2414 -0.3388
47893ION     CL56693  18.400   3.740   9.581  0.1890 -0.3520  0.1150
47894ION     CL56694   0.110   5.244  31.012  0.2312 -0.1406  0.1613
47895ION     CL56695  18.700   4.199  30.523 -0.0171 -0.0705 -0.0961
47896ION     CL56696  19.884   4.239  30.693 -0.0895  0.2264 -0.3959
47897ION     CL56697   6.934   1.344  13.010 -0.1365  0.4611 -0.0849
47898ION     CL56698  12.194   6.415  32.304 -0.1321 -0.2478  0.1359
47899ION     CL56699  17.593   5.377   5.255  0.0088 -0.4878  0.0990
47900ION     CL56700   3.128   4.146  34.490 -0.3727 -0.5054  0.2259
47901ION     CL56701   5.638   3.638   4.289  0.3740  0.0055 -0.1331
47902ION     CL56702   7.502   1.268  14.264 -0.0707  0.0706  0.4601
47903ION     CL56703  16.493   4.559  31.641  0.1806  0.2007  0.2012
47904ION     CL56704   0.210   2.579   6.625  0.1553 -0.2720 -0.0466
47905ION     CL56705   4.252   6.136   0.486 -0.2858  0.3463  0.2443
47906ION     CL56706   8.535   4.886  36.582 -0.3049 -0.5848 -0.0542
47907ION     CL56707   4.831   2.480  38.336  0.2124 -0.2040  0.0691
47908ION     CL56708   5.773   5.671   8.937 -0.1229 -0.3900 -0.5537
47909ION     CL56709  10.017   5.388  32.142  0.2152  0.1418 -0.0324
47910ION     CL56710  10.407   5.950  12.025 -0.1218 -0.0742  0.0620
47911ION     CL56711   1.186   2.530  42.164  0.0870  0.2086  0.3892
47912ION     CL56712  10.257   2.538   7.873 -0.2517 -0.0332  0.0154
47913ION     CL56713   8.974   3.716   6.412  0.0854  0.1044  0.3606
47914ION     CL56714   9.190   2.932   9.681  0.3164 -0.0625 -0.2083
47915ION     CL56715  17.877   0.411  15.057  0.0867 -0.0157  0.3158
47916ION     CL56716   1.804   6.413  24.984  0.0523 -0.1360 -0.3875
47917ION     CL56717   9.891   4.944   0.446 -0.4823  0.3265  0.2453
47918ION     CL56718  20.542   4.790  33.548 -0.2506  0.4083 -0.1167
47919ION     CL56719  14.903   0.758  15.775  0.0229  0.1529  0.0732
47920ION     CL56720  19.307   6.306  26.741 -0.2726  0.1404 -0.0465
47921ION     CL56721  10.648   6.595  22.566  0.1146 -0.1876  0.2106
47922ION     CL56722  14.023   6.033  13.995 -0.1035 -0.0644  0.3964
47923ION     CL56723  11.947   6.506  29.540  0.1187 -0.1422  0.0947
47924ION     CL56724  12.151   0.341  33.321 -0.3190 -0.5911 -0.2337
47925ION     CL56725   9.233   3.348   2.946  0.0719  0.0612 -0.0428
47926ION     CL56726   1.101   4.965  31.064 -0.2880  0.0500  0.3308
47927ION     CL56727  14.463   3.814   1.515  0.0120 -0.0601 -0.0790
47928ION     CL56728   1.298   1.995  37.894  0.1819  0.0896  0.1036
47929ION     CL56729   7.620   1.657   2.278 -0.0136  0.0374 -0.0811
47930ION     CL56730   9.624   0.355  38.232  0.3224  0.0755 -0.0832
47931ION     CL56731   8.400   2.286  17.775 -0.5198 -0.0797  0.0379
47932ION     CL56732  12.244   1.742  15.232  0.4391 -0.1708 -0.0573
47933ION     CL56733  18.890   5.108  35.640 -0.3098  0.0216  0.0152
47934ION     CL56734  12.564   6.372   4.208 -0.1914 -0.1748  0.0113
47935ION     CL56735  19.047   5.564  32.893  0.5274  0.3482 -0.0937
47936ION     CL56736  12.814   5.783  36.639  0.1560 -0.4616 -0.5792
47937ION     CL56737  15.463   6.174  27.647  0.4164 -0.0800 -0.2911
47938ION     CL56738   0.898   0.437   7.351 -0.2622  0.2864 -0.1300
47939ION     CL56739   2.478   5.599   3.580 -0.2108  0.3066  0.0828
47940ION     CL56740  13.841   1.180  10.448  0.0351  0.3601 -0.0444
47941ION     CL56741   0.961   6.312  38.011  0.0553  0.1320 -0.6522
47942ION     CL56742  19.825   1.985   1.257 -0.1895  0.4001 -0.3529
47943ION     CL56743   4.731   4.370   1.824  0.0982 -0.1543 -0.2128
47944ION     CL56744   4.345   5.733  12.650  0.3902 -0.2143  0.2723
47945ION     CL56745  17.834   5.739  34.798 -0.0425  0.2214 -0.0252
47946ION     CL56746  19.498   2.736  35.427 -0.1095  0.0536  0.2505
47947ION     CL56747   6.783   2.188   6.152 -0.1651  0.2450  0.2615
47948ION     CL56748   8.796   2.185   6.121 -0.0622 -0.2021  0.3438
47949ION     CL56749   0.095   2.903   2.587 -0.0627 -0.5091  0.1297
47950ION     CL56750  11.055   1.833   4.746  0.1422  0.2232 -0.8602
47951ION     CL56751  13.146   3.295  19.186 -0.0371  0.0362 -0.0322
47952ION     CL56752   7.096   4.906  13.093  0.0216  0.0170 -0.1892
47953ION     CL56753   5.973   1.865  33.991  0.0195 -0.1127 -0.0918
47954ION     CL56754  16.026   1.589  36.560 -0.0570 -0.1029  0.0710
47955ION     CL56755  15.311   0.142  42.438  0.1928  0.2274 -0.1596
47956ION     CL56756  18.610   1.054  28.146 -0.0644  0.1129 -0.2365
47957ION     CL56757   2.588   4.962  43.450  0.1899 -0.5743 -0.0662
47958ION     CL56758  19.429   4.057   9.644 -0.0779 -0.2464  0.5262
47959ION     CL56759  18.889   2.637  43.284 -0.1114 -0.5181  0.1782
47960ION     CL56760   6.215   2.481  11.478  0.3049 -0.4025 -0.0036
47961ION     CL56761  10.986   3.982   3.203 -0.0536  0.1316 -0.2767
47962ION     CL56762  18.081   1.031  10.166  0.4282  0.1030  0.1503
47963ION     CL56763   8.108   0.932  35.201 -0.1259  0.5066  0.0623
47964ION     CL56764  16.792   5.591   1.907 -0.1780 -0.1099  0.5379
47965ION     CL56765   0.660   3.204  31.652 -0.2090  0.1205  0.3332
47966ION     CL56766  17.712   3.611  27.337  0.3352  0.1090  0.5504
47967ION     CL56767  10.736   0.439  13.570 -0.0765 -0.3840 -0.0744
47968ION     CL56768   6.983   2.026   4.352  0.2079 -0.1440 -0.1059
47969ION     CL56769   6.263   3.579  16.724  0.2636  0.1293 -0.1285
47970ION     CL56770  15.419   3.534  35.602  0.1973  0.2897 -0.2368
47971ION     CL56771   9.652   1.460  19.246 -0.2577 -0.2078  0.0668
47972ION     CL56772  13.774   6.396  13.250 -0.2634 -0.1755  0.3529
47973ION     CL56773  17.497   2.386  41.434 -0.2675 -0.1152 -0.1258
47974ION     CL56774   3.124   3.377  35.877 -0.0766 -0.0705  0.2202
47975ION     CL56775  12.632   0.585  43.473 -0.2214 -0.3734 -0.1339
47976ION     CL56776   0.498   4.058  26.530  0.0196  0.0024  0.3377
47977ION     CL56777   1.105   3.476  39.416 -0.1188 -0.0700 -0.3967
47978ION     CL56778   1.636   5.284  13.213 -0.1026  0.3664 -0.4319
47979ION     CL56779  12.982   4.230   3.810 -0.0086  0.3141 -0.6614
47980ION     CL56780   8.981   2.962  32.291  0.1826 -0.3593 -0.1588
47981ION     CL56781   8.090   0.907  31.479  0.5186 -0.0943  0.0820
47982ION     CL56782  20.794   3.042   3.861  0.2072 -0.2664 -0.0806
47983ION     CL56783   1.749   0.262   6.865  0.1880 -0.1499  0.3340
47984ION     CL56784   2.437   6.365   0.950 -0.2905 -0.2041  0.1625
47985ION     CL56785   5.925   3.105  41.330 -0.4282  0.2309  0.0010
47986ION     CL56786  19.602   0.571   1.965  0.2664  0.2097  0.4680
47987ION     CL56787   1.758   2.187   4.947 -0.1540 -0.0547 -0.1236
47988ION     CL56788   9.155   5.242  19.312  0.1216  0.2012  0.1493
47989ION     CL56789   0.749   3.671  36.037  0.3198 -0.0116  0.2586
47990ION     CL56790  15.131   5.495   3.119  0.1491  0.4725 -0.4682
47991ION     CL56791  18.746   3.512  43.654 -0.0010  0.2723 -0.3243
47992ION     CL56792   3.902   2.006  44.470  0.1978  0.0516  0.1629
47993ION     CL56793  12.102   6.131   6.200  0.1801 -0.1368 -0.1939
47994ION     CL56794  12.723   5.551  34.767  0.1618  0.3172 -0.1282
47995ION     CL56795   6.048   5.275  34.550  0.0525  0.0602 -0.1142
47996ION     CL56796   9.866   0.895   9.867 -0.3759 -0.1777 -0.3230
  21.13786   6.60186  45.07890
