Written by MDAnalysis
 9600
    1DPPC   NC3    1  18.255   4.934  12.429
    1DPPC   PO4    2  18.325   4.984  12.039
    1DPPC   GL1    3  17.865   4.904  11.959
    1DPPC   GL2    4  17.925   4.684  11.839
    1DPPC   C1A    5  17.655   5.094  11.699
    1DPPC   C2A    6  17.435   5.104  11.389
    1DPPC   C3A    7  17.105   5.124  11.049
    1DPPC   C4A    8  16.755   5.044  10.649
    1DPPC   C1B    9  17.695   4.664  11.559
    1DPPC   C2B   10  17.505   4.674  11.189
    1DPPC   C3B   11  17.135   4.644  10.879
    1DPPC   C4B   12  16.795   4.564  10.549
    2DPPC   NC3   13  17.775   5.484  12.809
    2DPPC   PO4   14  17.815   5.064  12.679
    2DPPC   GL1   15  17.635   5.004  12.309
    2DPPC   GL2   16  17.465   5.214  12.259
    2DPPC   C1A   17  17.505   4.734  12.039
    2DPPC   C2A   18  17.285   4.634  11.689
    2DPPC   C3A   19  16.945   4.684  11.389
    2DPPC   C4A   20  16.635   4.624  11.019
    2DPPC   C1B   21  17.275   5.124  11.979
    2DPPC   C2B   22  17.055   5.114  11.669
    2DPPC   C3B   23  16.655   5.094  11.319
    2DPPC   C4B   24  16.325   5.014  10.909
    3DPPC   NC3   25  20.305   2.164  14.479
    3DPPC   PO4   26  20.425   2.174  14.079
    3DPPC   GL1   27  20.805   2.154  13.819
    3DPPC   GL2   28  20.665   2.474  13.819
    3DPPC   C1A   29  21.015   2.084  13.549
    3DPPC   C2A   30   0.105   2.244  13.249
    3DPPC   C3A   31   0.415   2.244  12.849
    3DPPC   C4A   32   0.775   2.224  12.509
    3DPPC   C1B   33  20.895   2.584  13.539
    3DPPC   C2B   34  21.055   2.744  13.189
    3DPPC   C3B   35   0.235   2.704  12.879
    3DPPC   C4B   36   0.535   2.654  12.509
    4DPPC   NC3   37  20.695   4.124  14.739
    4DPPC   PO4   38  20.925   4.064  14.399
    4DPPC   GL1   39   0.135   4.254  14.259
    4DPPC   GL2   40   0.025   4.414  14.149
    4DPPC   C1A   41   0.465   4.274  14.019
    4DPPC   C2A   42   0.685   4.224  13.669
    4DPPC   C3A   43   1.045   4.254  13.339
    4DPPC   C4A   44   1.265   4.264  12.919
    4DPPC   C1B   45   0.205   4.614  13.939
    4DPPC   C2B   46   0.455   4.684  13.649
    4DPPC   C3B   47   0.775   4.754  13.299
    4DPPC   C4B   48   1.085   4.744  12.879
    5DPPC   NC3   49  17.885   6.254  12.789
    5DPPC   PO4   50  17.795   6.004  13.019
    5DPPC   GL1   51  17.415   5.864  12.839
    5DPPC   GL2   52  17.425   6.104  12.679
    5DPPC   C1A   53  17.115   5.674  12.699
    5DPPC   C2A   54  16.765   5.664  12.429
    5DPPC   C3A   55  16.465   5.624  12.119
    5DPPC   C4A   56  16.095   5.664  11.779
    5DPPC   C1B   57  17.205   6.014  12.419
    5DPPC   C2B   58  16.935   6.084  12.129
    5DPPC   C3B   59  16.605   6.074  11.829
    5DPPC   C4B   60  16.245   6.024  11.409
    6DPPC   NC3   61  20.085   3.734  12.849
    6DPPC   PO4   62  19.875   3.734  12.529
    6DPPC   GL1   63  20.245   3.764  12.309
    6DPPC   GL2   64  20.235   3.434  12.359
    6DPPC   C1A   65  20.405   3.784  12.019
    6DPPC   C2A   66  20.685   3.814  11.669
    6DPPC   C3A   67  20.875   3.934  11.249
    6DPPC   C4A   68  20.975   3.964  10.749
    6DPPC   C1B   69  20.575   3.394  12.159
    6DPPC   C2B   70  20.735   3.344  11.829
    6DPPC   C3B   71  21.025   3.324  11.429
    6DPPC   C4B   72  21.145   3.514  11.009
    7DPPC   NC3   73   0.205   2.384  15.559
    7DPPC   PO4   74   0.075   2.364  15.159
    7DPPC   GL1   75   0.325   2.174  14.909
    7DPPC   GL2   76   0.405   1.904  14.989
    7DPPC   C1A   77   0.605   2.274  14.709
    7DPPC   C2A   78   0.885   2.324  14.449
    7DPPC   C3A   79   1.155   2.334  14.069
    7DPPC   C4A   80   1.485   2.414  13.689
    7DPPC   C1B   81   0.695   1.824  14.769
    7DPPC   C2B   82   1.055   1.804  14.579
    7DPPC   C3B   83   1.385   1.874  14.229
    7DPPC   C4B   84   1.615   1.884  13.819
    8DPPC   NC3   85  20.165   4.324  13.099
    8DPPC   PO4   86  19.905   4.244  12.819
    8DPPC   GL1   87  20.095   4.144  12.519
    8DPPC   GL2   88  20.405   4.184  12.639
    8DPPC   C1A   89  20.125   4.114  12.149
    8DPPC   C2A   90  20.255   4.284  11.799
    8DPPC   C3A   91  20.535   4.274  11.399
    8DPPC   C4A   92  20.895   4.354  11.059
    8DPPC   C1B   93  20.535   4.124  12.299
    8DPPC   C2B   94  20.735   4.184  11.949
    8DPPC   C3B   95  21.055   4.234  11.579
    8DPPC   C4B   96   0.185   4.174  11.229
    9DPPC   NC3   97  19.685   2.984  13.269
    9DPPC   PO4   98  20.075   2.944  13.079
    9DPPC   GL1   99  20.315   3.054  12.709
    9DPPC   GL2  100  20.285   3.294  12.769
    9DPPC   C1A  101  20.565   3.064  12.439
    9DPPC   C2A  102  20.685   2.924  12.079
    9DPPC   C3A  103  20.965   2.904  11.729
    9DPPC   C4A  104   0.095   2.854  11.359
    9DPPC   C1B  105  20.505   3.524  12.639
    9DPPC   C2B  106  20.775   3.694  12.429
    9DPPC   C3B  107  21.035   3.714  12.009
    9DPPC   C4B  108   0.125   3.794  11.559
   10DPPC   NC3  109  19.085   5.124  12.219
   10DPPC   PO4  110  19.205   5.234  11.859
   10DPPC   GL1  111  19.535   5.134  11.549
   10DPPC   GL2  112  19.595   4.884  11.719
   10DPPC   C1A  113  19.695   5.224  11.209
   10DPPC   C2A  114  19.925   5.344  10.939
   10DPPC   C3A  115  20.225   5.194  10.509
   10DPPC   C4A  116  20.365   5.304  10.099
   10DPPC   C1B  117  19.785   4.814  11.449
   10DPPC   C2B  118  20.025   4.854  11.129
   10DPPC   C3B  119  20.345   4.854  10.799
   10DPPC   C4B  120  20.645   4.894  10.339
   11DPPC   NC3  121  18.495   5.744  11.199
   11DPPC   PO4  122  18.385   6.074  11.369
   11DPPC   GL1  123  17.925   6.154  11.349
   11DPPC   GL2  124  18.065   6.014  11.139
   11DPPC   C1A  125  17.635   6.244  11.159
   11DPPC   C2A  126  17.425   6.344  10.809
   11DPPC   C3A  127  17.125   6.244  10.449
   11DPPC   C4A  128  16.765   6.044  10.179
   11DPPC   C1B  129  17.795   5.864  10.929
   11DPPC   C2B  130  17.565   5.884  10.609
   11DPPC   C3B  131  17.245   5.814  10.279
   11DPPC   C4B  132  16.995   5.724   9.879
   12DPPC   NC3  133  18.205   2.324  12.749
   12DPPC   PO4  134  18.385   2.164  12.459
   12DPPC   GL1  135  18.155   2.104  12.089
   12DPPC   GL2  136  18.445   1.984  11.989
   12DPPC   C1A  137  17.935   2.114  11.849
   12DPPC   C2A  138  17.725   2.354  11.569
   12DPPC   C3A  139  17.285   2.354  11.319
   12DPPC   C4A  140  16.995   2.394  10.929
   12DPPC   C1B  141  18.305   1.954  11.659
   12DPPC   C2B  142  18.095   1.944  11.339
   12DPPC   C3B  143  17.925   1.844  10.859
   12DPPC   C4B  144  17.495   1.794  10.629
   13DPPC   NC3  145  18.755   4.904  11.719
   13DPPC   PO4  146  18.515   4.674  11.499
   13DPPC   GL1  147  18.125   4.714  11.209
   13DPPC   GL2  148  18.095   4.554  11.429
   13DPPC   C1A  149  17.885   4.614  10.909
   13DPPC   C2A  150  17.705   4.424  10.609
   13DPPC   C3A  151  17.615   3.964  10.399
   13DPPC   C4A  152  17.815   3.524  10.399
   13DPPC   C1B  153  17.865   4.274  11.259
   13DPPC   C2B  154  17.975   4.074  10.849
   13DPPC   C3B  155  18.135   3.944  10.359
   13DPPC   C4B  156  18.235   3.704   9.939
   14DPPC   NC3  157  20.235   2.734  13.969
   14DPPC   PO4  158  20.475   2.634  14.259
   14DPPC   GL1  159  20.825   2.634  14.189
   14DPPC   GL2  160  21.015   2.674  14.349
   14DPPC   C1A  161  21.095   2.464  13.999
   14DPPC   C2A  162   0.145   2.544  13.669
   14DPPC   C3A  163   0.425   2.614  13.319
   14DPPC   C4A  164   0.745   2.594  12.999
   14DPPC   C1B  165   0.155   2.804  14.129
   14DPPC   C2B  166   0.465   2.924  13.889
   14DPPC   C3B  167   0.765   2.944  13.539
   14DPPC   C4B  168   1.095   2.934  13.079
   15DPPC   NC3  169  19.375   0.736  12.969
   15DPPC   PO4  170  19.665   0.946  12.779
   15DPPC   GL1  171  19.805   0.936  12.339
   15DPPC   GL2  172  20.035   1.106  12.379
   15DPPC   C1A  173  20.025   0.766  12.059
   15DPPC   C2A  174  20.255   0.796  11.659
   15DPPC   C3A  175  20.495   0.796  11.229
   15DPPC   C4A  176  20.715   0.746  10.799
   15DPPC   C1B  177  20.225   1.264  12.129
   15DPPC   C2B  178  20.555   1.184  11.889
   15DPPC   C3B  179  20.765   1.204  11.489
   15DPPC   C4B  180  20.945   1.174  11.039
   16DPPC   NC3  181  19.595   6.464  13.699
   16DPPC   PO4  182  19.715   6.154  13.519
   16DPPC   GL1  183  19.965   6.144  13.179
   16DPPC   GL2  184  19.925   5.904  13.039
   16DPPC   C1A  185  20.255   6.374  13.009
   16DPPC   C2A  186  20.485   6.354  12.649
   16DPPC   C3A  187  20.735   6.334  12.289
   16DPPC   C4A  188  21.075   6.414  11.949
   16DPPC   C1B  189  20.265   5.894  12.929
   16DPPC   C2B  190  20.645   5.844  12.739
   16DPPC   C3B  191  20.835   5.804  12.349
   16DPPC   C4B  192  21.135   5.894  12.029
   17DPPC   NC3  193  20.295   1.644  14.079
   17DPPC   PO4  194  20.195   1.494  13.699
   17DPPC   GL1  195  20.405   1.454  13.299
   17DPPC   GL2  196  20.215   1.514  13.049
   17DPPC   C1A  197  20.725   1.544  13.039
   17DPPC   C2A  198  20.915   1.484  12.709
   17DPPC   C3A  199  21.165   1.484  12.339
   17DPPC   C4A  200   0.335   1.524  11.979
   17DPPC   C1B  201  20.355   1.504  12.719
   17DPPC   C2B  202  20.525   1.554  12.319
   17DPPC   C3B  203  20.845   1.604  11.989
   17DPPC   C4B  204  21.125   1.534  11.529
   18DPPC   NC3  205  18.125   5.424  11.879
   18DPPC   PO4  206  18.095   5.654  11.549
   18DPPC   GL1  207  17.855   5.474  11.269
   18DPPC   GL2  208  18.175   5.334  11.139
   18DPPC   C1A  209  17.515   5.554  11.019
   18DPPC   C2A  210  17.245   5.504  10.689
   18DPPC   C3A  211  16.995   5.394  10.309
   18DPPC   C4A  212  16.685   5.064  10.099
   18DPPC   C1B  213  17.875   5.094  11.059
   18DPPC   C2B  214  17.525   4.974  10.839
   18DPPC   C3B  215  17.275   4.794  10.429
   18DPPC   C4B  216  17.015   4.604  10.029
   19DPPC   NC3  217  20.095   1.944  13.319
   19DPPC   PO4  218  19.895   1.824  13.019
   19DPPC   GL1  219  20.205   1.934  12.779
   19DPPC   GL2  220  20.435   1.964  12.999
   19DPPC   C1A  221  20.395   1.964  12.489
   19DPPC   C2A  222  20.575   2.054  12.139
   19DPPC   C3A  223  20.765   1.994  11.679
   19DPPC   C4A  224  21.055   1.954  11.329
   19DPPC   C1B  225  20.685   1.924  12.769
   19DPPC   C2B  226  20.935   1.924  12.459
   19DPPC   C3B  227  21.095   2.004  12.029
   19DPPC   C4B  228   0.265   1.944  11.699
   20DPPC   NC3  229   0.725   0.886  16.409
   20DPPC   PO4  230   0.565   0.796  16.019
   20DPPC   GL1  231   0.905   0.616  15.739
   20DPPC   GL2  232   0.825   0.896  15.589
   20DPPC   C1A  233   1.245   0.736  15.629
   20DPPC   C2A  234   1.475   0.806  15.299
   20DPPC   C3A  235   1.725   0.796  14.899
   20DPPC   C4A  236   2.065   0.836  14.539
   20DPPC   C1B  237   1.075   1.096  15.409
   20DPPC   C2B  238   1.355   1.254  15.129
   20DPPC   C3B  239   1.665   1.294  14.759
   20DPPC   C4B  240   1.955   1.334  14.369
   21DPPC   NC3  241   0.645   3.044  15.339
   21DPPC   PO4  242   0.465   2.794  15.579
   21DPPC   GL1  243   0.675   2.454  15.499
   21DPPC   GL2  244   0.585   2.514  15.179
   21DPPC   C1A  245   0.985   2.304  15.529
   21DPPC   C2A  246   1.315   2.184  15.339
   21DPPC   C3A  247   1.615   2.204  15.009
   21DPPC   C4A  248   1.915   2.194  14.639
   21DPPC   C1B  249   0.845   2.584  14.939
   21DPPC   C2B  250   1.115   2.704  14.599
   21DPPC   C3B  251   1.445   2.744  14.229
   21DPPC   C4B  252   1.745   2.804  13.869
   22DPPC   NC3  253  19.615   1.904  14.039
   22DPPC   PO4  254  19.985   1.974  13.849
   22DPPC   GL1  255  20.445   1.884  13.699
   22DPPC   GL2  256  20.365   2.194  13.609
   22DPPC   C1A  257  20.655   1.824  13.409
   22DPPC   C2A  258  20.955   1.884  13.169
   22DPPC   C3A  259   0.095   1.894  12.839
   22DPPC   C4A  260   0.365   1.814  12.379
   22DPPC   C1B  261  20.585   2.304  13.349
   22DPPC   C2B  262  20.875   2.334  13.029
   22DPPC   C3B  263   0.025   2.294  12.629
   22DPPC   C4B  264   0.305   2.274  12.199
   23DPPC   NC3  265  19.965   0.206  13.799
   23DPPC   PO4  266  20.095   6.454  13.879
   23DPPC   GL1  267  20.355   6.584  13.599
   23DPPC   GL2  268  20.335   0.226  13.469
   23DPPC   C1A  269  20.495   6.264  13.439
   23DPPC   C2A  270  20.695   6.254  13.109
   23DPPC   C3A  271  20.995   6.294  12.739
   23DPPC   C4A  272   0.095   6.304  12.369
   23DPPC   C1B  273  20.545   0.036  13.209
   23DPPC   C2B  274  20.735   0.166  12.889
   23DPPC   C3B  275  20.985   0.126  12.459
   23DPPC   C4B  276   0.115   0.226  12.049
   24DPPC   NC3  277  19.825   5.024  13.599
   24DPPC   PO4  278  20.225   4.994  13.689
   24DPPC   GL1  279  20.505   5.024  13.349
   24DPPC   GL2  280  20.515   5.294  13.359
   24DPPC   C1A  281  20.775   4.894  13.119
   24DPPC   C2A  282  21.005   4.964  12.819
   24DPPC   C3A  283   0.185   4.924  12.519
   24DPPC   C4A  284   0.405   5.004  12.089
   24DPPC   C1B  285  20.735   5.364  13.039
   24DPPC   C2B  286  20.925   5.404  12.649
   24DPPC   C3B  287   0.025   5.414  12.229
   24DPPC   C4B  288   0.375   5.514  11.959
   25DPPC   NC3  289  19.935   2.314  12.759
   25DPPC   PO4  290  20.085   2.674  12.639
   25DPPC   GL1  291  20.295   2.774  12.359
   25DPPC   GL2  292  20.125   3.044  12.199
   25DPPC   C1A  293  20.425   2.474  12.149
   25DPPC   C2A  294  20.615   2.494  11.809
   25DPPC   C3A  295  20.835   2.454  11.399
   25DPPC   C4A  296  21.025   2.404  10.969
   25DPPC   C1B  297  20.235   3.224  11.899
   25DPPC   C2B  298  20.325   3.434  11.539
   25DPPC   C3B  299  20.585   3.474  11.159
   25DPPC   C4B  300  20.805   3.434  10.679
   26DPPC   NC3  301  18.555   2.614  12.429
   26DPPC   PO4  302  18.125   2.644  12.349
   26DPPC   GL1  303  17.985   2.814  12.009
   26DPPC   GL2  304  17.785   2.974  12.289
   26DPPC   C1A  305  17.695   2.824  11.759
   26DPPC   C2A  306  17.345   2.794  11.489
   26DPPC   C3A  307  16.925   2.834  11.199
   26DPPC   C4A  308  16.705   2.824  10.749
   26DPPC   C1B  309  17.435   2.914  12.239
   26DPPC   C2B  310  17.135   2.904  11.939
   26DPPC   C3B  311  16.785   2.934  11.679
   26DPPC   C4B  312  16.475   2.964  11.349
   27DPPC   NC3  313  19.285   2.864  11.899
   27DPPC   PO4  314  19.505   2.494  11.909
   27DPPC   GL1  315  19.815   2.444  11.679
   27DPPC   GL2  316  19.725   2.234  11.559
   27DPPC   C1A  317  20.105   2.544  11.539
   27DPPC   C2A  318  20.365   2.524  11.159
   27DPPC   C3A  319  20.565   2.544  10.729
   27DPPC   C4A  320  20.885   2.644  10.459
   27DPPC   C1B  321  19.935   2.194  11.239
   27DPPC   C2B  322  20.105   2.164  10.859
   27DPPC   C3B  323  20.315   2.114  10.409
   27DPPC   C4B  324  20.525   1.914   9.959
   28DPPC   NC3  325  18.795   3.374  12.009
   28DPPC   PO4  326  18.525   3.504  11.719
   28DPPC   GL1  327  18.535   3.694  11.289
   28DPPC   GL2  328  18.305   3.574  11.279
   28DPPC   C1A  329  18.815   3.614  11.019
   28DPPC   C2A  330  19.095   3.664  10.729
   28DPPC   C3A  331  19.225   3.564  10.329
   28DPPC   C4A  332  19.445   3.624   9.879
   28DPPC   C1B  333  17.995   3.644  11.119
   28DPPC   C2B  334  17.655   3.524  10.869
   28DPPC   C3B  335  17.335   3.644  10.549
   28DPPC   C4B  336  16.945   3.674  10.259
   29DPPC   NC3  337  20.485   6.374  15.089
   29DPPC   PO4  338  20.815   6.294  14.849
   29DPPC   GL1  339  21.085   6.334  14.559
   29DPPC   GL2  340  20.865   6.294  14.329
   29DPPC   C1A  341   0.175   6.264  14.369
   29DPPC   C2A  342   0.405   6.444  14.109
   29DPPC   C3A  343   0.755   6.444  13.789
   29DPPC   C4A  344   1.065   6.464  13.389
   29DPPC   C1B  345  20.985   6.464  14.059
   29DPPC   C2B  346   0.085   6.604  13.779
   29DPPC   C3B  347   0.395   6.564  13.399
   29DPPC   C4B  348   0.715   6.554  13.009
   30DPPC   NC3  349  20.675   0.886  15.179
   30DPPC   PO4  350  20.825   1.006  14.859
   30DPPC   GL1  351  21.155   1.164  14.599
   30DPPC   GL2  352  20.985   1.046  14.359
   30DPPC   C1A  353   0.265   1.096  14.369
   30DPPC   C2A  354   0.545   1.016  14.079
   30DPPC   C3A  355   0.865   1.096  13.669
   30DPPC   C4A  356   1.165   1.154  13.319
   30DPPC   C1B  357  21.165   0.886  14.129
   30DPPC   C2B  358   0.215   0.746  13.799
   30DPPC   C3B  359   0.515   0.816  13.499
   30DPPC   C4B  360   0.855   0.816  13.099
   31DPPC   NC3  361  18.765   0.666  11.649
   31DPPC   PO4  362  18.485   0.906  11.779
   31DPPC   GL1  363  18.345   0.976  11.409
   31DPPC   GL2  364  18.615   1.164  11.319
   31DPPC   C1A  365  18.075   1.026  11.169
   31DPPC   C2A  366  17.715   0.956  11.049
   31DPPC   C3A  367  17.355   0.976  10.739
   31DPPC   C4A  368  17.105   1.056  10.329
   31DPPC   C1B  369  18.585   1.116  10.929
   31DPPC   C2B  370  18.695   1.154  10.529
   31DPPC   C3B  371  18.755   1.154  10.039
   31DPPC   C4B  372  19.085   1.126   9.709
   32DPPC   NC3  373  21.075   3.754  14.819
   32DPPC   PO4  374  21.015   3.584  14.469
   32DPPC   GL1  375   0.015   3.714  14.059
   32DPPC   GL2  376   0.275   3.564  14.139
   32DPPC   C1A  377   0.195   3.914  13.799
   32DPPC   C2A  378   0.375   3.874  13.439
   32DPPC   C3A  379   0.745   3.884  13.179
   32DPPC   C4A  380   0.975   3.924  12.789
   32DPPC   C1B  381   0.315   3.474  13.759
   32DPPC   C2B  382   0.625   3.484  13.539
   32DPPC   C3B  383   0.885   3.424  13.139
   32DPPC   C4B  384   1.115   3.444  12.659
   33DPPC   NC3  385  18.175   5.664  12.999
   33DPPC   PO4  386  18.115   5.814  12.649
   33DPPC   GL1  387  17.795   5.844  12.539
   33DPPC   GL2  388  17.755   6.114  12.359
   33DPPC   C1A  389  17.485   5.674  12.419
   33DPPC   C2A  390  17.195   5.614  12.159
   33DPPC   C3A  391  16.855   5.614  11.799
   33DPPC   C4A  392  16.495   5.574  11.439
   33DPPC   C1B  393  17.505   6.044  12.119
   33DPPC   C2B  394  17.235   5.994  11.779
   33DPPC   C3B  395  16.905   5.984  11.449
   33DPPC   C4B  396  16.605   5.894  11.109
   34DPPC   NC3  397  20.815   4.654  15.079
   34DPPC   PO4  398   0.015   4.654  15.229
   34DPPC   GL1  399   0.365   4.644  14.949
   34DPPC   GL2  400   0.225   4.684  14.709
   34DPPC   C1A  401   0.655   4.804  14.809
   34DPPC   C2A  402   0.745   5.034  14.469
   34DPPC   C3A  403   1.055   5.084  14.129
   34DPPC   C4A  404   1.335   5.114  13.749
   34DPPC   C1B  405   0.365   4.694  14.349
   34DPPC   C2B  406   0.735   4.684  14.119
   34DPPC   C3B  407   0.985   4.654  13.739
   34DPPC   C4B  408   1.335   4.634  13.419
   35DPPC   NC3  409  20.485   0.896  14.509
   35DPPC   PO4  410  20.595   1.244  14.339
   35DPPC   GL1  411  20.805   1.264  13.969
   35DPPC   GL2  412  20.665   1.464  13.799
   35DPPC   C1A  413  21.105   1.174  13.829
   35DPPC   C2A  414   0.295   1.264  13.659
   35DPPC   C3A  415   0.555   1.264  13.189
   35DPPC   C4A  416   0.955   1.354  12.849
   35DPPC   C1B  417  20.845   1.394  13.489
   35DPPC   C2B  418   0.025   1.394  13.249
   35DPPC   C3B  419   0.255   1.404  12.799
   35DPPC   C4B  420   0.585   1.384  12.469
   36DPPC   NC3  421  19.385   5.854  11.919
   36DPPC   PO4  422  19.175   6.234  11.849
   36DPPC   GL1  423  19.365   6.234  11.499
   36DPPC   GL2  424  19.595   6.214  11.609
   36DPPC   C1A  425  19.405   6.324  11.149
   36DPPC   C2A  426  19.605   6.204  10.819
   36DPPC   C3A  427  19.845   6.234  10.429
   36DPPC   C4A  428  20.055   6.244   9.929
   36DPPC   C1B  429  19.865   6.114  11.339
   36DPPC   C2B  430  20.115   6.184  10.999
   36DPPC   C3B  431  20.425   6.084  10.639
   36DPPC   C4B  432  20.745   5.814  10.359
   37DPPC   NC3  433  17.655   4.604  12.609
   37DPPC   PO4  434  17.945   4.624  12.319
   37DPPC   GL1  435  17.755   4.354  12.089
   37DPPC   GL2  436  17.515   4.334  12.279
   37DPPC   C1A  437  17.515   4.264  11.809
   37DPPC   C2A  438  17.315   4.244  11.439
   37DPPC   C3A  439  17.025   4.184  11.089
   37DPPC   C4A  440  16.635   4.164  10.809
   37DPPC   C1B  441  17.185   4.344  12.169
   37DPPC   C2B  442  16.945   4.324  11.809
   37DPPC   C3B  443  16.625   4.274  11.459
   37DPPC   C4B  444  16.245   4.344  11.129
   38DPPC   NC3  445  19.415   1.354  12.619
   38DPPC   PO4  446  19.665   1.444  12.269
   38DPPC   GL1  447  19.705   1.224  12.009
   38DPPC   GL2  448  19.585   1.244  11.739
   38DPPC   C1A  449  20.005   1.184  11.769
   38DPPC   C2A  450  20.185   1.234  11.419
   38DPPC   C3A  451  20.435   1.304  11.009
   38DPPC   C4A  452  20.725   1.274  10.579
   38DPPC   C1B  453  19.645   1.264  11.409
   38DPPC   C2B  454  19.785   1.344  11.039
   38DPPC   C3B  455  20.095   1.384  10.689
   38DPPC   C4B  456  20.325   1.394  10.189
   39DPPC   NC3  457   0.355   5.284  16.019
   39DPPC   PO4  458   0.745   5.334  16.049
   39DPPC   GL1  459   0.955   5.084  15.699
   39DPPC   GL2  460   0.925   5.344  15.569
   39DPPC   C1A  461   1.155   4.884  15.459
   39DPPC   C2A  462   1.455   4.814  15.189
   39DPPC   C3A  463   1.755   4.834  14.809
   39DPPC   C4A  464   2.085   4.844  14.439
   39DPPC   C1B  465   1.185   5.284  15.269
   39DPPC   C2B  466   1.435   5.244  14.959
   39DPPC   C3B  467   1.695   5.354  14.589
   39DPPC   C4B  468   2.005   5.294  14.159
   40DPPC   NC3  469  19.845   0.816  13.239
   40DPPC   PO4  470  20.005   0.526  13.439
   40DPPC   GL1  471  20.215   0.446  13.069
   40DPPC   GL2  472  20.105   0.196  13.019
   40DPPC   C1A  473  20.515   0.596  12.829
   40DPPC   C2A  474  20.785   0.586  12.529
   40DPPC   C3A  475  21.065   0.636  12.169
   40DPPC   C4A  476   0.105   0.636  11.759
   40DPPC   C1B  477  20.325   0.186  12.689
   40DPPC   C2B  478  20.545   0.186  12.359
   40DPPC   C3B  479  20.725   0.246  11.949
   40DPPC   C4B  480  21.085   0.236  11.529
   41DPPC   NC3  481  19.125   5.584  13.159
   41DPPC   PO4  482  19.455   5.524  12.959
   41DPPC   GL1  483  19.815   5.394  12.679
   41DPPC   GL2  484  19.935   5.514  12.929
   41DPPC   C1A  485  19.965   5.534  12.349
   41DPPC   C2A  486  20.155   5.544  11.969
   41DPPC   C3A  487  20.445   5.614  11.619
   41DPPC   C4A  488  20.795   5.554  11.329
   41DPPC   C1B  489  20.265   5.484  12.799
   41DPPC   C2B  490  20.405   5.454  12.419
   41DPPC   C3B  491  20.685   5.454  12.019
   41DPPC   C4B  492  21.105   5.504  11.719
   42DPPC   NC3  493   0.245   5.034  15.119
   42DPPC   PO4  494   0.285   5.424  15.099
   42DPPC   GL1  495   0.175   5.594  14.779
   42DPPC   GL2  496  21.135   5.514  14.619
   42DPPC   C1A  497   0.295   5.814  14.509
   42DPPC   C2A  498   0.555   5.964  14.209
   42DPPC   C3A  499   0.825   5.954  13.789
   42DPPC   C4A  500   1.225   5.984  13.409
   42DPPC   C1B  501   0.025   5.414  14.279
   42DPPC   C2B  502   0.255   5.564  13.989
   42DPPC   C3B  503   0.565   5.594  13.629
   42DPPC   C4B  504   0.865   5.584  13.299
   43DPPC   NC3  505  19.605   5.854  12.659
   43DPPC   PO4  506  19.425   5.584  12.419
   43DPPC   GL1  507  19.545   5.304  12.169
   43DPPC   GL2  508  19.755   5.144  12.199
   43DPPC   C1A  509  19.685   5.544  11.939
   43DPPC   C2A  510  19.855   5.724  11.619
   43DPPC   C3A  511  20.135   5.704  11.229
   43DPPC   C4A  512  20.355   5.614  10.819
   43DPPC   C1B  513  19.905   5.184  11.849
   43DPPC   C2B  514  20.025   5.214  11.469
   43DPPC   C3B  515  20.435   5.264  11.169
   43DPPC   C4B  516  20.735   5.134  10.809
   44DPPC   NC3  517  18.405   5.884  11.849
   44DPPC   PO4  518  18.425   5.694  12.189
   44DPPC   GL1  519  17.915   5.774  12.109
   44DPPC   GL2  520  17.985   5.904  11.899
   44DPPC   C1A  521  17.635   5.644  12.009
   44DPPC   C2A  522  17.385   5.524  11.719
   44DPPC   C3A  523  17.105   5.534  11.329
   44DPPC   C4A  524  16.735   5.434  10.949
   44DPPC   C1B  525  17.705   5.954  11.719
   44DPPC   C2B  526  17.445   5.874  11.359
   44DPPC   C3B  527  17.125   5.884  10.999
   44DPPC   C4B  528  16.835   5.874  10.639
   45DPPC   NC3  529  18.945   6.604  12.059
   45DPPC   PO4  530  19.165   0.006  12.379
   45DPPC   GL1  531  19.665   0.016  12.309
   45DPPC   GL2  532  19.585   6.374  12.369
   45DPPC   C1A  533  19.875   0.006  11.959
   45DPPC   C2A  534  20.075   6.474  11.609
   45DPPC   C3A  535  20.365   6.544  11.239
   45DPPC   C4A  536  20.575   6.504  10.829
   45DPPC   C1B  537  19.725   6.224  12.049
   45DPPC   C2B  538  20.015   6.084  11.889
   45DPPC   C3B  539  20.315   6.074  11.579
   45DPPC   C4B  540  20.555   6.034  11.189
   46DPPC   NC3  541  20.755   2.964  13.899
   46DPPC   PO4  542  20.415   3.164  13.759
   46DPPC   GL1  543  20.535   3.034  13.389
   46DPPC   GL2  544  20.825   3.024  13.449
   46DPPC   C1A  545  20.575   3.184  13.069
   46DPPC   C2A  546  20.835   3.234  12.719
   46DPPC   C3A  547  21.035   3.294  12.299
   46DPPC   C4A  548   0.185   3.244  11.939
   46DPPC   C1B  549  20.985   3.194  13.179
   46DPPC   C2B  550   0.085   3.124  12.939
   46DPPC   C3B  551   0.345   3.174  12.509
   46DPPC   C4B  552   0.675   3.224  12.149
   47DPPC   NC3  553  18.205   0.696  12.089
   47DPPC   PO4  554  18.155   0.356  12.319
   47DPPC   GL1  555  17.775   0.316  12.159
   47DPPC   GL2  556  17.575   0.396  12.329
   47DPPC   C1A  557  17.725   0.426  11.799
   47DPPC   C2A  558  17.685   0.526  11.379
   47DPPC   C3A  559  17.325   0.556  11.029
   47DPPC   C4A  560  17.015   0.636  10.709
   47DPPC   C1B  561  17.335   0.576  12.069
   47DPPC   C2B  562  17.135   0.626  11.709
   47DPPC   C3B  563  16.785   0.676  11.399
   47DPPC   C4B  564  16.505   0.686  10.989
   48DPPC   NC3  565  18.295   2.554  11.859
   48DPPC   PO4  566  18.565   2.754  11.639
   48DPPC   GL1  567  18.585   2.534  11.259
   48DPPC   GL2  568  18.355   2.364  11.409
   48DPPC   C1A  569  18.635   2.524  10.919
   48DPPC   C2A  570  18.665   2.504  10.479
   48DPPC   C3A  571  18.815   2.414  10.009
   48DPPC   C4A  572  18.985   2.474   9.539
   48DPPC   C1B  573  18.075   2.364  11.199
   48DPPC   C2B  574  17.715   2.244  11.039
   48DPPC   C3B  575  17.455   2.334  10.699
   48DPPC   C4B  576  17.185   2.174  10.299
   49DPPC   NC3  577   0.485   4.644  15.409
   49DPPC   PO4  578   0.525   5.014  15.549
   49DPPC   GL1  579   0.715   5.044  15.199
   49DPPC   GL2  580   0.745   5.314  15.169
   49DPPC   C1A  581   1.015   4.944  15.009
   49DPPC   C2A  582   1.235   4.944  14.639
   49DPPC   C3A  583   1.575   4.944  14.289
   49DPPC   C4A  584   1.875   4.964  13.869
   49DPPC   C1B  585   0.795   5.364  14.799
   49DPPC   C2B  586   1.055   5.424  14.529
   49DPPC   C3B  587   1.375   5.444  14.169
   49DPPC   C4B  588   1.715   5.464  13.829
   50DPPC   NC3  589  19.455   4.814  12.219
   50DPPC   PO4  590  19.205   4.734  11.909
   50DPPC   GL1  591  19.225   4.764  11.559
   50DPPC   GL2  592  19.425   4.484  11.539
   50DPPC   C1A  593  19.365   4.874  11.239
   50DPPC   C2A  594  19.615   4.884  10.919
   50DPPC   C3A  595  19.875   4.804  10.549
   50DPPC   C4A  596  19.965   4.844  10.079
   50DPPC   C1B  597  19.565   4.454  11.199
   50DPPC   C2B  598  19.835   4.434  10.909
   50DPPC   C3B  599  20.065   4.344  10.519
   50DPPC   C4B  600  20.085   4.284   9.999
   51DPPC   NC3  601  20.305   4.584  13.989
   51DPPC   PO4  602  20.525   4.874  14.079
   51DPPC   GL1  603  20.655   4.824  13.709
   51DPPC   GL2  604  20.785   5.134  13.699
   51DPPC   C1A  605  20.975   4.724  13.559
   51DPPC   C2A  606   0.085   4.854  13.259
   51DPPC   C3A  607   0.425   4.824  12.949
   51DPPC   C4A  608   0.675   4.794  12.509
   51DPPC   C1B  609  20.995   5.264  13.459
   51DPPC   C2B  610   0.025   5.334  13.129
   51DPPC   C3B  611   0.335   5.384  12.779
   51DPPC   C4B  612   0.615   5.304  12.419
   52DPPC   NC3  613  19.135   0.066  12.869
   52DPPC   PO4  614  19.285   6.334  12.759
   52DPPC   GL1  615  19.705   6.294  12.839
   52DPPC   GL2  616  19.795   6.524  12.799
   52DPPC   C1A  617  19.975   6.124  12.679
   52DPPC   C2A  618  20.255   5.914  12.389
   52DPPC   C3A  619  20.565   5.974  11.999
   52DPPC   C4A  620  20.875   5.994  11.599
   52DPPC   C1B  621  20.045   6.494  12.499
   52DPPC   C2B  622  20.245   6.394  12.169
   52DPPC   C3B  623  20.545   6.424  11.799
   52DPPC   C4B  624  20.835   6.474  11.439
   53DPPC   NC3  625  19.155   0.476  12.239
   53DPPC   PO4  626  19.085   0.426  11.859
   53DPPC   GL1  627  19.225   0.536  11.529
   53DPPC   GL2  628  19.035   0.466  11.359
   53DPPC   C1A  629  19.525   0.576  11.339
   53DPPC   C2A  630  19.785   0.536  11.019
   53DPPC   C3A  631  19.975   0.536  10.549
   53DPPC   C4A  632  20.255   0.396  10.189
   53DPPC   C1B  633  19.085   0.626  11.069
   53DPPC   C2B  634  19.355   0.596  10.779
   53DPPC   C3B  635  19.495   0.636  10.359
   53DPPC   C4B  636  19.775   0.516   9.959
   54DPPC   NC3  637  20.565   0.096  14.689
   54DPPC   PO4  638  20.945   0.136  14.549
   54DPPC   GL1  639   0.055   0.186  14.239
   54DPPC   GL2  640  21.005   0.316  14.099
   54DPPC   C1A  641   0.275   0.356  13.989
   54DPPC   C2A  642   0.535   0.336  13.699
   54DPPC   C3A  643   0.855   0.296  13.339
   54DPPC   C4A  644   1.085   0.386  12.979
   54DPPC   C1B  645  21.045   0.426  13.739
   54DPPC   C2B  646   0.155   0.476  13.379
   54DPPC   C3B  647   0.455   0.446  13.059
   54DPPC   C4B  648   0.745   0.506  12.609
   55DPPC   NC3  649   0.355   3.334  16.409
   55DPPC   PO4  650   0.385   3.384  16.009
   55DPPC   GL1  651   0.805   3.364  15.799
   55DPPC   GL2  652   0.975   3.434  16.009
   55DPPC   C1A  653   1.045   3.154  15.549
   55DPPC   C2A  654   1.145   3.124  15.149
   55DPPC   C3A  655   1.405   3.034  14.789
   55DPPC   C4A  656   1.705   3.124  14.429
   55DPPC   C1B  657   1.245   3.434  15.789
   55DPPC   C2B  658   1.365   3.514  15.439
   55DPPC   C3B  659   1.665   3.524  15.059
   55DPPC   C4B  660   1.985   3.564  14.629
   56DPPC   NC3  661   1.115   4.644  15.949
   56DPPC   PO4  662   0.755   4.544  15.829
   56DPPC   GL1  663   1.055   4.394  15.529
   56DPPC   GL2  664   0.955   4.444  15.299
   56DPPC   C1A  665   1.445   4.344  15.399
   56DPPC   C2A  666   1.775   4.354  15.119
   56DPPC   C3A  667   2.095   4.404  14.769
   56DPPC   C4A  668   2.405   4.454  14.379
   56DPPC   C1B  669   1.125   4.384  14.979
   56DPPC   C2B  670   1.455   4.474  14.739
   56DPPC   C3B  671   1.765   4.454  14.369
   56DPPC   C4B  672   2.025   4.514  13.979
   57DPPC   NC3  673  20.765   3.854  13.989
   57DPPC   PO4  674  20.755   3.454  14.049
   57DPPC   GL1  675  21.065   3.374  13.829
   57DPPC   GL2  676  21.055   3.634  13.669
   57DPPC   C1A  677   0.045   3.044  13.679
   57DPPC   C2A  678   0.295   3.064  13.379
   57DPPC   C3A  679   0.605   3.064  13.049
   57DPPC   C4A  680   0.875   3.044  12.619
   57DPPC   C1B  681   0.055   3.554  13.359
   57DPPC   C2B  682   0.385   3.484  13.079
   57DPPC   C3B  683   0.605   3.604  12.719
   57DPPC   C4B  684   0.845   3.694  12.329
   58DPPC   NC3  685  19.045   5.144  11.359
   58DPPC   PO4  686  18.875   5.484  11.399
   58DPPC   GL1  687  18.915   5.674  11.069
   58DPPC   GL2  688  18.915   5.394  10.879
   58DPPC   C1A  689  19.195   5.884  10.909
   58DPPC   C2A  690  19.415   5.824  10.599
   58DPPC   C3A  691  19.635   5.804  10.159
   58DPPC   C4A  692  19.745   5.854   9.649
   58DPPC   C1B  693  19.085   5.394  10.529
   58DPPC   C2B  694  19.285   5.374  10.199
   58DPPC   C3B  695  19.485   5.464   9.799
   58DPPC   C4B  696  19.745   5.374   9.379
   59DPPC   NC3  697   0.015   1.854  15.279
   59DPPC   PO4  698   0.265   1.524  15.279
   59DPPC   GL1  699   0.625   1.394  15.129
   59DPPC   GL2  700   0.565   1.106  15.249
   59DPPC   C1A  701   0.875   1.324  14.909
   59DPPC   C2A  702   1.175   1.324  14.619
   59DPPC   C3A  703   1.485   1.364  14.249
   59DPPC   C4A  704   1.765   1.384  13.869
   59DPPC   C1B  705   0.615   0.976  14.949
   59DPPC   C2B  706   0.725   0.926  14.589
   59DPPC   C3B  707   1.055   0.986  14.239
   59DPPC   C4B  708   1.345   1.076  13.819
   60DPPC   NC3  709  21.155   0.566  15.029
   60DPPC   PO4  710   0.195   0.376  15.309
   60DPPC   GL1  711   0.535   0.196  15.199
   60DPPC   GL2  712   0.675   0.476  15.299
   60DPPC   C1A  713   0.755   0.026  14.989
   60DPPC   C2A  714   1.055   0.076  14.649
   60DPPC   C3A  715   1.335   0.086  14.259
   60DPPC   C4A  716   1.605   0.086  13.829
   60DPPC   C1B  717   0.925   0.756  15.139
   60DPPC   C2B  718   1.185   0.846  14.789
   60DPPC   C3B  719   1.505   0.876  14.459
   60DPPC   C4B  720   1.845   0.926  14.069
   61DPPC   NC3  721  19.485   4.434  12.619
   61DPPC   PO4  722  19.235   4.384  12.319
   61DPPC   GL1  723  19.255   4.224  11.809
   61DPPC   GL2  724  19.495   4.304  11.959
   61DPPC   C1A  725  19.385   4.094  11.439
   61DPPC   C2A  726  19.385   4.044  11.019
   61DPPC   C3A  727  19.485   3.964  10.579
   61DPPC   C4A  728  19.655   3.964  10.139
   61DPPC   C1B  729  19.755   4.284  11.719
   61DPPC   C2B  730  19.985   4.354  11.369
   61DPPC   C3B  731  20.305   4.404  10.969
   61DPPC   C4B  732  20.665   4.314  10.609
   62DPPC   NC3  733  19.485   1.086  13.909
   62DPPC   PO4  734  19.795   1.116  13.659
   62DPPC   GL1  735  20.155   1.116  13.409
   62DPPC   GL2  736  20.385   1.096  13.629
   62DPPC   C1A  737  20.225   1.116  13.009
   62DPPC   C2A  738  20.465   1.056  12.649
   62DPPC   C3A  739  20.805   1.146  12.309
   62DPPC   C4A  740  21.095   1.164  11.889
   62DPPC   C1B  741  20.715   1.006  13.509
   62DPPC   C2B  742  21.045   0.866  13.409
   62DPPC   C3B  743   0.245   0.906  13.129
   62DPPC   C4B  744   0.585   0.966  12.739
   63DPPC   NC3  745  20.225   3.364  13.319
   63DPPC   PO4  746  20.175   3.714  13.489
   63DPPC   GL1  747  20.405   3.854  13.179
   63DPPC   GL2  748  20.505   3.584  13.069
   63DPPC   C1A  749  20.575   4.144  13.029
   63DPPC   C2A  750  20.845   4.074  12.709
   63DPPC   C3A  751  21.135   4.124  12.339
   63DPPC   C4A  752   0.225   4.174  11.889
   63DPPC   C1B  753  20.875   3.574  12.979
   63DPPC   C2B  754   0.055   3.604  12.739
   63DPPC   C3B  755   0.285   3.584  12.329
   63DPPC   C4B  756   0.535   3.714  11.919
   64DPPC   NC3  757  20.185   6.004  13.619
   64DPPC   PO4  758  20.305   5.904  13.999
   64DPPC   GL1  759  20.735   5.994  13.879
   64DPPC   GL2  760  20.605   6.254  13.869
   64DPPC   C1A  761  20.975   6.074  13.669
   64DPPC   C2A  762   0.095   6.124  13.329
   64DPPC   C3A  763   0.305   6.244  12.889
   64DPPC   C4A  764   0.645   6.244  12.589
   64DPPC   C1B  765  20.805   6.464  13.599
   64DPPC   C2B  766  21.015   0.066  13.299
   64DPPC   C3B  767   0.115   0.106  12.889
   64DPPC   C4B  768   0.425   0.096  12.569
   65DPPC   NC3  769  20.765   1.494  14.779
   65DPPC   PO4  770  21.115   1.644  14.829
   65DPPC   GL1  771   0.255   1.954  14.589
   65DPPC   GL2  772   0.045   1.914  14.349
   65DPPC   C1A  773   0.555   1.954  14.349
   65DPPC   C2A  774   0.865   1.904  14.049
   65DPPC   C3A  775   1.085   1.984  13.669
   65DPPC   C4A  776   1.425   2.054  13.289
   65DPPC   C1B  777   0.205   1.974  13.979
   65DPPC   C2B  778   0.445   2.014  13.649
   65DPPC   C3B  779   0.665   2.204  13.269
   65DPPC   C4B  780   1.075   2.214  12.959
   66DPPC   NC3  781  20.305   3.634  13.929
   66DPPC   PO4  782  20.335   4.034  14.019
   66DPPC   GL1  783  20.535   4.084  13.659
   66DPPC   GL2  784  20.635   4.344  13.769
   66DPPC   C1A  785  20.755   3.954  13.429
   66DPPC   C2A  786  21.095   3.924  13.169
   66DPPC   C3A  787   0.325   3.994  12.849
   66DPPC   C4A  788   0.595   4.074  12.409
   66DPPC   C1B  789  20.985   4.344  13.789
   66DPPC   C2B  790   0.075   4.414  13.479
   66DPPC   C3B  791   0.425   4.364  13.229
   66DPPC   C4B  792   0.715   4.364  12.839
   67DPPC   NC3  793  18.095   5.034  11.489
   67DPPC   PO4  794  18.435   5.214  11.479
   67DPPC   GL1  795  18.585   5.174  11.169
   67DPPC   GL2  796  18.685   4.884  11.159
   67DPPC   C1A  797  18.485   5.424  10.879
   67DPPC   C2A  798  18.655   5.614  10.569
   67DPPC   C3A  799  18.805   5.564  10.079
   67DPPC   C4A  800  18.955   5.554   9.639
   67DPPC   C1B  801  18.975   4.904  10.919
   67DPPC   C2B  802  19.215   4.924  10.589
   67DPPC   C3B  803  19.495   4.944  10.199
   67DPPC   C4B  804  19.695   5.014   9.729
   68DPPC   NC3  805  19.185   2.144  12.049
   68DPPC   PO4  806  18.935   1.894  11.859
   68DPPC   GL1  807  18.975   1.694  11.529
   68DPPC   GL2  808  18.675   1.664  11.549
   68DPPC   C1A  809  19.045   1.874  11.189
   68DPPC   C2A  810  19.275   2.004  10.869
   68DPPC   C3A  811  19.345   1.964  10.429
   68DPPC   C4A  812  19.605   1.934   9.969
   68DPPC   C1B  813  18.465   1.584  11.329
   68DPPC   C2B  814  18.255   1.414  11.049
   68DPPC   C3B  815  17.955   1.294  10.689
   68DPPC   C4B  816  17.565   1.324  10.429
   69DPPC   NC3  817  18.535   4.174  11.669
   69DPPC   PO4  818  18.355   4.134  11.359
   69DPPC   GL1  819  18.605   4.434  11.119
   69DPPC   GL2  820  18.335   4.474  10.959
   69DPPC   C1A  821  18.715   4.564  10.809
   69DPPC   C2A  822  18.905   4.534  10.449
   69DPPC   C3A  823  19.065   4.584   9.999
   69DPPC   C4A  824  19.245   4.644   9.539
   69DPPC   C1B  825  18.185   4.454  10.599
   69DPPC   C2B  826  18.035   4.434  10.219
   69DPPC   C3B  827  18.015   4.594   9.779
   69DPPC   C4B  828  18.075   4.564   9.279
   70DPPC   NC3  829  19.725   5.084  13.089
   70DPPC   PO4  830  19.645   4.754  12.929
   70DPPC   GL1  831  19.875   4.794  12.609
   70DPPC   GL2  832  19.995   4.994  12.569
   70DPPC   C1A  833  20.135   4.584  12.519
   70DPPC   C2A  834  20.425   4.584  12.199
   70DPPC   C3A  835  20.695   4.674  11.749
   70DPPC   C4A  836  21.085   4.734  11.449
   70DPPC   C1B  837  20.165   4.994  12.259
   70DPPC   C2B  838  20.405   5.064  11.919
   70DPPC   C3B  839  20.725   5.114  11.569
   70DPPC   C4B  840  21.055   5.154  11.189
   71DPPC   NC3  841   0.525   5.544  15.469
   71DPPC   PO4  842   0.235   5.834  15.449
   71DPPC   GL1  843   0.385   6.124  15.209
   71DPPC   GL2  844   0.445   5.874  15.049
   71DPPC   C1A  845   0.765   6.204  15.119
   71DPPC   C2A  846   1.035   6.234  14.879
   71DPPC   C3A  847   1.365   6.284  14.499
   71DPPC   C4A  848   1.635   6.304  14.119
   71DPPC   C1B  849   0.645   5.794  14.799
   71DPPC   C2B  850   0.975   5.914  14.519
   71DPPC   C3B  851   1.245   5.914  14.129
   71DPPC   C4B  852   1.565   5.964  13.749
   72DPPC   NC3  853  20.575   0.096  13.979
   72DPPC   PO4  854  20.385   0.406  13.889
   72DPPC   GL1  855  20.655   0.566  13.569
   72DPPC   GL2  856  20.415   0.706  13.549
   72DPPC   C1A  857  20.845   0.516  13.259
   72DPPC   C2A  858  21.055   0.536  12.929
   72DPPC   C3A  859   0.235   0.566  12.609
   72DPPC   C4A  860   0.415   0.576  12.159
   72DPPC   C1B  861  20.505   0.866  13.209
   72DPPC   C2B  862  20.785   1.076  12.999
   72DPPC   C3B  863  21.115   0.976  12.679
   72DPPC   C4B  864   0.175   1.016  12.269
   73DPPC   NC3  865  20.875   2.194  14.279
   73DPPC   PO4  866  20.725   1.884  14.449
   73DPPC   GL1  867  20.745   1.644  14.169
   73DPPC   GL2  868  20.985   1.474  14.359
   73DPPC   C1A  869  20.945   1.764  13.909
   73DPPC   C2A  870   0.075   1.714  13.589
   73DPPC   C3A  871   0.405   1.734  13.219
   73DPPC   C4A  872   0.675   1.774  12.829
   73DPPC   C1B  873   0.135   1.484  14.159
   73DPPC   C2B  874   0.465   1.564  14.009
   73DPPC   C3B  875   0.705   1.614  13.599
   73DPPC   C4B  876   0.975   1.724  13.229
   74DPPC   NC3  877  20.895   2.714  15.089
   74DPPC   PO4  878  21.085   2.944  15.349
   74DPPC   GL1  879   0.215   3.134  15.139
   74DPPC   GL2  880   0.275   2.784  15.149
   74DPPC   C1A  881   0.505   3.174  14.889
   74DPPC   C2A  882   0.855   3.124  14.709
   74DPPC   C3A  883   1.145   3.164  14.379
   74DPPC   C4A  884   1.415   3.254  13.969
   74DPPC   C1B  885   0.455   2.684  14.839
   74DPPC   C2B  886   0.635   2.754  14.469
   74DPPC   C3B  887   0.885   2.794  14.119
   74DPPC   C4B  888   1.245   2.854  13.739
   75DPPC   NC3  889  19.675   0.466  12.229
   75DPPC   PO4  890  19.485   0.386  12.599
   75DPPC   GL1  891  19.885   0.286  12.579
   75DPPC   GL2  892  19.965   0.596  12.709
   75DPPC   C1A  893  20.095   0.246  12.289
   75DPPC   C2A  894  20.245   0.296  11.899
   75DPPC   C3A  895  20.545   0.266  11.519
   75DPPC   C4A  896  20.755   0.336  11.109
   75DPPC   C1B  897  20.255   0.666  12.469
   75DPPC   C2B  898  20.485   0.706  12.119
   75DPPC   C3B  899  20.725   0.726  11.709
   75DPPC   C4B  900  20.985   0.726  11.349
   76DPPC   NC3  901  21.035   4.484  14.589
   76DPPC   PO4  902  21.165   4.244  14.849
   76DPPC   GL1  903   0.305   3.974  14.729
   76DPPC   GL2  904   0.175   3.894  14.449
   76DPPC   C1A  905   0.595   4.164  14.499
   76DPPC   C2A  906   0.875   4.224  14.149
   76DPPC   C3A  907   1.165   4.194  13.809
   76DPPC   C4A  908   1.555   4.124  13.449
   76DPPC   C1B  909   0.445   3.904  14.219
   76DPPC   C2B  910   0.675   3.754  13.969
   76DPPC   C3B  911   0.995   3.794  13.609
   76DPPC   C4B  912   1.265   3.764  13.189
   77DPPC   NC3  913  18.245   0.246  11.799
   77DPPC   PO4  914  18.325   0.406  11.449
   77DPPC   GL1  915  18.055   0.286  11.149
   77DPPC   GL2  916  17.915   0.536  10.999
   77DPPC   C1A  917  18.035   6.594  11.049
   77DPPC   C2A  918  17.935   6.314  10.809
   77DPPC   C3A  919  17.945   6.114  10.339
   77DPPC   C4A  920  18.175   5.934   9.929
   77DPPC   C1B  921  17.655   0.466  10.809
   77DPPC   C2B  922  17.435   0.506  10.489
   77DPPC   C3B  923  17.275   0.536  10.049
   77DPPC   C4B  924  17.085   0.796   9.649
   78DPPC   NC3  925   0.345   3.894  15.429
   78DPPC   PO4  926   0.615   4.164  15.519
   78DPPC   GL1  927   0.495   4.284  15.099
   78DPPC   GL2  928   0.695   4.034  15.149
   78DPPC   C1A  929   0.685   4.374  14.829
   78DPPC   C2A  930   0.945   4.514  14.589
   78DPPC   C3A  931   1.215   4.614  14.249
   78DPPC   C4A  932   1.475   4.584  13.889
   78DPPC   C1B  933   0.965   3.974  14.879
   78DPPC   C2B  934   1.175   4.054  14.519
   78DPPC   C3B  935   1.525   4.054  14.269
   78DPPC   C4B  936   1.795   4.094  13.969
   79DPPC   NC3  937  19.845   3.164  12.559
   79DPPC   PO4  938  19.585   3.114  12.199
   79DPPC   GL1  939  19.735   3.144  11.839
   79DPPC   GL2  940  19.715   2.904  11.679
   79DPPC   C1A  941  19.835   3.414  11.569
   79DPPC   C2A  942  19.965   3.434  11.179
   79DPPC   C3A  943  20.195   3.384  10.789
   79DPPC   C4A  944  20.415   3.414  10.349
   79DPPC   C1B  945  19.975   3.024  11.419
   79DPPC   C2B  946  20.225   3.014  11.099
   79DPPC   C3B  947  20.535   3.044  10.689
   79DPPC   C4B  948  20.795   3.074  10.249
   80DPPC   NC3  949  19.085   0.026  11.549
   80DPPC   PO4  950  18.705   0.146  11.619
   80DPPC   GL1  951  18.635   0.146  11.259
   80DPPC   GL2  952  18.645   6.464  11.289
   80DPPC   C1A  953  18.865   0.246  11.009
   80DPPC   C2A  954  19.065   0.256  10.609
   80DPPC   C3A  955  19.295   0.236  10.199
   80DPPC   C4A  956  19.445   0.166   9.709
   80DPPC   C1B  957  18.975   6.454  11.069
   80DPPC   C2B  958  19.155   6.364  10.719
   80DPPC   C3B  959  19.365   6.204  10.299
   80DPPC   C4B  960  19.505   6.264   9.789
   81DPPC   NC3  961  20.375   2.834  14.849
   81DPPC   PO4  962  20.735   2.884  14.669
   81DPPC   GL1  963   0.025   2.844  14.709
   81DPPC   GL2  964   0.005   2.584  14.709
   81DPPC   C1A  965   0.255   3.054  14.519
   81DPPC   C2A  966   0.535   3.244  14.269
   81DPPC   C3A  967   0.905   3.284  13.939
   81DPPC   C4A  968   1.145   3.324  13.529
   81DPPC   C1B  969   0.235   2.454  14.449
   81DPPC   C2B  970   0.445   2.404  14.069
   81DPPC   C3B  971   0.745   2.454  13.709
   81DPPC   C4B  972   1.095   2.484  13.359
   82DPPC   NC3  973  20.895   5.744  15.439
   82DPPC   PO4  974  20.705   5.854  15.109
   82DPPC   GL1  975  20.995   5.854  14.809
   82DPPC   GL2  976  21.145   6.024  15.029
   82DPPC   C1A  977  21.035   5.924  14.429
   82DPPC   C2A  978  21.135   6.024  14.049
   82DPPC   C3A  979   0.335   6.014  13.739
   82DPPC   C4A  980   0.675   6.074  13.329
   82DPPC   C1B  981   0.225   6.124  14.769
   82DPPC   C2B  982   0.585   6.264  14.639
   82DPPC   C3B  983   0.905   6.334  14.299
   82DPPC   C4B  984   1.215   6.334  13.839
   83DPPC   NC3  985  20.545   5.944  14.639
   83DPPC   PO4  986  20.465   5.614  14.399
   83DPPC   GL1  987  20.825   5.554  14.179
   83DPPC   GL2  988  20.845   5.284  14.119
   83DPPC   C1A  989  20.945   5.584  13.829
   83DPPC   C2A  990   0.025   5.654  13.509
   83DPPC   C3A  991   0.345   5.714  13.239
   83DPPC   C4A  992   0.605   5.804  12.839
   83DPPC   C1B  993  21.125   5.164  13.909
   83DPPC   C2B  994   0.205   5.214  13.629
   83DPPC   C3B  995   0.495   5.224  13.269
   83DPPC   C4B  996   0.785   5.204  12.909
   84DPPC   NC3  997  18.065   4.094  12.249
   84DPPC   PO4  998  18.295   3.904  11.989
   84DPPC   GL1  999  18.115   3.774  11.619
   84DPPC   GL2 1000  17.985   3.504  11.789
   84DPPC   C1A 1001  17.825   3.854  11.439
   84DPPC   C2A 1002  17.565   4.014  11.089
   84DPPC   C3A 1003  17.275   4.124  10.669
   84DPPC   C4A 1004  16.905   4.154  10.339
   84DPPC   C1B 1005  17.845   3.384  11.489
   84DPPC   C2B 1006  17.605   3.214  11.229
   84DPPC   C3B 1007  17.195   3.204  10.879
   84DPPC   C4B 1008  16.925   3.274  10.539
   85DPPC   NC3 1009   0.175   6.504  15.299
   85DPPC   PO4 1010   0.115   0.046  14.919
   85DPPC   GL1 1011   0.195   0.326  14.639
   85DPPC   GL2 1012   0.375   0.426  14.779
   85DPPC   C1A 1013   0.525   0.116  14.449
   85DPPC   C2A 1014   0.755   0.176  14.109
   85DPPC   C3A 1015   1.095   0.206  13.749
   85DPPC   C4A 1016   1.415   0.266  13.389
   85DPPC   C1B 1017   0.745   0.486  14.669
   85DPPC   C2B 1018   1.035   0.526  14.419
   85DPPC   C3B 1019   1.335   0.506  14.029
   85DPPC   C4B 1020   1.635   0.626  13.689
   86DPPC   NC3 1021  19.265   1.244  12.079
   86DPPC   PO4 1022  19.385   0.876  11.999
   86DPPC   GL1 1023  19.695   0.756  11.719
   86DPPC   GL2 1024  19.625   0.396  11.739
   86DPPC   C1A 1025  19.885   0.836  11.419
   86DPPC   C2A 1026  20.065   0.956  11.029
   86DPPC   C3A 1027  20.315   0.926  10.579
   86DPPC   C4A 1028  20.335   0.856  10.079
   86DPPC   C1B 1029  19.605   0.106  11.499
   86DPPC   C2B 1030  19.825   0.036  11.079
   86DPPC   C3B 1031  20.065   6.584  10.719
   86DPPC   C4B 1032  20.295   6.494  10.329
   87DPPC   NC3 1033  17.515   2.044  13.099
   87DPPC   PO4 1034  17.765   2.304  12.959
   87DPPC   GL1 1035  17.385   2.424  12.759
   87DPPC   GL2 1036  17.425   2.114  12.669
   87DPPC   C1A 1037  17.215   2.734  12.669
   87DPPC   C2A 1038  17.015   3.094  12.549
   87DPPC   C3A 1039  16.665   3.044  12.179
   87DPPC   C4A 1040  16.305   3.044  11.839
   87DPPC   C1B 1041  17.265   1.954  12.329
   87DPPC   C2B 1042  16.965   2.044  12.029
   87DPPC   C3B 1043  16.585   2.114  11.689
   87DPPC   C4B 1044  16.215   2.104  11.339
   88DPPC   NC3 1045  19.525   4.294  13.609
   88DPPC   PO4 1046  19.775   4.444  13.359
   88DPPC   GL1 1047  20.045   4.624  13.529
   88DPPC   GL2 1048  20.115   4.754  13.269
   88DPPC   C1A 1049  20.395   4.474  13.459
   88DPPC   C2A 1050  20.765   4.424  13.329
   88DPPC   C3A 1051  21.105   4.444  12.969
   88DPPC   C4A 1052   0.285   4.424  12.619
   88DPPC   C1B 1053  20.375   4.714  13.049
   88DPPC   C2B 1054  20.675   4.544  12.799
   88DPPC   C3B 1055  20.885   4.534  12.389
   88DPPC   C4B 1056   0.035   4.594  12.009
   89DPPC   NC3 1057  18.755   2.224  11.539
   89DPPC   PO4 1058  18.965   2.454  11.709
   89DPPC   GL1 1059  19.205   2.754  11.469
   89DPPC   GL2 1060  19.375   2.584  11.459
   89DPPC   C1A 1061  18.965   2.804  11.159
   89DPPC   C2A 1062  18.925   2.854  10.769
   89DPPC   C3A 1063  19.095   2.784  10.299
   89DPPC   C4A 1064  19.235   2.754   9.849
   89DPPC   C1B 1065  19.455   2.354  11.179
   89DPPC   C2B 1066  19.655   2.294  10.839
   89DPPC   C3B 1067  19.855   2.274  10.389
   89DPPC   C4B 1068  20.115   2.274   9.939
   90DPPC   NC3 1069   0.405   1.664  15.939
   90DPPC   PO4 1070   0.285   1.914  15.709
   90DPPC   GL1 1071   0.565   2.064  15.449
   90DPPC   GL2 1072   0.735   1.874  15.519
   90DPPC   C1A 1073   0.785   2.104  15.139
   90DPPC   C2A 1074   1.115   2.214  14.909
   90DPPC   C3A 1075   1.385   2.224  14.539
   90DPPC   C4A 1076   1.675   2.284  14.109
   90DPPC   C1B 1077   0.965   1.684  15.259
   90DPPC   C2B 1078   1.295   1.724  15.009
   90DPPC   C3B 1079   1.605   1.774  14.689
   90DPPC   C4B 1080   1.935   1.844  14.269
   91DPPC   NC3 1081  19.475   2.724  12.379
   91DPPC   PO4 1082  19.595   2.354  12.409
   91DPPC   GL1 1083  19.895   2.384  12.169
   91DPPC   GL2 1084  19.865   2.714  12.139
   91DPPC   C1A 1085  20.115   2.184  11.899
   91DPPC   C2A 1086  20.345   2.134  11.559
   91DPPC   C3A 1087  20.595   2.114  11.109
   91DPPC   C4A 1088  20.815   2.064  10.619
   91DPPC   C1B 1089  20.145   2.784  11.889
   91DPPC   C2B 1090  20.395   2.914  11.639
   91DPPC   C3B 1091  20.685   2.914  11.239
   91DPPC   C4B 1092  20.975   3.014  10.869
   92DPPC   NC3 1093   0.385   0.826  15.539
   92DPPC   PO4 1094   0.095   0.966  15.339
   92DPPC   GL1 1095   0.215   0.966  14.969
   92DPPC   GL2 1096   0.215   1.234  14.949
   92DPPC   C1A 1097   0.235   0.786  14.669
   92DPPC   C2A 1098   0.455   0.606  14.349
   92DPPC   C3A 1099   0.835   0.626  13.999
   92DPPC   C4A 1100   1.155   0.686  13.589
   92DPPC   C1B 1101   0.445   1.364  14.689
   92DPPC   C2B 1102   0.745   1.464  14.419
   92DPPC   C3B 1103   1.035   1.474  14.029
   92DPPC   C4B 1104   1.245   1.524  13.579
   93DPPC   NC3 1105  19.505   3.814  12.839
   93DPPC   PO4 1106  19.245   3.974  12.589
   93DPPC   GL1 1107  19.525   3.964  12.229
   93DPPC   GL2 1108  19.685   4.114  12.399
   93DPPC   C1A 1109  19.775   3.904  12.009
   93DPPC   C2A 1110  20.055   3.794  11.739
   93DPPC   C3A 1111  20.245   3.824  11.309
   93DPPC   C4A 1112  20.435   3.864  10.869
   93DPPC   C1B 1113  19.815   4.404  12.199
   93DPPC   C2B 1114  19.925   4.684  11.929
   93DPPC   C3B 1115  20.255   4.744  11.559
   93DPPC   C4B 1116  20.625   4.724  11.239
   94DPPC   NC3 1117  19.415   3.744  11.769
   94DPPC   PO4 1118  19.265   3.424  11.909
   94DPPC   GL1 1119  19.415   3.204  11.549
   94DPPC   GL2 1120  19.185   3.364  11.439
   94DPPC   C1A 1121  19.585   3.134  11.239
   94DPPC   C2A 1122  19.785   3.054  10.869
   94DPPC   C3A 1123  19.985   2.974  10.409
   94DPPC   C4A 1124  20.095   3.164   9.999
   94DPPC   C1B 1125  19.125   3.214  11.079
   94DPPC   C2B 1126  19.275   3.174  10.629
   94DPPC   C3B 1127  19.495   3.084  10.219
   94DPPC   C4B 1128  19.625   3.034   9.739
   95DPPC   NC3 1129  18.195   6.534  11.459
   95DPPC   PO4 1130  18.195   6.294  11.759
   95DPPC   GL1 1131  17.775   6.394  11.779
   95DPPC   GL2 1132  17.845   0.016  11.789
   95DPPC   C1A 1133  17.455   6.384  11.619
   95DPPC   C2A 1134  17.185   6.384  11.329
   95DPPC   C3A 1135  16.905   6.344  10.949
   95DPPC   C4A 1136  16.625   6.374  10.559
   95DPPC   C1B 1137  17.755   0.026  11.429
   95DPPC   C2B 1138  17.505   0.106  11.129
   95DPPC   C3B 1139  17.195   0.166  10.739
   95DPPC   C4B 1140  17.025   0.236  10.329
   96DPPC   NC3 1141  18.275   3.424  12.159
   96DPPC   PO4 1142  18.375   3.074  12.009
   96DPPC   GL1 1143  18.175   3.054  11.679
   96DPPC   GL2 1144  18.285   3.164  11.449
   96DPPC   C1A 1145  18.025   2.754  11.509
   96DPPC   C2A 1146  17.765   2.694  11.269
   96DPPC   C3A 1147  17.335   2.744  10.979
   96DPPC   C4A 1148  17.155   2.724  10.579
   96DPPC   C1B 1149  18.115   3.214  11.119
   96DPPC   C2B 1150  17.925   3.114  10.779
   96DPPC   C3B 1151  18.005   3.044  10.309
   96DPPC   C4B 1152  17.935   2.684   9.959
   97DPPC   NC3 1153  20.385   5.334  13.979
   97DPPC   PO4 1154  20.115   5.514  13.729
   97DPPC   GL1 1155  20.195   5.634  13.299
   97DPPC   GL2 1156  20.075   5.374  13.299
   97DPPC   C1A 1157  20.565   5.724  13.219
   97DPPC   C2A 1158  20.935   5.774  13.149
   97DPPC   C3A 1159   0.015   5.804  12.769
   97DPPC   C4A 1160   0.315   5.794  12.399
   97DPPC   C1B 1161  20.225   5.114  13.069
   97DPPC   C2B 1162  20.475   5.014  12.769
   97DPPC   C3B 1163  20.685   5.044  12.329
   97DPPC   C4B 1164  20.945   5.024  11.969
   98DPPC   NC3 1165  20.755   5.224  14.559
   98DPPC   PO4 1166  21.025   4.964  14.769
   98DPPC   GL1 1167   0.165   5.074  14.599
   98DPPC   GL2 1168   0.355   5.264  14.689
   98DPPC   C1A 1169   0.295   5.084  14.249
   98DPPC   C2A 1170   0.525   5.134  13.949
   98DPPC   C3A 1171   0.825   5.134  13.639
   98DPPC   C4A 1172   1.145   5.094  13.309
   98DPPC   C1B 1173   0.495   5.454  14.409
   98DPPC   C2B 1174   0.775   5.534  14.109
   98DPPC   C3B 1175   1.145   5.564  13.729
   98DPPC   C4B 1176   1.465   5.514  13.359
   99DPPC   NC3 1177  19.085   3.824  12.189
   99DPPC   PO4 1178  18.855   3.844  11.869
   99DPPC   GL1 1179  18.915   3.684  11.489
   99DPPC   GL2 1180  18.925   4.074  11.409
   99DPPC   C1A 1181  19.185   3.724  11.219
   99DPPC   C2A 1182  19.495   3.534  11.029
   99DPPC   C3A 1183  19.725   3.424  10.589
   99DPPC   C4A 1184  19.795   3.494  10.199
   99DPPC   C1B 1185  18.925   4.034  11.039
   99DPPC   C2B 1186  19.005   4.094  10.619
   99DPPC   C3B 1187  19.155   4.104  10.209
   99DPPC   C4B 1188  19.335   4.154   9.769
  100DPPC   NC3 1189  19.975   2.444  13.649
  100DPPC   PO4 1190  20.035   2.424  13.249
  100DPPC   GL1 1191  20.375   2.464  13.009
  100DPPC   GL2 1192  20.405   2.304  12.799
  100DPPC   C1A 1193  20.605   2.724  12.889
  100DPPC   C2A 1194  20.995   2.774  12.679
  100DPPC   C3A 1195   0.145   2.794  12.229
  100DPPC   C4A 1196   0.385   2.784  11.809
  100DPPC   C1B 1197  20.705   2.354  12.569
  100DPPC   C2B 1198  20.955   2.414  12.249
  100DPPC   C3B 1199   0.035   2.434  11.829
  100DPPC   C4B 1200   0.165   2.384  11.339
  101DPPC   NC3 1201   1.745   3.744  10.699
  101DPPC   PO4 1202   2.155   3.914  10.679
  101DPPC   GL1 1203   2.225   4.114  11.059
  101DPPC   GL2 1204   1.935   4.264  11.029
  101DPPC   C1A 1205   2.295   4.184  11.409
  101DPPC   C2A 1206   2.155   4.334  11.739
  101DPPC   C3A 1207   1.945   4.274  12.189
  101DPPC   C4A 1208   1.585   4.364  12.509
  101DPPC   C1B 1209   1.875   4.364  11.359
  101DPPC   C2B 1210   1.625   4.394  11.709
  101DPPC   C3B 1211   1.295   4.404  12.059
  101DPPC   C4B 1212   1.055   4.404  12.469
  102DPPC   NC3 1213  15.605   1.624   8.839
  102DPPC   PO4 1214  15.325   1.664   9.069
  102DPPC   GL1 1215  15.395   1.944   9.449
  102DPPC   GL2 1216  15.355   1.674   9.589
  102DPPC   C1A 1217  15.555   2.124   9.719
  102DPPC   C2A 1218  15.735   2.034  10.049
  102DPPC   C3A 1219  16.045   1.964  10.429
  102DPPC   C4A 1220  16.385   2.084  10.779
  102DPPC   C1B 1221  15.395   1.714   9.979
  102DPPC   C2B 1222  15.615   1.594  10.339
  102DPPC   C3B 1223  15.825   1.564  10.679
  102DPPC   C4B 1224  16.195   1.644  11.039
  103DPPC   NC3 1225  19.875   4.634   8.869
  103DPPC   PO4 1226  19.935   4.374   9.149
  103DPPC   GL1 1227  19.625   4.264   9.419
  103DPPC   GL2 1228  19.695   4.494   9.589
  103DPPC   C1A 1229  19.265   4.214   9.319
  103DPPC   C2A 1230  18.855   4.284   9.329
  103DPPC   C3A 1231  18.455   4.464   9.549
  103DPPC   C4A 1232  18.325   4.914   9.509
  103DPPC   C1B 1233  19.565   4.564   9.889
  103DPPC   C2B 1234  19.495   4.454  10.279
  103DPPC   C3B 1235  19.375   4.464  10.669
  103DPPC   C4B 1236  19.125   4.534  11.109
  104DPPC   NC3 1237  21.015   1.254   9.499
  104DPPC   PO4 1238  21.095   1.444   9.839
  104DPPC   GL1 1239  20.895   1.544  10.119
  104DPPC   GL2 1240  21.115   1.374  10.349
  104DPPC   C1A 1241  20.695   1.714  10.399
  104DPPC   C2A 1242  20.395   1.744  10.719
  104DPPC   C3A 1243  20.165   1.704  11.119
  104DPPC   C4A 1244  19.895   1.634  11.609
  104DPPC   C1B 1245  21.075   1.534  10.679
  104DPPC   C2B 1246  20.835   1.684  10.979
  104DPPC   C3B 1247  20.635   1.634  11.339
  104DPPC   C4B 1248  20.365   1.624  11.779
  105DPPC   NC3 1249  15.075   2.874   8.999
  105DPPC   PO4 1250  14.885   3.004   9.299
  105DPPC   GL1 1251  15.065   2.884   9.649
  105DPPC   GL2 1252  14.915   2.694   9.709
  105DPPC   C1A 1253  15.265   2.954   9.929
  105DPPC   C2A 1254  15.485   2.924  10.279
  105DPPC   C3A 1255  15.825   2.874  10.639
  105DPPC   C4A 1256  16.175   2.954  10.949
  105DPPC   C1B 1257  15.065   2.634  10.079
  105DPPC   C2B 1258  15.215   2.474  10.389
  105DPPC   C3B 1259  15.475   2.524  10.829
  105DPPC   C4B 1260  15.925   2.534  11.049
  106DPPC   NC3 1261  14.565   3.344   9.619
  106DPPC   PO4 1262  14.595   3.744   9.609
  106DPPC   GL1 1263  14.925   3.894   9.759
  106DPPC   GL2 1264  14.815   3.904  10.069
  106DPPC   C1A 1265  15.225   3.834   9.879
  106DPPC   C2A 1266  15.515   3.774  10.189
  106DPPC   C3A 1267  15.835   3.784  10.529
  106DPPC   C4A 1268  16.175   3.904  10.879
  106DPPC   C1B 1269  15.095   3.854  10.339
  106DPPC   C2B 1270  15.325   3.864  10.659
  106DPPC   C3B 1271  15.655   3.864  10.979
  106DPPC   C4B 1272  16.025   3.874  11.329
  107DPPC   NC3 1273   1.505   0.576   9.989
  107DPPC   PO4 1274   1.205   0.786   9.959
  107DPPC   GL1 1275   1.065   0.516  10.219
  107DPPC   GL2 1276   1.265   0.276  10.279
  107DPPC   C1A 1277   0.975   0.576  10.549
  107DPPC   C2A 1278   0.775   0.616  10.909
  107DPPC   C3A 1279   0.355   0.796  11.079
  107DPPC   C4A 1280   0.135   1.076  11.419
  107DPPC   C1B 1281   1.195   0.186  10.559
  107DPPC   C2B 1282   0.915   0.136  10.839
  107DPPC   C3B 1283   0.675   0.126  11.279
  107DPPC   C4B 1284   0.445   0.126  11.649
  108DPPC   NC3 1285   1.325   3.864   9.909
  108DPPC   PO4 1286   1.335   4.264   9.899
  108DPPC   GL1 1287   1.325   4.504  10.169
  108DPPC   GL2 1288   1.205   4.714  10.139
  108DPPC   C1A 1289   1.145   4.384  10.429
  108DPPC   C2A 1290   0.945   4.484  10.789
  108DPPC   C3A 1291   0.655   4.584  11.199
  108DPPC   C4A 1292   0.355   4.594  11.609
  108DPPC   C1B 1293   0.925   4.874  10.369
  108DPPC   C2B 1294   0.805   5.154  10.649
  108DPPC   C3B 1295   0.615   5.464  10.979
  108DPPC   C4B 1296   0.595   5.474  11.489
  109DPPC   NC3 1297  18.265   3.694   8.449
  109DPPC   PO4 1298  17.995   3.974   8.319
  109DPPC   GL1 1299  17.935   4.314   8.589
  109DPPC   GL2 1300  17.795   4.084   8.789
  109DPPC   C1A 1301  17.835   4.584   8.879
  109DPPC   C2A 1302  17.595   4.524   9.209
  109DPPC   C3A 1303  17.495   4.344   9.649
  109DPPC   C4A 1304  17.285   4.094  10.039
  109DPPC   C1B 1305  17.865   4.174   9.189
  109DPPC   C2B 1306  18.125   4.094   9.469
  109DPPC   C3B 1307  18.275   4.174   9.919
  109DPPC   C4B 1308  18.545   4.284  10.339
  110DPPC   NC3 1309  16.495   1.136   8.379
  110DPPC   PO4 1310  16.395   0.856   8.629
  110DPPC   GL1 1311  16.405   0.896   9.079
  110DPPC   GL2 1312  16.195   1.036   9.129
  110DPPC   C1A 1313  16.465   0.756   9.459
  110DPPC   C2A 1314  16.545   1.056   9.739
  110DPPC   C3A 1315  16.695   1.484  10.039
  110DPPC   C4A 1316  17.105   1.644  10.259
  110DPPC   C1B 1317  16.185   1.136   9.469
  110DPPC   C2B 1318  16.255   1.484   9.649
  110DPPC   C3B 1319  16.285   1.944   9.869
  110DPPC   C4B 1320  16.275   2.334  10.139
  111DPPC   NC3 1321  15.735   2.254   8.459
  111DPPC   PO4 1322  15.495   2.104   8.699
  111DPPC   GL1 1323  15.715   2.104   9.139
  111DPPC   GL2 1324  15.925   2.014   8.959
  111DPPC   C1A 1325  15.795   2.334   9.419
  111DPPC   C2A 1326  15.935   2.414   9.749
  111DPPC   C3A 1327  16.015   2.754  10.099
  111DPPC   C4A 1328  16.425   2.874  10.329
  111DPPC   C1B 1329  16.025   1.704   9.109
  111DPPC   C2B 1330  15.855   1.354   9.199
  111DPPC   C3B 1331  15.755   0.956   9.379
  111DPPC   C4B 1332  15.805   0.456   9.369
  112DPPC   NC3 1333  19.395   0.956   8.359
  112DPPC   PO4 1334  19.475   0.896   8.739
  112DPPC   GL1 1335  19.335   1.154   9.089
  112DPPC   GL2 1336  19.405   0.936   9.239
  112DPPC   C1A 1337  19.055   1.224   9.279
  112DPPC   C2A 1338  18.675   1.136   9.379
  112DPPC   C3A 1339  18.335   1.156   9.019
  112DPPC   C4A 1340  17.865   1.056   8.879
  112DPPC   C1B 1341  19.345   0.616   9.449
  112DPPC   C2B 1342  19.265   0.636   9.839
  112DPPC   C3B 1343  18.985   0.756  10.239
  112DPPC   C4B 1344  18.865   0.736  10.629
  113DPPC   NC3 1345   0.605   1.744  10.119
  113DPPC   PO4 1346   0.895   1.984  10.079
  113DPPC   GL1 1347   1.065   2.114  10.459
  113DPPC   GL2 1348   1.245   1.884  10.509
  113DPPC   C1A 1349   0.775   1.904  10.709
  113DPPC   C2A 1350   0.475   1.584  10.669
  113DPPC   C3A 1351   0.265   1.146  10.689
  113DPPC   C4A 1352  21.155   0.786  10.659
  113DPPC   C1B 1353   1.215   1.774  10.809
  113DPPC   C2B 1354   1.185   1.824  11.209
  113DPPC   C3B 1355   0.925   1.884  11.619
  113DPPC   C4B 1356   0.635   1.894  11.989
  114DPPC   NC3 1357  20.075   5.064   8.799
  114DPPC   PO4 1358  20.335   5.254   9.019
  114DPPC   GL1 1359  20.285   5.244   9.379
  114DPPC   GL2 1360  20.235   5.484   9.529
  114DPPC   C1A 1361  20.295   4.984   9.629
  114DPPC   C2A 1362  20.425   4.774   9.929
  114DPPC   C3A 1363  20.505   4.394  10.159
  114DPPC   C4A 1364  20.535   3.914  10.319
  114DPPC   C1B 1365  19.995   5.444   9.829
  114DPPC   C2B 1366  19.855   5.334  10.199
  114DPPC   C3B 1367  19.595   5.364  10.579
  114DPPC   C4B 1368  19.345   5.404  10.969
  115DPPC   NC3 1369   0.945   2.474  10.059
  115DPPC   PO4 1370   0.845   2.744   9.809
  115DPPC   GL1 1371   0.685   3.054  10.029
  115DPPC   GL2 1372   0.385   2.924   9.979
  115DPPC   C1A 1373   0.705   2.844  10.339
  115DPPC   C2A 1374   0.845   2.544  10.539
  115DPPC   C3A 1375   0.605   2.284  10.919
  115DPPC   C4A 1376   0.585   1.944  11.209
  115DPPC   C1B 1377   0.365   2.634  10.219
  115DPPC   C2B 1378   0.215   2.344  10.499
  115DPPC   C3B 1379   0.115   1.964  10.849
  115DPPC   C4B 1380   0.155   1.484  11.079
  116DPPC   NC3 1381  17.455   3.284   8.809
  116DPPC   PO4 1382  17.315   3.014   8.529
  116DPPC   GL1 1383  17.195   2.834   8.919
  116DPPC   GL2 1384  17.065   3.134   8.949
  116DPPC   C1A 1385  16.955   2.704   9.179
  116DPPC   C2A 1386  16.915   2.694   9.579
  116DPPC   C3A 1387  16.845   2.564  10.059
  116DPPC   C4A 1388  16.695   2.414  10.539
  116DPPC   C1B 1389  16.885   3.134   9.319
  116DPPC   C2B 1390  16.435   3.244   9.349
  116DPPC   C3B 1391  16.055   3.274   9.649
  116DPPC   C4B 1392  15.695   2.944   9.709
  117DPPC   NC3 1393   2.465   1.056  10.329
  117DPPC   PO4 1394   2.525   0.986  10.679
  117DPPC   GL1 1395   2.175   1.086  10.999
  117DPPC   GL2 1396   2.045   1.106  10.729
  117DPPC   C1A 1397   1.895   1.006  11.249
  117DPPC   C2A 1398   1.735   1.164  11.599
  117DPPC   C3A 1399   1.455   1.224  11.999
  117DPPC   C4A 1400   1.145   1.284  12.399
  117DPPC   C1B 1401   1.795   1.314  10.989
  117DPPC   C2B 1402   1.445   1.314  11.209
  117DPPC   C3B 1403   1.115   1.394  11.569
  117DPPC   C4B 1404   0.785   1.424  11.979
  118DPPC   NC3 1405  15.735   5.174   8.429
  118DPPC   PO4 1406  15.525   5.334   8.709
  118DPPC   GL1 1407  15.705   5.144   9.029
  118DPPC   GL2 1408  15.605   5.324   9.239
  118DPPC   C1A 1409  16.075   5.184   9.199
  118DPPC   C2A 1410  16.425   5.224   9.429
  118DPPC   C3A 1411  16.865   5.254   9.559
  118DPPC   C4A 1412  17.185   4.944   9.689
  118DPPC   C1B 1413  15.785   5.304   9.549
  118DPPC   C2B 1414  15.985   5.494   9.809
  118DPPC   C3B 1415  16.185   5.764  10.149
  118DPPC   C4B 1416  16.295   5.934  10.589
  119DPPC   NC3 1417  14.855   6.324   9.179
  119DPPC   PO4 1418  14.665   6.294   9.549
  119DPPC   GL1 1419  15.035   6.414   9.819
  119DPPC   GL2 1420  15.155   6.284   9.529
  119DPPC   C1A 1421  15.085   6.464  10.229
  119DPPC   C2A 1422  15.255   6.544  10.599
  119DPPC   C3A 1423  15.595   6.474  10.949
  119DPPC   C4A 1424  15.925   6.484  11.309
  119DPPC   C1B 1425  15.275   6.064   9.769
  119DPPC   C2B 1426  15.465   6.024  10.129
  119DPPC   C3B 1427  15.625   6.064  10.569
  119DPPC   C4B 1428  15.945   6.044  10.979
  120DPPC   NC3 1429  17.835   2.964   8.259
  120DPPC   PO4 1430  17.925   3.174   8.589
  120DPPC   GL1 1431  17.905   3.224   8.979
  120DPPC   GL2 1432  17.725   3.014   9.049
  120DPPC   C1A 1433  17.885   3.314   9.339
  120DPPC   C2A 1434  17.845   3.654   9.589
  120DPPC   C3A 1435  17.785   4.054   9.929
  120DPPC   C4A 1436  17.565   4.544  10.099
  120DPPC   C1B 1437  17.425   3.114   9.249
  120DPPC   C2B 1438  17.275   3.044   9.579
  120DPPC   C3B 1439  17.205   2.944  10.109
  120DPPC   C4B 1440  17.515   3.044  10.489
  121DPPC   NC3 1441  18.905   5.754   8.379
  121DPPC   PO4 1442  18.825   6.104   8.479
  121DPPC   GL1 1443  18.705   6.084   8.919
  121DPPC   GL2 1444  18.405   6.064   8.859
  121DPPC   C1A 1445  18.805   6.304   9.219
  121DPPC   C2A 1446  18.675   6.514   9.579
  121DPPC   C3A 1447  18.495   6.514  10.019
  121DPPC   C4A 1448  18.235   6.484  10.419
  121DPPC   C1B 1449  18.195   6.284   9.009
  121DPPC   C2B 1450  17.845   6.334   9.229
  121DPPC   C3B 1451  17.605   6.324   9.689
  121DPPC   C4B 1452  17.535   6.174  10.159
  122DPPC   NC3 1453   3.105   3.884  11.429
  122DPPC   PO4 1454   3.325   4.144  11.669
  122DPPC   GL1 1455   3.145   4.214  12.049
  122DPPC   GL2 1456   3.175   3.964  12.169
  122DPPC   C1A 1457   2.795   4.214  12.149
  122DPPC   C2A 1458   2.405   4.194  12.289
  122DPPC   C3A 1459   2.085   4.194  12.679
  122DPPC   C4A 1460   1.775   4.234  13.029
  122DPPC   C1B 1461   2.925   3.944  12.499
  122DPPC   C2B 1462   2.685   4.154  12.759
  122DPPC   C3B 1463   2.395   4.094  13.089
  122DPPC   C4B 1464   2.065   4.094  13.509
  123DPPC   NC3 1465  20.515   5.944   8.769
  123DPPC   PO4 1466  20.385   6.124   9.089
  123DPPC   GL1 1467  20.175   5.974   9.539
  123DPPC   GL2 1468  19.995   6.164   9.459
  123DPPC   C1A 1469  20.125   5.804   9.899
  123DPPC   C2A 1470  20.145   5.794  10.299
  123DPPC   C3A 1471  19.885   5.774  10.689
  123DPPC   C4A 1472  19.655   5.764  11.109
  123DPPC   C1B 1473  19.845   6.504   9.559
  123DPPC   C2B 1474  19.865   0.306   9.489
  123DPPC   C3B 1475  19.735   0.806   9.579
  123DPPC   C4B 1476  19.645   1.244   9.529
  124DPPC   NC3 1477  18.115   1.644   8.289
  124DPPC   PO4 1478  17.705   1.544   8.339
  124DPPC   GL1 1479  17.715   1.494   8.719
  124DPPC   GL2 1480  18.075   1.414   8.739
  124DPPC   C1A 1481  17.695   1.784   8.949
  124DPPC   C2A 1482  17.865   2.144   8.969
  124DPPC   C3A 1483  18.125   2.564   9.239
  124DPPC   C4A 1484  18.315   2.904   9.459
  124DPPC   C1B 1485  18.005   1.424   9.069
  124DPPC   C2B 1486  18.115   1.234   9.409
  124DPPC   C3B 1487  18.305   1.136   9.829
  124DPPC   C4B 1488  18.205   1.126  10.259
  125DPPC   NC3 1489   3.105   2.974  11.539
  125DPPC   PO4 1490   3.075   3.384  11.449
  125DPPC   GL1 1491   2.705   3.664  11.659
  125DPPC   GL2 1492   2.925   3.764  11.839
  125DPPC   C1A 1493   2.365   3.714  11.609
  125DPPC   C2A 1494   1.975   3.894  11.599
  125DPPC   C3A 1495   1.585   3.974  11.919
  125DPPC   C4A 1496   1.245   3.994  12.299
  125DPPC   C1B 1497   2.725   3.724  12.189
  125DPPC   C2B 1498   2.535   3.614  12.559
  125DPPC   C3B 1499   2.125   3.714  12.939
  125DPPC   C4B 1500   1.825   3.744  13.309
  126DPPC   NC3 1501   3.375   3.654  11.819
  126DPPC   PO4 1502   3.185   3.334  11.929
  126DPPC   GL1 1503   2.875   3.244  12.119
  126DPPC   GL2 1504   2.775   3.194  11.819
  126DPPC   C1A 1505   2.525   3.274  12.189
  126DPPC   C2A 1506   2.165   3.304  12.289
  126DPPC   C3A 1507   1.845   3.364  12.669
  126DPPC   C4A 1508   1.515   3.384  13.109
  126DPPC   C1B 1509   2.475   3.284  11.659
  126DPPC   C2B 1510   2.145   3.324  11.769
  126DPPC   C3B 1511   1.795   3.534  11.909
  126DPPC   C4B 1512   1.545   3.514  12.309
  127DPPC   NC3 1513   0.985   5.684   9.349
  127DPPC   PO4 1514   1.075   5.884   9.709
  127DPPC   GL1 1515   0.975   5.984  10.079
  127DPPC   GL2 1516   1.135   6.284  10.009
  127DPPC   C1A 1517   1.005   6.014  10.439
  127DPPC   C2A 1518   0.875   5.884  10.859
  127DPPC   C3A 1519   0.545   5.864  11.209
  127DPPC   C4A 1520   0.195   5.874  11.569
  127DPPC   C1B 1521   0.975   6.594  10.109
  127DPPC   C2B 1522   0.725   0.196  10.299
  127DPPC   C3B 1523   0.465   0.276  10.669
  127DPPC   C4B 1524   0.255   0.306  11.139
  128DPPC   NC3 1525   3.305   0.626  11.949
  128DPPC   PO4 1526   3.215   0.996  11.859
  128DPPC   GL1 1527   2.935   1.026  12.149
  128DPPC   GL2 1528   2.655   1.076  11.969
  128DPPC   C1A 1529   2.895   1.016  12.539
  128DPPC   C2A 1530   2.675   0.976  12.899
  128DPPC   C3A 1531   2.385   1.016  13.299
  128DPPC   C4A 1532   2.105   0.996  13.659
  128DPPC   C1B 1533   2.455   1.106  12.279
  128DPPC   C2B 1534   2.255   1.116  12.629
  128DPPC   C3B 1535   1.925   1.086  12.969
  128DPPC   C4B 1536   1.655   1.086  13.399
  129DPPC   NC3 1537  19.565   6.274   8.719
  129DPPC   PO4 1538  19.485   0.036   8.879
  129DPPC   GL1 1539  19.305   0.136   9.269
  129DPPC   GL2 1540  19.185   6.554   9.179
  129DPPC   C1A 1541  19.055   0.286   9.469
  129DPPC   C2A 1542  18.915   0.286   9.869
  129DPPC   C3A 1543  18.655   0.326  10.349
  129DPPC   C4A 1544  18.455   0.386  10.809
  129DPPC   C1B 1545  19.135   6.444   9.499
  129DPPC   C2B 1546  19.065   6.414   9.949
  129DPPC   C3B 1547  18.855   6.414  10.349
  129DPPC   C4B 1548  18.605   6.524  10.779
  130DPPC   NC3 1549   3.075   4.584  10.929
  130DPPC   PO4 1550   3.095   4.424  11.299
  130DPPC   GL1 1551   2.845   4.504  11.669
  130DPPC   GL2 1552   2.865   4.184  11.709
  130DPPC   C1A 1553   2.545   4.574  11.849
  130DPPC   C2A 1554   2.205   4.704  12.129
  130DPPC   C3A 1555   1.955   4.714  12.529
  130DPPC   C4A 1556   1.555   4.664  12.869
  130DPPC   C1B 1557   2.575   4.044  11.849
  130DPPC   C2B 1558   2.315   3.724  12.039
  130DPPC   C3B 1559   2.045   3.754  12.389
  130DPPC   C4B 1560   1.615   3.814  12.719
  131DPPC   NC3 1561  14.865   1.494   9.299
  131DPPC   PO4 1562  14.755   1.126   9.339
  131DPPC   GL1 1563  15.155   1.046   9.559
  131DPPC   GL2 1564  15.285   1.264   9.389
  131DPPC   C1A 1565  15.255   0.866   9.869
  131DPPC   C2A 1566  15.235   0.666  10.249
  131DPPC   C3A 1567  15.485   0.726  10.679
  131DPPC   C4A 1568  15.935   0.756  10.909
  131DPPC   C1B 1569  15.545   1.254   9.659
  131DPPC   C2B 1570  15.775   1.384   9.919
  131DPPC   C3B 1571  16.135   1.564  10.169
  131DPPC   C4B 1572  16.515   1.674  10.489
  132DPPC   NC3 1573   1.255   1.314  10.069
  132DPPC   PO4 1574   1.565   1.154  10.239
  132DPPC   GL1 1575   1.325   0.906  10.459
  132DPPC   GL2 1576   1.645   0.936  10.679
  132DPPC   C1A 1577   1.215   0.846  10.809
  132DPPC   C2A 1578   1.055   1.006  11.139
  132DPPC   C3A 1579   0.735   1.016  11.489
  132DPPC   C4A 1580   0.485   1.056  11.869
  132DPPC   C1B 1581   1.645   0.806  11.009
  132DPPC   C2B 1582   1.455   0.846  11.389
  132DPPC   C3B 1583   1.105   0.886  11.789
  132DPPC   C4B 1584   0.825   0.916  12.229
  133DPPC   NC3 1585  18.615   0.496   8.249
  133DPPC   PO4 1586  18.425   0.246   8.519
  133DPPC   GL1 1587  18.145   0.176   8.719
  133DPPC   GL2 1588  18.375   0.226   8.979
  133DPPC   C1A 1589  17.865   0.166   8.949
  133DPPC   C2A 1590  17.535   0.086   9.129
  133DPPC   C3A 1591  17.155   0.456   9.089
  133DPPC   C4A 1592  16.835   0.876   9.159
  133DPPC   C1B 1593  18.335   0.006   9.289
  133DPPC   C2B 1594  18.165   6.414   9.609
  133DPPC   C3B 1595  17.935   6.504  10.039
  133DPPC   C4B 1596  17.605   6.594  10.459
  134DPPC   NC3 1597  19.455   3.684   8.939
  134DPPC   PO4 1598  19.195   3.524   8.689
  134DPPC   GL1 1599  18.985   3.384   9.079
  134DPPC   GL2 1600  19.215   3.474   9.289
  134DPPC   C1A 1601  18.755   3.374   9.419
  134DPPC   C2A 1602  18.515   3.324   9.789
  134DPPC   C3A 1603  18.365   3.394  10.289
  134DPPC   C4A 1604  18.295   3.634  10.699
  134DPPC   C1B 1605  19.025   3.654   9.589
  134DPPC   C2B 1606  18.865   3.694   9.959
  134DPPC   C3B 1607  18.655   3.754  10.369
  134DPPC   C4B 1608  18.565   4.044  10.789
  135DPPC   NC3 1609   1.885   5.864  10.829
  135DPPC   PO4 1610   2.105   5.954  11.109
  135DPPC   GL1 1611   1.815   5.974  11.509
  135DPPC   GL2 1612   2.015   6.214  11.509
  135DPPC   C1A 1613   1.705   6.014  11.859
  135DPPC   C2A 1614   1.465   6.034  12.179
  135DPPC   C3A 1615   1.215   6.144  12.539
  135DPPC   C4A 1616   1.025   6.174  12.959
  135DPPC   C1B 1617   1.935   6.394  11.809
  135DPPC   C2B 1618   1.795   6.494  12.169
  135DPPC   C3B 1619   1.605   6.484  12.569
  135DPPC   C4B 1620   1.365   6.604  12.929
  136DPPC   NC3 1621  15.215   3.474   8.849
  136DPPC   PO4 1622  15.305   3.304   9.179
  136DPPC   GL1 1623  15.075   3.364   9.559
  136DPPC   GL2 1624  15.265   3.644   9.499
  136DPPC   C1A 1625  15.085   3.334   9.879
  136DPPC   C2A 1626  15.265   3.364  10.249
  136DPPC   C3A 1627  15.635   3.344  10.579
  136DPPC   C4A 1628  15.975   3.414  10.859
  136DPPC   C1B 1629  15.525   3.504   9.779
  136DPPC   C2B 1630  15.785   3.294  10.019
  136DPPC   C3B 1631  16.105   3.214  10.329
  136DPPC   C4B 1632  16.455   3.324  10.569
  137DPPC   NC3 1633  17.245   4.614   7.949
  137DPPC   PO4 1634  17.135   4.924   8.159
  137DPPC   GL1 1635  17.025   5.024   8.609
  137DPPC   GL2 1636  17.145   4.784   8.639
  137DPPC   C1A 1637  16.725   4.944   8.839
  137DPPC   C2A 1638  16.695   4.814   9.209
  137DPPC   C3A 1639  16.595   4.724   9.659
  137DPPC   C4A 1640  16.435   4.664  10.109
  137DPPC   C1B 1641  17.135   4.634   9.009
  137DPPC   C2B 1642  17.065   4.524   9.409
  137DPPC   C3B 1643  16.895   4.234   9.709
  137DPPC   C4B 1644  16.545   4.004   9.989
  138DPPC   NC3 1645  16.435   2.124   8.159
  138DPPC   PO4 1646  16.235   2.174   8.509
  138DPPC   GL1 1647  16.375   1.834   8.749
  138DPPC   GL2 1648  16.415   2.034   9.009
  138DPPC   C1A 1649  16.525   1.524   8.919
  138DPPC   C2A 1650  16.555   1.374   9.299
  138DPPC   C3A 1651  16.955   1.254   9.619
  138DPPC   C4A 1652  17.295   1.314   9.919
  138DPPC   C1B 1653  16.425   1.804   9.339
  138DPPC   C2B 1654  16.715   1.724   9.629
  138DPPC   C3B 1655  17.085   1.824   9.819
  138DPPC   C4B 1656  17.525   1.864  10.049
  139DPPC   NC3 1657   1.675   3.144   9.989
  139DPPC   PO4 1658   1.465   3.424  10.039
  139DPPC   GL1 1659   1.445   3.424  10.459
  139DPPC   GL2 1660   1.525   3.194  10.379
  139DPPC   C1A 1661   1.345   3.514  10.809
  139DPPC   C2A 1662   1.315   3.544  11.219
  139DPPC   C3A 1663   1.415   3.624  11.589
  139DPPC   C4A 1664   1.105   3.644  11.919
  139DPPC   C1B 1665   1.455   3.074  10.689
  139DPPC   C2B 1666   1.275   3.074  10.999
  139DPPC   C3B 1667   0.945   3.164  11.299
  139DPPC   C4B 1668   0.575   3.304  11.619
  140DPPC   NC3 1669   0.855   4.394   9.859
  140DPPC   PO4 1670   0.545   4.414   9.599
  140DPPC   GL1 1671   0.245   4.454  10.009
  140DPPC   GL2 1672   0.405   4.174  10.059
  140DPPC   C1A 1673   0.155   4.614  10.309
  140DPPC   C2A 1674  21.145   4.854  10.539
  140DPPC   C3A 1675   0.145   5.234  10.789
  140DPPC   C4A 1676   0.115   5.534  11.199
  140DPPC   C1B 1677   0.375   4.074  10.439
  140DPPC   C2B 1678   0.275   3.824  10.779
  140DPPC   C3B 1679   0.455   3.654  11.209
  140DPPC   C4B 1680   0.865   3.664  11.489
  141DPPC   NC3 1681  15.985   3.964   8.559
  141DPPC   PO4 1682  15.705   4.244   8.689
  141DPPC   GL1 1683  15.695   4.444   9.009
  141DPPC   GL2 1684  15.775   4.714   8.999
  141DPPC   C1A 1685  15.705   4.354   9.389
  141DPPC   C2A 1686  15.765   4.534   9.769
  141DPPC   C3A 1687  15.965   4.624  10.179
  141DPPC   C4A 1688  16.245   4.644  10.639
  141DPPC   C1B 1689  15.765   4.844   9.329
  141DPPC   C2B 1690  16.055   4.884   9.599
  141DPPC   C3B 1691  16.215   5.104   9.949
  141DPPC   C4B 1692  16.555   5.544   9.899
  142DPPC   NC3 1693  20.745   0.766   9.789
  142DPPC   PO4 1694  20.995   0.516   9.689
  142DPPC   GL1 1695  21.005   0.136   9.879
  142DPPC   GL2 1696   0.105   0.076   9.879
  142DPPC   C1A 1697  20.825   6.464  10.019
  142DPPC   C2A 1698  20.595   6.124  10.039
  142DPPC   C3A 1699  20.545   5.694   9.879
  142DPPC   C4A 1700  20.665   5.234   9.639
  142DPPC   C1B 1701   0.225   6.384  10.059
  142DPPC   C2B 1702   0.225   6.034  10.339
  142DPPC   C3B 1703   0.025   5.574  10.409
  142DPPC   C4B 1704  20.815   5.354  10.349
  143DPPC   NC3 1705  14.795   5.364   9.429
  143DPPC   PO4 1706  14.545   5.054   9.429
  143DPPC   GL1 1707  14.975   4.824   9.579
  143DPPC   GL2 1708  14.965   5.054   9.749
  143DPPC   C1A 1709  15.015   4.494   9.789
  143DPPC   C2A 1710  15.195   4.254  10.079
  143DPPC   C3A 1711  15.575   4.254  10.369
  143DPPC   C4A 1712  15.915   4.274  10.699
  143DPPC   C1B 1713  15.325   5.174   9.789
  143DPPC   C2B 1714  15.685   5.034   9.979
  143DPPC   C3B 1715  15.945   5.124  10.359
  143DPPC   C4B 1716  16.385   5.374  10.449
  144DPPC   NC3 1717   2.525   2.214  10.859
  144DPPC   PO4 1718   2.525   2.584  10.869
  144DPPC   GL1 1719   2.285   2.654  11.279
  144DPPC   GL2 1720   2.195   2.414  11.349
  144DPPC   C1A 1721   2.095   2.894  11.489
  144DPPC   C2A 1722   1.975   2.904  11.889
  144DPPC   C3A 1723   1.755   3.024  12.289
  144DPPC   C4A 1724   1.425   3.064  12.629
  144DPPC   C1B 1725   2.055   2.434  11.659
  144DPPC   C2B 1726   1.865   2.464  12.059
  144DPPC   C3B 1727   1.725   2.544  12.519
  144DPPC   C4B 1728   1.465   2.554  12.939
  145DPPC   NC3 1729  18.575   4.564   8.969
  145DPPC   PO4 1730  18.695   4.964   8.919
  145DPPC   GL1 1731  18.805   4.924   9.319
  145DPPC   GL2 1732  18.815   5.224   9.279
  145DPPC   C1A 1733  18.815   4.754   9.609
  145DPPC   C2A 1734  18.565   4.684   9.969
  145DPPC   C3A 1735  18.365   4.824  10.359
  145DPPC   C4A 1736  18.275   4.944  10.809
  145DPPC   C1B 1737  18.655   5.224   9.629
  145DPPC   C2B 1738  18.455   5.184   9.989
  145DPPC   C3B 1739  18.285   5.314  10.399
  145DPPC   C4B 1740  17.995   5.424  10.769
  146DPPC   NC3 1741   2.125   6.444  10.029
  146DPPC   PO4 1742   2.205   0.096  10.289
  146DPPC   GL1 1743   1.935   0.106  10.669
  146DPPC   GL2 1744   1.935   0.366  10.649
  146DPPC   C1A 1745   1.785   0.206  11.039
  146DPPC   C2A 1746   1.655   0.386  11.419
  146DPPC   C3A 1747   1.295   0.436  11.779
  146DPPC   C4A 1748   1.015   0.476  12.129
  146DPPC   C1B 1749   1.585   0.456  10.739
  146DPPC   C2B 1750   1.285   0.476  11.019
  146DPPC   C3B 1751   0.965   0.566  11.349
  146DPPC   C4B 1752   0.655   0.586  11.729
  147DPPC   NC3 1753   3.045   0.226  11.309
  147DPPC   PO4 1754   2.965   0.576  11.509
  147DPPC   GL1 1755   2.755   0.626  11.849
  147DPPC   GL2 1756   2.505   0.556  11.729
  147DPPC   C1A 1757   2.665   0.566  12.189
  147DPPC   C2A 1758   2.435   0.676  12.499
  147DPPC   C3A 1759   2.165   0.636  12.859
  147DPPC   C4A 1760   1.965   0.656  13.309
  147DPPC   C1B 1761   2.205   0.656  11.909
  147DPPC   C2B 1762   2.015   0.696  12.249
  147DPPC   C3B 1763   1.705   0.746  12.649
  147DPPC   C4B 1764   1.415   0.696  13.079
  148DPPC   NC3 1765  15.335   6.564   9.079
  148DPPC   PO4 1766  15.325   6.154   9.149
  148DPPC   GL1 1767  15.705   6.044   9.329
  148DPPC   GL2 1768  15.715   5.834   9.109
  148DPPC   C1A 1769  15.995   6.174   9.399
  148DPPC   C2A 1770  16.225   6.504   9.599
  148DPPC   C3A 1771  16.005   0.156   9.929
  148DPPC   C4A 1772  15.815   0.486  10.219
  148DPPC   C1B 1773  15.985   5.694   9.259
  148DPPC   C2B 1774  16.295   5.744   9.509
  148DPPC   C3B 1775  16.525   6.124   9.739
  148DPPC   C4B 1776  16.775   6.494   9.869
  149DPPC   NC3 1777  17.475   3.864   8.269
  149DPPC   PO4 1778  17.235   4.194   8.339
  149DPPC   GL1 1779  17.135   4.344   8.679
  149DPPC   GL2 1780  17.435   4.334   8.829
  149DPPC   C1A 1781  17.005   4.244   8.999
  149DPPC   C2A 1782  16.805   3.984   9.239
  149DPPC   C3A 1783  16.735   3.664   9.549
  149DPPC   C4A 1784  16.955   3.314   9.889
  149DPPC   C1B 1785  17.375   4.114   9.149
  149DPPC   C2B 1786  17.245   3.924   9.479
  149DPPC   C3B 1787  17.425   3.634   9.759
  149DPPC   C4B 1788  17.585   3.274   9.989
  150DPPC   NC3 1789   2.355   5.534  11.059
  150DPPC   PO4 1790   2.105   5.324  10.849
  150DPPC   GL1 1791   1.905   5.224  11.189
  150DPPC   GL2 1792   1.975   5.524  11.289
  150DPPC   C1A 1793   1.965   4.894  11.259
  150DPPC   C2A 1794   1.935   4.774  11.639
  150DPPC   C3A 1795   1.735   4.794  12.049
  150DPPC   C4A 1796   1.405   4.824  12.389
  150DPPC   C1B 1797   1.605   5.564  11.359
  150DPPC   C2B 1798   1.435   5.664  11.709
  150DPPC   C3B 1799   1.135   5.644  12.049
  150DPPC   C4B 1800   0.865   5.744  12.459
  151DPPC   NC3 1801  18.425   5.304   9.089
  151DPPC   PO4 1802  18.565   5.614   8.919
  151DPPC   GL1 1803  18.715   5.694   9.249
  151DPPC   GL2 1804  18.905   5.884   9.279
  151DPPC   C1A 1805  18.475   5.624   9.539
  151DPPC   C2A 1806  18.115   5.444   9.709
  151DPPC   C3A 1807  17.935   5.034   9.969
  151DPPC   C4A 1808  17.865   4.934  10.499
  151DPPC   C1B 1809  18.875   6.054   9.589
  151DPPC   C2B 1810  18.645   6.054   9.909
  151DPPC   C3B 1811  18.455   5.984  10.319
  151DPPC   C4B 1812  18.245   5.854  10.799
  152DPPC   NC3 1813  18.735   6.544   8.829
  152DPPC   PO4 1814  18.865   0.296   8.709
  152DPPC   GL1 1815  18.815   0.436   9.129
  152DPPC   GL2 1816  18.955   0.716   9.119
  152DPPC   C1A 1817  18.615   0.356   9.379
  152DPPC   C2A 1818  18.315   0.296   9.689
  152DPPC   C3A 1819  18.205   0.306  10.159
  152DPPC   C4A 1820  17.995   0.226  10.639
  152DPPC   C1B 1821  18.875   0.726   9.499
  152DPPC   C2B 1822  18.635   0.716   9.869
  152DPPC   C3B 1823  18.445   0.746  10.329
  152DPPC   C4B 1824  18.205   0.786  10.799
  153DPPC   NC3 1825   3.345   1.744  11.629
  153DPPC   PO4 1826   3.135   1.874  11.969
  153DPPC   GL1 1827   3.165   1.864  12.449
  153DPPC   GL2 1828   3.105   2.164  12.379
  153DPPC   C1A 1829   3.015   1.764  12.729
  153DPPC   C2A 1830   2.685   1.754  12.999
  153DPPC   C3A 1831   2.455   1.814  13.399
  153DPPC   C4A 1832   2.165   1.874  13.799
  153DPPC   C1B 1833   2.925   2.234  12.669
  153DPPC   C2B 1834   2.595   2.224  12.939
  153DPPC   C3B 1835   2.285   2.264  13.319
  153DPPC   C4B 1836   1.995   2.324  13.719
  154DPPC   NC3 1837   2.305   4.834  10.909
  154DPPC   PO4 1838   2.575   5.094  10.999
  154DPPC   GL1 1839   2.305   5.194  11.309
  154DPPC   GL2 1840   2.395   4.924  11.459
  154DPPC   C1A 1841   2.065   5.214  11.589
  154DPPC   C2A 1842   1.685   5.214  11.749
  154DPPC   C3A 1843   1.355   5.164  12.029
  154DPPC   C4A 1844   1.135   5.264  12.439
  154DPPC   C1B 1845   2.345   4.994  11.829
  154DPPC   C2B 1846   2.065   5.144  12.119
  154DPPC   C3B 1847   1.755   5.174  12.479
  154DPPC   C4B 1848   1.435   5.174  12.869
  155DPPC   NC3 1849  14.105   4.554  10.029
  155DPPC   PO4 1850  13.965   4.374  10.369
  155DPPC   GL1 1851  14.305   4.354  10.599
  155DPPC   GL2 1852  14.455   4.394  10.379
  155DPPC   C1A 1853  14.505   4.364  10.919
  155DPPC   C2A 1854  14.875   4.334  11.119
  155DPPC   C3A 1855  15.265   4.374  11.399
  155DPPC   C4A 1856  15.615   4.434  11.729
  155DPPC   C1B 1857  14.755   4.284  10.369
  155DPPC   C2B 1858  15.085   4.344  10.559
  155DPPC   C3B 1859  15.405   4.294  10.909
  155DPPC   C4B 1860  15.745   4.324  11.199
  156DPPC   NC3 1861   2.365   3.064  11.109
  156DPPC   PO4 1862   2.635   2.894  11.379
  156DPPC   GL1 1863   2.425   2.654  11.699
  156DPPC   GL2 1864   2.585   2.824  11.839
  156DPPC   C1A 1865   2.335   2.434  11.989
  156DPPC   C2A 1866   2.245   2.394  12.389
  156DPPC   C3A 1867   2.045   2.414  12.869
  156DPPC   C4A 1868   1.785   2.404  13.259
  156DPPC   C1B 1869   2.375   2.844  12.129
  156DPPC   C2B 1870   2.215   2.874  12.539
  156DPPC   C3B 1871   1.845   2.894  12.929
  156DPPC   C4B 1872   1.525   2.874  13.329
  157DPPC   NC3 1873   2.295   0.646  10.929
  157DPPC   PO4 1874   2.335   0.256  10.889
  157DPPC   GL1 1875   2.205   0.066  11.239
  157DPPC   GL2 1876   1.995   6.454  11.139
  157DPPC   C1A 1877   2.105   0.286  11.509
  157DPPC   C2A 1878   1.915   0.276  11.869
  157DPPC   C3A 1879   1.605   0.336  12.219
  157DPPC   C4A 1880   1.375   0.316  12.589
  157DPPC   C1B 1881   1.735   6.524  11.429
  157DPPC   C2B 1882   1.535   6.564  11.779
  157DPPC   C3B 1883   1.215   6.584  12.139
  157DPPC   C4B 1884   0.995   0.036  12.569
  158DPPC   NC3 1885  15.355   5.784   8.749
  158DPPC   PO4 1886  15.205   5.584   9.089
  158DPPC   GL1 1887  15.365   5.714   9.459
  158DPPC   GL2 1888  15.215   5.504   9.629
  158DPPC   C1A 1889  15.695   5.844   9.679
  158DPPC   C2A 1890  15.935   6.084   9.939
  158DPPC   C3A 1891  16.305   6.304  10.139
  158DPPC   C4A 1892  16.315   0.136  10.369
  158DPPC   C1B 1893  15.465   5.564   9.869
  158DPPC   C2B 1894  15.735   5.644  10.229
  158DPPC   C3B 1895  15.965   5.564  10.649
  158DPPC   C4B 1896  16.225   5.514  11.049
  159DPPC   NC3 1897  14.495   2.764   9.499
  159DPPC   PO4 1898  14.535   2.894   9.869
  159DPPC   GL1 1899  14.785   3.084  10.129
  159DPPC   GL2 1900  14.635   3.354  10.089
  159DPPC   C1A 1901  15.045   3.014  10.419
  159DPPC   C2A 1902  15.305   2.984  10.739
  159DPPC   C3A 1903  15.655   3.024  11.069
  159DPPC   C4A 1904  15.975   2.994  11.449
  159DPPC   C1B 1905  14.835   3.454  10.399
  159DPPC   C2B 1906  15.035   3.394  10.759
  159DPPC   C3B 1907  15.385   3.464  11.069
  159DPPC   C4B 1908  15.775   3.464  11.339
  160DPPC   NC3 1909  16.625   3.394   8.139
  160DPPC   PO4 1910  16.485   3.634   8.389
  160DPPC   GL1 1911  16.615   3.494   8.839
  160DPPC   GL2 1912  16.625   3.264   8.699
  160DPPC   C1A 1913  16.825   3.504   9.129
  160DPPC   C2A 1914  17.205   3.494   9.329
  160DPPC   C3A 1915  17.615   3.714   9.119
  160DPPC   C4A 1916  18.135   3.814   9.029
  160DPPC   C1B 1917  16.625   2.974   8.929
  160DPPC   C2B 1918  16.435   2.684   9.239
  160DPPC   C3B 1919  16.285   2.264   9.419
  160DPPC   C4B 1920  15.955   1.904   9.549
  161DPPC   NC3 1921  19.275   1.904   8.769
  161DPPC   PO4 1922  18.965   2.104   8.599
  161DPPC   GL1 1923  18.655   2.044   8.919
  161DPPC   GL2 1924  18.905   1.944   9.099
  161DPPC   C1A 1925  18.335   2.104   9.159
  161DPPC   C2A 1926  18.135   2.174   9.529
  161DPPC   C3A 1927  17.945   2.144   9.909
  161DPPC   C4A 1928  17.815   2.094  10.399
  161DPPC   C1B 1929  18.765   2.104   9.359
  161DPPC   C2B 1930  18.585   2.054   9.769
  161DPPC   C3B 1931  18.395   2.094  10.209
  161DPPC   C4B 1932  18.265   2.154  10.719
  162DPPC   NC3 1933  18.365   2.374   8.789
  162DPPC   PO4 1934  18.635   2.664   8.709
  162DPPC   GL1 1935  18.535   2.964   9.039
  162DPPC   GL2 1936  18.615   2.654   9.189
  162DPPC   C1A 1937  18.305   3.244   9.129
  162DPPC   C2A 1938  18.315   3.554   9.399
  162DPPC   C3A 1939  18.525   3.874   9.579
  162DPPC   C4A 1940  18.865   4.174   9.799
  162DPPC   C1B 1941  18.535   2.494   9.529
  162DPPC   C2B 1942  18.355   2.494   9.899
  162DPPC   C3B 1943  18.165   2.554  10.379
  162DPPC   C4B 1944  17.945   2.604  10.789
  163DPPC   NC3 1945  20.115   1.234   9.339
  163DPPC   PO4 1946  20.505   1.174   9.379
  163DPPC   GL1 1947  20.665   1.194   9.869
  163DPPC   GL2 1948  20.345   1.214   9.819
  163DPPC   C1A 1949  20.785   1.026  10.159
  163DPPC   C2A 1950  20.775   0.656  10.339
  163DPPC   C3A 1951  21.015   0.316  10.659
  163DPPC   C4A 1952  21.065   6.534  10.989
  163DPPC   C1B 1953  20.005   1.126   9.869
  163DPPC   C2B 1954  19.945   1.096  10.289
  163DPPC   C3B 1955  19.705   0.936  10.649
  163DPPC   C4B 1956  19.465   0.966  11.079
  164DPPC   NC3 1957  16.085   6.244   8.289
  164DPPC   PO4 1958  16.115   5.904   8.559
  164DPPC   GL1 1959  16.175   5.944   8.919
  164DPPC   GL2 1960  16.395   5.724   8.929
  164DPPC   C1A 1961  16.355   6.164   9.149
  164DPPC   C2A 1962  16.655   6.444   9.289
  164DPPC   C3A 1963  17.105   0.046   9.399
  164DPPC   C4A 1964  17.355   0.386   9.599
  164DPPC   C1B 1965  16.605   5.784   9.199
  164DPPC   C2B 1966  16.925   6.024   9.369
  164DPPC   C3B 1967  17.175   6.184   9.709
  164DPPC   C4B 1968  17.245   0.016   9.979
  165DPPC   NC3 1969   1.515   5.064  10.009
  165DPPC   PO4 1970   1.675   5.314  10.269
  165DPPC   GL1 1971   1.455   5.594  10.589
  165DPPC   GL2 1972   1.645   5.484  10.719
  165DPPC   C1A 1973   1.145   5.454  10.759
  165DPPC   C2A 1974   1.065   5.404  11.119
  165DPPC   C3A 1975   1.125   5.324  11.559
  165DPPC   C4A 1976   0.865   5.274  11.969
  165DPPC   C1B 1977   1.525   5.254  10.979
  165DPPC   C2B 1978   1.505   4.964  11.279
  165DPPC   C3B 1979   1.315   4.824  11.669
  165DPPC   C4B 1980   0.995   4.804  12.049
  166DPPC   NC3 1981  17.595   0.716   8.069
  166DPPC   PO4 1982  17.495   0.336   8.139
  166DPPC   GL1 1983  17.325   0.426   8.509
  166DPPC   GL2 1984  17.225   0.646   8.459
  166DPPC   C1A 1985  17.495   0.426   8.829
  166DPPC   C2A 1986  17.675   0.646   9.099
  166DPPC   C3A 1987  17.755   0.676   9.539
  166DPPC   C4A 1988  17.615   0.866   9.959
  166DPPC   C1B 1989  17.285   0.836   8.799
  166DPPC   C2B 1990  17.405   1.056   9.069
  166DPPC   C3B 1991  17.525   1.126   9.499
  166DPPC   C4B 1992  17.825   1.344   9.769
  167DPPC   NC3 1993   0.575   6.564   9.769
  167DPPC   PO4 1994   0.515   6.254   9.599
  167DPPC   GL1 1995   0.575   5.974   9.839
  167DPPC   GL2 1996   0.365   5.834   9.949
  167DPPC   C1A 1997   0.625   6.204  10.169
  167DPPC   C2A 1998   0.595   6.344  10.559
  167DPPC   C3A 1999   0.465   6.344  10.969
  167DPPC   C4A 2000   0.195   6.434  11.379
  167DPPC   C1B 2001   0.335   5.484  10.119
  167DPPC   C2B 2002   0.365   5.124  10.309
  167DPPC   C3B 2003   0.465   4.784  10.649
  167DPPC   C4B 2004   0.455   4.294  10.849
  168DPPC   NC3 2005   2.655   0.116  11.859
  168DPPC   PO4 2006   2.695   6.554  11.499
  168DPPC   GL1 2007   2.475   6.264  11.629
  168DPPC   GL2 2008   2.605   6.024  11.689
  168DPPC   C1A 2009   2.325   6.424  11.949
  168DPPC   C2A 2010   2.275   0.146  12.189
  168DPPC   C3A 2011   1.955   0.236  12.519
  168DPPC   C4A 2012   1.705   0.326  12.939
  168DPPC   C1B 2013   2.335   5.994  11.949
  168DPPC   C2B 2014   2.025   6.094  12.189
  168DPPC   C3B 2015   1.795   6.014  12.579
  168DPPC   C4B 2016   1.525   6.074  12.899
  169DPPC   NC3 2017   1.875   2.644   9.679
  169DPPC   PO4 2018   1.735   2.474  10.069
  169DPPC   GL1 2019   1.475   2.704  10.329
  169DPPC   GL2 2020   1.795   2.744  10.439
  169DPPC   C1A 2021   1.295   2.544  10.629
  169DPPC   C2A 2022   1.185   2.254  10.899
  169DPPC   C3A 2023   0.895   2.394  11.339
  169DPPC   C4A 2024   0.585   2.294  11.699
  169DPPC   C1B 2025   1.615   2.684  10.819
  169DPPC   C2B 2026   1.365   2.674  11.179
  169DPPC   C3B 2027   1.115   2.764  11.639
  169DPPC   C4B 2028   0.885   2.714  12.019
  170DPPC   NC3 2029  17.195   2.234   8.089
  170DPPC   PO4 2030  16.855   2.404   8.259
  170DPPC   GL1 2031  16.795   2.344   8.569
  170DPPC   GL2 2032  16.665   2.074   8.629
  170DPPC   C1A 2033  16.765   2.434   8.899
  170DPPC   C2A 2034  16.855   2.254   9.259
  170DPPC   C3A 2035  16.675   2.204   9.739
  170DPPC   C4A 2036  16.725   1.994  10.179
  170DPPC   C1B 2037  16.775   1.894   8.939
  170DPPC   C2B 2038  17.005   1.604   9.169
  170DPPC   C3B 2039  17.385   1.614   9.459
  170DPPC   C4B 2040  17.865   1.744   9.389
  171DPPC   NC3 2041  17.025   6.314   8.089
  171DPPC   PO4 2042  16.935   6.264   8.449
  171DPPC   GL1 2043  16.995   6.394   8.829
  171DPPC   GL2 2044  16.885   0.036   8.879
  171DPPC   C1A 2045  17.215   6.274   9.049
  171DPPC   C2A 2046  17.455   6.034   9.319
  171DPPC   C3A 2047  17.605   5.804   9.779
  171DPPC   C4A 2048  17.795   5.634  10.209
  171DPPC   C1B 2049  16.585   0.276   9.069
  171DPPC   C2B 2050  16.695   0.356   9.529
  171DPPC   C3B 2051  16.765   0.476   9.989
  171DPPC   C4B 2052  16.635   0.686  10.409
  172DPPC   NC3 2053  16.295   4.714   8.239
  172DPPC   PO4 2054  16.175   4.984   8.469
  172DPPC   GL1 2055  16.335   5.114   8.689
  172DPPC   GL2 2056  16.485   5.324   8.749
  172DPPC   C1A 2057  16.315   4.884   8.999
  172DPPC   C2A 2058  16.175   4.554   9.229
  172DPPC   C3A 2059  16.195   4.274   9.649
  172DPPC   C4A 2060  16.075   4.174  10.119
  172DPPC   C1B 2061  16.715   5.364   9.039
  172DPPC   C2B 2062  17.095   5.144   9.069
  172DPPC   C3B 2063  17.585   4.974   9.029
  172DPPC   C4B 2064  17.965   5.194   9.309
  173DPPC   NC3 2065   3.505   6.504  12.449
  173DPPC   PO4 2066   3.485   0.226  12.219
  173DPPC   GL1 2067   2.995   0.326  12.189
  173DPPC   GL2 2068   3.075   0.546  12.349
  173DPPC   C1A 2069   2.705   0.166  12.339
  173DPPC   C2A 2070   2.455   0.226  12.659
  173DPPC   C3A 2071   2.215   0.176  13.069
  173DPPC   C4A 2072   1.895   0.196  13.449
  173DPPC   C1B 2073   2.895   0.556  12.699
  173DPPC   C2B 2074   2.685   0.506  13.069
  173DPPC   C3B 2075   2.395   0.486  13.459
  173DPPC   C4B 2076   2.125   0.486  13.859
  174DPPC   NC3 2077   2.585   1.364  11.179
  174DPPC   PO4 2078   2.605   1.734  11.149
  174DPPC   GL1 2079   2.415   1.784  11.509
  174DPPC   GL2 2080   2.315   1.544  11.499
  174DPPC   C1A 2081   2.295   2.024  11.749
  174DPPC   C2A 2082   2.235   1.944  12.109
  174DPPC   C3A 2083   1.925   1.964  12.439
  174DPPC   C4A 2084   1.695   2.054  12.869
  174DPPC   C1B 2085   2.035   1.604  11.739
  174DPPC   C2B 2086   1.765   1.634  12.029
  174DPPC   C3B 2087   1.515   1.634  12.439
  174DPPC   C4B 2088   1.295   1.694  12.859
  175DPPC   NC3 2089   0.495   3.524   9.379
  175DPPC   PO4 2090   0.115   3.634   9.499
  175DPPC   GL1 2091  21.145   3.544   9.879
  175DPPC   GL2 2092   0.215   3.754  10.009
  175DPPC   C1A 2093  21.165   3.164  10.029
  175DPPC   C2A 2094  21.125   2.724  10.029
  175DPPC   C3A 2095  21.045   2.254  10.159
  175DPPC   C4A 2096   0.155   1.854  10.329
  175DPPC   C1B 2097   0.425   3.664  10.299
  175DPPC   C2B 2098   0.505   3.454  10.609
  175DPPC   C3B 2099   0.485   3.164  11.049
  175DPPC   C4B 2100   0.565   2.814  11.299
  176DPPC   NC3 2101  15.615   6.594   8.469
  176DPPC   PO4 2102  15.975   0.046   8.649
  176DPPC   GL1 2103  15.805   6.584   9.139
  176DPPC   GL2 2104  16.095   0.116   9.179
  176DPPC   C1A 2105  15.695   6.504   9.479
  176DPPC   C2A 2106  15.565   6.434   9.839
  176DPPC   C3A 2107  15.785   6.474  10.259
  176DPPC   C4A 2108  16.055   6.414  10.649
  176DPPC   C1B 2109  16.265   0.406   9.409
  176DPPC   C2B 2110  16.145   0.616   9.689
  176DPPC   C3B 2111  16.265   0.576  10.099
  176DPPC   C4B 2112  16.155   0.646  10.509
  177DPPC   NC3 2113   3.835   4.264  12.819
  177DPPC   PO4 2114   3.805   3.894  12.749
  177DPPC   GL1 2115   3.385   3.674  12.829
  177DPPC   GL2 2116   3.495   3.584  12.989
  177DPPC   C1A 2117   3.025   3.644  12.809
  177DPPC   C2A 2118   2.695   3.694  13.059
  177DPPC   C3A 2119   2.355   3.664  13.389
  177DPPC   C4A 2120   2.075   3.644  13.759
  177DPPC   C1B 2121   3.285   3.514  13.289
  177DPPC   C2B 2122   2.915   3.524  13.449
  177DPPC   C3B 2123   2.585   3.624  13.819
  177DPPC   C4B 2124   2.345   3.564  14.249
  178DPPC   NC3 2125  21.145   4.274   9.209
  178DPPC   PO4 2126  20.845   4.314   9.469
  178DPPC   GL1 2127  20.895   4.334   9.889
  178DPPC   GL2 2128  21.005   4.064  10.009
  178DPPC   C1A 2129  20.905   4.654  10.009
  178DPPC   C2A 2130  21.035   5.034  10.019
  178DPPC   C3A 2131  21.025   5.524   9.929
  178DPPC   C4A 2132  21.045   5.994   9.899
  178DPPC   C1B 2133  21.005   4.224  10.309
  178DPPC   C2B 2134   0.025   4.364  10.649
  178DPPC   C3B 2135   0.125   4.734  10.999
  178DPPC   C4B 2136   0.475   5.034  11.089
  179DPPC   NC3 2137  15.135   0.816   9.179
  179DPPC   PO4 2138  15.155   0.436   9.129
  179DPPC   GL1 2139  15.375   0.476   9.529
  179DPPC   GL2 2140  15.445   0.706   9.509
  179DPPC   C1A 2141  15.435   0.346   9.879
  179DPPC   C2A 2142  15.425   0.206  10.239
  179DPPC   C3A 2143  15.735   0.206  10.599
  179DPPC   C4A 2144  16.035   0.166  10.979
  179DPPC   C1B 2145  15.685   0.776   9.789
  179DPPC   C2B 2146  15.975   0.966  10.019
  179DPPC   C3B 2147  16.315   1.076  10.289
  179DPPC   C4B 2148  16.715   1.164  10.539
  180DPPC   NC3 2149   2.145   4.064  10.199
  180DPPC   PO4 2150   1.875   3.794  10.159
  180DPPC   GL1 2151   1.525   4.034  10.279
  180DPPC   GL2 2152   1.755   4.204  10.359
  180DPPC   C1A 2153   1.225   3.924  10.419
  180DPPC   C2A 2154   0.995   3.564  10.489
  180DPPC   C3A 2155   0.925   3.104  10.619
  180DPPC   C4A 2156   0.885   2.724  10.969
  180DPPC   C1B 2157   1.615   4.174  10.679
  180DPPC   C2B 2158   1.245   4.014  10.869
  180DPPC   C3B 2159   0.895   4.124  11.209
  180DPPC   C4B 2160   0.575   4.134  11.589
  181DPPC   NC3 2161   2.855   5.394  11.859
  181DPPC   PO4 2162   3.175   5.154  11.959
  181DPPC   GL1 2163   2.945   4.644  12.069
  181DPPC   GL2 2164   2.865   4.944  12.129
  181DPPC   C1A 2165   2.685   4.584  12.329
  181DPPC   C2A 2166   2.425   4.604  12.609
  181DPPC   C3A 2167   2.165   4.594  13.079
  181DPPC   C4A 2168   1.815   4.544  13.449
  181DPPC   C1B 2169   2.555   4.994  12.249
  181DPPC   C2B 2170   2.275   5.084  12.559
  181DPPC   C3B 2171   1.925   5.034  12.959
  181DPPC   C4B 2172   1.665   5.014  13.389
  182DPPC   NC3 2173  20.355   1.934   8.859
  182DPPC   PO4 2174  20.125   1.754   9.159
  182DPPC   GL1 2175  19.985   1.844   9.629
  182DPPC   GL2 2176  19.685   1.784   9.459
  182DPPC   C1A 2177  20.095   1.724   9.919
  182DPPC   C2A 2178  20.025   1.764  10.319
  182DPPC   C3A 2179  19.795   1.774  10.749
  182DPPC   C4A 2180  19.575   1.784  11.219
  182DPPC   C1B 2181  19.405   1.644   9.679
  182DPPC   C2B 2182  19.145   1.574  10.009
  182DPPC   C3B 2183  19.025   1.554  10.449
  182DPPC   C4B 2184  18.795   1.524  10.879
  183DPPC   NC3 2185   0.655   0.676   9.499
  183DPPC   PO4 2186   0.585   0.866   9.899
  183DPPC   GL1 2187   0.645   0.606  10.189
  183DPPC   GL2 2188   0.405   0.466  10.109
  183DPPC   C1A 2189   0.585   0.776  10.529
  183DPPC   C2A 2190   0.725   1.126  10.759
  183DPPC   C3A 2191   0.655   1.394  11.109
  183DPPC   C4A 2192   0.555   1.534  11.529
  183DPPC   C1B 2193   0.155   0.246  10.309
  183DPPC   C2B 2194  21.145   6.504  10.409
  183DPPC   C3B 2195  20.925   6.134  10.709
  183DPPC   C4B 2196  20.895   5.644  10.789
  184DPPC   NC3 2197  19.405   2.604   9.119
  184DPPC   PO4 2198  19.505   2.194   9.159
  184DPPC   GL1 2199  19.305   2.184   9.539
  184DPPC   GL2 2200  19.175   1.944   9.429
  184DPPC   C1A 2201  19.275   2.284   9.819
  184DPPC   C2A 2202  19.365   2.374  10.179
  184DPPC   C3A 2203  19.145   2.374  10.599
  184DPPC   C4A 2204  19.025   2.324  11.099
  184DPPC   C1B 2205  18.995   1.944   9.739
  184DPPC   C2B 2206  18.905   1.974  10.129
  184DPPC   C3B 2207  18.795   1.994  10.539
  184DPPC   C4B 2208  18.635   2.054  11.029
  185DPPC   NC3 2209  19.255   1.634   8.309
  185DPPC   PO4 2210  19.245   1.384   8.629
  185DPPC   GL1 2211  18.995   1.524   8.949
  185DPPC   GL2 2212  18.805   1.674   8.679
  185DPPC   C1A 2213  18.915   1.584   9.329
  185DPPC   C2A 2214  18.755   1.514   9.679
  185DPPC   C3A 2215  18.545   1.604  10.109
  185DPPC   C4A 2216  18.415   1.614  10.589
  185DPPC   C1B 2217  18.575   1.624   8.949
  185DPPC   C2B 2218  18.375   1.664   9.289
  185DPPC   C3B 2219  18.195   1.704   9.739
  185DPPC   C4B 2220  18.005   1.704  10.179
  186DPPC   NC3 2221  20.715   3.374   9.099
  186DPPC   PO4 2222  20.685   2.964   9.149
  186DPPC   GL1 2223  20.365   2.734   9.459
  186DPPC   GL2 2224  20.625   2.864   9.689
  186DPPC   C1A 2225  20.035   2.684   9.669
  186DPPC   C2A 2226  19.765   2.654  10.029
  186DPPC   C3A 2227  19.585   2.734  10.509
  186DPPC   C4A 2228  19.365   2.754  10.979
  186DPPC   C1B 2229  20.605   2.754  10.029
  186DPPC   C2B 2230  20.305   2.624  10.289
  186DPPC   C3B 2231  20.075   2.624  10.719
  186DPPC   C4B 2232  19.875   2.654  11.179
  187DPPC   NC3 2233  18.925   3.074   8.739
  187DPPC   PO4 2234  19.015   2.934   9.079
  187DPPC   GL1 2235  18.865   2.934   9.509
  187DPPC   GL2 2236  19.135   3.084   9.589
  187DPPC   C1A 2237  18.725   2.824   9.789
  187DPPC   C2A 2238  18.535   2.854  10.189
  187DPPC   C3A 2239  18.395   2.974  10.629
  187DPPC   C4A 2240  18.285   2.774  11.089
  187DPPC   C1B 2241  19.135   3.164   9.909
  187DPPC   C2B 2242  18.865   3.254  10.169
  187DPPC   C3B 2243  18.725   3.324  10.639
  187DPPC   C4B 2244  18.525   3.184  11.049
  188DPPC   NC3 2245   2.545   2.544  10.319
  188DPPC   PO4 2246   2.165   2.504  10.439
  188DPPC   GL1 2247   2.055   2.434  10.839
  188DPPC   GL2 2248   2.035   2.744  10.899
  188DPPC   C1A 2249   1.815   2.294  11.029
  188DPPC   C2A 2250   1.555   2.174  11.299
  188DPPC   C3A 2251   1.325   2.154  11.659
  188DPPC   C4A 2252   1.045   2.214  12.069
  188DPPC   C1B 2253   1.845   2.714  11.229
  188DPPC   C2B 2254   1.625   2.614  11.589
  188DPPC   C3B 2255   1.415   2.584  12.039
  188DPPC   C4B 2256   1.195   2.584  12.469
  189DPPC   NC3 2257   0.875   4.694   9.419
  189DPPC   PO4 2258   1.045   4.844   9.739
  189DPPC   GL1 2259   0.895   5.154  10.059
  189DPPC   GL2 2260   0.645   5.044   9.969
  189DPPC   C1A 2261   0.785   5.424  10.299
  189DPPC   C2A 2262   0.605   5.754  10.469
  189DPPC   C3A 2263   0.245   5.924  10.809
  189DPPC   C4A 2264  21.105   6.004  11.169
  189DPPC   C1B 2265   0.635   4.704  10.109
  189DPPC   C2B 2266   0.705   4.364  10.349
  189DPPC   C3B 2267   0.785   4.004  10.649
  189DPPC   C4B 2268   0.865   3.594  10.949
  190DPPC   NC3 2269   2.305   6.424  10.699
  190DPPC   PO4 2270   1.985   6.254  10.459
  190DPPC   GL1 2271   1.725   6.294  10.679
  190DPPC   GL2 2272   1.575   6.524  10.699
  190DPPC   C1A 2273   1.595   6.204  11.049
  190DPPC   C2A 2274   1.365   6.184  11.369
  190DPPC   C3A 2275   1.155   6.184  11.829
  190DPPC   C4A 2276   0.865   6.144  12.179
  190DPPC   C1B 2277   1.355   0.016  10.999
  190DPPC   C2B 2278   1.225   0.086  11.369
  190DPPC   C3B 2279   0.915   0.096  11.729
  190DPPC   C4B 2280   0.625   0.066  12.159
  191DPPC   NC3 2281  20.255   0.246   9.169
  191DPPC   PO4 2282  20.535   0.386   9.439
  191DPPC   GL1 2283  20.395   0.166   9.839
  191DPPC   GL2 2284  20.625   0.316   9.989
  191DPPC   C1A 2285  20.035   0.076   9.879
  191DPPC   C2A 2286  19.805   0.066  10.219
  191DPPC   C3A 2287  19.565   0.146  10.659
  191DPPC   C4A 2288  19.335   0.196  11.099
  191DPPC   C1B 2289  20.655   0.196  10.319
  191DPPC   C2B 2290  20.445   0.306  10.619
  191DPPC   C3B 2291  20.215   0.376  11.069
  191DPPC   C4B 2292  19.975   0.396  11.479
  192DPPC   NC3 2293   2.005   2.054  10.299
  192DPPC   PO4 2294   2.165   1.914  10.669
  192DPPC   GL1 2295   2.195   1.944  11.079
  192DPPC   GL2 2296   2.125   1.634  11.119
  192DPPC   C1A 2297   2.025   1.984  11.409
  192DPPC   C2A 2298   1.835   2.054  11.709
  192DPPC   C3A 2299   1.545   2.094  12.069
  192DPPC   C4A 2300   1.305   2.094  12.479
  192DPPC   C1B 2301   1.845   1.554  11.379
  192DPPC   C2B 2302   1.515   1.644  11.599
  192DPPC   C3B 2303   1.175   1.684  11.979
  192DPPC   C4B 2304   0.965   1.734  12.409
  193DPPC   NC3 2305   1.975   4.844   9.899
  193DPPC   PO4 2306   1.805   4.644  10.209
  193DPPC   GL1 2307   1.465   4.874  10.479
  193DPPC   GL2 2308   1.525   4.624  10.569
  193DPPC   C1A 2309   1.285   4.964  10.809
  193DPPC   C2A 2310   1.015   4.934  11.109
  193DPPC   C3A 2311   0.745   4.954  11.569
  193DPPC   C4A 2312   0.245   5.074  11.599
  193DPPC   C1B 2313   1.435   4.564  10.939
  193DPPC   C2B 2314   1.245   4.434  11.279
  193DPPC   C3B 2315   0.925   4.504  11.649
  193DPPC   C4B 2316   0.585   4.474  12.049
  194DPPC   NC3 2317   1.515   6.084   9.789
  194DPPC   PO4 2318   1.635   6.314  10.069
  194DPPC   GL1 2319   1.395   6.124  10.359
  194DPPC   GL2 2320   1.305   6.344  10.429
  194DPPC   C1A 2321   1.345   5.994  10.699
  194DPPC   C2A 2322   1.375   5.794  11.089
  194DPPC   C3A 2323   1.015   5.794  11.439
  194DPPC   C4A 2324   0.675   5.874  11.779
  194DPPC   C1B 2325   1.105   6.314  10.739
  194DPPC   C2B 2326   0.905   6.294  11.159
  194DPPC   C3B 2327   0.605   6.304  11.529
  194DPPC   C4B 2328   0.355   6.194  12.019
  195DPPC   NC3 2329   2.635   3.824  10.669
  195DPPC   PO4 2330   2.445   3.494  10.729
  195DPPC   GL1 2331   2.165   3.504  10.979
  195DPPC   GL2 2332   2.245   3.694  11.149
  195DPPC   C1A 2333   1.985   3.324  11.179
  195DPPC   C2A 2334   1.695   3.234  11.419
  195DPPC   C3A 2335   1.475   3.154  11.869
  195DPPC   C4A 2336   1.145   3.154  12.209
  195DPPC   C1B 2337   1.835   3.744  11.219
  195DPPC   C2B 2338   1.525   4.004  11.299
  195DPPC   C3B 2339   1.205   4.094  11.619
  195DPPC   C4B 2340   0.875   4.084  11.989
  196DPPC   NC3 2341  17.215   1.514   8.209
  196DPPC   PO4 2342  17.305   1.824   8.419
  196DPPC   GL1 2343  17.285   1.854   8.849
  196DPPC   GL2 2344  17.115   2.074   8.829
  196DPPC   C1A 2345  17.415   1.984   9.149
  196DPPC   C2A 2346  17.335   2.184   9.479
  196DPPC   C3A 2347  17.375   2.504   9.859
  196DPPC   C4A 2348  17.595   2.644  10.299
  196DPPC   C1B 2349  17.225   2.394   8.989
  196DPPC   C2B 2350  17.475   2.634   9.179
  196DPPC   C3B 2351  17.735   2.864   9.509
  196DPPC   C4B 2352  18.055   3.134   9.819
  197DPPC   NC3 2353   3.005   2.814  12.069
  197DPPC   PO4 2354   3.245   2.614  12.339
  197DPPC   GL1 2355   3.215   2.904  12.609
  197DPPC   GL2 2356   3.125   3.074  12.449
  197DPPC   C1A 2357   3.035   2.814  12.879
  197DPPC   C2A 2358   2.855   2.714  13.219
  197DPPC   C3A 2359   2.585   2.654  13.599
  197DPPC   C4A 2360   2.305   2.694  13.979
  197DPPC   C1B 2361   2.805   3.164  12.589
  197DPPC   C2B 2362   2.495   3.194  12.859
  197DPPC   C3B 2363   2.135   3.244  13.209
  197DPPC   C4B 2364   1.795   3.284  13.559
  198DPPC   NC3 2365   2.995   0.966  10.829
  198DPPC   PO4 2366   2.755   0.876  11.169
  198DPPC   GL1 2367   2.405   1.036  11.389
  198DPPC   GL2 2368   2.245   0.786  11.339
  198DPPC   C1A 2369   2.305   1.184  11.679
  198DPPC   C2A 2370   2.045   1.214  12.029
  198DPPC   C3A 2371   1.765   1.214  12.429
  198DPPC   C4A 2372   1.485   1.146  12.829
  198DPPC   C1B 2373   1.965   0.696  11.579
  198DPPC   C2B 2374   1.645   0.756  11.859
  198DPPC   C3B 2375   1.405   0.816  12.269
  198DPPC   C4B 2376   1.135   0.846  12.629
  199DPPC   NC3 2377   2.475   6.234  11.109
  199DPPC   PO4 2378   2.625   5.874  11.229
  199DPPC   GL1 2379   2.365   5.654  11.499
  199DPPC   GL2 2380   2.225   5.854  11.549
  199DPPC   C1A 2381   2.395   5.534  11.839
  199DPPC   C2A 2382   2.285   5.604  12.179
  199DPPC   C3A 2383   2.005   5.574  12.519
  199DPPC   C4A 2384   1.735   5.564  12.909
  199DPPC   C1B 2385   1.985   5.684  11.789
  199DPPC   C2B 2386   1.735   5.634  12.129
  199DPPC   C3B 2387   1.475   5.624  12.479
  199DPPC   C4B 2388   1.175   5.644  12.849
  200DPPC   NC3 2389  15.345   4.774   8.869
  200DPPC   PO4 2390  15.165   4.434   8.999
  200DPPC   GL1 2391  15.275   4.384   9.399
  200DPPC   GL2 2392  15.375   4.674   9.469
  200DPPC   C1A 2393  15.395   4.104   9.599
  200DPPC   C2A 2394  15.735   3.934   9.739
  200DPPC   C3A 2395  16.005   3.704  10.079
  200DPPC   C4A 2396  16.345   3.834  10.429
  200DPPC   C1B 2397  15.345   4.744   9.829
  200DPPC   C2B 2398  15.405   4.704  10.249
  200DPPC   C3B 2399  15.675   4.704  10.649
  200DPPC   C4B 2400  15.955   4.724  11.019
11999DPPC   NC3 2401   1.645   5.414  17.209
11999DPPC   PO4 2402   1.525   5.404  16.859
11999DPPC   GL1 2403   1.705   5.314  16.469
11999DPPC   GL2 2404   1.515   5.404  16.339
11999DPPC   C1A 2405   1.985   5.324  16.269
11999DPPC   C2A 2406   2.285   5.464  15.969
11999DPPC   C3A 2407   2.585   5.464  15.619
11999DPPC   C4A 2408   2.855   5.464  15.249
11999DPPC   C1B 2409   1.655   5.564  16.009
11999DPPC   C2B 2410   1.935   5.544  15.679
11999DPPC   C3B 2411   2.205   5.564  15.299
11999DPPC   C4B 2412   2.415   5.594  14.909
12000DPPC   NC3 2413   1.075   6.154  16.489
12000DPPC   PO4 2414   0.825   6.054  16.209
12000DPPC   GL1 2415   1.025   6.174  15.809
12000DPPC   GL2 2416   1.155   6.284  16.029
12000DPPC   C1A 2417   1.245   6.174  15.479
12000DPPC   C2A 2418   1.505   6.094  15.169
12000DPPC   C3A 2419   1.795   6.124  14.719
12000DPPC   C4A 2420   2.105   6.174  14.359
12000DPPC   C1B 2421   1.445   6.444  15.839
12000DPPC   C2B 2422   1.585   6.494  15.509
12000DPPC   C3B 2423   1.885   6.514  15.119
12000DPPC   C4B 2424   2.225   6.504  14.729
12001DPPC   NC3 2425   3.685   2.514  19.239
12001DPPC   PO4 2426   3.645   2.684  18.889
12001DPPC   GL1 2427   3.915   2.784  18.659
12001DPPC   GL2 2428   4.015   3.004  18.809
12001DPPC   C1A 2429   4.125   2.744  18.339
12001DPPC   C2A 2430   4.245   2.664  17.949
12001DPPC   C3A 2431   4.535   2.744  17.579
12001DPPC   C4A 2432   4.765   2.704  17.149
12001DPPC   C1B 2433   4.265   3.144  18.539
12001DPPC   C2B 2434   4.455   3.084  18.239
12001DPPC   C3B 2435   4.755   3.134  17.849
12001DPPC   C4B 2436   4.995   3.094  17.419
12002DPPC   NC3 2437   4.555   4.734  20.169
12002DPPC   PO4 2438   4.475   4.414  20.339
12002DPPC   GL1 2439   4.545   4.214  19.909
12002DPPC   GL2 2440   4.295   4.444  19.879
12002DPPC   C1A 2441   4.785   4.184  19.619
12002DPPC   C2A 2442   4.925   4.144  19.229
12002DPPC   C3A 2443   5.225   4.204  18.879
12002DPPC   C4A 2444   5.525   4.234  18.439
12002DPPC   C1B 2445   4.575   4.594  19.639
12002DPPC   C2B 2446   4.695   4.604  19.239
12002DPPC   C3B 2447   5.055   4.704  18.919
12002DPPC   C4B 2448   5.345   4.784  18.489
12003DPPC   NC3 2449   0.415   6.224  15.709
12003DPPC   PO4 2450   0.695   6.474  15.929
12003DPPC   GL1 2451   0.995   0.126  15.739
12003DPPC   GL2 2452   1.115   6.534  15.599
12003DPPC   C1A 2453   1.035   0.326  15.429
12003DPPC   C2A 2454   1.185   0.366  15.049
12003DPPC   C3A 2455   1.485   0.426  14.669
12003DPPC   C4A 2456   1.755   0.496  14.299
12003DPPC   C1B 2457   1.175   6.554  15.259
12003DPPC   C2B 2458   1.425   6.584  14.939
12003DPPC   C3B 2459   1.765   6.584  14.569
12003DPPC   C4B 2460   1.995   0.036  14.099
12004DPPC   NC3 2461   2.165   4.264  18.459
12004DPPC   PO4 2462   2.375   4.094  18.179
12004DPPC   GL1 2463   2.755   3.934  18.119
12004DPPC   GL2 2464   2.605   3.864  17.869
12004DPPC   C1A 2465   3.015   4.114  18.029
12004DPPC   C2A 2466   3.235   4.194  17.709
12004DPPC   C3A 2467   3.585   4.214  17.319
12004DPPC   C4A 2468   3.915   4.314  16.979
12004DPPC   C1B 2469   2.865   3.954  17.629
12004DPPC   C2B 2470   3.105   3.904  17.299
12004DPPC   C3B 2471   3.425   3.874  16.959
12004DPPC   C4B 2472   3.735   3.894  16.549
12005DPPC   NC3 2473   5.135   0.976  21.089
12005DPPC   PO4 2474   5.085   1.214  20.789
12005DPPC   GL1 2475   5.095   0.946  20.479
12005DPPC   GL2 2476   5.315   0.806  20.509
12005DPPC   C1A 2477   5.255   1.106  20.119
12005DPPC   C2A 2478   5.385   1.066  19.749
12005DPPC   C3A 2479   5.645   1.036  19.349
12005DPPC   C4A 2480   5.965   1.016  19.029
12005DPPC   C1B 2481   5.365   0.676  20.179
12005DPPC   C2B 2482   5.555   0.516  19.909
12005DPPC   C3B 2483   5.835   0.576  19.449
12005DPPC   C4B 2484   6.145   0.586  19.049
12006DPPC   NC3 2485   2.815   4.754  18.709
12006DPPC   PO4 2486   2.535   4.524  18.509
12006DPPC   GL1 2487   2.725   4.424  18.179
12006DPPC   GL2 2488   2.855   4.714  18.249
12006DPPC   C1A 2489   2.725   4.394  17.829
12006DPPC   C2A 2490   2.845   4.354  17.439
12006DPPC   C3A 2491   3.145   4.354  17.019
12006DPPC   C4A 2492   3.425   4.334  16.649
12006DPPC   C1B 2493   3.175   4.604  18.219
12006DPPC   C2B 2494   3.465   4.564  17.929
12006DPPC   C3B 2495   3.745   4.614  17.559
12006DPPC   C4B 2496   4.125   4.674  17.269
12007DPPC   NC3 2497   2.265   3.534  18.829
12007DPPC   PO4 2498   2.645   3.524  18.839
12007DPPC   GL1 2499   2.855   3.394  18.489
12007DPPC   GL2 2500   2.925   3.704  18.499
12007DPPC   C1A 2501   3.105   3.294  18.229
12007DPPC   C2A 2502   3.435   3.234  18.019
12007DPPC   C3A 2503   3.685   3.314  17.679
12007DPPC   C4A 2504   3.985   3.374  17.279
12007DPPC   C1B 2505   3.175   3.744  18.199
12007DPPC   C2B 2506   3.355   3.744  17.819
12007DPPC   C3B 2507   3.645   3.764  17.439
12007DPPC   C4B 2508   3.955   3.814  17.029
12008DPPC   NC3 2509   1.955   1.264  17.309
12008DPPC   PO4 2510   1.705   0.976  17.159
12008DPPC   GL1 2511   1.905   0.856  16.799
12008DPPC   GL2 2512   1.845   1.046  16.589
12008DPPC   C1A 2513   2.275   0.936  16.789
12008DPPC   C2A 2514   2.625   0.896  16.549
12008DPPC   C3A 2515   2.975   0.906  16.189
12008DPPC   C4A 2516   3.255   0.956  15.809
12008DPPC   C1B 2517   2.155   0.886  16.389
12008DPPC   C2B 2518   2.405   0.996  16.099
12008DPPC   C3B 2519   2.685   1.006  15.789
12008DPPC   C4B 2520   2.965   1.026  15.379
12009DPPC   NC3 2521   1.515   1.534  17.109
12009DPPC   PO4 2522   1.395   1.874  16.869
12009DPPC   GL1 2523   1.605   1.984  16.629
12009DPPC   GL2 2524   1.745   2.234  16.759
12009DPPC   C1A 2525   1.825   1.924  16.339
12009DPPC   C2A 2526   2.025   1.904  15.989
12009DPPC   C3A 2527   2.335   1.964  15.619
12009DPPC   C4A 2528   2.605   1.984  15.249
12009DPPC   C1B 2529   2.065   2.284  16.559
12009DPPC   C2B 2530   2.255   2.294  16.209
12009DPPC   C3B 2531   2.595   2.274  15.869
12009DPPC   C4B 2532   2.895   2.324  15.479
12010DPPC   NC3 2533   1.915   3.874  16.939
12010DPPC   PO4 2534   1.545   3.804  16.799
12010DPPC   GL1 2535   1.605   3.444  16.659
12010DPPC   GL2 2536   1.375   3.464  16.419
12010DPPC   C1A 2537   1.915   3.494  16.479
12010DPPC   C2A 2538   2.255   3.654  16.279
12010DPPC   C3A 2539   2.535   3.664  15.909
12010DPPC   C4A 2540   2.915   3.674  15.549
12010DPPC   C1B 2541   1.515   3.334  16.129
12010DPPC   C2B 2542   1.725   3.434  15.789
12010DPPC   C3B 2543   2.005   3.454  15.389
12010DPPC   C4B 2544   2.325   3.414  15.049
12011DPPC   NC3 2545   1.205   5.614  16.069
12011DPPC   PO4 2546   1.235   5.734  16.419
12011DPPC   GL1 2547   1.505   6.064  16.359
12011DPPC   GL2 2548   1.435   5.994  16.109
12011DPPC   C1A 2549   1.725   6.294  16.189
12011DPPC   C2A 2550   1.955   6.354  15.839
12011DPPC   C3A 2551   2.245   6.384  15.489
12011DPPC   C4A 2552   2.585   6.354  15.129
12011DPPC   C1B 2553   1.625   6.014  15.769
12011DPPC   C2B 2554   1.875   5.984  15.449
12011DPPC   C3B 2555   2.155   6.074  15.029
12011DPPC   C4B 2556   2.475   6.064  14.669
12012DPPC   NC3 2557   4.175   1.654  19.829
12012DPPC   PO4 2558   4.265   1.974  20.039
12012DPPC   GL1 2559   4.415   2.044  19.619
12012DPPC   GL2 2560   4.245   2.214  19.509
12012DPPC   C1A 2561   4.665   2.034  19.339
12012DPPC   C2A 2562   4.865   2.054  18.939
12012DPPC   C3A 2563   5.165   2.044  18.639
12012DPPC   C4A 2564   5.545   2.114  18.299
12012DPPC   C1B 2565   4.335   2.234  19.159
12012DPPC   C2B 2566   4.345   2.194  18.769
12012DPPC   C3B 2567   4.695   2.094  18.459
12012DPPC   C4B 2568   5.035   2.204  18.079
12013DPPC   NC3 2569   1.615   4.874  17.549
12013DPPC   PO4 2570   1.545   4.944  17.179
12013DPPC   GL1 2571   1.835   5.084  16.899
12013DPPC   GL2 2572   1.795   4.874  16.769
12013DPPC   C1A 2573   2.115   5.214  16.869
12013DPPC   C2A 2574   2.445   5.324  16.609
12013DPPC   C3A 2575   2.725   5.374  16.229
12013DPPC   C4A 2576   3.035   5.434  15.839
12013DPPC   C1B 2577   1.985   4.874  16.479
12013DPPC   C2B 2578   2.315   4.944  16.239
12013DPPC   C3B 2579   2.595   5.004  15.909
12013DPPC   C4B 2580   2.855   5.064  15.559
12014DPPC   NC3 2581   2.845   0.806  18.369
12014DPPC   PO4 2582   2.635   0.486  18.489
12014DPPC   GL1 2583   2.875   0.296  18.199
12014DPPC   GL2 2584   2.815   0.006  18.199
12014DPPC   C1A 2585   3.055   0.286  17.889
12014DPPC   C2A 2586   3.355   0.306  17.569
12014DPPC   C3A 2587   3.685   0.286  17.179
12014DPPC   C4A 2588   4.055   0.306  16.789
12014DPPC   C1B 2589   2.825   6.484  17.839
12014DPPC   C2B 2590   3.035   6.534  17.509
12014DPPC   C3B 2591   3.305   6.594  17.149
12014DPPC   C4B 2592   3.545   6.564  16.759
12015DPPC   NC3 2593   2.705   2.244  18.759
12015DPPC   PO4 2594   2.425   2.114  18.499
12015DPPC   GL1 2595   2.715   2.384  18.179
12015DPPC   GL2 2596   2.835   2.154  18.279
12015DPPC   C1A 2597   2.925   2.474  17.889
12015DPPC   C2A 2598   3.285   2.474  17.689
12015DPPC   C3A 2599   3.685   2.494  17.399
12015DPPC   C4A 2600   4.025   2.444  17.069
12015DPPC   C1B 2601   3.155   2.114  18.079
12015DPPC   C2B 2602   3.455   2.024  17.819
12015DPPC   C3B 2603   3.835   2.004  17.449
12015DPPC   C4B 2604   4.105   1.844  17.049
12016DPPC   NC3 2605   1.325   2.364  16.599
12016DPPC   PO4 2606   1.205   2.054  16.369
12016DPPC   GL1 2607   1.365   1.894  16.089
12016DPPC   GL2 2608   1.515   1.654  16.239
12016DPPC   C1A 2609   1.605   1.974  15.859
12016DPPC   C2A 2610   1.835   2.094  15.519
12016DPPC   C3A 2611   2.145   2.094  15.099
12016DPPC   C4A 2612   2.375   2.094  14.679
12016DPPC   C1B 2613   1.725   1.524  15.959
12016DPPC   C2B 2614   1.935   1.574  15.619
12016DPPC   C3B 2615   2.305   1.554  15.309
12016DPPC   C4B 2616   2.605   1.664  14.879
12017DPPC   NC3 2617   3.445   1.944  18.929
12017DPPC   PO4 2618   3.125   2.034  18.669
12017DPPC   GL1 2619   3.375   1.794  18.409
12017DPPC   GL2 2620   3.605   1.984  18.389
12017DPPC   C1A 2621   3.385   1.564  18.099
12017DPPC   C2A 2622   3.715   1.594  17.799
12017DPPC   C3A 2623   3.985   1.524  17.399
12017DPPC   C4A 2624   4.395   1.444  17.079
12017DPPC   C1B 2625   3.875   1.884  18.149
12017DPPC   C2B 2626   4.145   1.864  17.809
12017DPPC   C3B 2627   4.445   1.834  17.499
12017DPPC   C4B 2628   4.735   1.414  17.439
12018DPPC   NC3 2629   8.995   5.004  22.289
12018DPPC   PO4 2630   8.865   4.844  21.949
12018DPPC   GL1 2631   9.025   4.724  21.589
12018DPPC   GL2 2632   9.155   5.004  21.499
12018DPPC   C1A 2633   8.935   4.594  21.289
12018DPPC   C2A 2634   8.805   4.334  20.919
12018DPPC   C3A 2635   8.775   4.524  20.479
12018DPPC   C4A 2636   8.605   4.544  19.989
12018DPPC   C1B 2637   9.005   5.024  21.179
12018DPPC   C2B 2638   9.015   5.344  20.899
12018DPPC   C3B 2639   9.095   5.624  20.569
12018DPPC   C4B 2640   8.845   5.664  20.119
12019DPPC   NC3 2641   6.245   1.904  21.749
12019DPPC   PO4 2642   6.525   1.894  21.489
12019DPPC   GL1 2643   6.675   1.954  21.099
12019DPPC   GL2 2644   6.935   1.884  21.109
12019DPPC   C1A 2645   6.695   2.104  20.819
12019DPPC   C2A 2646   6.665   2.194  20.429
12019DPPC   C3A 2647   6.365   2.154  20.059
12019DPPC   C4A 2648   6.245   1.834  19.719
12019DPPC   C1B 2649   7.105   1.924  20.779
12019DPPC   C2B 2650   7.325   1.984  20.399
12019DPPC   C3B 2651   7.635   1.984  20.009
12019DPPC   C4B 2652   7.925   1.994  19.579
12020DPPC   NC3 2653   2.955   2.854  18.259
12020DPPC   PO4 2654   2.975   2.554  18.509
12020DPPC   GL1 2655   3.295   2.394  18.399
12020DPPC   GL2 2656   3.465   2.384  18.629
12020DPPC   C1A 2657   3.525   2.344  18.109
12020DPPC   C2A 2658   3.885   2.264  17.859
12020DPPC   C3A 2659   4.215   2.364  17.539
12020DPPC   C4A 2660   4.525   2.264  17.099
12020DPPC   C1B 2661   3.795   2.424  18.439
12020DPPC   C2B 2662   4.125   2.284  18.289
12020DPPC   C3B 2663   4.415   2.214  17.979
12020DPPC   C4B 2664   4.765   2.204  17.629
12021DPPC   NC3 2665   3.385   0.086  19.239
12021DPPC   PO4 2666   3.615   6.404  19.309
12021DPPC   GL1 2667   3.685   6.134  19.049
12021DPPC   GL2 2668   3.435   6.324  18.939
12021DPPC   C1A 2669   3.935   6.174  18.739
12021DPPC   C2A 2670   4.185   6.164  18.399
12021DPPC   C3A 2671   4.495   6.224  17.989
12021DPPC   C4A 2672   4.805   6.224  17.599
12021DPPC   C1B 2673   3.495   6.304  18.579
12021DPPC   C2B 2674   3.625   6.284  18.229
12021DPPC   C3B 2675   3.995   6.244  17.919
12021DPPC   C4B 2676   4.275   6.314  17.469
12022DPPC   NC3 2677   2.645   5.114  19.439
12022DPPC   PO4 2678   2.625   5.234  19.069
12022DPPC   GL1 2679   2.895   5.194  18.769
12022DPPC   GL2 2680   3.045   5.474  18.739
12022DPPC   C1A 2681   3.145   5.004  18.589
12022DPPC   C2A 2682   3.475   5.024  18.319
12022DPPC   C3A 2683   3.815   4.994  17.999
12022DPPC   C4A 2684   4.155   5.024  17.639
12022DPPC   C1B 2685   3.315   5.474  18.449
12022DPPC   C2B 2686   3.535   5.454  18.049
12022DPPC   C3B 2687   3.825   5.504  17.699
12022DPPC   C4B 2688   4.155   5.414  17.339
12023DPPC   NC3 2689   2.675   3.044  18.699
12023DPPC   PO4 2690   2.475   3.124  18.359
12023DPPC   GL1 2691   2.625   3.184  18.029
12023DPPC   GL2 2692   2.655   3.484  18.009
12023DPPC   C1A 2693   2.895   2.974  17.789
12023DPPC   C2A 2694   3.275   2.974  17.559
12023DPPC   C3A 2695   3.635   2.974  17.239
12023DPPC   C4A 2696   3.875   2.964  16.819
12023DPPC   C1B 2697   2.935   3.564  17.749
12023DPPC   C2B 2698   3.235   3.474  17.429
12023DPPC   C3B 2699   3.525   3.424  17.049
12023DPPC   C4B 2700   3.845   3.424  16.679
12024DPPC   NC3 2701   0.985   3.874  16.649
12024DPPC   PO4 2702   1.035   3.884  16.269
12024DPPC   GL1 2703   1.345   3.754  16.049
12024DPPC   GL2 2704   1.555   3.814  16.319
12024DPPC   C1A 2705   1.545   3.844  15.749
12024DPPC   C2A 2706   1.805   3.884  15.399
12024DPPC   C3A 2707   2.105   3.924  15.029
12024DPPC   C4A 2708   2.415   3.924  14.639
12024DPPC   C1B 2709   1.825   3.774  16.139
12024DPPC   C2B 2710   2.055   3.804  15.819
12024DPPC   C3B 2711   2.375   3.814  15.439
12024DPPC   C4B 2712   2.645   3.844  15.069
12025DPPC   NC3 2713   2.025   1.056  17.839
12025DPPC   PO4 2714   2.015   0.716  17.639
12025DPPC   GL1 2715   2.355   0.616  17.519
12025DPPC   GL2 2716   2.525   0.836  17.509
12025DPPC   C1A 2717   2.475   0.506  17.189
12025DPPC   C2A 2718   2.625   0.486  16.839
12025DPPC   C3A 2719   2.895   0.496  16.539
12025DPPC   C4A 2720   3.235   0.476  16.149
12025DPPC   C1B 2721   2.805   0.826  17.249
12025DPPC   C2B 2722   2.965   0.806  16.909
12025DPPC   C3B 2723   3.295   0.796  16.529
12025DPPC   C4B 2724   3.605   0.836  16.139
12026DPPC   NC3 2725   1.565   2.354  17.689
12026DPPC   PO4 2726   1.915   2.164  17.549
12026DPPC   GL1 2727   1.995   2.314  17.199
12026DPPC   GL2 2728   2.215   2.224  17.259
12026DPPC   C1A 2729   2.055   2.574  16.929
12026DPPC   C2A 2730   2.365   2.674  16.649
12026DPPC   C3A 2731   2.665   2.664  16.299
12026DPPC   C4A 2732   2.995   2.734  15.929
12026DPPC   C1B 2733   2.365   2.184  16.929
12026DPPC   C2B 2734   2.585   2.174  16.559
12026DPPC   C3B 2735   2.935   2.204  16.219
12026DPPC   C4B 2736   3.205   2.204  15.859
12027DPPC   NC3 2737   4.485   0.546  20.209
12027DPPC   PO4 2738   4.255   0.246  20.069
12027DPPC   GL1 2739   4.335   0.176  19.639
12027DPPC   GL2 2740   4.445   6.544  19.649
12027DPPC   C1A 2741   4.405   0.316  19.319
12027DPPC   C2A 2742   4.465   0.416  18.949
12027DPPC   C3A 2743   4.805   0.406  18.609
12027DPPC   C4A 2744   5.145   0.346  18.289
12027DPPC   C1B 2745   4.575   6.534  19.299
12027DPPC   C2B 2746   4.785   6.534  18.959
12027DPPC   C3B 2747   5.085   6.524  18.559
12027DPPC   C4B 2748   5.415   6.474  18.189
12028DPPC   NC3 2749   3.785   0.986  19.589
12028DPPC   PO4 2750   3.795   1.374  19.679
12028DPPC   GL1 2751   4.085   1.364  19.369
12028DPPC   GL2 2752   3.855   1.364  19.179
12028DPPC   C1A 2753   4.425   1.394  19.299
12028DPPC   C2A 2754   4.685   1.234  19.009
12028DPPC   C3A 2755   5.005   1.204  18.679
12028DPPC   C4A 2756   5.305   1.214  18.249
12028DPPC   C1B 2757   4.075   1.434  18.899
12028DPPC   C2B 2758   4.375   1.294  18.609
12028DPPC   C3B 2759   4.725   1.284  18.219
12028DPPC   C4B 2760   4.965   1.294  17.869
12029DPPC   NC3 2761   2.475   6.194  18.189
12029DPPC   PO4 2762   2.275   6.504  18.009
12029DPPC   GL1 2763   2.345   6.274  17.699
12029DPPC   GL2 2764   2.325   6.014  17.789
12029DPPC   C1A 2765   2.595   6.324  17.419
12029DPPC   C2A 2766   2.835   6.194  17.109
12029DPPC   C3A 2767   3.215   6.134  16.809
12029DPPC   C4A 2768   3.445   6.224  16.429
12029DPPC   C1B 2769   2.495   5.774  17.579
12029DPPC   C2B 2770   2.855   5.664  17.389
12029DPPC   C3B 2771   3.215   5.704  17.039
12029DPPC   C4B 2772   3.495   5.754  16.599
12030DPPC   NC3 2773   4.205   3.994  20.159
12030DPPC   PO4 2774   3.975   4.074  19.829
12030DPPC   GL1 2775   4.275   4.124  19.609
12030DPPC   GL2 2776   4.195   4.354  19.469
12030DPPC   C1A 2777   4.405   3.834  19.469
12030DPPC   C2A 2778   4.605   3.764  19.119
12030DPPC   C3A 2779   4.895   3.844  18.709
12030DPPC   C4A 2780   5.165   3.874  18.349
12030DPPC   C1B 2781   4.325   4.314  19.119
12030DPPC   C2B 2782   4.605   4.244  18.839
12030DPPC   C3B 2783   4.965   4.364  18.449
12030DPPC   C4B 2784   5.255   4.384  18.049
12031DPPC   NC3 2785   0.745   0.316  16.149
12031DPPC   PO4 2786   1.065   0.126  16.209
12031DPPC   GL1 2787   1.325   0.296  15.929
12031DPPC   GL2 2788   1.535   0.386  16.109
12031DPPC   C1A 2789   1.445   0.306  15.579
12031DPPC   C2A 2790   1.645   0.346  15.199
12031DPPC   C3A 2791   1.985   0.346  14.809
12031DPPC   C4A 2792   2.225   0.296  14.419
12031DPPC   C1B 2793   1.825   0.226  15.929
12031DPPC   C2B 2794   2.025   0.246  15.539
12031DPPC   C3B 2795   2.335   0.196  15.209
12031DPPC   C4B 2796   2.535   0.306  14.829
12032DPPC   NC3 2797   3.915   5.834  20.829
12032DPPC   PO4 2798   4.205   5.874  20.519
12032DPPC   GL1 2799   4.645   5.744  20.449
12032DPPC   GL2 2800   4.595   5.924  20.219
12032DPPC   C1A 2801   4.985   5.594  20.259
12032DPPC   C2A 2802   5.255   5.434  19.959
12032DPPC   C3A 2803   5.495   5.334  19.549
12032DPPC   C4A 2804   5.725   4.984  19.309
12032DPPC   C1B 2805   4.845   5.964  19.929
12032DPPC   C2B 2806   5.115   5.904  19.669
12032DPPC   C3B 2807   5.385   5.904  19.289
12032DPPC   C4B 2808   5.675   5.934  18.869
12033DPPC   NC3 2809   3.315   1.404  19.919
12033DPPC   PO4 2810   3.245   1.214  19.549
12033DPPC   GL1 2811   3.315   1.194  19.049
12033DPPC   GL2 2812   3.475   1.016  19.169
12033DPPC   C1A 2813   3.505   1.414  18.779
12033DPPC   C2A 2814   3.785   1.444  18.509
12033DPPC   C3A 2815   4.095   1.364  18.129
12033DPPC   C4A 2816   4.395   1.394  17.779
12033DPPC   C1B 2817   3.765   1.076  18.869
12033DPPC   C2B 2818   4.015   0.986  18.559
12033DPPC   C3B 2819   4.265   0.916  18.209
12033DPPC   C4B 2820   4.545   0.906  17.839
12034DPPC   NC3 2821   1.425   3.164  17.109
12034DPPC   PO4 2822   1.345   2.784  17.119
12034DPPC   GL1 2823   1.665   2.684  16.889
12034DPPC   GL2 2824   1.805   2.964  16.859
12034DPPC   C1A 2825   1.795   2.594  16.519
12034DPPC   C2A 2826   2.065   2.734  16.189
12034DPPC   C3A 2827   2.425   2.794  15.849
12034DPPC   C4A 2828   2.745   2.774  15.439
12034DPPC   C1B 2829   2.135   3.094  16.669
12034DPPC   C2B 2830   2.415   3.164  16.339
12034DPPC   C3B 2831   2.735   3.164  15.949
12034DPPC   C4B 2832   3.075   3.164  15.649
12035DPPC   NC3 2833   0.325   6.114  16.209
12035DPPC   PO4 2834   0.445   5.814  15.979
12035DPPC   GL1 2835   0.865   5.734  15.789
12035DPPC   GL2 2836   0.745   5.884  15.599
12035DPPC   C1A 2837   1.175   5.694  15.599
12035DPPC   C2A 2838   1.505   5.624  15.419
12035DPPC   C3A 2839   1.805   5.624  14.999
12035DPPC   C4A 2840   2.065   5.674  14.579
12035DPPC   C1B 2841   0.835   5.794  15.269
12035DPPC   C2B 2842   1.075   5.724  14.949
12035DPPC   C3B 2843   1.415   5.734  14.629
12035DPPC   C4B 2844   1.725   5.794  14.289
12036DPPC   NC3 2845   1.875   2.304  18.069
12036DPPC   PO4 2846   2.285   2.354  18.079
12036DPPC   GL1 2847   2.535   2.194  17.709
12036DPPC   GL2 2848   2.715   2.064  17.809
12036DPPC   C1A 2849   2.665   2.114  17.349
12036DPPC   C2A 2850   2.915   2.094  16.999
12036DPPC   C3A 2851   3.245   2.144  16.609
12036DPPC   C4A 2852   3.515   2.104  16.199
12036DPPC   C1B 2853   3.045   2.134  17.629
12036DPPC   C2B 2854   3.305   2.124  17.299
12036DPPC   C3B 2855   3.615   2.044  16.989
12036DPPC   C4B 2856   3.885   1.904  16.629
12037DPPC   NC3 2857   4.195   1.454  20.419
12037DPPC   PO4 2858   3.985   1.244  20.159
12037DPPC   GL1 2859   4.255   1.224  19.789
12037DPPC   GL2 2860   4.475   1.234  20.049
12037DPPC   C1A 2861   4.265   0.966  19.459
12037DPPC   C2A 2862   4.615   0.756  19.389
12037DPPC   C3A 2863   4.895   0.806  18.999
12037DPPC   C4A 2864   5.235   0.686  18.659
12037DPPC   C1B 2865   4.705   1.174  19.789
12037DPPC   C2B 2866   4.965   1.096  19.489
12037DPPC   C3B 2867   5.245   1.146  19.089
12037DPPC   C4B 2868   5.595   1.086  18.729
12038DPPC   NC3 2869   2.955   6.144  18.949
12038DPPC   PO4 2870   2.855   6.334  18.639
12038DPPC   GL1 2871   3.115   6.494  18.489
12038DPPC   GL2 2872   3.095   6.254  18.229
12038DPPC   C1A 2873   3.365   0.106  18.339
12038DPPC   C2A 2874   3.695   0.166  18.009
12038DPPC   C3A 2875   3.955   0.136  17.599
12038DPPC   C4A 2876   4.305   0.126  17.219
12038DPPC   C1B 2877   3.265   6.324  17.939
12038DPPC   C2B 2878   3.585   6.424  17.679
12038DPPC   C3B 2879   3.835   6.404  17.229
12038DPPC   C4B 2880   4.185   6.374  16.869
12039DPPC   NC3 2881   2.155   6.254  18.629
12039DPPC   PO4 2882   2.445   6.024  18.679
12039DPPC   GL1 2883   2.725   5.874  18.359
12039DPPC   GL2 2884   2.985   5.864  18.559
12039DPPC   C1A 2885   2.695   5.854  17.959
12039DPPC   C2A 2886   2.955   6.004  17.709
12039DPPC   C3A 2887   3.305   6.164  17.329
12039DPPC   C4A 2888   3.655   6.024  16.969
12039DPPC   C1B 2889   3.245   5.844  18.219
12039DPPC   C2B 2890   3.455   5.924  17.839
12039DPPC   C3B 2891   3.745   5.964  17.509
12039DPPC   C4B 2892   4.085   5.924  17.119
12040DPPC   NC3 2893   5.015   0.036  20.649
12040DPPC   PO4 2894   4.695   0.096  20.439
12040DPPC   GL1 2895   4.665   0.106  20.019
12040DPPC   GL2 2896   4.665   6.384  19.999
12040DPPC   C1A 2897   4.775   0.296  19.729
12040DPPC   C2A 2898   4.855   0.316  19.349
12040DPPC   C3A 2899   5.165   0.286  18.939
12040DPPC   C4A 2900   5.515   0.336  18.599
12040DPPC   C1B 2901   4.855   6.444  19.649
12040DPPC   C2B 2902   5.105   6.374  19.359
12040DPPC   C3B 2903   5.395   6.334  18.979
12040DPPC   C4B 2904   5.715   6.424  18.629
12041DPPC   NC3 2905   1.935   0.316  17.349
12041DPPC   PO4 2906   1.745   0.496  17.039
12041DPPC   GL1 2907   2.095   0.326  16.769
12041DPPC   GL2 2908   2.215   0.546  16.669
12041DPPC   C1A 2909   2.375   0.136  16.599
12041DPPC   C2A 2910   2.705   0.046  16.339
12041DPPC   C3A 2911   2.995   0.026  15.959
12041DPPC   C4A 2912   3.255   0.026  15.579
12041DPPC   C1B 2913   2.395   0.516  16.379
12041DPPC   C2B 2914   2.665   0.486  16.069
12041DPPC   C3B 2915   2.955   0.596  15.689
12041DPPC   C4B 2916   3.225   0.546  15.249
12042DPPC   NC3 2917   1.485   6.584  16.349
12042DPPC   PO4 2918   1.385   0.286  16.649
12042DPPC   GL1 2919   1.755   0.486  16.549
12042DPPC   GL2 2920   1.695   0.716  16.399
12042DPPC   C1A 2921   1.945   0.196  16.399
12042DPPC   C2A 2922   2.185   0.036  16.159
12042DPPC   C3A 2923   2.515   0.076  15.769
12042DPPC   C4A 2924   2.835   0.176  15.419
12042DPPC   C1B 2925   1.935   0.646  16.139
12042DPPC   C2B 2926   2.215   0.506  15.949
12042DPPC   C3B 2927   2.475   0.556  15.589
12042DPPC   C4B 2928   2.755   0.616  15.239
12043DPPC   NC3 2929   2.915   1.684  18.349
12043DPPC   PO4 2930   2.655   1.704  18.059
12043DPPC   GL1 2931   2.935   1.584  17.779
12043DPPC   GL2 2932   2.745   1.664  17.539
12043DPPC   C1A 2933   3.275   1.494  17.679
12043DPPC   C2A 2934   3.505   1.584  17.339
12043DPPC   C3A 2935   3.735   1.494  16.929
12043DPPC   C4A 2936   4.115   1.444  16.589
12043DPPC   C1B 2937   3.015   1.594  17.289
12043DPPC   C2B 2938   3.185   1.684  16.929
12043DPPC   C3B 2939   3.455   1.644  16.559
12043DPPC   C4B 2940   3.775   1.634  16.219
12044DPPC   NC3 2941   3.085   3.874  18.919
12044DPPC   PO4 2942   3.295   4.004  19.249
12044DPPC   GL1 2943   3.675   3.984  19.059
12044DPPC   GL2 2944   3.535   3.724  18.949
12044DPPC   C1A 2945   3.855   4.034  18.779
12044DPPC   C2A 2946   4.035   4.084  18.369
12044DPPC   C3A 2947   4.315   4.034  17.989
12044DPPC   C4A 2948   4.595   4.094  17.559
12044DPPC   C1B 2949   3.555   3.774  18.549
12044DPPC   C2B 2950   3.775   3.724  18.179
12044DPPC   C3B 2951   3.975   3.714  17.799
12044DPPC   C4B 2952   4.355   3.704  17.479
12045DPPC   NC3 2953   0.475   1.954  16.629
12045DPPC   PO4 2954   0.735   1.814  16.339
12045DPPC   GL1 2955   0.895   1.654  15.899
12045DPPC   GL2 2956   1.075   1.534  16.069
12045DPPC   C1A 2957   1.155   1.794  15.659
12045DPPC   C2A 2958   1.445   1.644  15.469
12045DPPC   C3A 2959   1.815   1.674  15.159
12045DPPC   C4A 2960   2.105   1.674  14.749
12045DPPC   C1B 2961   1.305   1.344  15.789
12045DPPC   C2B 2962   1.615   1.146  15.639
12045DPPC   C3B 2963   1.945   1.184  15.249
12045DPPC   C4B 2964   2.195   1.214  14.839
12046DPPC   NC3 2965   2.225   4.514  17.999
12046DPPC   PO4 2966   1.895   4.534  17.749
12046DPPC   GL1 2967   2.025   4.534  17.439
12046DPPC   GL2 2968   1.905   4.684  17.229
12046DPPC   C1A 2969   2.395   4.494  17.299
12046DPPC   C2A 2970   2.615   4.404  16.969
12046DPPC   C3A 2971   2.885   4.354  16.549
12046DPPC   C4A 2972   3.205   4.454  16.219
12046DPPC   C1B 2973   2.165   4.784  17.019
12046DPPC   C2B 2974   2.515   4.904  16.839
12046DPPC   C3B 2975   2.815   4.884  16.439
12046DPPC   C4B 2976   3.125   4.954  16.049
12047DPPC   NC3 2977   5.415   2.964  21.129
12047DPPC   PO4 2978   5.115   2.694  21.059
12047DPPC   GL1 2979   5.175   2.664  20.609
12047DPPC   GL2 2980   5.335   2.864  20.639
12047DPPC   C1A 2981   5.345   2.364  20.359
12047DPPC   C2A 2982   5.315   2.114  20.019
12047DPPC   C3A 2983   5.595   1.884  19.709
12047DPPC   C4A 2984   5.925   1.844  19.329
12047DPPC   C1B 2985   5.385   2.784  20.249
12047DPPC   C2B 2986   5.535   2.584  19.929
12047DPPC   C3B 2987   5.525   2.364  19.529
12047DPPC   C4B 2988   5.835   2.354  19.139
12048DPPC   NC3 2989   1.555   4.444  17.339
12048DPPC   PO4 2990   1.755   4.114  17.319
12048DPPC   GL1 2991   2.115   4.064  17.329
12048DPPC   GL2 2992   2.175   4.164  17.579
12048DPPC   C1A 2993   2.265   4.144  16.999
12048DPPC   C2A 2994   2.415   4.064  16.629
12048DPPC   C3A 2995   2.715   4.084  16.229
12048DPPC   C4A 2996   3.085   4.074  15.929
12048DPPC   C1B 2997   2.465   4.094  17.579
12048DPPC   C2B 2998   2.615   3.944  17.199
12048DPPC   C3B 2999   2.875   3.964  16.819
12048DPPC   C4B 3000   3.175   3.974  16.409
12049DPPC   NC3 3001   3.745   5.354  20.079
12049DPPC   PO4 3002   3.765   5.634  19.789
12049DPPC   GL1 3003   3.945   5.614  19.469
12049DPPC   GL2 3004   3.945   5.944  19.399
12049DPPC   C1A 3005   4.045   5.334  19.239
12049DPPC   C2A 3006   4.255   5.274  18.889
12049DPPC   C3A 3007   4.485   5.284  18.439
12049DPPC   C4A 3008   4.785   5.244  18.059
12049DPPC   C1B 3009   4.225   6.114  19.219
12049DPPC   C2B 3010   4.475   6.074  18.919
12049DPPC   C3B 3011   4.715   6.104  18.479
12049DPPC   C4B 3012   5.025   6.204  18.109
12050DPPC   NC3 3013   2.325   0.396  18.119
12050DPPC   PO4 3014   2.425   0.736  17.989
12050DPPC   GL1 3015   2.775   0.626  17.849
12050DPPC   GL2 3016   2.895   0.896  17.819
12050DPPC   C1A 3017   2.805   0.476  17.529
12050DPPC   C2A 3018   3.025   0.356  17.199
12050DPPC   C3A 3019   3.275   0.376  16.829
12050DPPC   C4A 3020   3.575   0.386  16.489
12050DPPC   C1B 3021   3.105   0.786  17.549
12050DPPC   C2B 3022   3.395   0.726  17.239
12050DPPC   C3B 3023   3.725   0.716  16.849
12050DPPC   C4B 3024   3.955   0.656  16.459
12051DPPC   NC3 3025   1.505   5.314  17.959
12051DPPC   PO4 3026   1.805   5.314  17.729
12051DPPC   GL1 3027   2.165   4.974  17.759
12051DPPC   GL2 3028   2.255   5.244  17.729
12051DPPC   C1A 3029   2.465   4.874  17.529
12051DPPC   C2A 3030   2.735   4.844  17.269
12051DPPC   C3A 3031   3.055   4.844  16.879
12051DPPC   C4A 3032   3.365   4.854  16.489
12051DPPC   C1B 3033   2.505   5.314  17.449
12051DPPC   C2B 3034   2.695   5.284  17.049
12051DPPC   C3B 3035   3.015   5.294  16.659
12051DPPC   C4B 3036   3.295   5.314  16.329
12052DPPC   NC3 3037   4.055   6.324  19.559
12052DPPC   PO4 3038   3.905   0.076  19.599
12052DPPC   GL1 3039   4.005   0.016  19.179
12052DPPC   GL2 3040   3.915   0.296  19.139
12052DPPC   C1A 3041   4.225   6.494  18.939
12052DPPC   C2A 3042   4.415   6.604  18.579
12052DPPC   C3A 3043   4.735   0.036  18.239
12052DPPC   C4A 3044   5.005   0.056  17.879
12052DPPC   C1B 3045   4.065   0.286  18.799
12052DPPC   C2B 3046   4.255   0.466  18.519
12052DPPC   C3B 3047   4.515   0.446  18.119
12052DPPC   C4B 3048   4.895   0.516  17.869
12053DPPC   NC3 3049  11.825   6.554  21.029
12053DPPC   PO4 3050  11.995   0.296  21.089
12053DPPC   GL1 3051  11.795   0.426  20.769
12053DPPC   GL2 3052  11.645   0.186  20.699
12053DPPC   C1A 3053  11.675   0.656  20.469
12053DPPC   C2A 3054  11.635   0.726  20.079
12053DPPC   C3A 3055  11.375   0.716  19.649
12053DPPC   C4A 3056  11.095   0.816  19.259
12053DPPC   C1B 3057  11.505   0.256  20.339
12053DPPC   C2B 3058  11.595   0.256  19.949
12053DPPC   C3B 3059  11.375   0.266  19.539
12053DPPC   C4B 3060  11.145   0.306  19.129
12054DPPC   NC3 3061   7.865   5.664  21.709
12054DPPC   PO4 3062   7.875   6.024  21.629
12054DPPC   GL1 3063   8.275   5.994  21.469
12054DPPC   GL2 3064   8.105   5.994  21.189
12054DPPC   C1A 3065   8.615   6.054  21.619
12054DPPC   C2A 3066   8.955   6.114  21.469
12054DPPC   C3A 3067   9.365   6.274  21.439
12054DPPC   C4A 3068   9.565   6.514  21.139
12054DPPC   C1B 3069   8.295   5.854  20.869
12054DPPC   C2B 3070   8.525   5.624  20.609
12054DPPC   C3B 3071   8.655   5.174  20.539
12054DPPC   C4B 3072   8.985   4.854  20.749
12055DPPC   NC3 3073   3.245   3.694  19.679
12055DPPC   PO4 3074   3.595   3.764  19.719
12055DPPC   GL1 3075   3.865   3.774  19.369
12055DPPC   GL2 3076   3.755   3.474  19.369
12055DPPC   C1A 3077   4.115   3.794  19.069
12055DPPC   C2A 3078   4.345   3.874  18.719
12055DPPC   C3A 3079   4.645   3.894  18.339
12055DPPC   C4A 3080   4.955   3.924  17.929
12055DPPC   C1B 3081   3.785   3.374  18.979
12055DPPC   C2B 3082   3.965   3.474  18.619
12055DPPC   C3B 3083   4.245   3.554  18.229
12055DPPC   C4B 3084   4.595   3.634  17.869
12056DPPC   NC3 3085   1.325   4.234  16.559
12056DPPC   PO4 3086   1.125   4.554  16.449
12056DPPC   GL1 3087   1.425   4.654  16.289
12056DPPC   GL2 3088   1.665   4.584  16.469
12056DPPC   C1A 3089   1.565   4.594  15.949
12056DPPC   C2A 3090   1.765   4.674  15.599
12056DPPC   C3A 3091   2.065   4.704  15.179
12056DPPC   C4A 3092   2.385   4.744  14.839
12056DPPC   C1B 3093   1.925   4.564  16.229
12056DPPC   C2B 3094   2.175   4.554  15.889
12056DPPC   C3B 3095   2.515   4.624  15.539
12056DPPC   C4B 3096   2.835   4.594  15.089
12057DPPC   NC3 3097   5.375   5.454  21.429
12057DPPC   PO4 3098   5.575   5.714  21.179
12057DPPC   GL1 3099   5.625   5.714  20.769
12057DPPC   GL2 3100   5.395   5.804  20.719
12057DPPC   C1A 3101   5.765   5.454  20.479
12057DPPC   C2A 3102   5.815   5.354  20.059
12057DPPC   C3A 3103   5.965   5.194  19.669
12057DPPC   C4A 3104   6.215   5.304  19.299
12057DPPC   C1B 3105   5.355   5.504  20.409
12057DPPC   C2B 3106   5.445   5.124  20.359
12057DPPC   C3B 3107   5.695   4.754  20.329
12057DPPC   C4B 3108   5.965   4.314  20.339
12058DPPC   NC3 3109   5.795   0.156  20.999
12058DPPC   PO4 3110   5.435   0.246  20.939
12058DPPC   GL1 3111   5.375   0.276  20.559
12058DPPC   GL2 3112   5.655   0.356  20.549
12058DPPC   C1A 3113   5.375   0.056  20.339
12058DPPC   C2A 3114   5.535   6.414  20.129
12058DPPC   C3A 3115   5.535   6.234  19.699
12058DPPC   C4A 3116   5.745   6.214  19.329
12058DPPC   C1B 3117   5.755   0.186  20.249
12058DPPC   C2B 3118   5.885   0.026  19.929
12058DPPC   C3B 3119   6.095   6.204  19.749
12058DPPC   C4B 3120   6.165   5.744  19.939
12059DPPC   NC3 3121   1.475   0.076  17.089
12059DPPC   PO4 3122   1.495   6.394  16.869
12059DPPC   GL1 3123   1.845   6.304  16.599
12059DPPC   GL2 3124   1.935   6.084  16.769
12059DPPC   C1A 3125   2.135   6.224  16.339
12059DPPC   C2A 3126   2.425   6.224  16.029
12059DPPC   C3A 3127   2.765   6.294  15.639
12059DPPC   C4A 3128   3.055   6.294  15.229
12059DPPC   C1B 3129   2.285   5.904  16.749
12059DPPC   C2B 3130   2.435   5.824  16.349
12059DPPC   C3B 3131   2.735   5.834  15.929
12059DPPC   C4B 3132   3.025   5.844  15.529
12060DPPC   NC3 3133   2.645   0.836  18.849
12060DPPC   PO4 3134   2.805   1.204  18.679
12060DPPC   GL1 3135   3.115   1.284  18.449
12060DPPC   GL2 3136   2.935   1.274  18.119
12060DPPC   C1A 3137   3.395   1.106  18.379
12060DPPC   C2A 3138   3.755   0.996  18.169
12060DPPC   C3A 3139   4.045   1.056  17.719
12060DPPC   C4A 3140   4.385   1.006  17.379
12060DPPC   C1B 3141   3.245   1.184  17.959
12060DPPC   C2B 3142   3.515   1.136  17.599
12060DPPC   C3B 3143   3.865   1.076  17.239
12060DPPC   C4B 3144   4.095   1.056  16.899
12061DPPC   NC3 3145   2.625   4.214  19.199
12061DPPC   PO4 3146   2.955   4.414  19.059
12061DPPC   GL1 3147   3.275   4.294  18.909
12061DPPC   GL2 3148   3.475   4.424  19.089
12061DPPC   C1A 3149   3.385   4.194  18.579
12061DPPC   C2A 3150   3.435   4.144  18.179
12061DPPC   C3A 3151   3.795   4.164  17.829
12061DPPC   C4A 3152   4.125   4.154  17.429
12061DPPC   C1B 3153   3.855   4.394  19.049
12061DPPC   C2B 3154   4.135   4.394  18.739
12061DPPC   C3B 3155   4.465   4.444  18.349
12061DPPC   C4B 3156   4.725   4.384  17.969
12062DPPC   NC3 3157   3.495   5.934  19.489
12062DPPC   PO4 3158   3.285   5.934  19.139
12062DPPC   GL1 3159   3.385   5.934  18.769
12062DPPC   GL2 3160   3.475   5.684  18.829
12062DPPC   C1A 3161   3.625   5.884  18.459
12062DPPC   C2A 3162   3.885   5.814  18.119
12062DPPC   C3A 3163   4.195   5.804  17.739
12062DPPC   C4A 3164   4.525   5.814  17.339
12062DPPC   C1B 3165   3.835   5.714  18.789
12062DPPC   C2B 3166   4.145   5.704  18.579
12062DPPC   C3B 3167   4.505   5.744  18.199
12062DPPC   C4B 3168   4.825   5.774  17.809
12063DPPC   NC3 3169   4.235   2.854  19.789
12063DPPC   PO4 3170   3.895   2.714  19.659
12063DPPC   GL1 3171   4.145   2.634  19.349
12063DPPC   GL2 3172   4.075   2.664  19.129
12063DPPC   C1A 3173   4.485   2.634  19.429
12063DPPC   C2A 3174   4.705   2.584  19.059
12063DPPC   C3A 3175   4.985   2.544  18.669
12063DPPC   C4A 3176   5.295   2.544  18.299
12063DPPC   C1B 3177   4.285   2.654  18.819
12063DPPC   C2B 3178   4.505   2.624  18.489
12063DPPC   C3B 3179   4.715   2.624  18.089
12063DPPC   C4B 3180   5.035   2.664  17.749
12064DPPC   NC3 3181   3.715   4.214  19.479
12064DPPC   PO4 3182   3.785   4.624  19.569
12064DPPC   GL1 3183   3.895   4.934  19.269
12064DPPC   GL2 3184   4.155   4.944  19.439
12064DPPC   C1A 3185   3.945   4.894  18.869
12064DPPC   C2A 3186   4.115   4.904  18.469
12064DPPC   C3A 3187   4.445   4.924  18.109
12064DPPC   C4A 3188   4.675   4.874  17.649
12064DPPC   C1B 3189   4.345   4.864  19.149
12064DPPC   C2B 3190   4.545   4.814  18.779
12064DPPC   C3B 3191   4.805   4.824  18.409
12064DPPC   C4B 3192   5.135   4.854  18.049
12065DPPC   NC3 3193   1.105   1.904  17.269
12065DPPC   PO4 3194   1.485   1.894  17.469
12065DPPC   GL1 3195   1.825   1.904  17.129
12065DPPC   GL2 3196   1.935   1.714  17.289
12065DPPC   C1A 3197   2.005   1.884  16.849
12065DPPC   C2A 3198   2.255   1.824  16.499
12065DPPC   C3A 3199   2.525   1.774  16.109
12065DPPC   C4A 3200   2.835   1.874  15.699
12065DPPC   C1B 3201   2.285   1.604  17.199
12065DPPC   C2B 3202   2.565   1.704  16.909
12065DPPC   C3B 3203   2.895   1.734  16.559
12065DPPC   C4B 3204   3.125   1.754  16.139
12066DPPC   NC3 3205   1.185   3.034  16.099
12066DPPC   PO4 3206   1.105   2.654  16.169
12066DPPC   GL1 3207   1.465   2.424  16.139
12066DPPC   GL2 3208   1.345   2.404  15.839
12066DPPC   C1A 3209   1.805   2.354  15.969
12066DPPC   C2A 3210   2.105   2.424  15.739
12066DPPC   C3A 3211   2.395   2.414  15.399
12066DPPC   C4A 3212   2.745   2.494  15.069
12066DPPC   C1B 3213   1.545   2.554  15.509
12066DPPC   C2B 3214   1.885   2.524  15.259
12066DPPC   C3B 3215   2.215   2.554  14.879
12066DPPC   C4B 3216   2.525   2.534  14.529
12067DPPC   NC3 3217   1.505   5.934  16.779
12067DPPC   PO4 3218   1.755   5.904  17.149
12067DPPC   GL1 3219   1.985   5.614  17.009
12067DPPC   GL2 3220   1.915   5.624  16.729
12067DPPC   C1A 3221   2.335   5.604  17.069
12067DPPC   C2A 3222   2.685   5.734  16.859
12067DPPC   C3A 3223   2.945   5.784  16.519
12067DPPC   C4A 3224   3.225   5.784  16.119
12067DPPC   C1B 3225   1.905   5.734  16.389
12067DPPC   C2B 3226   2.015   5.924  16.039
12067DPPC   C3B 3227   2.315   5.894  15.689
12067DPPC   C4B 3228   2.565   5.894  15.309
12068DPPC   NC3 3229   2.105   5.234  18.199
12068DPPC   PO4 3230   2.375   4.934  18.129
12068DPPC   GL1 3231   2.745   4.834  17.869
12068DPPC   GL2 3232   2.765   5.154  17.869
12068DPPC   C1A 3233   3.045   4.674  17.709
12068DPPC   C2A 3234   3.265   4.624  17.369
12068DPPC   C3A 3235   3.595   4.714  16.999
12068DPPC   C4A 3236   3.855   4.704  16.639
12068DPPC   C1B 3237   2.905   5.204  17.579
12068DPPC   C2B 3238   3.205   5.234  17.229
12068DPPC   C3B 3239   3.525   5.234  16.849
12068DPPC   C4B 3240   3.755   5.284  16.439
12069DPPC   NC3 3241   4.825   2.934  20.719
12069DPPC   PO4 3242   4.765   2.524  20.689
12069DPPC   GL1 3243   4.945   2.364  20.269
12069DPPC   GL2 3244   4.955   2.114  20.429
12069DPPC   C1A 3245   5.085   2.524  19.979
12069DPPC   C2A 3246   4.945   2.474  19.599
12069DPPC   C3A 3247   5.165   2.394  19.129
12069DPPC   C4A 3248   5.485   2.414  18.739
12069DPPC   C1B 3249   5.215   1.904  20.399
12069DPPC   C2B 3250   5.435   1.644  20.139
12069DPPC   C3B 3251   5.765   1.444  19.779
12069DPPC   C4B 3252   6.125   1.424  19.419
12070DPPC   NC3 3253   3.025   0.856  19.169
12070DPPC   PO4 3254   2.985   0.526  18.939
12070DPPC   GL1 3255   3.255   0.166  18.759
12070DPPC   GL2 3256   3.105   0.436  18.539
12070DPPC   C1A 3257   3.615   0.146  18.739
12070DPPC   C2A 3258   3.875   6.594  18.489
12070DPPC   C3A 3259   4.185   0.066  18.099
12070DPPC   C4A 3260   4.505   0.066  17.789
12070DPPC   C1B 3261   3.275   0.596  18.269
12070DPPC   C2B 3262   3.485   0.676  17.929
12070DPPC   C3B 3263   3.785   0.686  17.519
12070DPPC   C4B 3264   4.135   0.616  17.189
12071DPPC   NC3 3265   3.355   2.394  19.759
12071DPPC   PO4 3266   3.385   2.154  19.449
12071DPPC   GL1 3267   3.765   1.944  19.299
12071DPPC   GL2 3268   3.915   1.804  19.459
12071DPPC   C1A 3269   3.965   1.814  19.039
12071DPPC   C2A 3270   4.075   1.794  18.619
12071DPPC   C3A 3271   4.375   1.754  18.229
12071DPPC   C4A 3272   4.715   1.794  17.909
12071DPPC   C1B 3273   4.265   1.774  19.359
12071DPPC   C2B 3274   4.465   1.704  19.009
12071DPPC   C3B 3275   4.735   1.614  18.619
12071DPPC   C4B 3276   5.035   1.694  18.269
12072DPPC   NC3 3277   7.435   2.204  21.629
12072DPPC   PO4 3278   7.725   1.954  21.779
12072DPPC   GL1 3279   7.625   1.864  21.369
12072DPPC   GL2 3280   7.885   1.724  21.359
12072DPPC   C1A 3281   7.365   2.034  21.149
12072DPPC   C2A 3282   7.075   2.314  21.079
12072DPPC   C3A 3283   6.725   2.574  20.889
12072DPPC   C4A 3284   6.225   2.424  20.859
12072DPPC   C1B 3285   8.175   1.694  21.129
12072DPPC   C2B 3286   8.385   1.804  20.749
12072DPPC   C3B 3287   8.645   1.924  20.429
12072DPPC   C4B 3288   8.735   1.934  19.899
12073DPPC   NC3 3289   3.175   0.526  19.859
12073DPPC   PO4 3290   3.345   0.746  19.529
12073DPPC   GL1 3291   3.685   0.546  19.389
12073DPPC   GL2 3292   3.515   0.596  19.089
12073DPPC   C1A 3293   3.945   0.756  19.199
12073DPPC   C2A 3294   4.315   0.876  18.979
12073DPPC   C3A 3295   4.595   0.866  18.539
12073DPPC   C4A 3296   4.935   0.786  18.239
12073DPPC   C1B 3297   3.745   0.556  18.789
12073DPPC   C2B 3298   3.775   0.546  18.369
12073DPPC   C3B 3299   3.995   0.576  17.929
12073DPPC   C4B 3300   4.375   0.506  17.609
12074DPPC   NC3 3301   4.755   3.634  20.969
12074DPPC   PO4 3302   4.745   3.434  20.629
12074DPPC   GL1 3303   4.765   3.444  20.249
12074DPPC   GL2 3304   4.565   3.644  20.159
12074DPPC   C1A 3305   4.945   3.314  19.969
12074DPPC   C2A 3306   5.125   3.294  19.599
12074DPPC   C3A 3307   5.365   3.254  19.179
12074DPPC   C4A 3308   5.705   3.304  18.759
12074DPPC   C1B 3309   4.725   3.754  19.839
12074DPPC   C2B 3310   4.885   3.694  19.479
12074DPPC   C3B 3311   5.205   3.714  19.089
12074DPPC   C4B 3312   5.515   3.824  18.719
12075DPPC   NC3 3313   1.155   1.584  16.519
12075DPPC   PO4 3314   1.085   1.194  16.429
12075DPPC   GL1 3315   1.415   1.016  16.289
12075DPPC   GL2 3316   1.605   1.194  16.259
12075DPPC   C1A 3317   1.495   0.806  16.019
12075DPPC   C2A 3318   1.705   0.656  15.719
12075DPPC   C3A 3319   1.995   0.656  15.329
12075DPPC   C4A 3320   2.285   0.716  14.959
12075DPPC   C1B 3321   1.915   1.076  16.039
12075DPPC   C2B 3322   2.155   0.996  15.689
12075DPPC   C3B 3323   2.435   1.066  15.349
12075DPPC   C4B 3324   2.735   1.046  14.949
12076DPPC   NC3 3325   4.865   5.094  20.859
12076DPPC   PO4 3326   4.765   4.814  20.639
12076DPPC   GL1 3327   5.005   4.864  20.299
12076DPPC   GL2 3328   4.845   5.124  20.309
12076DPPC   C1A 3329   5.115   4.704  19.989
12076DPPC   C2A 3330   5.095   4.554  19.599
12076DPPC   C3A 3331   5.375   4.574  19.239
12076DPPC   C4A 3332   5.675   4.614  18.849
12076DPPC   C1B 3333   4.865   5.154  19.949
12076DPPC   C2B 3334   5.005   5.204  19.549
12076DPPC   C3B 3335   5.215   5.194  19.149
12076DPPC   C4B 3336   5.525   5.124  18.809
12077DPPC   NC3 3337   1.785   2.734  17.329
12077DPPC   PO4 3338   1.915   2.744  17.719
12077DPPC   GL1 3339   2.275   2.514  17.629
12077DPPC   GL2 3340   2.265   2.644  17.339
12077DPPC   C1A 3341   2.615   2.594  17.539
12077DPPC   C2A 3342   2.965   2.604  17.319
12077DPPC   C3A 3343   3.325   2.544  17.009
12077DPPC   C4A 3344   3.645   2.504  16.679
12077DPPC   C1B 3345   2.555   2.664  17.099
12077DPPC   C2B 3346   2.865   2.614  16.769
12077DPPC   C3B 3347   3.215   2.624  16.419
12077DPPC   C4B 3348   3.485   2.634  15.969
12078DPPC   NC3 3349   1.365   0.796  16.749
12078DPPC   PO4 3350   1.425   1.194  16.789
12078DPPC   GL1 3351   1.665   1.514  16.619
12078DPPC   GL2 3352   1.885   1.474  16.899
12078DPPC   C1A 3353   1.955   1.534  16.379
12078DPPC   C2A 3354   2.185   1.424  16.109
12078DPPC   C3A 3355   2.505   1.404  15.739
12078DPPC   C4A 3356   2.815   1.534  15.339
12078DPPC   C1B 3357   2.205   1.384  16.809
12078DPPC   C2B 3358   2.505   1.404  16.489
12078DPPC   C3B 3359   2.805   1.384  16.139
12078DPPC   C4B 3360   3.065   1.384  15.729
12079DPPC   NC3 3361   4.125   3.554  19.699
12079DPPC   PO4 3362   3.925   3.214  19.699
12079DPPC   GL1 3363   4.315   3.094  19.409
12079DPPC   GL2 3364   4.165   3.354  19.269
12079DPPC   C1A 3365   4.445   2.964  19.129
12079DPPC   C2A 3366   4.635   2.964  18.809
12079DPPC   C3A 3367   4.955   3.044  18.489
12079DPPC   C4A 3368   5.235   2.994  18.099
12079DPPC   C1B 3369   4.375   3.454  18.909
12079DPPC   C2B 3370   4.645   3.434  18.599
12079DPPC   C3B 3371   4.925   3.434  18.249
12079DPPC   C4B 3372   5.315   3.494  17.909
12080DPPC   NC3 3373   6.385   1.564  21.049
12080DPPC   PO4 3374   5.985   1.464  20.909
12080DPPC   GL1 3375   5.855   1.036  20.769
12080DPPC   GL2 3376   5.595   1.136  20.759
12080DPPC   C1A 3377   5.865   0.766  20.479
12080DPPC   C2A 3378   5.985   0.546  20.149
12080DPPC   C3A 3379   6.205   0.356  19.789
12080DPPC   C4A 3380   6.115   6.584  19.409
12080DPPC   C1B 3381   5.625   1.244  20.389
12080DPPC   C2B 3382   5.725   1.006  20.069
12080DPPC   C3B 3383   5.945   0.966  19.739
12080DPPC   C4B 3384   6.305   0.956  19.449
12081DPPC   NC3 3385   3.845   4.534  20.059
12081DPPC   PO4 3386   3.955   4.924  20.059
12081DPPC   GL1 3387   4.155   5.184  19.839
12081DPPC   GL2 3388   4.405   4.984  19.769
12081DPPC   C1A 3389   4.315   5.454  19.629
12081DPPC   C2A 3390   4.425   5.674  19.279
12081DPPC   C3A 3391   4.605   5.644  18.809
12081DPPC   C4A 3392   4.935   5.634  18.399
12081DPPC   C1B 3393   4.575   5.124  19.479
12081DPPC   C2B 3394   4.715   5.244  19.099
12081DPPC   C3B 3395   4.925   5.254  18.719
12081DPPC   C4B 3396   5.215   5.224  18.279
12082DPPC   NC3 3397   0.985   5.294  16.489
12082DPPC   PO4 3398   1.145   5.074  16.169
12082DPPC   GL1 3399   1.415   5.214  15.919
12082DPPC   GL2 3400   1.585   5.044  16.089
12082DPPC   C1A 3401   1.575   5.144  15.559
12082DPPC   C2A 3402   1.815   5.194  15.219
12082DPPC   C3A 3403   2.095   5.254  14.859
12082DPPC   C4A 3404   2.385   5.284  14.479
12082DPPC   C1B 3405   1.895   5.094  15.959
12082DPPC   C2B 3406   2.105   5.104  15.599
12082DPPC   C3B 3407   2.425   5.104  15.219
12082DPPC   C4B 3408   2.715   5.174  14.789
12083DPPC   NC3 3409   7.075   1.006  21.519
12083DPPC   PO4 3410   7.325   0.706  21.439
12083DPPC   GL1 3411   7.515   0.616  21.079
12083DPPC   GL2 3412   7.775   0.736  21.189
12083DPPC   C1A 3413   7.755   0.526  20.769
12083DPPC   C2A 3414   8.025   0.536  20.439
12083DPPC   C3A 3415   8.265   0.596  20.019
12083DPPC   C4A 3416   8.505   0.546  19.649
12083DPPC   C1B 3417   8.025   0.826  20.919
12083DPPC   C2B 3418   8.315   0.906  20.589
12083DPPC   C3B 3419   8.565   0.926  20.209
12083DPPC   C4B 3420   8.835   0.986  19.779
12084DPPC   NC3 3421   2.175   3.234  17.939
12084DPPC   PO4 3422   2.215   3.604  17.909
12084DPPC   GL1 3423   2.365   3.664  17.499
12084DPPC   GL2 3424   2.525   3.394  17.539
12084DPPC   C1A 3425   2.245   3.684  17.189
12084DPPC   C2A 3426   2.455   3.634  16.889
12084DPPC   C3A 3427   2.715   3.554  16.499
12084DPPC   C4A 3428   3.035   3.534  16.129
12084DPPC   C1B 3429   2.795   3.464  17.239
12084DPPC   C2B 3430   3.055   3.484  16.919
12084DPPC   C3B 3431   3.365   3.534  16.589
12084DPPC   C4B 3432   3.685   3.554  16.199
12085DPPC   NC3 3433  20.995   3.404  15.409
12085DPPC   PO4 3434   0.115   3.544  15.229
12085DPPC   GL1 3435   0.475   3.534  15.139
12085DPPC   GL2 3436   0.665   3.524  15.369
12085DPPC   C1A 3437   0.675   3.664  14.849
12085DPPC   C2A 3438   0.845   3.604  14.429
12085DPPC   C3A 3439   1.155   3.724  14.079
12085DPPC   C4A 3440   1.505   3.704  13.739
12085DPPC   C1B 3441   0.995   3.614  15.229
12085DPPC   C2B 3442   1.165   3.534  14.849
12085DPPC   C3B 3443   1.455   3.594  14.499
12085DPPC   C4B 3444   1.755   3.564  14.149
12086DPPC   NC3 3445   3.775   5.154  19.629
12086DPPC   PO4 3446   3.475   5.034  19.409
12086DPPC   GL1 3447   3.515   5.064  18.959
12086DPPC   GL2 3448   3.515   4.814  19.039
12086DPPC   C1A 3449   3.635   5.274  18.719
12086DPPC   C2A 3450   3.895   5.334  18.399
12086DPPC   C3A 3451   4.175   5.374  18.029
12086DPPC   C4A 3452   4.535   5.374  17.629
12086DPPC   C1B 3453   3.455   4.664  18.669
12086DPPC   C2B 3454   3.695   4.534  18.369
12086DPPC   C3B 3455   4.025   4.554  18.099
12086DPPC   C4B 3456   4.345   4.514  17.709
12087DPPC   NC3 3457   0.865   2.834  16.539
12087DPPC   PO4 3458   1.225   2.994  16.659
12087DPPC   GL1 3459   1.655   3.064  16.479
12087DPPC   GL2 3460   1.485   2.804  16.389
12087DPPC   C1A 3461   1.895   3.144  16.199
12087DPPC   C2A 3462   2.195   3.244  15.939
12087DPPC   C3A 3463   2.475   3.374  15.559
12087DPPC   C4A 3464   2.815   3.384  15.159
12087DPPC   C1B 3465   1.625   2.914  16.059
12087DPPC   C2B 3466   1.885   2.874  15.749
12087DPPC   C3B 3467   2.155   2.994  15.369
12087DPPC   C4B 3468   2.535   2.964  14.969
12088DPPC   NC3 3469   6.725   4.374  21.309
12088DPPC   PO4 3470   6.375   4.484  21.199
12088DPPC   GL1 3471   6.455   4.194  20.869
12088DPPC   GL2 3472   6.685   4.094  20.939
12088DPPC   C1A 3473   6.575   4.304  20.579
12088DPPC   C2A 3474   6.485   4.354  20.189
12088DPPC   C3A 3475   6.165   4.414  19.839
12088DPPC   C4A 3476   5.715   4.564  19.609
12088DPPC   C1B 3477   6.905   4.064  20.669
12088DPPC   C2B 3478   7.025   4.204  20.279
12088DPPC   C3B 3479   7.295   4.204  19.899
12088DPPC   C4B 3480   7.535   4.224  19.479
12089DPPC   NC3 3481   1.895   3.674  17.489
12089DPPC   PO4 3482   1.875   3.264  17.479
12089DPPC   GL1 3483   2.165   3.034  17.449
12089DPPC   GL2 3484   2.425   3.014  17.649
12089DPPC   C1A 3485   2.275   3.034  17.099
12089DPPC   C2A 3486   2.545   3.154  16.799
12089DPPC   C3A 3487   2.905   3.094  16.459
12089DPPC   C4A 3488   3.275   3.114  16.119
12089DPPC   C1B 3489   2.715   3.024  17.419
12089DPPC   C2B 3490   2.955   3.034  17.059
12089DPPC   C3B 3491   3.325   3.064  16.799
12089DPPC   C4B 3492   3.645   3.064  16.419
12090DPPC   NC3 3493   4.875   1.654  20.509
12090DPPC   PO4 3494   4.545   1.824  20.479
12090DPPC   GL1 3495   4.615   1.684  20.049
12090DPPC   GL2 3496   4.755   1.944  20.089
12090DPPC   C1A 3497   4.625   1.654  19.719
12090DPPC   C2A 3498   4.885   1.584  19.359
12090DPPC   C3A 3499   5.185   1.664  19.009
12090DPPC   C4A 3500   5.415   1.584  18.629
12090DPPC   C1B 3501   4.895   2.044  19.769
12090DPPC   C2B 3502   5.135   1.974  19.449
12090DPPC   C3B 3503   5.505   2.004  19.119
12090DPPC   C4B 3504   5.775   1.934  18.749
12091DPPC   NC3 3505   1.345   5.004  16.659
12091DPPC   PO4 3506   1.385   4.614  16.829
12091DPPC   GL1 3507   1.785   4.244  16.709
12091DPPC   GL2 3508   1.855   4.414  16.909
12091DPPC   C1A 3509   1.995   4.154  16.399
12091DPPC   C2A 3510   2.225   4.134  16.109
12091DPPC   C3A 3511   2.545   4.184  15.779
12091DPPC   C4A 3512   2.845   4.184  15.409
12091DPPC   C1B 3513   2.155   4.454  16.729
12091DPPC   C2B 3514   2.395   4.504  16.429
12091DPPC   C3B 3515   2.695   4.554  16.119
12091DPPC   C4B 3516   2.995   4.534  15.779
12092DPPC   NC3 3517   0.915   2.184  15.949
12092DPPC   PO4 3518   0.665   2.504  15.979
12092DPPC   GL1 3519   0.905   2.784  15.689
12092DPPC   GL2 3520   1.115   2.764  15.729
12092DPPC   C1A 3521   0.985   2.674  15.319
12092DPPC   C2A 3522   1.345   2.654  15.099
12092DPPC   C3A 3523   1.715   2.684  14.789
12092DPPC   C4A 3524   1.945   2.674  14.359
12092DPPC   C1B 3525   1.435   2.924  15.609
12092DPPC   C2B 3526   1.655   3.004  15.299
12092DPPC   C3B 3527   1.985   3.064  14.899
12092DPPC   C4B 3528   2.275   3.074  14.509
12093DPPC   NC3 3529   2.165   1.874  18.139
12093DPPC   PO4 3530   2.175   1.484  18.019
12093DPPC   GL1 3531   2.565   1.334  17.769
12093DPPC   GL2 3532   2.325   1.384  17.569
12093DPPC   C1A 3533   2.875   1.234  17.579
12093DPPC   C2A 3534   3.125   1.164  17.289
12093DPPC   C3A 3535   3.425   1.136  16.969
12093DPPC   C4A 3536   3.715   1.146  16.569
12093DPPC   C1B 3537   2.455   1.224  17.259
12093DPPC   C2B 3538   2.685   1.194  16.939
12093DPPC   C3B 3539   3.035   1.234  16.569
12093DPPC   C4B 3540   3.405   1.294  16.249
12094DPPC   NC3 3541   0.435   4.114  15.989
12094DPPC   PO4 3542   0.625   3.794  15.879
12094DPPC   GL1 3543   0.945   3.944  15.759
12094DPPC   GL2 3544   0.985   4.174  15.899
12094DPPC   C1A 3545   1.125   3.944  15.439
12094DPPC   C2A 3546   1.365   3.954  15.099
12094DPPC   C3A 3547   1.645   4.014  14.739
12094DPPC   C4A 3548   2.045   4.034  14.389
12094DPPC   C1B 3549   1.345   4.244  15.849
12094DPPC   C2B 3550   1.795   4.214  15.829
12094DPPC   C3B 3551   2.095   4.254  15.499
12094DPPC   C4B 3552   2.425   4.324  15.109
12095DPPC   NC3 3553   2.575   5.584  18.699
12095DPPC   PO4 3554   2.465   5.494  18.329
12095DPPC   GL1 3555   2.875   5.474  18.239
12095DPPC   GL2 3556   2.935   5.244  18.269
12095DPPC   C1A 3557   3.005   5.574  17.929
12095DPPC   C2A 3558   3.295   5.544  17.619
12095DPPC   C3A 3559   3.615   5.564  17.269
12095DPPC   C4A 3560   3.905   5.584  16.849
12095DPPC   C1B 3561   3.135   5.104  18.009
12095DPPC   C2B 3562   3.385   5.024  17.759
12095DPPC   C3B 3563   3.745   5.064  17.399
12095DPPC   C4B 3564   4.005   5.014  16.939
12096DPPC   NC3 3565   4.115   5.944  20.049
12096DPPC   PO4 3566   4.215   6.324  19.979
12096DPPC   GL1 3567   4.565   6.134  19.669
12096DPPC   GL2 3568   4.425   5.844  19.709
12096DPPC   C1A 3569   4.745   6.084  19.359
12096DPPC   C2A 3570   4.975   6.074  19.009
12096DPPC   C3A 3571   5.205   6.014  18.549
12096DPPC   C4A 3572   5.505   5.964  18.169
12096DPPC   C1B 3573   4.715   5.694  19.629
12096DPPC   C2B 3574   4.995   5.644  19.279
12096DPPC   C3B 3575   5.185   5.634  18.889
12096DPPC   C4B 3576   5.475   5.584  18.509
12097DPPC   NC3 3577   1.935   6.074  17.629
12097DPPC   PO4 3578   1.985   6.474  17.559
12097DPPC   GL1 3579   2.205   0.016  17.139
12097DPPC   GL2 3580   2.035   6.404  17.029
12097DPPC   C1A 3581   2.515   0.106  17.029
12097DPPC   C2A 3582   2.865   0.036  16.849
12097DPPC   C3A 3583   3.195   0.056  16.439
12097DPPC   C4A 3584   3.505   0.016  16.049
12097DPPC   C1B 3585   2.345   6.314  16.849
12097DPPC   C2B 3586   2.605   6.204  16.579
12097DPPC   C3B 3587   2.945   6.224  16.239
12097DPPC   C4B 3588   3.235   6.214  15.819
12098DPPC   NC3 3589   3.385   3.004  19.119
12098DPPC   PO4 3590   3.125   2.924  18.859
12098DPPC   GL1 3591   3.485   3.124  18.619
12098DPPC   GL2 3592   3.385   2.834  18.519
12098DPPC   C1A 3593   3.745   3.094  18.429
12098DPPC   C2A 3594   3.955   3.074  18.089
12098DPPC   C3A 3595   4.235   3.254  17.719
12098DPPC   C4A 3596   4.525   3.214  17.339
12098DPPC   C1B 3597   3.425   2.794  18.189
12098DPPC   C2B 3598   3.695   2.714  17.899
12098DPPC   C3B 3599   3.975   2.854  17.549
12098DPPC   C4B 3600   4.225   2.864  17.169
12099DPPC   NC3 3601   5.785   4.914  15.479
12099DPPC   PO4 3602   6.135   4.744  15.699
12099DPPC   GL1 3603   6.155   4.644  16.169
12099DPPC   GL2 3604   6.155   4.394  16.189
12099DPPC   C1A 3605   5.955   4.864  16.299
12099DPPC   C2A 3606   5.615   4.904  16.469
12099DPPC   C3A 3607   5.335   4.894  16.889
12099DPPC   C4A 3608   4.985   4.934  17.279
12099DPPC   C1B 3609   5.905   4.424  16.479
12099DPPC   C2B 3610   5.655   4.464  16.809
12099DPPC   C3B 3611   5.395   4.484  17.219
12099DPPC   C4B 3612   5.075   4.464  17.529
12100DPPC   NC3 3613   2.835   1.086  11.569
12100DPPC   PO4 3614   3.075   1.394  11.469
12100DPPC   GL1 3615   2.975   1.494  11.889
12100DPPC   GL2 3616   2.625   1.494  11.819
12100DPPC   C1A 3617   2.815   1.484  12.229
12100DPPC   C2A 3618   2.655   1.404  12.619
12100DPPC   C3A 3619   2.355   1.394  12.999
12100DPPC   C4A 3620   2.085   1.474  13.429
12100DPPC   C1B 3621   2.385   1.514  12.099
12100DPPC   C2B 3622   2.145   1.564  12.409
12100DPPC   C3B 3623   1.865   1.564  12.769
12100DPPC   C4B 3624   1.605   1.554  13.179
12101DPPC   NC3 3625   5.135   3.404  14.389
12101DPPC   PO4 3626   4.885   3.344  14.059
12101DPPC   GL1 3627   4.615   3.124  14.309
12101DPPC   GL2 3628   4.845   3.134  14.569
12101DPPC   C1A 3629   4.425   3.204  14.639
12101DPPC   C2A 3630   4.185   3.144  14.979
12101DPPC   C3A 3631   3.915   3.114  15.349
12101DPPC   C4A 3632   3.585   3.124  15.669
12101DPPC   C1B 3633   4.685   3.084  14.919
12101DPPC   C2B 3634   4.555   3.014  15.279
12101DPPC   C3B 3635   4.245   3.014  15.659
12101DPPC   C4B 3636   3.885   3.004  16.019
12102DPPC   NC3 3637   4.125   0.266  13.039
12102DPPC   PO4 3638   4.375   0.126  13.349
12102DPPC   GL1 3639   4.165   0.036  13.699
12102DPPC   GL2 3640   4.185   0.416  13.769
12102DPPC   C1A 3641   3.865   6.514  13.799
12102DPPC   C2A 3642   3.475   6.414  13.869
12102DPPC   C3A 3643   3.185   6.374  14.189
12102DPPC   C4A 3644   2.865   6.364  14.649
12102DPPC   C1B 3645   4.025   0.276  14.029
12102DPPC   C2B 3646   3.695   0.176  14.249
12102DPPC   C3B 3647   3.365   0.166  14.609
12102DPPC   C4B 3648   3.015   0.196  14.949
12103DPPC   NC3 3649   3.215   1.334  12.369
12103DPPC   PO4 3650   3.385   0.956  12.349
12103DPPC   GL1 3651   3.395   0.796  12.699
12103DPPC   GL2 3652   3.495   0.496  12.599
12103DPPC   C1A 3653   3.125   0.826  12.949
12103DPPC   C2A 3654   2.945   0.836  13.349
12103DPPC   C3A 3655   2.655   0.826  13.689
12103DPPC   C4A 3656   2.365   0.876  14.119
12103DPPC   C1B 3657   3.275   0.356  12.839
12103DPPC   C2B 3658   3.095   0.316  13.239
12103DPPC   C3B 3659   2.855   0.356  13.679
12103DPPC   C4B 3660   2.545   0.396  14.059
12104DPPC   NC3 3661   6.995   2.474  16.259
12104DPPC   PO4 3662   7.155   2.824  16.309
12104DPPC   GL1 3663   6.735   2.884  16.259
12104DPPC   GL2 3664   6.745   3.204  16.389
12104DPPC   C1A 3665   6.395   2.764  16.439
12104DPPC   C2A 3666   6.055   2.634  16.579
12104DPPC   C3A 3667   5.675   2.604  16.969
12104DPPC   C4A 3668   5.305   2.624  17.289
12104DPPC   C1B 3669   6.495   3.134  16.699
12104DPPC   C2B 3670   6.185   2.904  16.959
12104DPPC   C3B 3671   5.865   2.984  17.289
12104DPPC   C4B 3672   5.485   3.024  17.639
12105DPPC   NC3 3673   6.055   4.394  15.329
12105DPPC   PO4 3674   5.745   4.414  15.579
12105DPPC   GL1 3675   5.755   4.544  15.989
12105DPPC   GL2 3676   5.705   4.824  15.949
12105DPPC   C1A 3677   5.425   4.514  16.109
12105DPPC   C2A 3678   5.255   4.554  16.499
12105DPPC   C3A 3679   4.935   4.534  16.889
12105DPPC   C4A 3680   4.635   4.534  17.289
12105DPPC   C1B 3681   5.365   4.934  16.079
12105DPPC   C2B 3682   5.125   5.034  16.409
12105DPPC   C3B 3683   4.835   5.034  16.829
12105DPPC   C4B 3684   4.475   5.034  17.139
12106DPPC   NC3 3685   5.205   5.624  14.799
12106DPPC   PO4 3686   5.495   5.834  14.969
12106DPPC   GL1 3687   5.305   5.944  15.289
12106DPPC   GL2 3688   5.005   5.854  15.159
12106DPPC   C1A 3689   5.205   5.884  15.629
12106DPPC   C2A 3690   4.975   5.954  15.919
12106DPPC   C3A 3691   4.695   5.954  16.329
12106DPPC   C4A 3692   4.345   5.974  16.689
12106DPPC   C1B 3693   4.765   5.944  15.409
12106DPPC   C2B 3694   4.515   5.964  15.729
12106DPPC   C3B 3695   4.255   6.034  16.149
12106DPPC   C4B 3696   3.895   6.114  16.559
12107DPPC   NC3 3697   5.615   3.384  14.909
12107DPPC   PO4 3698   5.665   3.114  15.159
12107DPPC   GL1 3699   5.385   2.894  15.279
12107DPPC   GL2 3700   5.265   2.664  15.229
12107DPPC   C1A 3701   5.115   2.934  15.549
12107DPPC   C2A 3702   4.755   2.984  15.739
12107DPPC   C3A 3703   4.475   2.934  16.099
12107DPPC   C4A 3704   4.155   2.874  16.409
12107DPPC   C1B 3705   5.145   2.474  15.519
12107DPPC   C2B 3706   4.885   2.454  15.839
12107DPPC   C3B 3707   4.595   2.494  16.219
12107DPPC   C4B 3708   4.295   2.354  16.499
12108DPPC   NC3 3709   5.285   0.926  14.099
12108DPPC   PO4 3710   5.135   0.566  14.259
12108DPPC   GL1 3711   4.855   0.456  14.549
12108DPPC   GL2 3712   4.715   0.596  14.339
12108DPPC   C1A 3713   4.575   0.176  14.539
12108DPPC   C2A 3714   4.395   0.026  14.919
12108DPPC   C3A 3715   4.045   0.086  15.299
12108DPPC   C4A 3716   3.795   0.036  15.649
12108DPPC   C1B 3717   4.395   0.576  14.549
12108DPPC   C2B 3718   4.105   0.516  14.889
12108DPPC   C3B 3719   3.855   0.566  15.249
12108DPPC   C4B 3720   3.555   0.506  15.599
12109DPPC   NC3 3721   3.025   5.924  11.559
12109DPPC   PO4 3722   3.075   6.284  11.789
12109DPPC   GL1 3723   2.765   6.324  12.099
12109DPPC   GL2 3724   3.045   6.514  12.159
12109DPPC   C1A 3725   2.495   6.354  12.359
12109DPPC   C2A 3726   2.145   6.394  12.619
12109DPPC   C3A 3727   1.865   6.474  13.019
12109DPPC   C4A 3728   1.565   6.364  13.359
12109DPPC   C1B 3729   3.005   6.514  12.539
12109DPPC   C2B 3730   2.885   0.046  12.919
12109DPPC   C3B 3731   2.655   0.066  13.319
12109DPPC   C4B 3732   2.385   6.594  13.699
12110DPPC   NC3 3733   4.285   1.164  13.129
12110DPPC   PO4 3734   3.975   1.254  12.919
12110DPPC   GL1 3735   3.945   1.494  13.229
12110DPPC   GL2 3736   3.925   1.764  13.129
12110DPPC   C1A 3737   3.805   1.494  13.539
12110DPPC   C2A 3738   3.455   1.574  13.719
12110DPPC   C3A 3739   3.165   1.614  14.069
12110DPPC   C4A 3740   2.885   1.634  14.419
12110DPPC   C1B 3741   3.665   1.874  13.389
12110DPPC   C2B 3742   3.315   2.044  13.539
12110DPPC   C3B 3743   3.015   2.134  13.919
12110DPPC   C4B 3744   2.755   2.094  14.289
12111DPPC   NC3 3745   4.985   5.394  13.939
12111DPPC   PO4 3746   4.905   5.384  14.339
12111DPPC   GL1 3747   4.785   5.034  14.619
12111DPPC   GL2 3748   4.625   4.904  14.449
12111DPPC   C1A 3749   4.625   5.244  14.819
12111DPPC   C2A 3750   4.275   5.304  15.079
12111DPPC   C3A 3751   3.935   5.274  15.439
12111DPPC   C4A 3752   3.605   5.294  15.879
12111DPPC   C1B 3753   4.285   4.944  14.619
12111DPPC   C2B 3754   4.005   4.954  14.899
12111DPPC   C3B 3755   3.705   4.924  15.219
12111DPPC   C4B 3756   3.395   4.964  15.599
12112DPPC   NC3 3757   5.515   2.074  14.639
12112DPPC   PO4 3758   5.475   1.694  14.539
12112DPPC   GL1 3759   5.445   1.404  14.819
12112DPPC   GL2 3760   5.215   1.314  14.729
12112DPPC   C1A 3761   5.265   1.504  15.149
12112DPPC   C2A 3762   4.985   1.544  15.419
12112DPPC   C3A 3763   4.755   1.624  15.809
12112DPPC   C4A 3764   4.415   1.594  16.159
12112DPPC   C1B 3765   4.915   1.234  14.929
12112DPPC   C2B 3766   4.645   1.184  15.299
12112DPPC   C3B 3767   4.345   1.204  15.689
12112DPPC   C4B 3768   4.055   1.194  16.149
12113DPPC   NC3 3769   6.315   1.364  14.829
12113DPPC   PO4 3770   6.145   1.364  15.179
12113DPPC   GL1 3771   5.775   1.524  15.319
12113DPPC   GL2 3772   5.885   1.334  15.559
12113DPPC   C1A 3773   5.465   1.484  15.519
12113DPPC   C2A 3774   5.265   1.534  15.869
12113DPPC   C3A 3775   4.945   1.574  16.239
12113DPPC   C4A 3776   4.735   1.504  16.669
12113DPPC   C1B 3777   5.755   1.384  15.889
12113DPPC   C2B 3778   5.595   1.404  16.259
12113DPPC   C3B 3779   5.305   1.424  16.639
12113DPPC   C4B 3780   5.035   1.404  17.059
12114DPPC   NC3 3781   4.555   5.324  13.439
12114DPPC   PO4 3782   4.695   5.654  13.639
12114DPPC   GL1 3783   4.475   5.564  13.999
12114DPPC   GL2 3784   4.605   5.704  14.169
12114DPPC   C1A 3785   4.185   5.794  14.109
12114DPPC   C2A 3786   3.955   5.874  14.439
12114DPPC   C3A 3787   3.685   5.904  14.809
12114DPPC   C4A 3788   3.335   5.924  15.149
12114DPPC   C1B 3789   4.425   5.704  14.529
12114DPPC   C2B 3790   4.145   5.764  14.849
12114DPPC   C3B 3791   3.895   5.764  15.269
12114DPPC   C4B 3792   3.555   5.784  15.639
12115DPPC   NC3 3793   6.615   1.674  15.929
12115DPPC   PO4 3794   6.765   1.994  16.099
12115DPPC   GL1 3795   6.585   2.124  16.429
12115DPPC   GL2 3796   6.495   2.394  16.419
12115DPPC   C1A 3797   6.305   2.084  16.699
12115DPPC   C2A 3798   5.915   2.164  16.829
12115DPPC   C3A 3799   5.615   2.154  17.289
12115DPPC   C4A 3800   5.275   2.184  17.629
12115DPPC   C1B 3801   6.425   2.524  16.789
12115DPPC   C2B 3802   6.275   2.484  17.179
12115DPPC   C3B 3803   5.835   2.544  17.509
12115DPPC   C4B 3804   5.595   2.594  17.929
12116DPPC   NC3 3805   3.845   0.866  12.459
12116DPPC   PO4 3806   3.945   0.766  12.789
12116DPPC   GL1 3807   3.565   0.696  13.089
12116DPPC   GL2 3808   3.635   1.026  13.119
12116DPPC   C1A 3809   3.365   0.646  13.399
12116DPPC   C2A 3810   3.155   0.716  13.769
12116DPPC   C3A 3811   2.905   0.756  14.149
12116DPPC   C4A 3812   2.565   0.686  14.509
12116DPPC   C1B 3813   3.315   1.154  13.299
12116DPPC   C2B 3814   3.055   1.224  13.619
12116DPPC   C3B 3815   2.785   1.264  14.019
12116DPPC   C4B 3816   2.555   1.254  14.439
12117DPPC   NC3 3817   5.245   4.474  14.759
12117DPPC   PO4 3818   5.215   4.144  14.519
12117DPPC   GL1 3819   4.765   3.974  14.659
12117DPPC   GL2 3820   4.665   4.164  14.529
12117DPPC   C1A 3821   4.505   4.004  14.909
12117DPPC   C2A 3822   4.165   4.004  15.179
12117DPPC   C3A 3823   3.845   3.914  15.549
12117DPPC   C4A 3824   3.665   3.974  15.969
12117DPPC   C1B 3825   4.395   4.384  14.649
12117DPPC   C2B 3826   4.155   4.494  15.029
12117DPPC   C3B 3827   3.785   4.464  15.399
12117DPPC   C4B 3828   3.495   4.514  15.829
12118DPPC   NC3 3829   4.175   3.674  12.949
12118DPPC   PO4 3830   4.385   3.694  13.309
12118DPPC   GL1 3831   4.045   3.724  13.529
12118DPPC   GL2 3832   3.825   3.534  13.319
12118DPPC   C1A 3833   3.885   4.034  13.709
12118DPPC   C2A 3834   3.555   3.834  13.949
12118DPPC   C3A 3835   3.305   3.794  14.339
12118DPPC   C4A 3836   2.965   3.824  14.679
12118DPPC   C1B 3837   3.555   3.544  13.599
12118DPPC   C2B 3838   3.215   3.484  13.849
12118DPPC   C3B 3839   2.955   3.474  14.279
12118DPPC   C4B 3840   2.655   3.424  14.629
12119DPPC   NC3 3841   4.115   2.174  13.449
12119DPPC   PO4 3842   4.475   2.144  13.599
12119DPPC   GL1 3843   4.375   2.014  14.069
12119DPPC   GL2 3844   4.175   2.134  13.969
12119DPPC   C1A 3845   4.145   1.934  14.339
12119DPPC   C2A 3846   3.775   1.874  14.519
12119DPPC   C3A 3847   3.485   1.884  14.939
12119DPPC   C4A 3848   3.145   1.884  15.269
12119DPPC   C1B 3849   3.855   2.164  13.819
12119DPPC   C2B 3850   3.535   2.054  14.059
12119DPPC   C3B 3851   3.275   2.034  14.439
12119DPPC   C4B 3852   2.885   2.004  14.769
12120DPPC   NC3 3853   7.405   3.914  17.479
12120DPPC   PO4 3854   7.535   4.294  17.359
12120DPPC   GL1 3855   7.255   4.514  17.329
12120DPPC   GL2 3856   7.055   4.614  17.149
12120DPPC   C1A 3857   6.975   4.344  17.489
12120DPPC   C2A 3858   6.745   4.224  17.789
12120DPPC   C3A 3859   6.415   4.114  18.049
12120DPPC   C4A 3860   6.165   4.114  18.549
12120DPPC   C1B 3861   6.745   4.694  17.329
12120DPPC   C2B 3862   6.505   4.684  17.659
12120DPPC   C3B 3863   6.205   4.694  18.099
12120DPPC   C4B 3864   5.935   4.634  18.479
12121DPPC   NC3 3865   4.905   2.094  13.909
12121DPPC   PO4 3866   4.755   1.754  13.989
12121DPPC   GL1 3867   4.515   1.694  14.399
12121DPPC   GL2 3868   4.625   1.394  14.399
12121DPPC   C1A 3869   4.295   1.754  14.719
12121DPPC   C2A 3870   4.025   1.764  14.999
12121DPPC   C3A 3871   3.715   1.784  15.399
12121DPPC   C4A 3872   3.435   1.764  15.779
12121DPPC   C1B 3873   4.395   1.314  14.659
12121DPPC   C2B 3874   4.215   1.264  14.979
12121DPPC   C3B 3875   3.965   1.314  15.419
12121DPPC   C4B 3876   3.655   1.264  15.809
12122DPPC   NC3 3877   4.365   4.534  12.479
12122DPPC   PO4 3878   4.075   4.694  12.739
12122DPPC   GL1 3879   3.875   4.594  13.129
12122DPPC   GL2 3880   4.135   4.564  13.259
12122DPPC   C1A 3881   3.645   4.804  13.369
12122DPPC   C2A 3882   3.315   4.844  13.639
12122DPPC   C3A 3883   3.015   4.764  13.999
12122DPPC   C4A 3884   2.735   4.784  14.429
12122DPPC   C1B 3885   4.025   4.524  13.609
12122DPPC   C2B 3886   3.715   4.594  13.899
12122DPPC   C3B 3887   3.375   4.654  14.289
12122DPPC   C4B 3888   3.185   4.624  14.689
12123DPPC   NC3 3889   6.615   4.694  15.969
12123DPPC   PO4 3890   6.895   4.584  16.209
12123DPPC   GL1 3891   6.665   4.794  16.409
12123DPPC   GL2 3892   6.835   4.844  16.639
12123DPPC   C1A 3893   6.395   4.534  16.509
12123DPPC   C2A 3894   6.195   4.334  16.809
12123DPPC   C3A 3895   5.925   4.304  17.259
12123DPPC   C4A 3896   5.615   4.344  17.689
12123DPPC   C1B 3897   6.555   4.734  16.919
12123DPPC   C2B 3898   6.265   4.694  17.219
12123DPPC   C3B 3899   5.935   4.744  17.629
12123DPPC   C4B 3900   5.655   4.734  17.989
12124DPPC   NC3 3901   7.665   4.424  16.339
12124DPPC   PO4 3902   7.305   4.304  16.349
12124DPPC   GL1 3903   7.005   4.044  16.519
12124DPPC   GL2 3904   6.945   4.404  16.619
12124DPPC   C1A 3905   6.865   3.864  16.849
12124DPPC   C2A 3906   6.795   3.754  17.219
12124DPPC   C3A 3907   6.515   3.814  17.569
12124DPPC   C4A 3908   6.145   3.684  17.929
12124DPPC   C1B 3909   6.675   4.324  16.899
12124DPPC   C2B 3910   6.475   4.294  17.249
12124DPPC   C3B 3911   6.165   4.314  17.649
12124DPPC   C4B 3912   5.875   4.314  18.109
12125DPPC   NC3 3913   6.205   4.104  15.779
12125DPPC   PO4 3914   5.935   3.914  15.549
12125DPPC   GL1 3915   5.555   3.744  15.729
12125DPPC   GL2 3916   5.375   4.024  15.659
12125DPPC   C1A 3917   5.445   3.724  16.069
12125DPPC   C2A 3918   5.185   3.754  16.349
12125DPPC   C3A 3919   4.885   3.684  16.709
12125DPPC   C4A 3920   4.635   3.614  17.109
12125DPPC   C1B 3921   5.185   4.124  15.929
12125DPPC   C2B 3922   4.955   4.184  16.289
12125DPPC   C3B 3923   4.685   4.124  16.619
12125DPPC   C4B 3924   4.425   4.094  17.059
12126DPPC   NC3 3925   7.115   2.044  16.529
12126DPPC   PO4 3926   7.195   1.704  16.699
12126DPPC   GL1 3927   6.925   1.494  16.969
12126DPPC   GL2 3928   7.065   1.584  17.239
12126DPPC   C1A 3929   6.615   1.514  17.139
12126DPPC   C2A 3930   6.315   1.614  17.409
12126DPPC   C3A 3931   6.075   1.554  17.859
12126DPPC   C4A 3932   5.755   1.644  18.229
12126DPPC   C1B 3933   6.895   1.514  17.549
12126DPPC   C2B 3934   6.605   1.514  17.879
12126DPPC   C3B 3935   6.285   1.434  18.279
12126DPPC   C4B 3936   5.955   1.434  18.649
12127DPPC   NC3 3937   5.055   4.134  13.999
12127DPPC   PO4 3938   4.915   3.804  14.199
12127DPPC   GL1 3939   4.535   3.634  14.199
12127DPPC   GL2 3940   4.595   3.554  14.499
12127DPPC   C1A 3941   4.275   3.344  14.189
12127DPPC   C2A 3942   3.995   3.254  14.489
12127DPPC   C3A 3943   3.645   3.204  14.879
12127DPPC   C4A 3944   3.295   3.164  15.229
12127DPPC   C1B 3945   4.265   3.594  14.639
12127DPPC   C2B 3946   3.985   3.584  14.929
12127DPPC   C3B 3947   3.645   3.554  15.299
12127DPPC   C4B 3948   3.405   3.574  15.679
12128DPPC   NC3 3949   6.675   5.964  16.319
12128DPPC   PO4 3950   6.545   5.614  16.159
12128DPPC   GL1 3951   6.285   5.494  16.459
12128DPPC   GL2 3952   6.365   5.724  16.629
12128DPPC   C1A 3953   6.005   5.304  16.579
12128DPPC   C2A 3954   5.685   5.274  16.849
12128DPPC   C3A 3955   5.385   5.334  17.269
12128DPPC   C4A 3956   5.075   5.294  17.639
12128DPPC   C1B 3957   6.065   5.654  16.899
12128DPPC   C2B 3958   5.785   5.624  17.189
12128DPPC   C3B 3959   5.585   5.674  17.579
12128DPPC   C4B 3960   5.245   5.624  17.969
12129DPPC   NC3 3961   5.675   4.844  14.759
12129DPPC   PO4 3962   5.655   4.584  15.089
12129DPPC   GL1 3963   5.365   4.664  15.419
12129DPPC   GL2 3964   5.225   4.394  15.229
12129DPPC   C1A 3965   5.145   4.584  15.689
12129DPPC   C2A 3966   4.925   4.634  16.049
12129DPPC   C3A 3967   4.685   4.584  16.479
12129DPPC   C4A 3968   4.425   4.574  16.849
12129DPPC   C1B 3969   5.015   4.224  15.469
12129DPPC   C2B 3970   4.715   4.254  15.739
12129DPPC   C3B 3971   4.495   4.224  16.169
12129DPPC   C4B 3972   4.115   4.224  16.529
12130DPPC   NC3 3973   6.225   1.924  15.249
12130DPPC   PO4 3974   6.185   1.724  15.599
12130DPPC   GL1 3975   5.965   1.774  15.919
12130DPPC   GL2 3976   6.175   1.524  15.989
12130DPPC   C1A 3977   5.645   1.824  16.099
12130DPPC   C2A 3978   5.335   1.904  16.259
12130DPPC   C3A 3979   5.045   1.864  16.649
12130DPPC   C4A 3980   4.715   1.804  17.029
12130DPPC   C1B 3981   6.065   1.404  16.309
12130DPPC   C2B 3982   5.885   1.324  16.659
12130DPPC   C3B 3983   5.575   1.284  17.059
12130DPPC   C4B 3984   5.365   1.254  17.499
12131DPPC   NC3 3985   5.625   4.134  15.209
12131DPPC   PO4 3986   5.665   3.734  15.199
12131DPPC   GL1 3987   5.275   3.694  15.289
12131DPPC   GL2 3988   5.335   3.364  15.419
12131DPPC   C1A 3989   5.055   3.784  15.549
12131DPPC   C2A 3990   4.865   3.784  15.889
12131DPPC   C3A 3991   4.685   3.774  16.229
12131DPPC   C4A 3992   4.305   3.754  16.639
12131DPPC   C1B 3993   5.105   3.314  15.729
12131DPPC   C2B 3994   4.935   3.314  16.119
12131DPPC   C3B 3995   4.625   3.314  16.469
12131DPPC   C4B 3996   4.275   3.294  16.789
12132DPPC   NC3 3997   5.185   0.566  13.649
12132DPPC   PO4 3998   5.035   0.206  13.679
12132DPPC   GL1 3999   4.635   0.266  13.819
12132DPPC   GL2 4000   4.655   0.496  13.889
12132DPPC   C1A 4001   4.405   0.176  14.099
12132DPPC   C2A 4002   4.175   0.116  14.459
12132DPPC   C3A 4003   3.795   0.086  14.759
12132DPPC   C4A 4004   3.525   0.106  15.149
12132DPPC   C1B 4005   4.405   0.696  14.049
12132DPPC   C2B 4006   4.055   0.736  14.199
12132DPPC   C3B 4007   3.775   0.556  14.509
12132DPPC   C4B 4008   3.565   0.556  14.909
12133DPPC   NC3 4009   7.035   0.746  16.569
12133DPPC   PO4 4010   7.205   0.606  16.889
12133DPPC   GL1 4011   6.995   0.616  17.219
12133DPPC   GL2 4012   7.235   0.686  17.329
12133DPPC   C1A 4013   6.685   0.686  17.419
12133DPPC   C2A 4014   6.465   0.666  17.819
12133DPPC   C3A 4015   6.185   0.676  18.229
12133DPPC   C4A 4016   5.895   0.716  18.589
12133DPPC   C1B 4017   7.265   0.606  17.649
12133DPPC   C2B 4018   6.995   0.546  17.929
12133DPPC   C3B 4019   6.725   0.466  18.279
12133DPPC   C4B 4020   6.435   0.516  18.649
12134DPPC   NC3 4021   4.725   0.476  13.399
12134DPPC   PO4 4022   4.425   0.666  13.159
12134DPPC   GL1 4023   4.005   0.776  13.229
12134DPPC   GL2 4024   3.985   0.606  13.419
12134DPPC   C1A 4025   3.915   1.046  13.489
12134DPPC   C2A 4026   3.565   1.086  13.729
12134DPPC   C3A 4027   3.325   1.086  14.119
12134DPPC   C4A 4028   3.035   1.106  14.549
12134DPPC   C1B 4029   3.795   0.626  13.689
12134DPPC   C2B 4030   3.565   0.626  14.009
12134DPPC   C3B 4031   3.305   0.626  14.389
12134DPPC   C4B 4032   3.055   0.666  14.779
12135DPPC   NC3 4033   3.415   2.394  12.739
12135DPPC   PO4 4034   3.825   2.364  12.759
12135DPPC   GL1 4035   3.745   2.294  13.139
12135DPPC   GL2 4036   3.565   2.154  13.149
12135DPPC   C1A 4037   3.705   2.474  13.479
12135DPPC   C2A 4038   3.615   2.594  13.829
12135DPPC   C3A 4039   3.325   2.524  14.169
12135DPPC   C4A 4040   3.035   2.514  14.529
12135DPPC   C1B 4041   3.165   2.134  13.119
12135DPPC   C2B 4042   2.855   2.154  13.379
12135DPPC   C3B 4043   2.505   2.184  13.759
12135DPPC   C4B 4044   2.195   2.244  14.169
12136DPPC   NC3 4045   2.645   2.394  11.389
12136DPPC   PO4 4046   2.925   2.534  11.649
12136DPPC   GL1 4047   2.805   2.374  11.959
12136DPPC   GL2 4048   2.685   2.104  11.949
12136DPPC   C1A 4049   2.705   2.504  12.319
12136DPPC   C2A 4050   2.635   2.664  12.699
12136DPPC   C3A 4051   2.345   2.754  13.089
12136DPPC   C4A 4052   2.045   2.774  13.449
12136DPPC   C1B 4053   2.695   1.894  12.239
12136DPPC   C2B 4054   2.485   1.894  12.559
12136DPPC   C3B 4055   2.145   1.914  12.979
12136DPPC   C4B 4056   1.885   1.994  13.409
12137DPPC   NC3 4057   4.585   3.494  13.709
12137DPPC   PO4 4058   4.675   3.914  13.699
12137DPPC   GL1 4059   4.385   3.904  13.939
12137DPPC   GL2 4060   4.495   4.054  14.139
12137DPPC   C1A 4061   4.085   3.794  14.089
12137DPPC   C2A 4062   3.805   3.734  14.399
12137DPPC   C3A 4063   3.535   3.654  14.769
12137DPPC   C4A 4064   3.225   3.654  15.139
12137DPPC   C1B 4065   4.285   4.004  14.429
12137DPPC   C2B 4066   3.955   4.134  14.669
12137DPPC   C3B 4067   3.675   4.074  15.029
12137DPPC   C4B 4068   3.375   4.004  15.419
12138DPPC   NC3 4069   4.575   2.954  13.429
12138DPPC   PO4 4070   4.735   2.894  13.819
12138DPPC   GL1 4071   4.345   2.844  13.969
12138DPPC   GL2 4072   4.375   2.754  14.249
12138DPPC   C1A 4073   4.045   2.994  14.099
12138DPPC   C2A 4074   3.695   2.894  14.309
12138DPPC   C3A 4075   3.405   2.774  14.629
12138DPPC   C4A 4076   3.085   2.824  14.969
12138DPPC   C1B 4077   4.125   2.794  14.509
12138DPPC   C2B 4078   3.865   2.754  14.779
12138DPPC   C3B 4079   3.585   2.784  15.139
12138DPPC   C4B 4080   3.265   2.744  15.459
12139DPPC   NC3 4081   4.655   4.134  13.229
12139DPPC   PO4 4082   4.295   4.184  13.059
12139DPPC   GL1 4083   3.925   3.964  13.189
12139DPPC   GL2 4084   3.845   4.234  13.339
12139DPPC   C1A 4085   3.545   3.914  13.249
12139DPPC   C2A 4086   3.275   3.904  13.559
12139DPPC   C3A 4087   2.965   3.974  13.879
12139DPPC   C4A 4088   2.705   3.934  14.239
12139DPPC   C1B 4089   3.575   4.294  13.589
12139DPPC   C2B 4090   3.335   4.294  13.969
12139DPPC   C3B 4091   3.005   4.344  14.309
12139DPPC   C4B 4092   2.765   4.324  14.699
12140DPPC   NC3 4093   6.975   3.984  16.059
12140DPPC   PO4 4094   6.635   4.194  15.989
12140DPPC   GL1 4095   6.435   3.964  16.279
12140DPPC   GL2 4096   6.565   4.124  16.519
12140DPPC   C1A 4097   6.145   3.904  16.439
12140DPPC   C2A 4098   5.875   3.934  16.749
12140DPPC   C3A 4099   5.545   4.014  17.099
12140DPPC   C4A 4100   5.285   3.934  17.509
12140DPPC   C1B 4101   6.385   3.954  16.829
12140DPPC   C2B 4102   6.155   3.884  17.189
12140DPPC   C3B 4103   5.865   3.874  17.509
12140DPPC   C4B 4104   5.605   3.884  17.939
12141DPPC   NC3 4105   5.075   5.134  13.339
12141DPPC   PO4 4106   4.865   5.024  13.649
12141DPPC   GL1 4107   4.465   5.144  13.809
12141DPPC   GL2 4108   4.565   5.124  14.079
12141DPPC   C1A 4109   4.165   5.154  13.969
12141DPPC   C2A 4110   3.845   5.014  14.259
12141DPPC   C3A 4111   3.525   5.024  14.629
12141DPPC   C4A 4112   3.185   4.974  15.039
12141DPPC   C1B 4113   4.365   5.324  14.319
12141DPPC   C2B 4114   4.055   5.344  14.579
12141DPPC   C3B 4115   3.755   5.394  14.969
12141DPPC   C4B 4116   3.435   5.384  15.299
12142DPPC   NC3 4117   7.235   3.654  17.069
12142DPPC   PO4 4118   7.445   3.334  16.999
12142DPPC   GL1 4119   7.125   3.114  17.219
12142DPPC   GL2 4120   7.225   3.134  17.429
12142DPPC   C1A 4121   6.845   3.224  17.349
12142DPPC   C2A 4122   6.595   3.294  17.649
12142DPPC   C3A 4123   6.335   3.254  17.979
12142DPPC   C4A 4124   6.055   3.334  18.309
12142DPPC   C1B 4125   7.185   3.104  17.779
12142DPPC   C2B 4126   6.855   3.134  18.029
12142DPPC   C3B 4127   6.585   3.234  18.389
12142DPPC   C4B 4128   6.235   3.184  18.739
12143DPPC   NC3 4129   3.545   6.344  11.929
12143DPPC   PO4 4130   3.395   6.064  12.179
12143DPPC   GL1 4131   3.115   6.044  12.449
12143DPPC   GL2 4132   3.155   5.794  12.629
12143DPPC   C1A 4133   2.775   6.134  12.599
12143DPPC   C2A 4134   2.515   6.294  12.919
12143DPPC   C3A 4135   2.215   6.344  13.319
12143DPPC   C4A 4136   1.955   6.354  13.699
12143DPPC   C1B 4137   2.875   5.734  12.849
12143DPPC   C2B 4138   2.545   5.824  13.069
12143DPPC   C3B 4139   2.365   5.814  13.459
12143DPPC   C4B 4140   2.055   5.844  13.829
12144DPPC   NC3 4141   5.725   0.466  15.569
12144DPPC   PO4 4142   5.945   0.796  15.499
12144DPPC   GL1 4143   5.805   0.936  15.829
12144DPPC   GL2 4144   5.865   0.666  15.929
12144DPPC   C1A 4145   5.485   0.986  15.889
12144DPPC   C2A 4146   5.255   1.096  16.209
12144DPPC   C3A 4147   4.975   1.086  16.519
12144DPPC   C4A 4148   4.665   1.086  16.919
12144DPPC   C1B 4149   5.545   0.526  16.049
12144DPPC   C2B 4150   5.265   0.576  16.409
12144DPPC   C3B 4151   4.925   0.616  16.769
12144DPPC   C4B 4152   4.615   0.566  17.119
12145DPPC   NC3 4153   7.795   1.244  16.739
12145DPPC   PO4 4154   7.385   1.264  16.699
12145DPPC   GL1 4155   7.185   1.096  17.019
12145DPPC   GL2 4156   6.985   1.026  16.949
12145DPPC   C1A 4157   7.095   1.096  17.399
12145DPPC   C2A 4158   6.965   1.056  17.769
12145DPPC   C3A 4159   6.635   1.006  18.159
12145DPPC   C4A 4160   6.335   0.996  18.569
12145DPPC   C1B 4161   6.695   1.106  17.209
12145DPPC   C2B 4162   6.475   1.116  17.539
12145DPPC   C3B 4163   6.215   1.096  17.919
12145DPPC   C4B 4164   5.895   1.116  18.269
12146DPPC   NC3 4165   4.515   4.724  13.509
12146DPPC   PO4 4166   4.705   4.484  13.719
12146DPPC   GL1 4167   4.435   4.474  13.969
12146DPPC   GL2 4168   4.275   4.684  13.919
12146DPPC   C1A 4169   4.125   4.274  13.959
12146DPPC   C2A 4170   3.815   4.204  14.229
12146DPPC   C3A 4171   3.475   4.204  14.569
12146DPPC   C4A 4172   3.155   4.154  14.979
12146DPPC   C1B 4173   4.175   4.694  14.229
12146DPPC   C2B 4174   3.935   4.614  14.579
12146DPPC   C3B 4175   3.625   4.554  14.939
12146DPPC   C4B 4176   3.255   4.544  15.259
12147DPPC   NC3 4177   5.795   5.574  15.289
12147DPPC   PO4 4178   5.785   5.234  15.069
12147DPPC   GL1 4179   5.425   5.104  15.239
12147DPPC   GL2 4180   5.415   5.414  15.229
12147DPPC   C1A 4181   5.165   5.034  15.449
12147DPPC   C2A 4182   4.985   5.044  15.779
12147DPPC   C3A 4183   4.655   5.044  16.149
12147DPPC   C4A 4184   4.395   5.074  16.579
12147DPPC   C1B 4185   5.115   5.474  15.429
12147DPPC   C2B 4186   4.815   5.524  15.719
12147DPPC   C3B 4187   4.545   5.594  16.029
12147DPPC   C4B 4188   4.175   5.584  16.379
12148DPPC   NC3 4189   4.935   0.126  14.199
12148DPPC   PO4 4190   4.905   6.364  14.029
12148DPPC   GL1 4191   4.715   6.094  14.259
12148DPPC   GL2 4192   4.545   6.034  13.919
12148DPPC   C1A 4193   4.425   6.154  14.489
12148DPPC   C2A 4194   4.105   6.264  14.739
12148DPPC   C3A 4195   3.825   6.274  15.119
12148DPPC   C4A 4196   3.555   6.244  15.459
12148DPPC   C1B 4197   4.375   6.314  14.049
12148DPPC   C2B 4198   4.025   6.314  14.169
12148DPPC   C3B 4199   3.635   6.334  14.439
12148DPPC   C4B 4200   3.345   6.324  14.799
12149DPPC   NC3 4201   4.225   5.984  12.849
12149DPPC   PO4 4202   3.985   5.674  12.749
12149DPPC   GL1 4203   3.545   5.704  12.839
12149DPPC   GL2 4204   3.605   5.554  13.029
12149DPPC   C1A 4205   3.225   5.784  13.049
12149DPPC   C2A 4206   2.955   5.794  13.399
12149DPPC   C3A 4207   2.715   5.754  13.859
12149DPPC   C4A 4208   2.415   5.764  14.239
12149DPPC   C1B 4209   3.595   5.644  13.349
12149DPPC   C2B 4210   3.395   5.594  13.749
12149DPPC   C3B 4211   3.115   5.594  14.119
12149DPPC   C4B 4212   2.795   5.574  14.479
12150DPPC   NC3 4213   5.465   4.944  14.139
12150DPPC   PO4 4214   5.245   4.924  14.489
12150DPPC   GL1 4215   5.265   5.134  14.859
12150DPPC   GL2 4216   5.255   4.844  14.979
12150DPPC   C1A 4217   5.025   5.254  15.049
12150DPPC   C2A 4218   4.725   5.164  15.349
12150DPPC   C3A 4219   4.365   5.154  15.659
12150DPPC   C4A 4220   4.155   5.204  16.069
12150DPPC   C1B 4221   4.935   4.794  15.149
12150DPPC   C2B 4222   4.715   4.674  15.419
12150DPPC   C3B 4223   4.425   4.704  15.799
12150DPPC   C4B 4224   4.295   4.694  16.259
12151DPPC   NC3 4225   7.455   1.884  17.069
12151DPPC   PO4 4226   7.535   2.234  16.919
12151DPPC   GL1 4227   7.335   2.414  17.229
12151DPPC   GL2 4228   7.205   2.194  17.359
12151DPPC   C1A 4229   7.135   2.664  17.299
12151DPPC   C2A 4230   6.915   2.774  17.609
12151DPPC   C3A 4231   6.545   2.774  17.979
12151DPPC   C4A 4232   6.255   2.914  18.349
12151DPPC   C1B 4233   7.025   2.294  17.649
12151DPPC   C2B 4234   6.775   2.344  17.989
12151DPPC   C3B 4235   6.445   2.374  18.349
12151DPPC   C4B 4236   6.155   2.344  18.739
12152DPPC   NC3 4237   7.225   5.184  15.899
12152DPPC   PO4 4238   6.795   5.204  15.989
12152DPPC   GL1 4239   6.575   5.204  16.369
12152DPPC   GL2 4240   6.685   5.334  16.529
12152DPPC   C1A 4241   6.305   5.014  16.519
12152DPPC   C2A 4242   6.025   4.804  16.749
12152DPPC   C3A 4243   5.755   4.834  17.159
12152DPPC   C4A 4244   5.445   4.924  17.489
12152DPPC   C1B 4245   6.495   5.224  16.829
12152DPPC   C2B 4246   6.195   5.184  17.139
12152DPPC   C3B 4247   5.865   5.264  17.489
12152DPPC   C4B 4248   5.525   5.254  17.859
12153DPPC   NC3 4249   3.285   5.494  11.579
12153DPPC   PO4 4250   3.495   5.614  11.899
12153DPPC   GL1 4251   3.185   5.634  12.139
12153DPPC   GL2 4252   2.995   5.864  12.039
12153DPPC   C1A 4253   2.885   5.494  12.299
12153DPPC   C2A 4254   2.595   5.454  12.579
12153DPPC   C3A 4255   2.255   5.454  12.969
12153DPPC   C4A 4256   2.005   5.404  13.379
12153DPPC   C1B 4257   2.635   5.874  12.239
12153DPPC   C2B 4258   2.365   5.934  12.549
12153DPPC   C3B 4259   2.095   5.964  12.959
12153DPPC   C4B 4260   1.835   5.874  13.309
12154DPPC   NC3 4261   7.815   2.334  18.199
12154DPPC   PO4 4262   7.775   2.704  18.119
12154DPPC   GL1 4263   7.385   2.814  18.109
12154DPPC   GL2 4264   7.355   3.084  18.249
12154DPPC   C1A 4265   7.025   2.724  18.089
12154DPPC   C2A 4266   6.855   2.704  18.439
12154DPPC   C3A 4267   6.495   2.744  18.759
12154DPPC   C4A 4268   6.185   2.684  19.129
12154DPPC   C1B 4269   7.075   3.204  18.439
12154DPPC   C2B 4270   6.875   3.094  18.799
12154DPPC   C3B 4271   6.555   3.094  19.189
12154DPPC   C4B 4272   6.235   3.174  19.569
12155DPPC   NC3 4273   7.175   6.484  16.399
12155DPPC   PO4 4274   6.965   0.216  16.389
12155DPPC   GL1 4275   6.535   0.276  16.499
12155DPPC   GL2 4276   6.435   0.126  16.279
12155DPPC   C1A 4277   6.355   0.356  16.769
12155DPPC   C2A 4278   6.045   0.356  17.069
12155DPPC   C3A 4279   5.685   0.336  17.399
12155DPPC   C4A 4280   5.455   0.386  17.799
12155DPPC   C1B 4281   6.125   0.076  16.409
12155DPPC   C2B 4282   5.825   6.604  16.699
12155DPPC   C3B 4283   5.565   0.026  17.069
12155DPPC   C4B 4284   5.315   6.604  17.429
12156DPPC   NC3 4285   3.685   5.184  12.049
12156DPPC   PO4 4286   3.885   5.024  12.349
12156DPPC   GL1 4287   3.645   5.244  12.749
12156DPPC   GL2 4288   3.615   4.944  12.819
12156DPPC   C1A 4289   3.285   5.274  12.879
12156DPPC   C2A 4290   2.955   5.384  13.079
12156DPPC   C3A 4291   2.585   5.374  13.369
12156DPPC   C4A 4292   2.345   5.364  13.799
12156DPPC   C1B 4293   3.305   4.884  13.019
12156DPPC   C2B 4294   2.975   4.884  13.269
12156DPPC   C3B 4295   2.665   4.944  13.599
12156DPPC   C4B 4296   2.375   4.874  14.019
12157DPPC   NC3 4297   3.685   4.184  11.949
12157DPPC   PO4 4298   3.635   3.904  12.219
12157DPPC   GL1 4299   3.505   4.114  12.519
12157DPPC   GL2 4300   3.355   4.294  12.399
12157DPPC   C1A 4301   3.265   4.064  12.829
12157DPPC   C2A 4302   2.995   4.104  13.189
12157DPPC   C3A 4303   2.655   4.104  13.529
12157DPPC   C4A 4304   2.305   4.064  13.949
12157DPPC   C1B 4305   3.065   4.394  12.549
12157DPPC   C2B 4306   2.965   4.594  12.889
12157DPPC   C3B 4307   2.675   4.554  13.239
12157DPPC   C4B 4308   2.315   4.494  13.559
12158DPPC   NC3 4309   5.955   6.534  15.119
12158DPPC   PO4 4310   5.955   6.574  15.529
12158DPPC   GL1 4311   5.545   6.534  15.569
12158DPPC   GL2 4312   5.555   6.274  15.599
12158DPPC   C1A 4313   5.295   0.066  15.769
12158DPPC   C2A 4314   5.105   0.236  16.069
12158DPPC   C3A 4315   4.875   0.216  16.489
12158DPPC   C4A 4316   4.585   0.146  16.859
12158DPPC   C1B 4317   5.375   6.274  15.899
12158DPPC   C2B 4318   5.185   6.314  16.269
12158DPPC   C3B 4319   4.925   6.294  16.649
12158DPPC   C4B 4320   4.675   6.314  17.079
12159DPPC   NC3 4321   3.205   3.554  12.359
12159DPPC   PO4 4322   3.535   3.334  12.509
12159DPPC   GL1 4323   3.515   3.144  12.869
12159DPPC   GL2 4324   3.235   3.274  12.859
12159DPPC   C1A 4325   3.435   2.844  13.049
12159DPPC   C2A 4326   3.305   2.574  13.289
12159DPPC   C3A 4327   3.105   2.694  13.729
12159DPPC   C4A 4328   2.775   2.624  14.109
12159DPPC   C1B 4329   2.925   3.204  13.079
12159DPPC   C2B 4330   2.615   3.134  13.309
12159DPPC   C3B 4331   2.305   3.254  13.669
12159DPPC   C4B 4332   2.065   3.194  14.069
12160DPPC   NC3 4333   4.325   0.086  12.549
12160DPPC   PO4 4334   4.005   6.484  12.709
12160DPPC   GL1 4335   3.695   0.146  12.879
12160DPPC   GL2 4336   3.505   6.544  12.929
12160DPPC   C1A 4337   3.605   0.276  13.249
12160DPPC   C2A 4338   3.485   0.266  13.639
12160DPPC   C3A 4339   3.235   0.286  14.039
12160DPPC   C4A 4340   2.875   0.166  14.409
12160DPPC   C1B 4341   3.295   6.484  13.229
12160DPPC   C2B 4342   3.145   6.544  13.579
12160DPPC   C3B 4343   2.815   6.544  13.939
12160DPPC   C4B 4344   2.465   6.504  14.299
12161DPPC   NC3 4345   4.645   1.544  13.029
12161DPPC   PO4 4346   4.365   1.694  13.229
12161DPPC   GL1 4347   4.245   1.654  13.679
12161DPPC   GL2 4348   4.265   1.344  13.619
12161DPPC   C1A 4349   3.935   1.774  13.879
12161DPPC   C2A 4350   3.745   1.584  14.139
12161DPPC   C3A 4351   3.435   1.484  14.489
12161DPPC   C4A 4352   3.115   1.524  14.869
12161DPPC   C1B 4353   3.995   1.204  13.849
12161DPPC   C2B 4354   3.785   1.126  14.209
12161DPPC   C3B 4355   3.505   1.036  14.599
12161DPPC   C4B 4356   3.335   1.016  14.959
12162DPPC   NC3 4357   5.045   1.524  14.279
12162DPPC   PO4 4358   4.905   1.274  14.059
12162DPPC   GL1 4359   4.525   1.076  14.039
12162DPPC   GL2 4360   4.415   1.344  14.059
12162DPPC   C1A 4361   4.335   1.056  14.339
12162DPPC   C2A 4362   4.145   0.936  14.649
12162DPPC   C3A 4363   3.825   0.976  14.959
12162DPPC   C4A 4364   3.535   0.956  15.389
12162DPPC   C1B 4365   4.145   1.464  14.319
12162DPPC   C2B 4366   3.945   1.404  14.609
12162DPPC   C3B 4367   3.685   1.414  15.009
12162DPPC   C4B 4368   3.355   1.424  15.329
12163DPPC   NC3 4369   5.775   3.344  15.579
12163DPPC   PO4 4370   6.195   3.414  15.659
12163DPPC   GL1 4371   6.135   3.684  15.989
12163DPPC   GL2 4372   6.005   3.454  16.149
12163DPPC   C1A 4373   5.905   3.954  16.119
12163DPPC   C2A 4374   5.565   4.074  16.369
12163DPPC   C3A 4375   5.265   4.114  16.709
12163DPPC   C4A 4376   5.035   4.064  17.119
12163DPPC   C1B 4377   5.835   3.534  16.479
12163DPPC   C2B 4378   5.485   3.604  16.729
12163DPPC   C3B 4379   5.195   3.554  17.039
12163DPPC   C4B 4380   4.945   3.574  17.499
12164DPPC   NC3 4381   3.865   1.804  12.629
12164DPPC   PO4 4382   3.505   1.844  12.799
12164DPPC   GL1 4383   3.495   1.504  13.139
12164DPPC   GL2 4384   3.365   1.344  12.829
12164DPPC   C1A 4385   3.185   1.574  13.319
12164DPPC   C2A 4386   2.905   1.714  13.619
12164DPPC   C3A 4387   2.635   1.744  13.959
12164DPPC   C4A 4388   2.425   1.784  14.359
12164DPPC   C1B 4389   3.005   1.414  12.939
12164DPPC   C2B 4390   2.765   1.304  13.249
12164DPPC   C3B 4391   2.495   1.354  13.609
12164DPPC   C4B 4392   2.255   1.344  14.019
12165DPPC   NC3 4393   5.065   2.874  14.199
12165DPPC   PO4 4394   5.155   2.514  13.999
12165DPPC   GL1 4395   4.865   2.444  14.279
12165DPPC   GL2 4396   5.045   2.364  14.499
12165DPPC   C1A 4397   4.665   2.614  14.549
12165DPPC   C2A 4398   4.415   2.714  14.839
12165DPPC   C3A 4399   4.125   2.664  15.229
12165DPPC   C4A 4400   3.785   2.684  15.569
12165DPPC   C1B 4401   4.835   2.204  14.749
12165DPPC   C2B 4402   4.495   2.124  14.999
12165DPPC   C3B 4403   4.185   2.144  15.409
12165DPPC   C4B 4404   3.825   2.194  15.749
12166DPPC   NC3 4405   7.545   5.854  16.369
12166DPPC   PO4 4406   7.225   6.024  16.579
12166DPPC   GL1 4407   6.875   6.244  16.649
12166DPPC   GL2 4408   6.755   6.434  16.459
12166DPPC   C1A 4409   6.625   6.094  16.839
12166DPPC   C2A 4410   6.375   5.954  17.109
12166DPPC   C3A 4411   6.055   5.964  17.419
12166DPPC   C4A 4412   5.855   6.024  17.869
12166DPPC   C1B 4413   6.525   6.534  16.719
12166DPPC   C2B 4414   6.295   6.514  17.049
12166DPPC   C3B 4415   5.935   6.494  17.359
12166DPPC   C4B 4416   5.675   6.504  17.759
12167DPPC   NC3 4417   5.355   0.426  14.759
12167DPPC   PO4 4418   5.685   0.196  14.799
12167DPPC   GL1 4419   5.535   0.126  15.199
12167DPPC   GL2 4420   5.475   6.464  14.959
12167DPPC   C1A 4421   5.185   0.206  15.329
12167DPPC   C2A 4422   4.875   0.226  15.559
12167DPPC   C3A 4423   4.575   0.316  15.919
12167DPPC   C4A 4424   4.375   0.316  16.379
12167DPPC   C1B 4425   5.255   6.394  15.269
12167DPPC   C2B 4426   5.025   6.334  15.579
12167DPPC   C3B 4427   4.765   6.434  15.959
12167DPPC   C4B 4428   4.455   6.394  16.379
12168DPPC   NC3 4429   4.125   2.764  12.699
12168DPPC   PO4 4430   4.295   2.944  12.999
12168DPPC   GL1 4431   4.035   3.194  13.249
12168DPPC   GL2 4432   4.215   3.304  13.399
12168DPPC   C1A 4433   3.595   3.174  13.299
12168DPPC   C2A 4434   3.205   3.084  13.379
12168DPPC   C3A 4435   2.885   3.104  13.699
12168DPPC   C4A 4436   2.555   3.114  14.099
12168DPPC   C1B 4437   4.145   3.264  13.749
12168DPPC   C2B 4438   3.815   3.384  14.009
12168DPPC   C3B 4439   3.495   3.334  14.349
12168DPPC   C4B 4440   3.125   3.334  14.699
12169DPPC   NC3 4441   3.855   5.974  12.069
12169DPPC   PO4 4442   3.905   6.114  12.409
12169DPPC   GL1 4443   3.515   6.084  12.619
12169DPPC   GL2 4444   3.755   6.104  12.819
12169DPPC   C1A 4445   3.255   6.194  12.869
12169DPPC   C2A 4446   2.955   6.164  13.089
12169DPPC   C3A 4447   2.675   6.144  13.539
12169DPPC   C4A 4448   2.395   6.174  13.929
12169DPPC   C1B 4449   3.595   6.074  13.129
12169DPPC   C2B 4450   3.485   6.054  13.499
12169DPPC   C3B 4451   3.155   6.024  13.789
12169DPPC   C4B 4452   2.835   6.044  14.239
12170DPPC   NC3 4453   5.795   1.156  14.709
12170DPPC   PO4 4454   5.465   0.956  14.629
12170DPPC   GL1 4455   5.115   0.866  14.649
12170DPPC   GL2 4456   4.945   1.056  14.449
12170DPPC   C1A 4457   4.985   0.736  14.979
12170DPPC   C2A 4458   4.855   0.696  15.389
12170DPPC   C3A 4459   4.605   0.796  15.729
12170DPPC   C4A 4460   4.265   0.716  16.099
12170DPPC   C1B 4461   4.665   0.946  14.599
12170DPPC   C2B 4462   4.515   0.816  14.939
12170DPPC   C3B 4463   4.235   0.866  15.309
12170DPPC   C4B 4464   3.985   0.856  15.709
12171DPPC   NC3 4465   8.055   0.246  17.759
12171DPPC   PO4 4466   7.735   0.086  17.569
12171DPPC   GL1 4467   7.325   0.136  17.499
12171DPPC   GL2 4468   7.195   0.126  17.259
12171DPPC   C1A 4469   7.165   0.156  17.849
12171DPPC   C2A 4470   6.955   0.066  18.179
12171DPPC   C3A 4471   6.685   0.056  18.629
12171DPPC   C4A 4472   6.385   0.066  19.009
12171DPPC   C1B 4473   6.905   0.156  17.459
12171DPPC   C2B 4474   6.635   0.136  17.779
12171DPPC   C3B 4475   6.385   0.056  18.179
12171DPPC   C4B 4476   6.085   0.176  18.589
12172DPPC   NC3 4477   7.105   3.234  16.069
12172DPPC   PO4 4478   7.125   3.504  16.329
12172DPPC   GL1 4479   7.095   3.484  16.659
12172DPPC   GL2 4480   7.115   3.164  16.589
12172DPPC   C1A 4481   6.825   3.434  16.909
12172DPPC   C2A 4482   6.465   3.424  17.129
12172DPPC   C3A 4483   6.085   3.444  17.489
12172DPPC   C4A 4484   5.795   3.394  17.859
12172DPPC   C1B 4485   6.905   2.984  16.799
12172DPPC   C2B 4486   6.675   2.844  17.119
12172DPPC   C3B 4487   6.305   2.874  17.479
12172DPPC   C4B 4488   5.965   2.894  17.809
12173DPPC   NC3 4489   4.605   6.394  13.659
12173DPPC   PO4 4490   4.295   6.264  13.439
12173DPPC   GL1 4491   4.105   6.064  13.739
12173DPPC   GL2 4492   4.225   5.774  13.689
12173DPPC   C1A 4493   3.825   5.974  13.949
12173DPPC   C2A 4494   3.485   5.914  14.159
12173DPPC   C3A 4495   3.225   5.894  14.539
12173DPPC   C4A 4496   2.845   5.884  14.879
12173DPPC   C1B 4497   3.935   5.584  13.729
12173DPPC   C2B 4498   3.835   5.484  14.139
12173DPPC   C3B 4499   3.505   5.474  14.459
12173DPPC   C4B 4500   3.275   5.524  14.859
12174DPPC   NC3 4501   6.455   5.464  15.689
12174DPPC   PO4 4502   6.105   5.314  15.589
12174DPPC   GL1 4503   5.845   5.234  15.819
12174DPPC   GL2 4504   5.575   5.304  15.729
12174DPPC   C1A 4505   5.785   5.264  16.169
12174DPPC   C2A 4506   5.465   5.374  16.409
12174DPPC   C3A 4507   5.185   5.374  16.809
12174DPPC   C4A 4508   4.815   5.404  17.179
12174DPPC   C1B 4509   5.305   5.414  15.879
12174DPPC   C2B 4510   5.045   5.474  16.169
12174DPPC   C3B 4511   4.745   5.494  16.529
12174DPPC   C4B 4512   4.425   5.524  16.929
12175DPPC   NC3 4513   7.685   3.104  17.379
12175DPPC   PO4 4514   7.575   3.474  17.469
12175DPPC   GL1 4515   7.275   3.524  17.689
12175DPPC   GL2 4516   7.405   3.604  17.919
12175DPPC   C1A 4517   6.925   3.604  17.759
12175DPPC   C2A 4518   6.675   3.684  18.059
12175DPPC   C3A 4519   6.355   3.674  18.389
12175DPPC   C4A 4520   5.845   3.784  18.379
12175DPPC   C1B 4521   7.215   3.574  18.179
12175DPPC   C2B 4522   6.985   3.644  18.459
12175DPPC   C3B 4523   6.645   3.634  18.769
12175DPPC   C4B 4524   6.365   3.584  19.189
12176DPPC   NC3 4525   6.415   3.194  15.309
12176DPPC   PO4 4526   6.145   2.954  15.239
12176DPPC   GL1 4527   5.975   2.984  15.679
12176DPPC   GL2 4528   5.895   2.804  15.639
12176DPPC   C1A 4529   5.835   3.104  15.989
12176DPPC   C2A 4530   5.525   3.224  16.189
12176DPPC   C3A 4531   5.205   3.214  16.569
12176DPPC   C4A 4532   4.865   3.194  16.899
12176DPPC   C1B 4533   5.505   2.804  15.759
12176DPPC   C2B 4534   5.175   2.844  16.009
12176DPPC   C3B 4535   4.915   2.824  16.389
12176DPPC   C4B 4536   4.535   2.854  16.659
12177DPPC   NC3 4537   5.795   3.974  14.299
12177DPPC   PO4 4538   5.615   3.784  14.619
12177DPPC   GL1 4539   5.245   3.724  14.749
12177DPPC   GL2 4540   5.315   3.914  14.939
12177DPPC   C1A 4541   4.955   3.544  14.849
12177DPPC   C2A 4542   4.555   3.534  14.989
12177DPPC   C3A 4543   4.255   3.484  15.349
12177DPPC   C4A 4544   3.955   3.504  15.759
12177DPPC   C1B 4545   4.965   3.944  15.059
12177DPPC   C2B 4546   4.655   3.894  15.319
12177DPPC   C3B 4547   4.365   3.864  15.689
12177DPPC   C4B 4548   4.125   3.874  16.159
12178DPPC   NC3 4549   4.195   5.244  12.729
12178DPPC   PO4 4550   4.525   5.164  12.979
12178DPPC   GL1 4551   4.245   5.014  13.229
12178DPPC   GL2 4552   4.025   5.004  13.089
12178DPPC   C1A 4553   4.105   5.204  13.499
12178DPPC   C2A 4554   3.785   5.124  13.729
12178DPPC   C3A 4555   3.405   5.124  14.029
12178DPPC   C4A 4556   3.095   5.134  14.379
12178DPPC   C1B 4557   3.735   5.194  13.219
12178DPPC   C2B 4558   3.355   5.204  13.319
12178DPPC   C3B 4559   2.985   5.314  13.649
12178DPPC   C4B 4560   2.755   5.264  14.049
12179DPPC   NC3 4561   7.105   5.024  16.369
12179DPPC   PO4 4562   7.175   5.224  16.679
12179DPPC   GL1 4563   6.945   5.354  16.979
12179DPPC   GL2 4564   6.915   5.094  17.049
12179DPPC   C1A 4565   6.655   5.574  17.059
12179DPPC   C2A 4566   6.395   5.564  17.359
12179DPPC   C3A 4567   6.125   5.594  17.759
12179DPPC   C4A 4568   5.805   5.534  18.139
12179DPPC   C1B 4569   6.635   5.104  17.269
12179DPPC   C2B 4570   6.365   5.144  17.589
12179DPPC   C3B 4571   6.045   5.134  17.989
12179DPPC   C4B 4572   5.735   5.104  18.359
12180DPPC   NC3 4573   5.865   2.984  14.519
12180DPPC   PO4 4574   5.445   3.054  14.499
12180DPPC   GL1 4575   5.175   2.994  14.789
12180DPPC   GL2 4576   5.185   3.174  14.969
12180DPPC   C1A 4577   4.995   2.704  14.939
12180DPPC   C2A 4578   4.705   2.544  15.239
12180DPPC   C3A 4579   4.395   2.554  15.609
12180DPPC   C4A 4580   4.165   2.554  16.029
12180DPPC   C1B 4581   4.975   3.254  15.239
12180DPPC   C2B 4582   4.735   3.454  15.489
12180DPPC   C3B 4583   4.445   3.444  15.869
12180DPPC   C4B 4584   4.165   3.354  16.249
12181DPPC   NC3 4585   5.735   2.544  15.319
12181DPPC   PO4 4586   5.665   2.264  15.039
12181DPPC   GL1 4587   5.415   1.944  15.179
12181DPPC   GL2 4588   5.235   1.884  14.959
12181DPPC   C1A 4589   5.235   1.994  15.499
12181DPPC   C2A 4590   5.045   1.994  15.859
12181DPPC   C3A 4591   4.735   2.024  16.259
12181DPPC   C4A 4592   4.425   1.874  16.609
12181DPPC   C1B 4593   4.935   2.024  15.129
12181DPPC   C2B 4594   4.735   2.064  15.469
12181DPPC   C3B 4595   4.425   2.034  15.799
12181DPPC   C4B 4596   4.135   1.984  16.229
12182DPPC   NC3 4597   3.205   4.714  11.749
12182DPPC   PO4 4598   3.535   4.654  11.959
12182DPPC   GL1 4599   3.485   4.774  12.329
12182DPPC   GL2 4600   3.655   4.594  12.489
12182DPPC   C1A 4601   3.145   4.824  12.479
12182DPPC   C2A 4602   2.815   5.034  12.639
12182DPPC   C3A 4603   2.555   5.004  13.019
12182DPPC   C4A 4604   2.235   4.984  13.399
12182DPPC   C1B 4605   3.475   4.564  12.819
12182DPPC   C2B 4606   3.335   4.474  13.219
12182DPPC   C3B 4607   3.045   4.464  13.609
12182DPPC   C4B 4608   2.675   4.394  13.959
12183DPPC   NC3 4609   5.395   6.304  14.249
12183DPPC   PO4 4610   5.295   6.604  14.499
12183DPPC   GL1 4611   4.995   0.066  14.819
12183DPPC   GL2 4612   4.975   6.404  14.939
12183DPPC   C1A 4613   4.805   0.316  14.979
12183DPPC   C2A 4614   4.515   0.366  15.279
12183DPPC   C3A 4615   4.185   0.396  15.629
12183DPPC   C4A 4616   3.875   0.406  16.049
12183DPPC   C1B 4617   4.795   6.534  15.249
12183DPPC   C2B 4618   4.485   6.534  15.539
12183DPPC   C3B 4619   4.225   6.574  15.949
12183DPPC   C4B 4620   3.945   6.604  16.379
12184DPPC   NC3 4621   5.035   5.904  13.939
12184DPPC   PO4 4622   5.175   5.834  14.319
12184DPPC   GL1 4623   4.835   5.934  14.679
12184DPPC   GL2 4624   4.795   5.684  14.709
12184DPPC   C1A 4625   4.525   6.084  14.879
12184DPPC   C2A 4626   4.325   6.154  15.219
12184DPPC   C3A 4627   4.075   6.194  15.639
12184DPPC   C4A 4628   3.775   6.214  16.049
12184DPPC   C1B 4629   4.595   5.674  15.049
12184DPPC   C2B 4630   4.395   5.624  15.409
12184DPPC   C3B 4631   4.065   5.664  15.779
12184DPPC   C4B 4632   3.755   5.694  16.149
12185DPPC   NC3 4633   4.625   2.184  13.139
12185DPPC   PO4 4634   4.375   2.464  13.179
12185DPPC   GL1 4635   4.205   2.604  13.589
12185DPPC   GL2 4636   4.135   2.864  13.529
12185DPPC   C1A 4637   4.085   2.514  13.879
12185DPPC   C2A 4638   3.965   2.424  14.289
12185DPPC   C3A 4639   3.605   2.324  14.629
12185DPPC   C4A 4640   3.255   2.334  14.999
12185DPPC   C1B 4641   3.805   2.984  13.649
12185DPPC   C2B 4642   3.465   3.074  13.849
12185DPPC   C3B 4643   3.135   3.064  14.139
12185DPPC   C4B 4644   2.845   2.974  14.489
12186DPPC   NC3 4645   6.895   3.574  15.399
12186DPPC   PO4 4646   6.845   3.324  15.669
12186DPPC   GL1 4647   6.645   3.374  16.049
12186DPPC   GL2 4648   6.715   3.624  16.129
12186DPPC   C1A 4649   6.345   3.174  16.229
12186DPPC   C2A 4650   6.045   3.094  16.439
12186DPPC   C3A 4651   5.645   3.084  16.719
12186DPPC   C4A 4652   5.345   3.054  17.099
12186DPPC   C1B 4653   6.625   3.624  16.499
12186DPPC   C2B 4654   6.245   3.544  16.699
12186DPPC   C3B 4655   5.895   3.414  17.029
12186DPPC   C4B 4656   5.575   3.404  17.399
12187DPPC   NC3 4657   6.145   0.886  15.029
12187DPPC   PO4 4658   5.775   0.686  14.999
12187DPPC   GL1 4659   5.375   0.796  15.049
12187DPPC   GL2 4660   5.365   0.556  15.229
12187DPPC   C1A 4661   5.205   0.996  15.309
12187DPPC   C2A 4662   5.025   1.116  15.669
12187DPPC   C3A 4663   4.775   1.146  16.039
12187DPPC   C4A 4664   4.505   1.126  16.389
12187DPPC   C1B 4665   5.285   0.616  15.609
12187DPPC   C2B 4666   5.085   0.736  15.929
12187DPPC   C3B 4667   4.775   0.686  16.319
12187DPPC   C4B 4668   4.425   0.726  16.649
12188DPPC   NC3 4669   6.405   1.254  15.699
12188DPPC   PO4 4670   6.275   0.926  15.889
12188DPPC   GL1 4671   6.135   1.016  16.189
12188DPPC   GL2 4672   6.265   0.986  16.429
12188DPPC   C1A 4673   5.815   0.916  16.279
12188DPPC   C2A 4674   5.555   0.946  16.579
12188DPPC   C3A 4675   5.205   0.986  16.949
12188DPPC   C4A 4676   4.875   0.956  17.349
12188DPPC   C1B 4677   6.085   0.866  16.719
12188DPPC   C2B 4678   5.835   0.826  17.049
12188DPPC   C3B 4679   5.495   0.816  17.339
12188DPPC   C4B 4680   5.245   0.866  17.819
12189DPPC   NC3 4681   6.235   5.354  15.099
12189DPPC   PO4 4682   6.245   5.694  15.299
12189DPPC   GL1 4683   6.015   5.814  15.569
12189DPPC   GL2 4684   5.975   6.104  15.649
12189DPPC   C1A 4685   5.655   5.804  15.629
12189DPPC   C2A 4686   5.425   5.784  16.059
12189DPPC   C3A 4687   5.165   5.844  16.499
12189DPPC   C4A 4688   4.825   5.844  16.859
12189DPPC   C1B 4689   5.855   6.154  15.989
12189DPPC   C2B 4690   5.745   6.274  16.369
12189DPPC   C3B 4691   5.485   6.244  16.779
12189DPPC   C4B 4692   5.125   6.214  17.159
12190DPPC   NC3 4693   6.885   1.274  16.589
12190DPPC   PO4 4694   6.625   1.274  16.259
12190DPPC   GL1 4695   6.435   1.654  16.469
12190DPPC   GL2 4696   6.755   1.704  16.479
12190DPPC   C1A 4697   6.205   1.654  16.819
12190DPPC   C2A 4698   5.895   1.694  17.079
12190DPPC   C3A 4699   5.665   1.714  17.509
12190DPPC   C4A 4700   5.375   1.804  17.889
12190DPPC   C1B 4701   6.675   1.844  16.799
12190DPPC   C2B 4702   6.445   2.014  17.119
12190DPPC   C3B 4703   6.085   2.084  17.429
12190DPPC   C4B 4704   5.755   2.114  17.849
12191DPPC   NC3 4705   4.945   4.844  14.089
12191DPPC   PO4 4706   4.845   4.524  14.319
12191DPPC   GL1 4707   4.775   4.634  14.789
12191DPPC   GL2 4708   4.825   4.344  14.909
12191DPPC   C1A 4709   4.515   4.774  15.019
12191DPPC   C2A 4710   4.215   4.834  15.329
12191DPPC   C3A 4711   3.945   4.854  15.739
12191DPPC   C4A 4712   3.675   4.894  16.129
12191DPPC   C1B 4713   4.575   4.324  15.199
12191DPPC   C2B 4714   4.275   4.354  15.499
12191DPPC   C3B 4715   4.065   4.364  15.929
12191DPPC   C4B 4716   3.735   4.374  16.249
12192DPPC   NC3 4717   6.615   0.426  15.889
12192DPPC   PO4 4718   6.255   0.446  15.739
12192DPPC   GL1 4719   6.015   0.196  15.949
12192DPPC   GL2 4720   5.715   0.146  15.899
12192DPPC   C1A 4721   5.885   0.356  16.269
12192DPPC   C2A 4722   5.785   0.486  16.609
12192DPPC   C3A 4723   5.435   0.496  16.899
12192DPPC   C4A 4724   5.135   0.466  17.249
12192DPPC   C1B 4725   5.525   0.086  16.179
12192DPPC   C2B 4726   5.345   0.116  16.549
12192DPPC   C3B 4727   5.105   0.056  16.949
12192DPPC   C4B 4728   4.775   0.136  17.359
12193DPPC   NC3 4729   6.025   2.644  14.929
12193DPPC   PO4 4730   6.295   2.414  15.169
12193DPPC   GL1 4731   6.095   2.404  15.609
12193DPPC   GL2 4732   6.265   2.614  15.639
12193DPPC   C1A 4733   5.745   2.454  15.749
12193DPPC   C2A 4734   5.415   2.334  15.939
12193DPPC   C3A 4735   5.125   2.354  16.329
12193DPPC   C4A 4736   4.785   2.314  16.679
12193DPPC   C1B 4737   6.115   2.654  15.969
12193DPPC   C2B 4738   5.835   2.704  16.169
12193DPPC   C3B 4739   5.495   2.714  16.439
12193DPPC   C4B 4740   5.135   2.734  16.819
12194DPPC   NC3 4741   6.685   2.084  15.289
12194DPPC   PO4 4742   6.545   2.094  15.639
12194DPPC   GL1 4743   6.205   2.134  15.929
12194DPPC   GL2 4744   6.305   1.954  16.149
12194DPPC   C1A 4745   5.905   2.194  16.109
12194DPPC   C2A 4746   5.665   2.264  16.399
12194DPPC   C3A 4747   5.345   2.234  16.749
12194DPPC   C4A 4748   5.035   2.194  17.139
12194DPPC   C1B 4749   6.025   1.864  16.419
12194DPPC   C2B 4750   5.665   1.794  16.599
12194DPPC   C3B 4751   5.415   1.754  16.999
12194DPPC   C4B 4752   5.065   1.804  17.449
12195DPPC   NC3 4753   8.105   1.524  17.109
12195DPPC   PO4 4754   7.885   1.734  17.379
12195DPPC   GL1 4755   7.405   1.804  17.539
12195DPPC   GL2 4756   7.445   1.514  17.599
12195DPPC   C1A 4757   7.245   1.944  17.819
12195DPPC   C2A 4758   6.925   1.884  18.059
12195DPPC   C3A 4759   6.595   1.844  18.399
12195DPPC   C4A 4760   6.255   1.854  18.779
12195DPPC   C1B 4761   7.235   1.424  17.849
12195DPPC   C2B 4762   6.995   1.364  18.179
12195DPPC   C3B 4763   6.685   1.304  18.509
12195DPPC   C4B 4764   6.345   1.374  18.929
12196DPPC   NC3 4765   6.305   0.576  16.249
12196DPPC   PO4 4766   6.655   0.756  16.339
12196DPPC   GL1 4767   6.605   0.916  16.699
12196DPPC   GL2 4768   6.665   0.766  16.899
12196DPPC   C1A 4769   6.475   1.184  16.849
12196DPPC   C2A 4770   6.175   1.254  17.129
12196DPPC   C3A 4771   5.895   1.224  17.469
12196DPPC   C4A 4772   5.635   1.254  17.879
12196DPPC   C1B 4773   6.295   0.756  17.089
12196DPPC   C2B 4774   6.125   0.756  17.479
12196DPPC   C3B 4775   5.835   0.746  17.859
12196DPPC   C4B 4776   5.505   0.716  18.229
12197DPPC   NC3 4777   6.305   6.454  15.809
12197DPPC   PO4 4778   6.545   6.344  16.059
12197DPPC   GL1 4779   6.295   6.244  16.349
12197DPPC   GL2 4780   6.215   5.974  16.239
12197DPPC   C1A 4781   6.085   6.194  16.699
12197DPPC   C2A 4782   5.875   6.044  16.979
12197DPPC   C3A 4783   5.585   6.144  17.329
12197DPPC   C4A 4784   5.315   6.114  17.709
12197DPPC   C1B 4785   5.965   5.794  16.369
12197DPPC   C2B 4786   5.645   5.804  16.619
12197DPPC   C3B 4787   5.335   5.774  16.979
12197DPPC   C4B 4788   5.135   5.774  17.429
12198DPPC   NC3 4789   5.605   1.814  14.069
12198DPPC   PO4 4790   5.305   1.964  14.149
12198DPPC   GL1 4791   5.015   1.954  14.449
12198DPPC   GL2 4792   4.745   2.044  14.399
12198DPPC   C1A 4793   4.865   1.754  14.719
12198DPPC   C2A 4794   4.675   1.584  14.989
12198DPPC   C3A 4795   4.365   1.684  15.409
12198DPPC   C4A 4796   4.035   1.674  15.769
12198DPPC   C1B 4797   4.425   2.194  14.549
12198DPPC   C2B 4798   4.145   2.324  14.769
12198DPPC   C3B 4799   3.775   2.264  15.119
12198DPPC   C4B 4800   3.415   2.234  15.459
23997DPPC   NC3 4801   5.955   6.044  20.749
23997DPPC   PO4 4802   6.135   6.364  20.909
23997DPPC   GL1 4803   6.405   6.434  20.679
23997DPPC   GL2 4804   6.585   6.264  20.629
23997DPPC   C1A 4805   6.575   0.156  20.569
23997DPPC   C2A 4806   6.495   0.426  20.299
23997DPPC   C3A 4807   6.445   0.806  20.039
23997DPPC   C4A 4808   6.315   1.284  19.849
23997DPPC   C1B 4809   6.455   5.964  20.379
23997DPPC   C2B 4810   6.205   5.584  20.369
23997DPPC   C3B 4811   6.085   5.104  20.439
23997DPPC   C4B 4812   6.255   4.644  20.509
23998DPPC   NC3 4813   6.605   3.064  22.229
23998DPPC   PO4 4814   6.765   3.234  21.889
23998DPPC   GL1 4815   7.035   3.084  21.579
23998DPPC   GL2 4816   7.245   3.134  21.709
23998DPPC   C1A 4817   7.155   3.034  21.259
23998DPPC   C2A 4818   7.195   2.854  20.869
23998DPPC   C3A 4819   7.485   2.744  20.399
23998DPPC   C4A 4820   7.765   2.764  19.999
23998DPPC   C1B 4821   7.485   3.194  21.399
23998DPPC   C2B 4822   7.595   3.104  20.999
23998DPPC   C3B 4823   7.845   3.104  20.619
23998DPPC   C4B 4824   8.045   3.174  20.199
23999DPPC   NC3 4825   7.345   0.496  21.869
23999DPPC   PO4 4826   7.625   0.276  21.789
23999DPPC   GL1 4827   7.695   0.286  21.459
23999DPPC   GL2 4828   8.015   0.396  21.439
23999DPPC   C1A 4829   7.705   0.146  21.119
23999DPPC   C2A 4830   7.965   0.106  20.799
23999DPPC   C3A 4831   8.265   0.096  20.399
23999DPPC   C4A 4832   8.475   0.086  19.959
23999DPPC   C1B 4833   8.195   0.436  21.129
23999DPPC   C2B 4834   8.405   0.436  20.799
23999DPPC   C3B 4835   8.585   0.456  20.389
23999DPPC   C4B 4836   8.855   0.416  20.049
24000DPPC   NC3 4837  13.085   2.664  19.269
24000DPPC   PO4 4838  13.235   3.034  19.309
24000DPPC   GL1 4839  12.915   3.184  19.149
24000DPPC   GL2 4840  12.755   3.334  19.349
24000DPPC   C1A 4841  12.635   3.224  18.869
24000DPPC   C2A 4842  12.405   3.134  18.579
24000DPPC   C3A 4843  12.055   3.094  18.279
24000DPPC   C4A 4844  11.695   3.084  17.989
24000DPPC   C1B 4845  12.565   3.564  19.139
24000DPPC   C2B 4846  12.305   3.584  18.779
24000DPPC   C3B 4847  11.995   3.594  18.409
24000DPPC   C4B 4848  11.675   3.554  18.079
24001DPPC   NC3 4849   4.465   2.314  20.329
24001DPPC   PO4 4850   4.445   2.694  20.239
24001DPPC   GL1 4851   4.805   2.914  20.039
24001DPPC   GL2 4852   4.935   2.984  20.299
24001DPPC   C1A 4853   5.015   2.874  19.769
24001DPPC   C2A 4854   5.325   2.824  19.529
24001DPPC   C3A 4855   5.585   2.824  19.159
24001DPPC   C4A 4856   5.845   2.844  18.779
24001DPPC   C1B 4857   5.225   3.214  20.269
24001DPPC   C2B 4858   5.465   3.134  19.899
24001DPPC   C3B 4859   5.735   3.204  19.539
24001DPPC   C4B 4860   6.025   3.184  19.139
24002DPPC   NC3 4861  10.625   6.544  21.899
24002DPPC   PO4 4862  10.875   0.166  21.699
24002DPPC   GL1 4863  10.755   0.066  21.389
24002DPPC   GL2 4864  10.525   6.594  21.409
24002DPPC   C1A 4865  10.755   0.146  21.059
24002DPPC   C2A 4866  10.825   0.456  20.819
24002DPPC   C3A 4867  10.875   0.936  20.759
24002DPPC   C4A 4868  10.885   1.414  20.879
24002DPPC   C1B 4869  10.205   6.584  21.169
24002DPPC   C2B 4870  10.285   6.464  20.819
24002DPPC   C3B 4871  10.535   6.394  20.429
24002DPPC   C4B 4872  10.785   6.324  19.979
24003DPPC   NC3 4873  12.925   0.766  20.009
24003DPPC   PO4 4874  13.145   0.856  19.679
24003DPPC   GL1 4875  12.865   0.856  19.299
24003DPPC   GL2 4876  13.015   0.786  19.119
24003DPPC   C1A 4877  12.595   0.826  19.019
24003DPPC   C2A 4878  12.375   0.966  18.729
24003DPPC   C3A 4879  11.995   1.006  18.369
24003DPPC   C4A 4880  11.655   0.996  17.939
24003DPPC   C1B 4881  13.055   0.736  18.759
24003DPPC   C2B 4882  12.815   0.866  18.449
24003DPPC   C3B 4883  12.415   0.946  18.109
24003DPPC   C4B 4884  12.115   0.916  17.739
24004DPPC   NC3 4885  12.385   3.804  20.919
24004DPPC   PO4 4886  12.035   3.974  20.969
24004DPPC   GL1 4887  11.715   3.754  20.669
24004DPPC   GL2 4888  11.585   3.934  20.769
24004DPPC   C1A 4889  11.495   3.504  20.429
24004DPPC   C2A 4890  11.115   3.504  20.239
24004DPPC   C3A 4891  10.795   3.554  19.879
24004DPPC   C4A 4892  10.465   3.564  19.479
24004DPPC   C1B 4893  11.315   4.054  20.519
24004DPPC   C2B 4894  11.015   4.054  20.319
24004DPPC   C3B 4895  10.635   4.074  20.019
24004DPPC   C4B 4896  10.415   4.064  19.609
24005DPPC   NC3 4897  11.645   4.034  21.539
24005DPPC   PO4 4898  11.935   4.284  21.339
24005DPPC   GL1 4899  11.615   4.514  21.109
24005DPPC   GL2 4900  11.515   4.234  21.079
24005DPPC   C1A 4901  11.635   4.484  20.739
24005DPPC   C2A 4902  11.455   4.434  20.369
24005DPPC   C3A 4903  11.195   4.464  19.989
24005DPPC   C4A 4904  10.845   4.344  19.699
24005DPPC   C1B 4905  11.255   4.354  20.819
24005DPPC   C2B 4906  10.905   4.254  20.759
24005DPPC   C3B 4907  10.595   4.044  20.559
24005DPPC   C4B 4908  10.185   4.064  20.249
24006DPPC   NC3 4909   8.705   2.534  22.349
24006DPPC   PO4 4910   8.475   2.614  22.069
24006DPPC   GL1 4911   8.465   2.844  21.689
24006DPPC   GL2 4912   8.395   2.594  21.549
24006DPPC   C1A 4913   8.295   3.114  21.509
24006DPPC   C2A 4914   8.165   3.444  21.319
24006DPPC   C3A 4915   8.305   3.894  21.099
24006DPPC   C4A 4916   8.295   4.304  20.959
24006DPPC   C1B 4917   8.165   2.584  21.239
24006DPPC   C2B 4918   7.935   2.744  20.909
24006DPPC   C3B 4919   8.095   2.684  20.449
24006DPPC   C4B 4920   8.295   2.744  20.029
24007DPPC   NC3 4921   4.405   3.144  20.399
24007DPPC   PO4 4922   4.375   3.214  20.019
24007DPPC   GL1 4923   4.545   3.374  19.689
24007DPPC   GL2 4924   4.615   3.044  19.659
24007DPPC   C1A 4925   4.645   3.344  19.369
24007DPPC   C2A 4926   4.875   3.334  19.039
24007DPPC   C3A 4927   5.225   3.424  18.709
24007DPPC   C4A 4928   5.485   3.444  18.359
24007DPPC   C1B 4929   4.815   2.934  19.389
24007DPPC   C2B 4930   5.085   2.874  19.089
24007DPPC   C3B 4931   5.345   2.884  18.679
24007DPPC   C4B 4932   5.645   2.994  18.349
24008DPPC   NC3 4933  11.005   4.294  21.409
24008DPPC   PO4 4934  11.195   3.974  21.309
24008DPPC   GL1 4935  11.295   3.764  20.999
24008DPPC   GL2 4936  11.065   3.784  20.849
24008DPPC   C1A 4937  11.355   3.484  20.849
24008DPPC   C2A 4938  11.185   3.064  20.849
24008DPPC   C3A 4939  10.775   2.874  20.749
24008DPPC   C4A 4940  10.465   2.804  20.409
24008DPPC   C1B 4941  10.815   3.694  20.589
24008DPPC   C2B 4942  10.475   3.594  20.329
24008DPPC   C3B 4943  10.445   3.214  20.009
24008DPPC   C4B 4944  10.495   2.744  19.859
24009DPPC   NC3 4945   7.605   1.514  21.969
24009DPPC   PO4 4946   7.565   1.424  21.589
24009DPPC   GL1 4947   7.305   1.344  21.289
24009DPPC   GL2 4948   7.385   1.096  21.149
24009DPPC   C1A 4949   7.385   1.574  21.029
24009DPPC   C2A 4950   7.525   1.544  20.649
24009DPPC   C3A 4951   7.755   1.434  20.269
24009DPPC   C4A 4952   8.055   1.474  19.859
24009DPPC   C1B 4953   7.565   1.126  20.869
24009DPPC   C2B 4954   7.805   0.996  20.559
24009DPPC   C3B 4955   8.025   1.046  20.109
24009DPPC   C4B 4956   8.365   1.036  19.739
24010DPPC   NC3 4957  13.065   1.464  20.359
24010DPPC   PO4 4958  12.795   1.204  20.209
24010DPPC   GL1 4959  12.525   1.274  19.909
24010DPPC   GL2 4960  12.635   1.066  19.689
24010DPPC   C1A 4961  12.315   1.434  19.689
24010DPPC   C2A 4962  11.985   1.464  19.499
24010DPPC   C3A 4963  11.695   1.524  19.129
24010DPPC   C4A 4964  11.375   1.574  18.749
24010DPPC   C1B 4965  12.315   1.006  19.539
24010DPPC   C2B 4966  12.115   1.026  19.189
24010DPPC   C3B 4967  11.805   1.056  18.879
24010DPPC   C4B 4968  11.535   1.056  18.489
24011DPPC   NC3 4969   9.525   5.324  21.829
24011DPPC   PO4 4970   9.135   5.354  21.899
24011DPPC   GL1 4971   8.755   5.174  21.619
24011DPPC   GL2 4972   8.785   5.334  21.449
24011DPPC   C1A 4973   8.645   4.884  21.399
24011DPPC   C2A 4974   8.575   4.754  21.009
24011DPPC   C3A 4975   8.345   4.714  20.569
24011DPPC   C4A 4976   8.195   4.504  20.149
24011DPPC   C1B 4977   8.585   5.314  21.139
24011DPPC   C2B 4978   8.215   5.154  21.049
24011DPPC   C3B 4979   7.935   4.754  20.859
24011DPPC   C4B 4980   7.955   4.354  20.549
24012DPPC   NC3 4981   6.095   1.036  21.169
24012DPPC   PO4 4982   6.055   0.646  21.089
24012DPPC   GL1 4983   6.075   0.446  20.679
24012DPPC   GL2 4984   6.325   0.576  20.669
24012DPPC   C1A 4985   6.145   0.166  20.439
24012DPPC   C2A 4986   6.285   6.454  20.209
24012DPPC   C3A 4987   6.025   6.054  20.229
24012DPPC   C4A 4988   5.605   5.864  20.349
24012DPPC   C1B 4989   6.365   0.846  20.469
24012DPPC   C2B 4990   6.155   1.136  20.319
24012DPPC   C3B 4991   6.015   1.574  20.229
24012DPPC   C4B 4992   5.845   1.974  20.109
24013DPPC   NC3 4993  11.245   1.904  21.629
24013DPPC   PO4 4994  11.035   1.654  21.859
24013DPPC   GL1 4995  10.685   1.654  21.619
24013DPPC   GL2 4996  10.725   1.954  21.619
24013DPPC   C1A 4997  10.515   1.404  21.409
24013DPPC   C2A 4998  10.475   1.106  21.109
24013DPPC   C3A 4999  10.405   0.836  20.699
24013DPPC   C4A 5000  10.715   0.686  20.349
24013DPPC   C1B 5001  10.935   1.974  21.299
24013DPPC   C2B 5002  11.005   2.034  20.899
24013DPPC   C3B 5003  11.095   2.104  20.439
24013DPPC   C4B 5004  11.005   2.224  19.979
24014DPPC   NC3 5005  10.585   3.304  22.579
24014DPPC   PO4 5006  10.315   3.174  22.289
24014DPPC   GL1 5007  10.445   3.114  21.819
24014DPPC   GL2 5008  10.495   2.794  21.859
24014DPPC   C1A 5009  10.225   3.254  21.559
24014DPPC   C2A 5010   9.895   3.494  21.459
24014DPPC   C3A 5011   9.515   3.824  21.409
24014DPPC   C4A 5012   9.155   4.174  21.349
24014DPPC   C1B 5013  10.235   2.784  21.629
24014DPPC   C2B 5014   9.995   2.614  21.329
24014DPPC   C3B 5015   9.755   2.634  20.929
24014DPPC   C4B 5016   9.505   2.504  20.549
24015DPPC   NC3 5017  12.565   0.316  20.439
24015DPPC   PO4 5018  12.695   0.336  20.079
24015DPPC   GL1 5019  12.625   0.376  19.739
24015DPPC   GL2 5020  12.645   0.656  19.719
24015DPPC   C1A 5021  12.315   0.206  19.609
24015DPPC   C2A 5022  11.975   0.226  19.379
24015DPPC   C3A 5023  11.735   0.206  18.919
24015DPPC   C4A 5024  11.385   0.236  18.609
24015DPPC   C1B 5025  12.415   0.616  19.429
24015DPPC   C2B 5026  12.125   0.576  19.099
24015DPPC   C3B 5027  11.835   0.586  18.649
24015DPPC   C4B 5028  11.475   0.596  18.249
24016DPPC   NC3 5029  14.375   6.244  17.819
24016DPPC   PO4 5030  13.975   6.314  17.939
24016DPPC   GL1 5031  13.655   6.264  17.709
24016DPPC   GL2 5032  13.625   6.534  17.709
24016DPPC   C1A 5033  13.455   6.234  17.369
24016DPPC   C2A 5034  13.295   6.344  17.029
24016DPPC   C3A 5035  12.915   6.384  16.689
24016DPPC   C4A 5036  12.535   6.314  16.359
24016DPPC   C1B 5037  13.435   0.056  17.449
24016DPPC   C2B 5038  13.135   0.206  17.189
24016DPPC   C3B 5039  12.785   0.226  16.829
24016DPPC   C4B 5040  12.435   0.226  16.469
24017DPPC   NC3 5041  13.945   0.516  18.729
24017DPPC   PO4 5042  14.015   0.596  18.339
24017DPPC   GL1 5043  13.665   0.706  18.159
24017DPPC   GL2 5044  13.785   0.996  18.159
24017DPPC   C1A 5045  13.405   0.726  17.849
24017DPPC   C2A 5046  13.205   0.626  17.479
24017DPPC   C3A 5047  12.795   0.686  17.149
24017DPPC   C4A 5048  12.435   0.756  16.769
24017DPPC   C1B 5049  13.445   1.146  18.019
24017DPPC   C2B 5050  13.155   1.116  17.729
24017DPPC   C3B 5051  12.815   1.194  17.339
24017DPPC   C4B 5052  12.515   1.324  16.979
24018DPPC   NC3 5053  12.715   6.154  20.569
24018DPPC   PO4 5054  12.715   6.464  20.339
24018DPPC   GL1 5055  12.595   6.504  19.949
24018DPPC   GL2 5056  12.355   6.604  20.049
24018DPPC   C1A 5057  12.475   6.374  19.639
24018DPPC   C2A 5058  12.165   6.334  19.369
24018DPPC   C3A 5059  11.875   6.314  18.969
24018DPPC   C4A 5060  11.505   6.394  18.669
24018DPPC   C1B 5061  12.125   6.524  19.839
24018DPPC   C2B 5062  11.765   6.394  19.699
24018DPPC   C3B 5063  11.485   6.404  19.349
24018DPPC   C4B 5064  11.105   6.454  19.019
24019DPPC   NC3 5065  13.095   5.384  20.549
24019DPPC   PO4 5066  12.725   5.504  20.359
24019DPPC   GL1 5067  12.495   5.494  20.019
24019DPPC   GL2 5068  12.655   5.414  19.849
24019DPPC   C1A 5069  12.215   5.504  19.799
24019DPPC   C2A 5070  11.955   5.564  19.469
24019DPPC   C3A 5071  11.635   5.554  19.099
24019DPPC   C4A 5072  11.315   5.544  18.709
24019DPPC   C1B 5073  12.585   5.404  19.489
24019DPPC   C2B 5074  12.385   5.374  19.179
24019DPPC   C3B 5075  12.075   5.424  18.819
24019DPPC   C4B 5076  11.715   5.444  18.429
24020DPPC   NC3 5077  12.025   4.784  21.339
24020DPPC   PO4 5078  11.625   4.894  21.379
24020DPPC   GL1 5079  11.465   5.124  21.079
24020DPPC   GL2 5080  11.495   4.904  20.909
24020DPPC   C1A 5081  11.305   5.274  20.789
24020DPPC   C2A 5082  11.495   5.364  20.359
24020DPPC   C3A 5083  11.255   5.244  19.919
24020DPPC   C4A 5084  10.945   5.264  19.549
24020DPPC   C1B 5085  11.535   4.964  20.589
24020DPPC   C2B 5086  11.655   4.934  20.199
24020DPPC   C3B 5087  11.475   4.824  19.779
24020DPPC   C4B 5088  11.135   4.744  19.469
24021DPPC   NC3 5089   6.545   6.394  21.159
24021DPPC   PO4 5090   6.725   0.106  21.269
24021DPPC   GL1 5091   6.925   0.176  20.919
24021DPPC   GL2 5092   6.875   6.494  20.879
24021DPPC   C1A 5093   6.835   0.466  20.679
24021DPPC   C2A 5094   6.805   0.836  20.509
24021DPPC   C3A 5095   6.675   1.214  20.279
24021DPPC   C4A 5096   6.545   1.704  20.159
24021DPPC   C1B 5097   7.095   6.384  20.549
24021DPPC   C2B 5098   7.345   6.404  20.219
24021DPPC   C3B 5099   7.605   6.434  19.809
24021DPPC   C4B 5100   7.825   6.324  19.419
24022DPPC   NC3 5101   5.925   2.734  21.799
24022DPPC   PO4 5102   6.115   2.654  21.459
24022DPPC   GL1 5103   5.955   2.914  21.019
24022DPPC   GL2 5104   6.255   2.924  21.069
24022DPPC   C1A 5105   5.815   3.164  20.759
24022DPPC   C2A 5106   5.605   3.354  20.419
24022DPPC   C3A 5107   5.845   3.464  20.029
24022DPPC   C4A 5108   6.095   3.654  19.609
24022DPPC   C1B 5109   6.385   2.964  20.709
24022DPPC   C2B 5110   6.295   2.654  20.379
24022DPPC   C3B 5111   6.005   2.474  20.049
24022DPPC   C4B 5112   5.985   2.254  19.629
24023DPPC   NC3 5113  10.285   4.074  21.969
24023DPPC   PO4 5114  10.555   4.114  21.689
24023DPPC   GL1 5115  10.605   4.234  21.209
24023DPPC   GL2 5116  10.595   3.984  21.119
24023DPPC   C1A 5117  10.705   4.584  21.089
24023DPPC   C2A 5118  10.615   5.014  21.109
24023DPPC   C3A 5119  10.695   5.484  20.979
24023DPPC   C4A 5120  10.695   5.914  20.769
24023DPPC   C1B 5121  10.325   4.024  20.859
24023DPPC   C2B 5122   9.955   4.094  20.749
24023DPPC   C3B 5123   9.615   3.944  20.379
24023DPPC   C4B 5124   9.375   4.144  20.079
24024DPPC   NC3 5125  12.175   0.956  21.119
24024DPPC   PO4 5126  12.295   1.354  21.029
24024DPPC   GL1 5127  11.935   1.584  20.809
24024DPPC   GL2 5128  12.135   1.664  20.669
24024DPPC   C1A 5129  11.665   1.434  20.699
24024DPPC   C2A 5130  11.265   1.414  20.569
24024DPPC   C3A 5131  11.015   1.106  20.239
24024DPPC   C4A 5132  10.765   0.866  19.909
24024DPPC   C1B 5133  11.945   1.604  20.379
24024DPPC   C2B 5134  11.815   1.624  19.999
24024DPPC   C3B 5135  11.495   1.654  19.649
24024DPPC   C4B 5136  11.245   1.664  19.249
24025DPPC   NC3 5137  13.495   4.884  19.799
24025DPPC   PO4 5138  13.525   4.924  19.409
24025DPPC   GL1 5139  13.255   4.964  19.189
24025DPPC   GL2 5140  13.095   4.724  19.099
24025DPPC   C1A 5141  13.085   5.154  18.939
24025DPPC   C2A 5142  12.705   5.274  18.719
24025DPPC   C3A 5143  12.345   5.304  18.409
24025DPPC   C4A 5144  12.025   5.344  18.019
24025DPPC   C1B 5145  12.795   4.614  18.939
24025DPPC   C2B 5146  12.505   4.444  18.729
24025DPPC   C3B 5147  12.205   4.444  18.399
24025DPPC   C4B 5148  11.835   4.404  18.069
24026DPPC   NC3 5149  13.255   6.244  19.369
24026DPPC   PO4 5150  13.475   6.334  19.039
24026DPPC   GL1 5151  13.275   6.584  18.659
24026DPPC   GL2 5152  13.355   6.284  18.529
24026DPPC   C1A 5153  13.125   0.026  18.329
24026DPPC   C2A 5154  12.815   6.504  18.119
24026DPPC   C3A 5155  12.545   6.544  17.729
24026DPPC   C4A 5156  12.215   6.604  17.419
24026DPPC   C1B 5157  13.115   6.194  18.239
24026DPPC   C2B 5158  12.855   6.044  17.889
24026DPPC   C3B 5159  12.615   6.094  17.469
24026DPPC   C4B 5160  12.195   6.174  17.159
24027DPPC   NC3 5161  12.415   5.124  20.599
24027DPPC   PO4 5162  12.365   4.714  20.509
24027DPPC   GL1 5163  12.015   4.974  20.379
24027DPPC   GL2 5164  11.895   4.744  20.519
24027DPPC   C1A 5165  12.055   5.124  20.049
24027DPPC   C2A 5166  11.795   5.194  19.729
24027DPPC   C3A 5167  11.475   5.144  19.369
24027DPPC   C4A 5168  11.065   5.154  19.009
24027DPPC   C1B 5169  11.935   4.564  20.179
24027DPPC   C2B 5170  11.705   4.374  19.889
24027DPPC   C3B 5171  11.355   4.234  19.539
24027DPPC   C4B 5172  11.065   4.304  19.139
24028DPPC   NC3 5173  13.635   3.704  18.999
24028DPPC   PO4 5174  13.465   3.324  18.989
24028DPPC   GL1 5175  13.185   3.004  18.839
24028DPPC   GL2 5176  13.125   3.284  18.719
24028DPPC   C1A 5177  13.105   2.834  18.569
24028DPPC   C2A 5178  12.915   2.594  18.279
24028DPPC   C3A 5179  12.655   2.564  17.929
24028DPPC   C4A 5180  12.305   2.504  17.549
24028DPPC   C1B 5181  12.855   3.174  18.439
24028DPPC   C2B 5182  12.665   3.004  18.139
24028DPPC   C3B 5183  12.335   2.964  17.789
24028DPPC   C4B 5184  11.975   2.974  17.409
24029DPPC   NC3 5185  10.925   0.636  21.809
24029DPPC   PO4 5186  10.725   1.006  21.769
24029DPPC   GL1 5187  10.365   0.986  21.589
24029DPPC   GL2 5188  10.185   1.146  21.509
24029DPPC   C1A 5189  10.245   0.766  21.319
24029DPPC   C2A 5190  10.365   0.426  21.049
24029DPPC   C3A 5191  10.475   0.296  20.519
24029DPPC   C4A 5192  10.595   0.186  20.069
24029DPPC   C1B 5193  10.085   1.194  21.179
24029DPPC   C2B 5194   9.805   1.274  20.859
24029DPPC   C3B 5195   9.425   1.214  20.479
24029DPPC   C4B 5196   9.095   1.274  20.039
24030DPPC   NC3 5197  13.915   4.504  18.769
24030DPPC   PO4 5198  13.625   4.424  18.529
24030DPPC   GL1 5199  13.415   4.164  18.279
24030DPPC   GL2 5200  13.525   3.894  18.289
24030DPPC   C1A 5201  13.195   4.224  17.979
24030DPPC   C2A 5202  12.915   4.254  17.689
24030DPPC   C3A 5203  12.555   4.244  17.319
24030DPPC   C4A 5204  12.135   4.044  17.259
24030DPPC   C1B 5205  13.435   3.794  17.969
24030DPPC   C2B 5206  13.175   3.754  17.669
24030DPPC   C3B 5207  12.785   3.784  17.399
24030DPPC   C4B 5208  12.495   3.744  17.069
24031DPPC   NC3 5209  13.565   0.596  19.939
24031DPPC   PO4 5210  13.225   0.406  19.919
24031DPPC   GL1 5211  13.015   0.406  19.579
24031DPPC   GL2 5212  13.105   0.166  19.539
24031DPPC   C1A 5213  12.775   0.436  19.319
24031DPPC   C2A 5214  12.645   0.396  18.949
24031DPPC   C3A 5215  12.325   0.516  18.539
24031DPPC   C4A 5216  12.055   0.526  18.139
24031DPPC   C1B 5217  12.785   0.026  19.519
24031DPPC   C2B 5218  12.525   0.026  19.229
24031DPPC   C3B 5219  12.225   0.066  18.829
24031DPPC   C4B 5220  11.895   0.136  18.459
24032DPPC   NC3 5221   9.085   4.484  22.259
24032DPPC   PO4 5222   9.455   4.374  22.139
24032DPPC   GL1 5223   9.375   4.354  21.689
24032DPPC   GL2 5224   9.075   4.294  21.769
24032DPPC   C1A 5225   9.425   4.554  21.379
24032DPPC   C2A 5226   9.285   4.604  20.999
24032DPPC   C3A 5227   9.235   4.404  20.609
24032DPPC   C4A 5228   9.145   4.604  20.169
24032DPPC   C1B 5229   9.055   3.914  21.719
24032DPPC   C2B 5230   9.075   3.514  21.479
24032DPPC   C3B 5231   8.885   3.074  21.459
24032DPPC   C4B 5232   8.815   2.674  21.239
24033DPPC   NC3 5233   5.145   5.924  21.079
24033DPPC   PO4 5234   4.955   6.084  20.789
24033DPPC   GL1 5235   5.075   5.994  20.399
24033DPPC   GL2 5236   4.965   6.244  20.329
24033DPPC   C1A 5237   5.295   5.944  20.059
24033DPPC   C2A 5238   5.665   5.794  19.869
24033DPPC   C3A 5239   5.875   5.684  19.469
24033DPPC   C4A 5240   5.645   5.494  19.099
24033DPPC   C1B 5241   5.085   6.454  20.059
24033DPPC   C2B 5242   5.185   0.136  19.819
24033DPPC   C3B 5243   5.505   0.216  19.479
24033DPPC   C4B 5244   5.775   0.176  19.059
24034DPPC   NC3 5245  11.905   6.134  21.609
24034DPPC   PO4 5246  11.605   6.314  21.399
24034DPPC   GL1 5247  11.235   6.304  21.159
24034DPPC   GL2 5248  11.375   6.454  20.949
24034DPPC   C1A 5249  11.175   6.054  20.949
24034DPPC   C2A 5250  11.125   5.684  20.729
24034DPPC   C3A 5251  10.925   5.454  20.329
24034DPPC   C4A 5252  10.595   5.284  19.969
24034DPPC   C1B 5253  11.195   0.066  20.689
24034DPPC   C2B 5254  11.015   0.156  20.309
24034DPPC   C3B 5255  11.115   0.056  19.899
24034DPPC   C4B 5256  10.935   0.026  19.459
24035DPPC   NC3 5257  14.605   4.484  18.249
24035DPPC   PO4 5258  14.255   4.454  18.389
24035DPPC   GL1 5259  13.895   4.404  18.149
24035DPPC   GL2 5260  13.885   4.084  18.069
24035DPPC   C1A 5261  13.585   4.504  17.929
24035DPPC   C2A 5262  13.325   4.714  17.669
24035DPPC   C3A 5263  12.935   4.674  17.359
24035DPPC   C4A 5264  12.675   4.594  17.009
24035DPPC   C1B 5265  13.645   4.094  17.809
24035DPPC   C2B 5266  13.415   4.164  17.489
24035DPPC   C3B 5267  13.015   4.224  17.179
24035DPPC   C4B 5268  12.745   4.144  16.799
24036DPPC   NC3 5269  12.405   5.874  20.859
24036DPPC   PO4 5270  12.275   5.514  20.879
24036DPPC   GL1 5271  12.045   5.454  20.429
24036DPPC   GL2 5272  12.315   5.644  20.409
24036DPPC   C1A 5273  11.855   5.544  20.139
24036DPPC   C2A 5274  11.605   5.644  19.849
24036DPPC   C3A 5275  11.355   5.574  19.489
24036DPPC   C4A 5276  11.025   5.674  19.159
24036DPPC   C1B 5277  12.135   5.824  20.119
24036DPPC   C2B 5278  12.075   5.974  19.719
24036DPPC   C3B 5279  11.665   5.964  19.379
24036DPPC   C4B 5280  11.375   5.994  18.999
24037DPPC   NC3 5281  12.735   3.304  20.349
24037DPPC   PO4 5282  12.475   3.284  20.609
24037DPPC   GL1 5283  12.235   3.554  20.399
24037DPPC   GL2 5284  12.165   3.714  20.579
24037DPPC   C1A 5285  11.925   3.374  20.199
24037DPPC   C2A 5286  11.575   3.444  19.999
24037DPPC   C3A 5287  11.305   3.454  19.599
24037DPPC   C4A 5288  10.905   3.414  19.219
24037DPPC   C1B 5289  11.945   3.824  20.299
24037DPPC   C2B 5290  11.585   3.904  20.109
24037DPPC   C3B 5291  11.215   3.884  19.839
24037DPPC   C4B 5292  10.915   3.854  19.489
24038DPPC   NC3 5293  13.525   5.094  18.719
24038DPPC   PO4 5294  13.545   4.754  18.909
24038DPPC   GL1 5295  13.225   4.694  18.669
24038DPPC   GL2 5296  13.345   4.794  18.409
24038DPPC   C1A 5297  12.875   4.844  18.599
24038DPPC   C2A 5298  12.545   4.824  18.419
24038DPPC   C3A 5299  12.255   4.864  18.109
24038DPPC   C4A 5300  11.955   4.954  17.709
24038DPPC   C1B 5301  13.055   4.814  18.189
24038DPPC   C2B 5302  12.775   4.784  17.909
24038DPPC   C3B 5303  12.445   4.784  17.579
24038DPPC   C4B 5304  12.175   4.784  17.159
24039DPPC   NC3 5305   7.595   4.354  21.889
24039DPPC   PO4 5306   7.765   4.634  21.629
24039DPPC   GL1 5307   7.905   4.554  21.239
24039DPPC   GL2 5308   8.175   4.694  21.289
24039DPPC   C1A 5309   7.815   4.244  21.079
24039DPPC   C2A 5310   7.825   3.804  20.999
24039DPPC   C3A 5311   8.095   3.494  20.829
24039DPPC   C4A 5312   8.385   3.274  20.539
24039DPPC   C1B 5313   8.495   4.494  21.379
24039DPPC   C2B 5314   8.675   4.144  21.459
24039DPPC   C3B 5315   8.625   3.704  21.479
24039DPPC   C4B 5316   8.675   3.404  21.109
24040DPPC   NC3 5317   6.625   4.894  21.209
24040DPPC   PO4 5318   6.995   4.774  21.219
24040DPPC   GL1 5319   6.975   4.494  20.959
24040DPPC   GL2 5320   6.705   4.604  20.849
24040DPPC   C1A 5321   7.135   4.514  20.629
24040DPPC   C2A 5322   7.445   4.504  20.349
24040DPPC   C3A 5323   7.695   4.574  19.939
24040DPPC   C4A 5324   8.025   4.564  19.629
24040DPPC   C1B 5325   6.745   4.684  20.489
24040DPPC   C2B 5326   6.955   4.744  20.129
24040DPPC   C3B 5327   7.235   4.734  19.759
24040DPPC   C4B 5328   7.625   4.714  19.429
24041DPPC   NC3 5329  11.985   2.354  21.409
24041DPPC   PO4 5330  12.205   2.534  21.129
24041DPPC   GL1 5331  12.085   2.464  20.719
24041DPPC   GL2 5332  12.165   2.584  20.499
24041DPPC   C1A 5333  11.815   2.244  20.579
24041DPPC   C2A 5334  11.665   2.094  20.239
24041DPPC   C3A 5335  11.485   2.124  19.799
24041DPPC   C4A 5336  11.105   2.144  19.479
24041DPPC   C1B 5337  12.055   2.394  20.219
24041DPPC   C2B 5338  11.835   2.454  19.879
24041DPPC   C3B 5339  11.595   2.524  19.469
24041DPPC   C4B 5340  11.225   2.524  19.139
24042DPPC   NC3 5341  12.655   1.684  20.919
24042DPPC   PO4 5342  12.725   1.764  20.559
24042DPPC   GL1 5343  12.375   1.754  20.259
24042DPPC   GL2 5344  12.385   1.464  20.309
24042DPPC   C1A 5345  12.195   1.844  19.929
24042DPPC   C2A 5346  12.025   2.034  19.609
24042DPPC   C3A 5347  11.635   1.994  19.279
24042DPPC   C4A 5348  11.325   2.034  18.919
24042DPPC   C1B 5349  12.125   1.284  20.099
24042DPPC   C2B 5350  11.935   1.076  19.859
24042DPPC   C3B 5351  11.575   1.136  19.449
24042DPPC   C4B 5352  11.355   1.154  19.049
24043DPPC   NC3 5353  11.705   5.944  21.099
24043DPPC   PO4 5354  12.075   6.114  21.079
24043DPPC   GL1 5355  11.945   6.184  20.699
24043DPPC   GL2 5356  11.925   5.874  20.679
24043DPPC   C1A 5357  11.675   6.304  20.569
24043DPPC   C2A 5358  11.425   6.424  20.309
24043DPPC   C3A 5359  11.265   6.174  19.889
24043DPPC   C4A 5360  11.055   6.004  19.489
24043DPPC   C1B 5361  11.585   5.834  20.609
24043DPPC   C2B 5362  11.315   5.834  20.269
24043DPPC   C3B 5363  10.985   5.734  19.939
24043DPPC   C4B 5364  10.665   5.714  19.599
24044DPPC   NC3 5365  11.365   5.074  21.769
24044DPPC   PO4 5366  11.045   4.914  21.589
24044DPPC   GL1 5367  11.045   4.884  21.139
24044DPPC   GL2 5368  11.175   4.664  21.079
24044DPPC   C1A 5369  10.925   5.104  20.869
24044DPPC   C2A 5370  10.675   5.004  20.569
24044DPPC   C3A 5371  10.345   4.854  20.229
24044DPPC   C4A 5372  10.385   4.514  19.849
24044DPPC   C1B 5373  11.115   4.764  20.679
24044DPPC   C2B 5374  11.175   4.924  20.299
24044DPPC   C3B 5375  10.955   4.874  19.889
24044DPPC   C4B 5376  10.675   4.874  19.479
24045DPPC   NC3 5377  13.605   4.344  19.309
24045DPPC   PO4 5378  13.785   4.134  19.019
24045DPPC   GL1 5379  13.495   4.054  18.729
24045DPPC   GL2 5380  13.295   4.254  18.849
24045DPPC   C1A 5381  13.215   3.794  18.669
24045DPPC   C2A 5382  12.995   3.914  18.329
24045DPPC   C3A 5383  12.745   3.884  17.969
24045DPPC   C4A 5384  12.365   3.834  17.659
24045DPPC   C1B 5385  13.025   4.324  18.619
24045DPPC   C2B 5386  12.775   4.354  18.289
24045DPPC   C3B 5387  12.475   4.394  17.919
24045DPPC   C4B 5388  12.055   4.474  17.579
24046DPPC   NC3 5389  11.615   1.494  21.599
24046DPPC   PO4 5390  11.705   1.894  21.639
24046DPPC   GL1 5391  11.585   2.264  21.309
24046DPPC   GL2 5392  11.345   2.344  21.529
24046DPPC   C1A 5393  11.525   2.164  20.959
24046DPPC   C2A 5394  11.455   1.864  20.669
24046DPPC   C3A 5395  11.325   1.774  20.159
24046DPPC   C4A 5396  11.005   1.704  19.799
24046DPPC   C1B 5397  11.085   2.344  21.339
24046DPPC   C2B 5398  10.885   2.474  21.049
24046DPPC   C3B 5399  10.735   2.354  20.619
24046DPPC   C4B 5400  10.565   2.344  20.189
24047DPPC   NC3 5401  13.365   2.964  20.209
24047DPPC   PO4 5402  13.165   3.244  19.949
24047DPPC   GL1 5403  12.865   3.454  19.749
24047DPPC   GL2 5404  12.765   3.594  20.009
24047DPPC   C1A 5405  12.585   3.634  19.599
24047DPPC   C2A 5406  12.275   3.734  19.419
24047DPPC   C3A 5407  11.875   3.714  19.109
24047DPPC   C4A 5408  11.525   3.704  18.779
24047DPPC   C1B 5409  12.435   3.424  19.979
24047DPPC   C2B 5410  12.075   3.334  19.749
24047DPPC   C3B 5411  11.755   3.344  19.379
24047DPPC   C4B 5412  11.385   3.384  19.059
24048DPPC   NC3 5413  11.675   2.924  21.969
24048DPPC   PO4 5414  11.615   2.654  21.679
24048DPPC   GL1 5415  11.395   2.664  21.319
24048DPPC   GL2 5416  11.205   2.784  21.529
24048DPPC   C1A 5417  11.325   2.654  20.999
24048DPPC   C2A 5418  11.225   2.554  20.619
24048DPPC   C3A 5419  10.915   2.694  20.249
24048DPPC   C4A 5420  10.795   3.154  20.389
24048DPPC   C1B 5421  10.785   2.804  21.459
24048DPPC   C2B 5422  10.455   2.974  21.289
24048DPPC   C3B 5423  10.075   3.174  21.069
24048DPPC   C4B 5424   9.605   3.114  20.809
24049DPPC   NC3 5425  11.935   3.384  21.699
24049DPPC   PO4 5426  11.945   3.264  21.309
24049DPPC   GL1 5427  11.735   3.094  20.969
24049DPPC   GL2 5428  11.785   2.774  21.129
24049DPPC   C1A 5429  11.575   3.144  20.619
24049DPPC   C2A 5430  11.305   3.084  20.299
24049DPPC   C3A 5431  11.165   3.074  19.879
24049DPPC   C4A 5432  10.695   3.114  19.599
24049DPPC   C1B 5433  11.705   2.684  20.779
24049DPPC   C2B 5434  11.655   2.614  20.369
24049DPPC   C3B 5435  11.365   2.574  19.999
24049DPPC   C4B 5436  10.955   2.644  19.679
24050DPPC   NC3 5437  13.785   5.664  19.629
24050DPPC   PO4 5438  13.505   5.354  19.669
24050DPPC   GL1 5439  13.115   5.294  19.449
24050DPPC   GL2 5440  12.985   5.094  19.509
24050DPPC   C1A 5441  12.945   5.554  19.249
24050DPPC   C2A 5442  12.625   5.754  18.979
24050DPPC   C3A 5443  12.355   5.784  18.609
24050DPPC   C4A 5444  12.005   5.774  18.239
24050DPPC   C1B 5445  12.745   5.024  19.209
24050DPPC   C2B 5446  12.445   4.894  18.929
24050DPPC   C3B 5447  12.055   4.954  18.649
24050DPPC   C4B 5448  11.775   4.964  18.209
24051DPPC   NC3 5449  14.815   1.894  17.809
24051DPPC   PO4 5450  14.495   2.014  17.619
24051DPPC   GL1 5451  14.215   2.294  17.379
24051DPPC   GL2 5452  14.455   2.184  17.139
24051DPPC   C1A 5453  13.935   2.244  17.119
24051DPPC   C2A 5454  13.695   2.234  16.779
24051DPPC   C3A 5455  13.395   2.324  16.409
24051DPPC   C4A 5456  13.035   2.344  16.179
24051DPPC   C1B 5457  14.315   2.164  16.789
24051DPPC   C2B 5458  14.075   2.204  16.469
24051DPPC   C3B 5459  13.715   2.184  16.069
24051DPPC   C4B 5460  13.395   2.254  15.749
24052DPPC   NC3 5461  14.315   3.324  19.009
24052DPPC   PO4 5462  13.945   3.344  18.899
24052DPPC   GL1 5463  13.735   3.274  18.529
24052DPPC   GL2 5464  13.555   3.494  18.549
24052DPPC   C1A 5465  13.445   3.114  18.349
24052DPPC   C2A 5466  13.215   2.944  18.039
24052DPPC   C3A 5467  12.985   2.924  17.649
24052DPPC   C4A 5468  12.565   2.914  17.339
24052DPPC   C1B 5469  13.235   3.514  18.329
24052DPPC   C2B 5470  13.055   3.444  18.009
24052DPPC   C3B 5471  12.675   3.364  17.729
24052DPPC   C4B 5472  12.315   3.314  17.449
24053DPPC   NC3 5473  12.555   2.464  20.229
24053DPPC   PO4 5474  12.765   2.134  20.159
24053DPPC   GL1 5475  12.595   2.034  19.839
24053DPPC   GL2 5476  12.355   2.234  19.879
24053DPPC   C1A 5477  12.465   1.994  19.529
24053DPPC   C2A 5478  12.245   1.894  19.129
24053DPPC   C3A 5479  11.925   1.894  18.789
24053DPPC   C4A 5480  11.555   1.964  18.459
24053DPPC   C1B 5481  12.215   2.454  19.649
24053DPPC   C2B 5482  12.015   2.354  19.289
24053DPPC   C3B 5483  11.705   2.374  18.939
24053DPPC   C4B 5484  11.425   2.434  18.589
24054DPPC   NC3 5485   9.575   6.224  21.919
24054DPPC   PO4 5486   9.825   5.874  21.879
24054DPPC   GL1 5487   9.985   5.774  21.589
24054DPPC   GL2 5488   9.715   5.644  21.489
24054DPPC   C1A 5489  10.215   5.894  21.339
24054DPPC   C2A 5490  10.495   6.174  21.179
24054DPPC   C3A 5491  10.795   6.374  20.859
24054DPPC   C4A 5492  10.965   6.154  20.439
24054DPPC   C1B 5493   9.625   5.594  21.109
24054DPPC   C2B 5494   9.535   5.314  20.809
24054DPPC   C3B 5495   9.515   4.924  20.679
24054DPPC   C4B 5496   9.695   4.524  20.759
24055DPPC   NC3 5497  13.795   1.264  19.289
24055DPPC   PO4 5498  13.655   1.106  18.969
24055DPPC   GL1 5499  13.245   1.096  18.829
24055DPPC   GL2 5500  13.295   1.294  18.669
24055DPPC   C1A 5501  12.885   1.116  18.849
24055DPPC   C2A 5502  12.665   1.444  18.749
24055DPPC   C3A 5503  12.355   1.404  18.389
24055DPPC   C4A 5504  11.985   1.384  17.999
24055DPPC   C1B 5505  13.065   1.254  18.339
24055DPPC   C2B 5506  12.805   1.294  18.049
24055DPPC   C3B 5507  12.425   1.334  17.739
24055DPPC   C4B 5508  12.185   1.354  17.339
24056DPPC   NC3 5509  14.555   5.474  18.209
24056DPPC   PO4 5510  14.255   5.394  18.479
24056DPPC   GL1 5511  13.895   5.404  18.389
24056DPPC   GL2 5512  13.885   5.514  18.169
24056DPPC   C1A 5513  13.595   5.204  18.289
24056DPPC   C2A 5514  13.295   5.174  18.009
24056DPPC   C3A 5515  12.965   5.174  17.599
24056DPPC   C4A 5516  12.615   5.094  17.239
24056DPPC   C1B 5517  13.595   5.534  17.899
24056DPPC   C2B 5518  13.345   5.574  17.609
24056DPPC   C3B 5519  13.085   5.464  17.149
24056DPPC   C4B 5520  12.745   5.514  16.809
24057DPPC   NC3 5521   5.045   4.164  20.909
24057DPPC   PO4 5522   5.135   3.834  20.669
24057DPPC   GL1 5523   4.995   3.834  20.259
24057DPPC   GL2 5524   5.215   3.634  20.249
24057DPPC   C1A 5525   5.105   4.074  19.999
24057DPPC   C2A 5526   5.235   4.094  19.619
24057DPPC   C3A 5527   5.575   4.144  19.339
24057DPPC   C4A 5528   5.845   4.094  18.929
24057DPPC   C1B 5529   5.385   3.704  19.919
24057DPPC   C2B 5530   5.525   3.684  19.549
24057DPPC   C3B 5531   5.815   3.634  19.179
24057DPPC   C4B 5532   6.055   3.664  18.819
24058DPPC   NC3 5533   8.215   0.666  21.939
24058DPPC   PO4 5534   8.445   0.336  21.869
24058DPPC   GL1 5535   8.455   0.466  21.489
24058DPPC   GL2 5536   8.385   0.136  21.439
24058DPPC   C1A 5537   8.595   0.656  21.209
24058DPPC   C2A 5538   8.765   0.916  20.939
24058DPPC   C3A 5539   9.135   1.106  20.849
24058DPPC   C4A 5540   9.355   1.564  20.899
24058DPPC   C1B 5541   8.665   0.216  21.169
24058DPPC   C2B 5542   8.885   0.316  20.829
24058DPPC   C3B 5543   9.065   0.586  20.519
24058DPPC   C4B 5544   9.245   0.766  20.069
24059DPPC   NC3 5545  12.615   2.504  20.789
24059DPPC   PO4 5546  12.585   2.824  20.549
24059DPPC   GL1 5547  12.335   2.944  20.249
24059DPPC   GL2 5548  12.045   3.014  20.409
24059DPPC   C1A 5549  12.215   2.884  19.879
24059DPPC   C2A 5550  12.075   2.894  19.509
24059DPPC   C3A 5551  11.805   2.844  19.139
24059DPPC   C4A 5552  11.445   2.894  18.819
24059DPPC   C1B 5553  11.825   2.984  20.079
24059DPPC   C2B 5554  11.615   2.944  19.679
24059DPPC   C3B 5555  11.265   2.974  19.369
24059DPPC   C4B 5556  10.965   2.994  18.999
24060DPPC   NC3 5557  12.655   4.484  19.759
24060DPPC   PO4 5558  12.805   4.804  19.939
24060DPPC   GL1 5559  12.545   4.994  19.649
24060DPPC   GL2 5560  12.425   4.924  19.939
24060DPPC   C1A 5561  12.255   4.974  19.459
24060DPPC   C2A 5562  11.975   5.064  19.139
24060DPPC   C3A 5563  11.585   5.004  18.859
24060DPPC   C4A 5564  11.345   5.064  18.479
24060DPPC   C1B 5565  12.135   4.684  19.859
24060DPPC   C2B 5566  11.885   4.704  19.509
24060DPPC   C3B 5567  11.585   4.614  19.169
24060DPPC   C4B 5568  11.285   4.604  18.819
24061DPPC   NC3 5569  13.405   0.506  19.419
24061DPPC   PO4 5570  13.525   0.126  19.329
24061DPPC   GL1 5571  13.075   0.026  19.109
24061DPPC   GL2 5572  13.185   0.296  18.899
24061DPPC   C1A 5573  12.825   6.504  18.889
24061DPPC   C2A 5574  12.645   0.006  18.589
24061DPPC   C3A 5575  12.325   0.116  18.249
24061DPPC   C4A 5576  11.955   0.076  17.939
24061DPPC   C1B 5577  12.955   0.336  18.569
24061DPPC   C2B 5578  12.735   0.376  18.229
24061DPPC   C3B 5579  12.465   0.476  17.859
24061DPPC   C4B 5580  12.095   0.426  17.559
24062DPPC   NC3 5581  13.105   2.404  19.849
24062DPPC   PO4 5582  13.135   2.784  19.749
24062DPPC   GL1 5583  12.875   2.954  19.609
24062DPPC   GL2 5584  12.665   3.134  19.719
24062DPPC   C1A 5585  12.625   2.824  19.369
24062DPPC   C2A 5586  12.415   2.794  19.029
24062DPPC   C3A 5587  12.045   2.774  18.759
24062DPPC   C4A 5588  11.675   2.784  18.409
24062DPPC   C1B 5589  12.395   3.184  19.499
24062DPPC   C2B 5590  12.205   3.264  19.149
24062DPPC   C3B 5591  11.835   3.264  18.849
24062DPPC   C4B 5592  11.535   3.274  18.429
24063DPPC   NC3 5593   7.485   6.044  21.309
24063DPPC   PO4 5594   7.155   5.804  21.369
24063DPPC   GL1 5595   7.215   5.744  20.999
24063DPPC   GL2 5596   7.275   5.464  20.999
24063DPPC   C1A 5597   7.325   5.884  20.689
24063DPPC   C2A 5598   7.505   5.964  20.359
24063DPPC   C3A 5599   7.675   5.964  19.929
24063DPPC   C4A 5600   7.915   5.854  19.529
24063DPPC   C1B 5601   7.425   5.434  20.629
24063DPPC   C2B 5602   7.645   5.544  20.299
24063DPPC   C3B 5603   7.845   5.434  19.909
24063DPPC   C4B 5604   8.235   5.434  19.629
24064DPPC   NC3 5605   6.725   2.834  21.329
24064DPPC   PO4 5606   6.615   3.204  21.399
24064DPPC   GL1 5607   6.905   3.414  21.149
24064DPPC   GL2 5608   6.685   3.634  21.159
24064DPPC   C1A 5609   6.905   3.264  20.849
24064DPPC   C2A 5610   7.175   3.214  20.529
24064DPPC   C3A 5611   7.455   3.234  20.099
24064DPPC   C4A 5612   7.685   3.254  19.629
24064DPPC   C1B 5613   6.475   3.724  20.869
24064DPPC   C2B 5614   6.305   3.804  20.519
24064DPPC   C3B 5615   6.125   3.894  20.139
24064DPPC   C4B 5616   5.845   4.054  19.809
24065DPPC   NC3 5617   6.755   3.644  21.599
24065DPPC   PO4 5618   6.925   3.944  21.349
24065DPPC   GL1 5619   7.085   3.744  20.969
24065DPPC   GL2 5620   7.355   3.774  21.119
24065DPPC   C1A 5621   7.175   3.714  20.569
24065DPPC   C2A 5622   7.245   3.694  20.169
24065DPPC   C3A 5623   7.505   3.704  19.789
24065DPPC   C4A 5624   7.685   3.744  19.419
24065DPPC   C1B 5625   7.485   3.524  20.849
24065DPPC   C2B 5626   7.685   3.574  20.479
24065DPPC   C3B 5627   7.865   3.614  20.079
24065DPPC   C4B 5628   8.235   3.614  19.739
24066DPPC   NC3 5629   9.335   3.074  21.749
24066DPPC   PO4 5630   9.265   2.694  21.909
24066DPPC   GL1 5631   9.465   2.564  21.579
24066DPPC   GL2 5632   9.365   2.264  21.669
24066DPPC   C1A 5633   9.355   2.634  21.219
24066DPPC   C2A 5634   9.195   2.964  21.039
24066DPPC   C3A 5635   9.235   3.404  20.959
24066DPPC   C4A 5636   9.395   3.894  20.889
24066DPPC   C1B 5637   9.145   2.204  21.419
24066DPPC   C2B 5638   8.905   2.114  21.109
24066DPPC   C3B 5639   8.915   1.704  20.779
24066DPPC   C4B 5640   8.745   1.254  20.549
24067DPPC   NC3 5641  14.185   5.134  18.049
24067DPPC   PO4 5642  14.265   4.744  17.919
24067DPPC   GL1 5643  13.905   4.704  17.749
24067DPPC   GL2 5644  13.785   4.894  17.929
24067DPPC   C1A 5645  13.715   4.554  17.439
24067DPPC   C2A 5646  13.495   4.494  17.119
24067DPPC   C3A 5647  13.155   4.454  16.789
24067DPPC   C4A 5648  12.895   4.484  16.369
24067DPPC   C1B 5649  13.625   5.084  17.649
24067DPPC   C2B 5650  13.385   5.104  17.319
24067DPPC   C3B 5651  13.065   4.994  16.989
24067DPPC   C4B 5652  12.755   5.074  16.619
24068DPPC   NC3 5653  13.015   6.574  19.959
24068DPPC   PO4 5654  13.045   6.194  19.819
24068DPPC   GL1 5655  12.645   5.934  19.649
24068DPPC   GL2 5656  12.895   5.944  19.429
24068DPPC   C1A 5657  12.425   5.794  19.399
24068DPPC   C2A 5658  12.105   5.884  19.129
24068DPPC   C3A 5659  11.785   5.844  18.749
24068DPPC   C4A 5660  11.505   5.914  18.349
24068DPPC   C1B 5661  12.705   6.204  19.219
24068DPPC   C2B 5662  12.445   6.264  18.879
24068DPPC   C3B 5663  12.125   6.294  18.449
24068DPPC   C4B 5664  11.715   6.304  18.139
24069DPPC   NC3 5665  13.045   5.694  19.809
24069DPPC   PO4 5666  13.345   5.774  19.469
24069DPPC   GL1 5667  13.145   5.874  19.089
24069DPPC   GL2 5668  13.085   6.064  18.969
24069DPPC   C1A 5669  13.045   5.644  18.799
24069DPPC   C2A 5670  12.805   5.654  18.449
24069DPPC   C3A 5671  12.495   5.684  18.119
24069DPPC   C4A 5672  12.215   5.764  17.739
24069DPPC   C1B 5673  12.835   6.074  18.659
24069DPPC   C2B 5674  12.625   6.114  18.349
24069DPPC   C3B 5675  12.325   6.154  18.019
24069DPPC   C4B 5676  11.945   6.204  17.619
24070DPPC   NC3 5677  13.725   1.394  18.479
24070DPPC   PO4 5678  14.045   1.494  18.239
24070DPPC   GL1 5679  14.205   1.444  17.789
24070DPPC   GL2 5680  14.025   1.264  17.739
24070DPPC   C1A 5681  14.125   1.534  17.439
24070DPPC   C2A 5682  13.825   1.354  17.179
24070DPPC   C3A 5683  13.505   1.424  16.809
24070DPPC   C4A 5684  13.135   1.454  16.449
24070DPPC   C1B 5685  13.715   1.404  17.609
24070DPPC   C2B 5686  13.375   1.514  17.409
24070DPPC   C3B 5687  13.005   1.584  17.119
24070DPPC   C4B 5688  12.705   1.634  16.659
24071DPPC   NC3 5689   8.465   6.604  22.229
24071DPPC   PO4 5690   8.705   6.314  22.159
24071DPPC   GL1 5691   8.855   6.414  21.789
24071DPPC   GL2 5692   8.845   0.116  21.799
24071DPPC   C1A 5693   8.825   6.534  21.469
24071DPPC   C2A 5694   9.075   6.534  21.119
24071DPPC   C3A 5695   9.355   6.304  20.779
24071DPPC   C4A 5696   9.315   6.444  20.269
24071DPPC   C1B 5697   9.085   0.226  21.579
24071DPPC   C2B 5698   9.285   0.406  21.229
24071DPPC   C3B 5699   9.475   0.646  20.869
24071DPPC   C4B 5700   9.685   0.756  20.439
24072DPPC   NC3 5701  14.165   2.214  18.449
24072DPPC   PO4 5702  13.875   2.334  18.659
24072DPPC   GL1 5703  13.455   2.284  18.559
24072DPPC   GL2 5704  13.545   2.454  18.349
24072DPPC   C1A 5705  13.155   2.104  18.369
24072DPPC   C2A 5706  12.935   2.094  18.049
24072DPPC   C3A 5707  12.625   2.134  17.659
24072DPPC   C4A 5708  12.225   2.104  17.349
24072DPPC   C1B 5709  13.265   2.424  18.069
24072DPPC   C2B 5710  13.095   2.454  17.729
24072DPPC   C3B 5711  12.765   2.434  17.329
24072DPPC   C4B 5712  12.405   2.544  17.009
24073DPPC   NC3 5713   9.675   4.754  22.329
24073DPPC   PO4 5714   9.815   4.954  22.029
24073DPPC   GL1 5715   9.705   4.794  21.609
24073DPPC   GL2 5716   9.685   5.084  21.479
24073DPPC   C1A 5717   9.855   4.614  21.309
24073DPPC   C2A 5718  10.145   4.504  21.059
24073DPPC   C3A 5719  10.475   4.544  20.689
24073DPPC   C4A 5720  10.775   4.524  20.289
24073DPPC   C1B 5721   9.875   5.244  21.209
24073DPPC   C2B 5722  10.045   5.394  20.819
24073DPPC   C3B 5723  10.385   5.544  20.429
24073DPPC   C4B 5724  10.565   5.914  20.249
24074DPPC   NC3 5725  13.615   2.814  18.669
24074DPPC   PO4 5726  13.435   2.534  18.919
24074DPPC   GL1 5727  12.975   2.314  18.939
24074DPPC   GL2 5728  12.945   2.574  18.839
24074DPPC   C1A 5729  12.785   2.164  18.669
24074DPPC   C2A 5730  12.495   2.214  18.319
24074DPPC   C3A 5731  12.165   2.204  17.939
24074DPPC   C4A 5732  11.815   2.174  17.619
24074DPPC   C1B 5733  12.635   2.684  18.619
24074DPPC   C2B 5734  12.335   2.664  18.369
24074DPPC   C3B 5735  12.015   2.664  18.039
24074DPPC   C4B 5736  11.695   2.644  17.639
24075DPPC   NC3 5737   7.675   6.354  21.939
24075DPPC   PO4 5738   7.495   6.454  21.629
24075DPPC   GL1 5739   7.765   6.424  21.369
24075DPPC   GL2 5740   7.965   6.554  21.539
24075DPPC   C1A 5741   7.875   6.304  21.049
24075DPPC   C2A 5742   8.125   6.224  20.729
24075DPPC   C3A 5743   8.465   6.174  20.379
24075DPPC   C4A 5744   8.665   6.214  19.949
24075DPPC   C1B 5745   8.205   6.354  21.329
24075DPPC   C2B 5746   8.535   6.204  21.199
24075DPPC   C3B 5747   8.825   6.034  20.829
24075DPPC   C4B 5748   8.955   6.074  20.359
24076DPPC   NC3 5749  10.065   2.784  22.169
24076DPPC   PO4 5750  10.275   2.474  22.099
24076DPPC   GL1 5751  10.225   2.364  21.679
24076DPPC   GL2 5752   9.825   2.374  21.659
24076DPPC   C1A 5753  10.355   2.324  21.359
24076DPPC   C2A 5754  10.485   2.104  21.019
24076DPPC   C3A 5755  10.635   1.794  20.639
24076DPPC   C4A 5756  10.825   1.594  20.279
24076DPPC   C1B 5757   9.685   2.274  21.329
24076DPPC   C2B 5758   9.415   2.174  21.019
24076DPPC   C3B 5759   9.185   2.074  20.599
24076DPPC   C4B 5760   9.125   1.644  20.359
24077DPPC   NC3 5761  13.325   2.004  19.009
24077DPPC   PO4 5762  13.235   2.214  19.339
24077DPPC   GL1 5763  12.805   2.254  19.399
24077DPPC   GL2 5764  12.885   1.944  19.289
24077DPPC   C1A 5765  12.525   2.264  19.129
24077DPPC   C2A 5766  12.265   2.294  18.819
24077DPPC   C3A 5767  11.905   2.304  18.499
24077DPPC   C4A 5768  11.635   2.394  18.079
24077DPPC   C1B 5769  12.715   1.824  18.969
24077DPPC   C2B 5770  12.415   1.804  18.639
24077DPPC   C3B 5771  12.075   1.844  18.299
24077DPPC   C4B 5772  11.705   1.824  17.949
24078DPPC   NC3 5773  13.435   5.394  19.139
24078DPPC   PO4 5774  13.725   5.494  18.839
24078DPPC   GL1 5775  13.405   5.494  18.559
24078DPPC   GL2 5776  13.515   5.614  18.319
24078DPPC   C1A 5777  13.115   5.234  18.539
24078DPPC   C2A 5778  12.825   5.224  18.239
24078DPPC   C3A 5779  12.565   5.224  17.889
24078DPPC   C4A 5780  12.245   5.294  17.509
24078DPPC   C1B 5781  13.215   5.664  18.169
24078DPPC   C2B 5782  12.915   5.574  17.859
24078DPPC   C3B 5783  12.685   5.594  17.429
24078DPPC   C4B 5784  12.315   5.564  17.069
24079DPPC   NC3 5785  13.225   4.534  20.069
24079DPPC   PO4 5786  13.375   4.304  19.739
24079DPPC   GL1 5787  13.055   4.184  19.469
24079DPPC   GL2 5788  12.865   3.984  19.629
24079DPPC   C1A 5789  12.845   4.394  19.309
24079DPPC   C2A 5790  12.435   4.504  19.269
24079DPPC   C3A 5791  11.995   4.514  18.929
24079DPPC   C4A 5792  11.735   4.624  18.529
24079DPPC   C1B 5793  12.555   4.104  19.429
24079DPPC   C2B 5794  12.405   4.044  19.019
24079DPPC   C3B 5795  12.035   4.064  18.709
24079DPPC   C4B 5796  11.655   3.984  18.389
24080DPPC   NC3 5797   7.485   5.094  21.229
24080DPPC   PO4 5798   7.535   5.474  21.389
24080DPPC   GL1 5799   7.705   5.714  21.099
24080DPPC   GL2 5800   7.965   5.584  21.159
24080DPPC   C1A 5801   7.835   5.824  20.749
24080DPPC   C2A 5802   8.005   5.854  20.369
24080DPPC   C3A 5803   8.325   5.824  20.009
24080DPPC   C4A 5804   8.655   5.744  19.679
24080DPPC   C1B 5805   8.365   5.614  21.239
24080DPPC   C2B 5806   8.755   5.734  21.199
24080DPPC   C3B 5807   9.195   5.844  21.139
24080DPPC   C4B 5808   9.725   6.004  21.189
24081DPPC   NC3 5809  14.005   5.824  18.639
24081DPPC   PO4 5810  13.855   6.014  18.329
24081DPPC   GL1 5811  13.475   6.044  18.079
24081DPPC   GL2 5812  13.535   6.324  18.119
24081DPPC   C1A 5813  13.345   5.994  17.749
24081DPPC   C2A 5814  13.125   5.934  17.399
24081DPPC   C3A 5815  12.815   6.024  17.029
24081DPPC   C4A 5816  12.505   5.974  16.689
24081DPPC   C1B 5817  13.245   6.424  17.879
24081DPPC   C2B 5818  13.015   6.444  17.529
24081DPPC   C3B 5819  12.705   6.494  17.249
24081DPPC   C4B 5820  12.415   6.514  16.809
24082DPPC   NC3 5821  11.225   1.154  21.729
24082DPPC   PO4 5822  11.395   1.106  21.389
24082DPPC   GL1 5823  11.275   0.966  21.089
24082DPPC   GL2 5824  11.335   0.716  21.119
24082DPPC   C1A 5825  11.475   1.056  20.759
24082DPPC   C2A 5826  11.605   1.126  20.379
24082DPPC   C3A 5827  11.445   1.234  19.939
24082DPPC   C4A 5828  11.095   1.264  19.579
24082DPPC   C1B 5829  11.335   0.486  20.859
24082DPPC   C2B 5830  11.225   0.656  20.479
24082DPPC   C3B 5831  11.115   0.606  20.039
24082DPPC   C4B 5832  10.935   0.466  19.649
24083DPPC   NC3 5833   6.595   0.626  21.059
24083DPPC   PO4 5834   6.615   0.986  21.229
24083DPPC   GL1 5835   6.975   1.264  20.999
24083DPPC   GL2 5836   6.865   1.524  20.899
24083DPPC   C1A 5837   7.135   1.096  20.729
24083DPPC   C2A 5838   7.265   1.096  20.339
24083DPPC   C3A 5839   7.535   1.164  19.919
24083DPPC   C4A 5840   7.845   1.126  19.569
24083DPPC   C1B 5841   6.625   1.674  20.639
24083DPPC   C2B 5842   6.285   1.964  20.559
24083DPPC   C3B 5843   5.825   2.204  20.509
24083DPPC   C4B 5844   5.825   2.674  20.539
24084DPPC   NC3 5845  10.255   1.484  21.839
24084DPPC   PO4 5846  10.175   1.156  22.019
24084DPPC   GL1 5847   9.895   0.896  21.769
24084DPPC   GL2 5848   9.785   1.194  21.699
24084DPPC   C1A 5849   9.855   0.676  21.479
24084DPPC   C2A 5850   9.865   0.316  21.219
24084DPPC   C3A 5851   9.815   0.226  20.789
24084DPPC   C4A 5852   9.385   0.186  20.609
24084DPPC   C1B 5853   9.715   1.424  21.339
24084DPPC   C2B 5854   9.785   1.754  21.059
24084DPPC   C3B 5855   9.985   2.214  21.049
24084DPPC   C4B 5856  10.285   2.604  20.929
24085DPPC   NC3 5857   5.795   4.244  21.309
24085DPPC   PO4 5858   5.885   3.904  21.359
24085DPPC   GL1 5859   6.025   3.774  20.929
24085DPPC   GL2 5860   5.865   3.994  20.849
24085DPPC   C1A 5861   6.085   3.484  20.689
24085DPPC   C2A 5862   6.115   3.244  20.369
24085DPPC   C3A 5863   5.935   2.994  19.979
24085DPPC   C4A 5864   5.915   2.744  19.539
24085DPPC   C1B 5865   5.775   3.804  20.559
24085DPPC   C2B 5866   5.545   3.984  20.239
24085DPPC   C3B 5867   5.445   4.384  20.009
24085DPPC   C4B 5868   5.465   4.924  19.909
24086DPPC   NC3 5869  13.105   1.884  19.709
24086DPPC   PO4 5870  13.265   1.664  19.409
24086DPPC   GL1 5871  13.105   1.504  19.099
24086DPPC   GL2 5872  12.805   1.374  19.239
24086DPPC   C1A 5873  13.065   1.644  18.729
24086DPPC   C2A 5874  12.895   1.674  18.339
24086DPPC   C3A 5875  12.525   1.744  18.029
24086DPPC   C4A 5876  12.125   1.784  17.679
24086DPPC   C1B 5877  12.485   1.424  19.189
24086DPPC   C2B 5878  12.165   1.454  18.919
24086DPPC   C3B 5879  11.855   1.464  18.559
24086DPPC   C4B 5880  11.475   1.474  18.269
24087DPPC   NC3 5881   6.805   5.534  21.099
24087DPPC   PO4 5882   6.465   5.364  21.059
24087DPPC   GL1 5883   6.545   5.434  20.659
24087DPPC   GL2 5884   6.585   5.164  20.589
24087DPPC   C1A 5885   6.905   5.564  20.619
24087DPPC   C2A 5886   7.185   5.594  20.289
24087DPPC   C3A 5887   7.385   5.544  19.829
24087DPPC   C4A 5888   7.655   5.444  19.429
24087DPPC   C1B 5889   6.745   5.184  20.259
24087DPPC   C2B 5890   6.985   5.214  19.959
24087DPPC   C3B 5891   7.205   5.204  19.529
24087DPPC   C4B 5892   7.475   5.114  19.089
24088DPPC   NC3 5893  13.855   6.424  18.589
24088DPPC   PO4 5894  13.845   0.136  18.399
24088DPPC   GL1 5895  13.525   0.306  18.369
24088DPPC   GL2 5896  13.405   0.516  18.519
24088DPPC   C1A 5897  13.325   0.266  17.999
24088DPPC   C2A 5898  12.955   0.296  17.779
24088DPPC   C3A 5899  12.655   0.326  17.459
24088DPPC   C4A 5900  12.375   0.356  17.069
24088DPPC   C1B 5901  13.155   0.546  18.259
24088DPPC   C2B 5902  12.945   0.746  17.979
24088DPPC   C3B 5903  12.595   0.866  17.639
24088DPPC   C4B 5904  12.295   0.796  17.299
24089DPPC   NC3 5905   9.745   1.264  22.159
24089DPPC   PO4 5906   9.825   1.644  22.059
24089DPPC   GL1 5907   9.915   1.674  21.639
24089DPPC   GL2 5908   9.835   1.954  21.579
24089DPPC   C1A 5909  10.155   1.674  21.379
24089DPPC   C2A 5910  10.265   1.574  20.979
24089DPPC   C3A 5911  10.475   1.314  20.599
24089DPPC   C4A 5912  10.455   1.154  20.169
24089DPPC   C1B 5913   9.495   1.844  21.519
24089DPPC   C2B 5914   9.165   1.754  21.279
24089DPPC   C3B 5915   8.745   1.474  21.169
24089DPPC   C4B 5916   8.325   1.244  21.119
24090DPPC   NC3 5917   3.875   0.866  20.509
24090DPPC   PO4 5918   4.275   0.966  20.479
24090DPPC   GL1 5919   4.705   0.936  20.399
24090DPPC   GL2 5920   4.715   1.244  20.399
24090DPPC   C1A 5921   4.915   0.866  20.069
24090DPPC   C2A 5922   5.035   0.666  19.729
24090DPPC   C3A 5923   5.285   0.726  19.339
24090DPPC   C4A 5924   5.585   0.646  19.009
24090DPPC   C1B 5925   4.935   1.404  20.159
24090DPPC   C2B 5926   5.055   1.494  19.779
24090DPPC   C3B 5927   5.415   1.494  19.459
24090DPPC   C4B 5928   5.705   1.504  19.069
24091DPPC   NC3 5929  11.165   3.194  22.329
24091DPPC   PO4 5930  11.235   3.244  21.949
24091DPPC   GL1 5931  10.935   3.204  21.689
24091DPPC   GL2 5932  11.055   3.254  21.459
24091DPPC   C1A 5933  10.645   3.324  21.519
24091DPPC   C2A 5934  10.375   3.554  21.279
24091DPPC   C3A 5935  10.075   3.914  21.189
24091DPPC   C4A 5936   9.675   4.214  21.149
24091DPPC   C1B 5937  10.825   3.204  21.139
24091DPPC   C2B 5938  10.575   3.324  20.859
24091DPPC   C3B 5939  10.205   3.574  20.789
24091DPPC   C4B 5940   9.765   3.604  20.919
24092DPPC   NC3 5941   7.515   3.044  22.049
24092DPPC   PO4 5942   7.475   2.694  21.849
24092DPPC   GL1 5943   7.705   2.784  21.459
24092DPPC   GL2 5944   7.615   2.564  21.369
24092DPPC   C1A 5945   7.965   3.014  21.279
24092DPPC   C2A 5946   8.265   3.074  21.019
24092DPPC   C3A 5947   8.735   3.034  20.819
24092DPPC   C4A 5948   9.105   2.914  20.489
24092DPPC   C1B 5949   7.775   2.354  21.109
24092DPPC   C2B 5950   8.045   2.254  20.819
24092DPPC   C3B 5951   8.345   2.304  20.369
24092DPPC   C4B 5952   8.525   2.324  19.919
24093DPPC   NC3 5953  12.455   4.184  20.549
24093DPPC   PO4 5954  12.575   3.814  20.399
24093DPPC   GL1 5955  12.315   3.884  20.069
24093DPPC   GL2 5956  12.415   4.114  19.919
24093DPPC   C1A 5957  12.005   3.784  19.869
24093DPPC   C2A 5958  11.745   3.784  19.589
24093DPPC   C3A 5959  11.375   3.814  19.279
24093DPPC   C4A 5960  11.075   3.764  18.919
24093DPPC   C1B 5961  12.135   4.184  19.679
24093DPPC   C2B 5962  11.875   4.224  19.349
24093DPPC   C3B 5963  11.595   4.174  18.959
24093DPPC   C4B 5964  11.185   4.124  18.599
24094DPPC   NC3 5965  13.155   3.634  19.409
24094DPPC   PO4 5966  13.275   3.934  19.169
24094DPPC   GL1 5967  12.855   3.854  19.069
24094DPPC   GL2 5968  12.975   3.584  18.979
24094DPPC   C1A 5969  12.695   3.954  18.719
24094DPPC   C2A 5970  12.445   3.944  18.399
24094DPPC   C3A 5971  12.095   4.004  18.099
24094DPPC   C4A 5972  11.875   3.994  17.689
24094DPPC   C1B 5973  12.785   3.574  18.609
24094DPPC   C2B 5974  12.545   3.484  18.249
24094DPPC   C3B 5975  12.205   3.444  17.959
24094DPPC   C4B 5976  11.875   3.464  17.569
24095DPPC   NC3 5977   8.915   1.684  21.919
24095DPPC   PO4 5978   8.545   1.614  22.019
24095DPPC   GL1 5979   8.505   1.664  21.639
24095DPPC   GL2 5980   8.675   1.354  21.669
24095DPPC   C1A 5981   8.555   1.844  21.329
24095DPPC   C2A 5982   8.405   2.174  21.119
24095DPPC   C3A 5983   8.415   2.574  20.829
24095DPPC   C4A 5984   8.615   2.774  20.399
24095DPPC   C1B 5985   9.015   1.374  21.549
24095DPPC   C2B 5986   9.255   1.234  21.299
24095DPPC   C3B 5987   9.585   0.946  21.229
24095DPPC   C4B 5988   9.955   0.806  20.909
24096DPPC   NC3 5989  12.935   0.526  20.759
24096DPPC   PO4 5990  12.755   0.766  20.479
24096DPPC   GL1 5991  12.395   0.956  20.279
24096DPPC   GL2 5992  12.435   0.716  20.119
24096DPPC   C1A 5993  12.075   0.826  20.219
24096DPPC   C2A 5994  12.015   0.386  20.169
24096DPPC   C3A 5995  11.915   6.544  20.219
24096DPPC   C4A 5996  11.785   6.094  20.159
24096DPPC   C1B 5997  12.195   0.696  19.819
24096DPPC   C2B 5998  11.895   0.716  19.519
24096DPPC   C3B 5999  11.615   0.716  19.169
24096DPPC   C4B 6000  11.325   0.716  18.789
24097DPPC   NC3 6001  10.285   2.744  15.769
24097DPPC   PO4 6002   9.965   2.814  16.039
24097DPPC   GL1 6003  10.195   2.874  16.379
24097DPPC   GL2 6004  10.385   3.024  16.169
24097DPPC   C1A 6005  10.325   2.724  16.669
24097DPPC   C2A 6006  10.465   2.784  17.109
24097DPPC   C3A 6007  10.865   2.784  17.429
24097DPPC   C4A 6008  11.215   2.824  17.799
24097DPPC   C1B 6009  10.615   3.064  16.399
24097DPPC   C2B 6010  10.785   3.104  16.779
24097DPPC   C3B 6011  11.125   3.174  17.139
24097DPPC   C4B 6012  11.385   3.154  17.469
24098DPPC   NC3 6013   7.685   3.184  17.959
24098DPPC   PO4 6014   7.705   3.384  18.299
24098DPPC   GL1 6015   7.505   3.234  18.699
24098DPPC   GL2 6016   7.375   3.524  18.659
24098DPPC   C1A 6017   7.285   3.024  18.909
24098DPPC   C2A 6018   7.075   2.974  19.319
24098DPPC   C3A 6019   6.715   3.054  19.679
24098DPPC   C4A 6020   6.435   2.984  20.029
24098DPPC   C1B 6021   7.155   3.444  18.919
24098DPPC   C2B 6022   6.855   3.454  19.169
24098DPPC   C3B 6023   6.625   3.494  19.559
24098DPPC   C4B 6024   6.395   3.524  20.019
24099DPPC   NC3 6025   8.955   3.074  17.369
24099DPPC   PO4 6026   9.025   2.984  17.709
24099DPPC   GL1 6027   9.345   3.004  17.959
24099DPPC   GL2 6028   9.115   2.974  18.179
24099DPPC   C1A 6029   9.645   3.134  18.099
24099DPPC   C2A 6030   9.875   3.104  18.439
24099DPPC   C3A 6031  10.135   3.014  18.839
24099DPPC   C4A 6032  10.475   3.014  19.179
24099DPPC   C1B 6033   9.365   3.084  18.409
24099DPPC   C2B 6034   9.485   3.164  18.779
24099DPPC   C3B 6035   9.825   3.154  19.189
24099DPPC   C4B 6036  10.145   3.134  19.669
24100DPPC   NC3 6037   9.215   5.624  17.569
24100DPPC   PO4 6038   9.065   5.794  17.889
24100DPPC   GL1 6039   9.335   5.974  18.199
24100DPPC   GL2 6040   9.265   5.744  18.369
24100DPPC   C1A 6041   9.615   6.104  18.319
24100DPPC   C2A 6042   9.805   6.144  18.669
24100DPPC   C3A 6043  10.105   6.204  19.039
24100DPPC   C4A 6044  10.365   6.144  19.429
24100DPPC   C1B 6045   9.455   5.684  18.659
24100DPPC   C2B 6046   9.615   5.794  19.019
24100DPPC   C3B 6047   9.885   5.724  19.369
24100DPPC   C4B 6048  10.185   5.774  19.719
24101DPPC   NC3 6049   7.615   0.406  17.239
24101DPPC   PO4 6050   7.795   0.646  17.499
24101DPPC   GL1 6051   7.655   0.576  17.889
24101DPPC   GL2 6052   7.595   0.326  17.979
24101DPPC   C1A 6053   7.435   0.786  18.049
24101DPPC   C2A 6054   7.125   0.806  18.309
24101DPPC   C3A 6055   6.815   0.826  18.629
24101DPPC   C4A 6056   6.565   0.916  18.999
24101DPPC   C1B 6057   7.405   0.206  18.289
24101DPPC   C2B 6058   7.125   0.276  18.569
24101DPPC   C3B 6059   6.785   0.436  18.979
24101DPPC   C4B 6060   6.505   0.416  19.369
24102DPPC   NC3 6061   9.555   1.454  16.249
24102DPPC   PO4 6062   9.665   1.106  16.389
24102DPPC   GL1 6063  10.025   1.016  16.569
24102DPPC   GL2 6064  10.015   0.776  16.629
24102DPPC   C1A 6065  10.265   1.234  16.759
24102DPPC   C2A 6066  10.515   1.364  17.069
24102DPPC   C3A 6067  10.885   1.434  17.409
24102DPPC   C4A 6068  11.185   1.494  17.769
24102DPPC   C1B 6069  10.215   0.606  16.829
24102DPPC   C2B 6070  10.545   0.596  17.099
24102DPPC   C3B 6071  10.765   0.536  17.539
24102DPPC   C4B 6072  11.125   0.526  17.879
24103DPPC   NC3 6073   9.785   3.244  16.829
24103DPPC   PO4 6074   9.725   3.584  16.849
24103DPPC   GL1 6075  10.005   3.584  17.149
24103DPPC   GL2 6076  10.025   3.344  17.279
24103DPPC   C1A 6077  10.265   3.714  17.309
24103DPPC   C2A 6078  10.595   3.654  17.559
24103DPPC   C3A 6079  10.935   3.714  17.919
24103DPPC   C4A 6080  11.245   3.714  18.329
24103DPPC   C1B 6081  10.215   3.394  17.579
24103DPPC   C2B 6082  10.535   3.324  17.899
24103DPPC   C3B 6083  10.795   3.294  18.279
24103DPPC   C4B 6084  11.085   3.354  18.679
24104DPPC   NC3 6085   9.315   3.074  16.889
24104DPPC   PO4 6086   9.385   3.294  17.199
24104DPPC   GL1 6087   9.545   3.294  17.539
24104DPPC   GL2 6088   9.355   3.374  17.709
24104DPPC   C1A 6089   9.845   3.264  17.739
24104DPPC   C2A 6090  10.045   3.364  18.099
24104DPPC   C3A 6091  10.205   3.484  18.519
24104DPPC   C4A 6092  10.545   3.354  18.849
24104DPPC   C1B 6093   9.485   3.534  17.979
24104DPPC   C2B 6094   9.565   3.524  18.409
24104DPPC   C3B 6095   9.825   3.574  18.799
24104DPPC   C4B 6096  10.165   3.534  19.099
24105DPPC   NC3 6097   9.465   1.474  17.619
24105DPPC   PO4 6098   9.435   1.794  17.359
24105DPPC   GL1 6099   9.835   1.734  17.209
24105DPPC   GL2 6100   9.865   1.924  17.269
24105DPPC   C1A 6101  10.135   1.524  17.209
24105DPPC   C2A 6102  10.425   1.494  17.579
24105DPPC   C3A 6103  10.715   1.484  17.919
24105DPPC   C4A 6104  11.035   1.614  18.269
24105DPPC   C1B 6105  10.145   1.894  17.519
24105DPPC   C2B 6106  10.475   1.944  17.779
24105DPPC   C3B 6107  10.745   2.034  18.129
24105DPPC   C4B 6108  11.055   2.024  18.529
24106DPPC   NC3 6109   8.815   4.704  17.619
24106DPPC   PO4 6110   8.735   4.764  17.999
24106DPPC   GL1 6111   9.105   4.644  18.309
24106DPPC   GL2 6112   9.005   4.854  18.469
24106DPPC   C1A 6113   9.315   4.494  18.499
24106DPPC   C2A 6114   9.595   4.534  18.819
24106DPPC   C3A 6115   9.955   4.424  19.269
24106DPPC   C4A 6116   9.995   4.274  19.749
24106DPPC   C1B 6117   9.325   4.904  18.629
24106DPPC   C2B 6118   9.505   4.974  18.999
24106DPPC   C3B 6119   9.715   4.904  19.389
24106DPPC   C4B 6120   9.925   4.844  19.809
24107DPPC   NC3 6121   7.895   5.254  18.759
24107DPPC   PO4 6122   7.795   5.434  18.379
24107DPPC   GL1 6123   7.425   5.624  18.329
24107DPPC   GL2 6124   7.535   5.914  18.479
24107DPPC   C1A 6125   7.085   5.714  18.489
24107DPPC   C2A 6126   6.825   5.754  18.789
24107DPPC   C3A 6127   6.655   5.754  19.209
24107DPPC   C4A 6128   6.395   5.714  19.539
24107DPPC   C1B 6129   7.245   6.014  18.719
24107DPPC   C2B 6130   7.135   6.124  19.089
24107DPPC   C3B 6131   6.895   6.094  19.549
24107DPPC   C4B 6132   6.575   6.024  19.849
24108DPPC   NC3 6133   8.865   6.514  19.129
24108DPPC   PO4 6134   8.515   6.524  18.999
24108DPPC   GL1 6135   8.465   6.534  19.429
24108DPPC   GL2 6136   8.225   0.106  19.349
24108DPPC   C1A 6137   8.785   6.524  19.559
24108DPPC   C2A 6138   8.985   6.584  19.919
24108DPPC   C3A 6139   8.805   6.524  20.399
24108DPPC   C4A 6140   8.545   6.484  20.789
24108DPPC   C1B 6141   8.085   0.196  19.639
24108DPPC   C2B 6142   7.895   0.186  20.009
24108DPPC   C3B 6143   7.655   0.196  20.409
24108DPPC   C4B 6144   7.385   0.236  20.829
24109DPPC   NC3 6145   8.535   5.544  18.859
24109DPPC   PO4 6146   8.365   5.264  18.999
24109DPPC   GL1 6147   8.295   5.004  19.289
24109DPPC   GL2 6148   8.025   4.994  19.249
24109DPPC   C1A 6149   8.265   4.954  19.659
24109DPPC   C2A 6150   8.065   4.954  20.009
24109DPPC   C3A 6151   7.835   4.894  20.379
24109DPPC   C4A 6152   7.445   4.864  20.749
24109DPPC   C1B 6153   7.855   5.084  19.519
24109DPPC   C2B 6154   7.565   5.034  19.839
24109DPPC   C3B 6155   7.375   5.054  20.279
24109DPPC   C4B 6156   7.025   5.084  20.619
24110DPPC   NC3 6157   8.325   1.424  19.429
24110DPPC   PO4 6158   8.415   1.544  19.069
24110DPPC   GL1 6159   8.675   1.674  19.249
24110DPPC   GL2 6160   8.405   1.864  19.299
24110DPPC   C1A 6161   8.985   1.754  19.539
24110DPPC   C2A 6162   9.225   1.724  19.849
24110DPPC   C3A 6163   9.595   1.624  20.169
24110DPPC   C4A 6164  10.055   1.564  20.379
24110DPPC   C1B 6165   8.355   1.844  19.659
24110DPPC   C2B 6166   8.245   1.884  20.089
24110DPPC   C3B 6167   7.975   1.864  20.449
24110DPPC   C4B 6168   7.695   1.934  20.839
24111DPPC   NC3 6169   9.555   6.494  17.229
24111DPPC   PO4 6170   9.405   0.086  17.589
24111DPPC   GL1 6171   9.565   0.156  17.999
24111DPPC   GL2 6172   9.405   6.534  18.129
24111DPPC   C1A 6173   9.825   0.346  18.189
24111DPPC   C2A 6174  10.045   0.446  18.519
24111DPPC   C3A 6175  10.275   0.536  18.879
24111DPPC   C4A 6176  10.585   0.386  19.279
24111DPPC   C1B 6177   9.555   6.524  18.499
24111DPPC   C2B 6178   9.785   0.026  18.759
24111DPPC   C3B 6179  10.125   0.146  19.109
24111DPPC   C4B 6180  10.325   0.056  19.599
24112DPPC   NC3 6181   8.395   4.404  18.229
24112DPPC   PO4 6182   8.745   4.394  18.439
24112DPPC   GL1 6183   8.945   4.524  18.779
24112DPPC   GL2 6184   8.735   4.354  19.009
24112DPPC   C1A 6185   9.175   4.564  19.079
24112DPPC   C2A 6186   9.375   4.554  19.449
24112DPPC   C3A 6187   9.555   4.534  19.919
24112DPPC   C4A 6188   9.815   4.414  20.239
24112DPPC   C1B 6189   8.925   4.264  19.319
24112DPPC   C2B 6190   9.005   4.204  19.759
24112DPPC   C3B 6191   8.725   4.084  20.149
24112DPPC   C4B 6192   8.425   4.184  20.519
24113DPPC   NC3 6193   9.305   0.296  16.559
24113DPPC   PO4 6194   9.595   0.536  16.689
24113DPPC   GL1 6195   9.825   0.516  17.009
24113DPPC   GL2 6196   9.785   0.196  16.949
24113DPPC   C1A 6197  10.075   0.596  17.289
24113DPPC   C2A 6198  10.295   0.686  17.639
24113DPPC   C3A 6199  10.635   0.616  17.979
24113DPPC   C4A 6200  10.945   0.706  18.329
24113DPPC   C1B 6201  10.125   0.146  17.179
24113DPPC   C2B 6202  10.375   0.166  17.459
24113DPPC   C3B 6203  10.665   0.096  17.849
24113DPPC   C4B 6204  10.965   0.196  18.269
24114DPPC   NC3 6205   8.575   6.394  18.509
24114DPPC   PO4 6206   8.845   0.046  18.639
24114DPPC   GL1 6207   9.245   6.574  18.829
24114DPPC   GL2 6208   9.315   0.206  18.859
24114DPPC   C1A 6209   9.495   6.334  18.949
24114DPPC   C2A 6210   9.635   6.214  19.309
24114DPPC   C3A 6211   9.945   6.274  19.659
24114DPPC   C4A 6212  10.265   6.254  20.009
24114DPPC   C1B 6213   9.475   0.116  19.159
24114DPPC   C2B 6214   9.655   0.166  19.499
24114DPPC   C3B 6215   9.885   0.176  19.909
24114DPPC   C4B 6216  10.145   0.056  20.269
24115DPPC   NC3 6217   8.295   3.474  18.739
24115DPPC   PO4 6218   7.875   3.494  18.789
24115DPPC   GL1 6219   7.705   3.424  19.119
24115DPPC   GL2 6220   7.735   3.074  19.089
24115DPPC   C1A 6221   7.375   3.424  19.289
24115DPPC   C2A 6222   7.105   3.414  19.639
24115DPPC   C3A 6223   6.835   3.354  20.069
24115DPPC   C4A 6224   6.595   3.424  20.479
24115DPPC   C1B 6225   7.555   2.844  19.379
24115DPPC   C2B 6226   7.355   2.864  19.729
24115DPPC   C3B 6227   7.075   2.884  20.149
24115DPPC   C4B 6228   6.705   2.954  20.469
24116DPPC   NC3 6229   7.495   4.064  18.249
24116DPPC   PO4 6230   7.625   4.054  17.859
24116DPPC   GL1 6231   7.255   4.264  17.779
24116DPPC   GL2 6232   7.155   3.994  17.949
24116DPPC   C1A 6233   7.125   4.384  18.119
24116DPPC   C2A 6234   7.055   4.374  18.549
24116DPPC   C3A 6235   6.765   4.404  18.989
24116DPPC   C4A 6236   6.555   4.434  19.449
24116DPPC   C1B 6237   6.875   4.054  18.219
24116DPPC   C2B 6238   6.675   4.074  18.579
24116DPPC   C3B 6239   6.405   4.034  18.979
24116DPPC   C4B 6240   6.145   4.104  19.339
24117DPPC   NC3 6241   8.015   6.494  18.979
24117DPPC   PO4 6242   8.165   6.134  18.969
24117DPPC   GL1 6243   8.425   6.004  19.239
24117DPPC   GL2 6244   8.655   6.114  19.139
24117DPPC   C1A 6245   8.365   6.104  19.559
24117DPPC   C2A 6246   8.145   6.274  19.899
24117DPPC   C3A 6247   7.865   6.344  20.289
24117DPPC   C4A 6248   7.595   6.324  20.709
24117DPPC   C1B 6249   8.875   6.074  19.439
24117DPPC   C2B 6250   9.075   5.974  19.819
24117DPPC   C3B 6251   9.405   5.944  20.279
24117DPPC   C4B 6252   9.605   5.824  20.739
24118DPPC   NC3 6253  11.185   2.894  14.679
24118DPPC   PO4 6254  11.075   2.964  15.059
24118DPPC   GL1 6255  11.355   2.874  15.229
24118DPPC   GL2 6256  11.505   3.114  14.939
24118DPPC   C1A 6257  11.655   2.904  15.489
24118DPPC   C2A 6258  11.935   2.894  15.809
24118DPPC   C3A 6259  12.265   2.854  16.159
24118DPPC   C4A 6260  12.515   2.814  16.549
24118DPPC   C1B 6261  11.845   3.144  15.159
24118DPPC   C2B 6262  12.105   3.204  15.489
24118DPPC   C3B 6263  12.375   3.214  15.849
24118DPPC   C4B 6264  12.695   3.174  16.269
24119DPPC   NC3 6265   9.375   0.596  17.879
24119DPPC   PO4 6266   9.045   0.676  18.079
24119DPPC   GL1 6267   9.275   0.846  18.399
24119DPPC   GL2 6268   9.475   0.606  18.339
24119DPPC   C1A 6269   9.395   1.006  18.739
24119DPPC   C2A 6270   9.555   0.956  19.089
24119DPPC   C3A 6271   9.835   0.986  19.459
24119DPPC   C4A 6272  10.225   1.036  19.729
24119DPPC   C1B 6273   9.645   0.556  18.659
24119DPPC   C2B 6274   9.785   0.526  19.059
24119DPPC   C3B 6275  10.085   0.566  19.479
24119DPPC   C4B 6276  10.455   0.526  19.739
24120DPPC   NC3 6277   8.785   2.634  17.999
24120DPPC   PO4 6278   8.755   2.724  18.379
24120DPPC   GL1 6279   9.125   2.494  18.539
24120DPPC   GL2 6280   9.225   2.744  18.689
24120DPPC   C1A 6281   9.395   2.284  18.749
24120DPPC   C2A 6282   9.605   2.234  19.099
24120DPPC   C3A 6283   9.855   2.264  19.479
24120DPPC   C4A 6284  10.145   2.354  19.849
24120DPPC   C1B 6285   9.335   2.654  19.049
24120DPPC   C2B 6286   9.495   2.844  19.379
24120DPPC   C3B 6287   9.685   2.894  19.779
24120DPPC   C4B 6288  10.055   2.854  20.089
24121DPPC   NC3 6289  10.755   3.244  15.279
24121DPPC   PO4 6290  10.465   2.984  15.359
24121DPPC   GL1 6291  10.735   2.764  15.559
24121DPPC   GL2 6292  10.965   2.864  15.559
24121DPPC   C1A 6293  10.735   2.854  15.919
24121DPPC   C2A 6294  11.025   2.954  16.219
24121DPPC   C3A 6295  11.325   3.084  16.559
24121DPPC   C4A 6296  11.665   3.044  16.969
24121DPPC   C1B 6297  11.235   2.864  15.799
24121DPPC   C2B 6298  11.525   2.954  16.099
24121DPPC   C3B 6299  11.855   2.944  16.479
24121DPPC   C4B 6300  12.145   2.924  16.879
24122DPPC   NC3 6301  10.655   2.624  15.089
24122DPPC   PO4 6302  10.495   2.404  15.359
24122DPPC   GL1 6303  10.745   2.274  15.639
24122DPPC   GL2 6304  10.655   2.394  15.859
24122DPPC   C1A 6305  11.125   2.284  15.719
24122DPPC   C2A 6306  11.455   2.454  15.909
24122DPPC   C3A 6307  11.785   2.524  16.209
24122DPPC   C4A 6308  12.085   2.494  16.519
24122DPPC   C1B 6309  10.925   2.444  16.079
24122DPPC   C2B 6310  11.285   2.564  16.349
24122DPPC   C3B 6311  11.575   2.524  16.739
24122DPPC   C4B 6312  11.915   2.594  17.139
24123DPPC   NC3 6313   9.265   2.064  17.749
24123DPPC   PO4 6314   9.085   2.124  18.109
24123DPPC   GL1 6315   9.525   2.214  18.329
24123DPPC   GL2 6316   9.575   2.294  18.059
24123DPPC   C1A 6317   9.785   2.124  18.559
24123DPPC   C2A 6318  10.075   2.164  18.879
24123DPPC   C3A 6319  10.375   2.164  19.259
24123DPPC   C4A 6320  10.625   2.264  19.639
24123DPPC   C1B 6321   9.875   2.444  18.199
24123DPPC   C2B 6322  10.175   2.554  18.459
24123DPPC   C3B 6323  10.405   2.554  18.849
24123DPPC   C4B 6324  10.735   2.624  19.219
24124DPPC   NC3 6325  10.285   6.484  15.809
24124DPPC   PO4 6326  10.465   6.404  15.459
24124DPPC   GL1 6327  10.835   6.224  15.529
24124DPPC   GL2 6328  10.765   6.374  15.779
24124DPPC   C1A 6329  11.195   6.344  15.609
24124DPPC   C2A 6330  11.475   6.394  15.859
24124DPPC   C3A 6331  11.765   6.494  16.219
24124DPPC   C4A 6332  12.065   6.464  16.469
24124DPPC   C1B 6333  11.035   6.464  15.999
24124DPPC   C2B 6334  11.245   6.514  16.309
24124DPPC   C3B 6335  11.565   6.544  16.609
24124DPPC   C4B 6336  11.865   6.504  16.979
24125DPPC   NC3 6337   8.095   1.164  18.969
24125DPPC   PO4 6338   8.485   1.036  19.029
24125DPPC   GL1 6339   8.745   0.946  19.319
24125DPPC   GL2 6340   8.785   1.244  19.389
24125DPPC   C1A 6341   8.985   0.636  19.459
24125DPPC   C2A 6342   9.145   0.276  19.549
24125DPPC   C3A 6343   9.415   0.236  19.939
24125DPPC   C4A 6344   9.705   0.286  20.299
24125DPPC   C1B 6345   8.725   1.414  19.679
24125DPPC   C2B 6346   8.555   1.364  20.019
24125DPPC   C3B 6347   8.295   1.444  20.389
24125DPPC   C4B 6348   7.965   1.404  20.769
24126DPPC   NC3 6349  10.215   4.154  16.179
24126DPPC   PO4 6350  10.055   3.864  16.409
24126DPPC   GL1 6351  10.135   3.804  16.819
24126DPPC   GL2 6352  10.135   3.484  16.739
24126DPPC   C1A 6353  10.365   4.014  16.989
24126DPPC   C2A 6354  10.705   4.034  17.249
24126DPPC   C3A 6355  11.065   4.084  17.549
24126DPPC   C4A 6356  11.385   4.094  17.929
24126DPPC   C1B 6357  10.365   3.214  16.949
24126DPPC   C2B 6358  10.585   3.204  17.329
24126DPPC   C3B 6359  10.905   3.194  17.659
24126DPPC   C4B 6360  11.225   3.284  18.019
24127DPPC   NC3 6361   8.875   3.114  18.659
24127DPPC   PO4 6362   8.635   3.174  18.989
24127DPPC   GL1 6363   8.765   3.214  19.399
24127DPPC   GL2 6364   8.675   3.494  19.459
24127DPPC   C1A 6365   8.985   3.204  19.709
24127DPPC   C2A 6366   9.255   3.114  20.009
24127DPPC   C3A 6367   9.555   2.954  20.339
24127DPPC   C4A 6368  10.015   3.014  20.549
24127DPPC   C1B 6369   8.705   3.614  19.839
24127DPPC   C2B 6370   8.595   3.604  20.249
24127DPPC   C3B 6371   8.695   3.694  20.649
24127DPPC   C4B 6372   8.895   3.824  21.079
24128DPPC   NC3 6373   9.075   6.344  17.309
24128DPPC   PO4 6374   9.345   6.074  17.409
24128DPPC   GL1 6375   9.595   6.204  17.659
24128DPPC   GL2 6376   9.735   5.944  17.599
24128DPPC   C1A 6377   9.755   6.314  17.969
24128DPPC   C2A 6378   9.955   6.484  18.319
24128DPPC   C3A 6379  10.245   6.544  18.669
24128DPPC   C4A 6380  10.545   6.524  19.139
24128DPPC   C1B 6381   9.815   5.884  17.909
24128DPPC   C2B 6382  10.085   6.044  18.179
24128DPPC   C3B 6383  10.415   6.054  18.589
24128DPPC   C4B 6384  10.705   6.084  19.049
24129DPPC   NC3 6385   9.615   2.024  16.909
24129DPPC   PO4 6386   9.525   2.294  17.219
24129DPPC   GL1 6387   9.695   2.194  17.589
24129DPPC   GL2 6388   9.705   1.994  17.729
24129DPPC   C1A 6389   9.985   2.364  17.739
24129DPPC   C2A 6390  10.365   2.444  17.939
24129DPPC   C3A 6391  10.655   2.454  18.339
24129DPPC   C4A 6392  10.915   2.554  18.729
24129DPPC   C1B 6393  10.015   1.994  17.959
24129DPPC   C2B 6394  10.275   2.124  18.279
24129DPPC   C3B 6395  10.535   2.054  18.649
24129DPPC   C4B 6396  10.815   2.174  19.019
24130DPPC   NC3 6397   8.095   0.736  17.929
24130DPPC   PO4 6398   8.145   0.446  18.199
24130DPPC   GL1 6399   7.875   0.286  18.489
24130DPPC   GL2 6400   7.985   0.506  18.639
24130DPPC   C1A 6401   7.605   0.256  18.739
24130DPPC   C2A 6402   7.355   0.326  19.079
24130DPPC   C3A 6403   7.085   0.366  19.439
24130DPPC   C4A 6404   6.765   0.386  19.839
24130DPPC   C1B 6405   7.795   0.736  18.929
24130DPPC   C2B 6406   7.565   0.746  19.289
24130DPPC   C3B 6407   7.245   0.706  19.669
24130DPPC   C4B 6408   7.035   0.756  20.089
24131DPPC   NC3 6409  10.655   5.504  15.549
24131DPPC   PO4 6410  10.395   5.314  15.789
24131DPPC   GL1 6411  10.545   5.404  16.249
24131DPPC   GL2 6412  10.685   5.604  16.059
24131DPPC   C1A 6413  10.815   5.354  16.479
24131DPPC   C2A 6414  11.015   5.254  16.829
24131DPPC   C3A 6415  11.345   5.334  17.169
24131DPPC   C4A 6416  11.695   5.364  17.529
24131DPPC   C1B 6417  11.005   5.694  16.239
24131DPPC   C2B 6418  11.275   5.674  16.499
24131DPPC   C3B 6419  11.525   5.744  16.959
24131DPPC   C4B 6420  11.915   5.734  17.309
24132DPPC   NC3 6421   7.675   2.154  17.399
24132DPPC   PO4 6422   7.765   2.344  17.709
24132DPPC   GL1 6423   7.395   2.354  17.949
24132DPPC   GL2 6424   7.455   2.114  18.099
24132DPPC   C1A 6425   7.195   2.394  18.279
24132DPPC   C2A 6426   6.915   2.224  18.489
24132DPPC   C3A 6427   6.645   2.224  18.809
24132DPPC   C4A 6428   6.285   2.174  19.159
24132DPPC   C1B 6429   7.435   2.114  18.509
24132DPPC   C2B 6430   7.185   2.074  18.849
24132DPPC   C3B 6431   6.915   2.134  19.249
24132DPPC   C4B 6432   6.585   2.184  19.589
24133DPPC   NC3 6433   8.455   1.804  18.489
24133DPPC   PO4 6434   8.165   1.954  18.229
24133DPPC   GL1 6435   7.745   1.924  18.349
24133DPPC   GL2 6436   7.885   2.034  18.629
24133DPPC   C1A 6437   7.635   1.714  18.639
24133DPPC   C2A 6438   7.395   1.674  18.939
24133DPPC   C3A 6439   7.075   1.644  19.309
24133DPPC   C4A 6440   6.795   1.704  19.709
24133DPPC   C1B 6441   7.625   2.044  18.909
24133DPPC   C2B 6442   7.525   2.014  19.289
24133DPPC   C3B 6443   7.225   1.984  19.659
24133DPPC   C4B 6444   6.905   2.084  19.979
24134DPPC   NC3 6445   7.395   2.824  16.869
24134DPPC   PO4 6446   7.195   2.534  16.719
24134DPPC   GL1 6447   6.915   2.414  16.969
24134DPPC   GL2 6448   6.845   2.174  16.929
24134DPPC   C1A 6449   6.715   2.454  17.299
24134DPPC   C2A 6450   6.455   2.404  17.599
24134DPPC   C3A 6451   6.135   2.444  17.979
24134DPPC   C4A 6452   5.875   2.524  18.389
24134DPPC   C1B 6453   6.855   1.954  17.219
24134DPPC   C2B 6454   6.735   1.924  17.629
24134DPPC   C3B 6455   6.325   1.994  17.939
24134DPPC   C4B 6456   6.065   2.064  18.339
24135DPPC   NC3 6457   7.895   4.484  18.619
24135DPPC   PO4 6458   8.095   4.764  18.809
24135DPPC   GL1 6459   8.275   4.604  19.189
24135DPPC   GL2 6460   8.035   4.344  19.169
24135DPPC   C1A 6461   8.515   4.504  19.459
24135DPPC   C2A 6462   8.835   4.774  19.589
24135DPPC   C3A 6463   8.945   5.054  19.959
24135DPPC   C4A 6464   9.235   5.124  20.279
24135DPPC   C1B 6465   8.025   4.094  19.439
24135DPPC   C2B 6466   7.845   4.104  19.849
24135DPPC   C3B 6467   7.635   4.074  20.269
24135DPPC   C4B 6468   7.435   4.144  20.699
24136DPPC   NC3 6469   8.285   3.454  19.249
24136DPPC   PO4 6470   8.155   3.114  19.049
24136DPPC   GL1 6471   8.015   2.844  19.419
24136DPPC   GL2 6472   8.155   3.134  19.549
24136DPPC   C1A 6473   8.075   2.554  19.639
24136DPPC   C2A 6474   8.005   2.304  19.979
24136DPPC   C3A 6475   7.725   2.314  20.359
24136DPPC   C4A 6476   7.505   2.504  20.799
24136DPPC   C1B 6477   8.455   3.144  19.689
24136DPPC   C2B 6478   8.725   3.144  20.059
24136DPPC   C3B 6479   9.025   3.354  20.369
24136DPPC   C4B 6480   9.475   3.474  20.469
24137DPPC   NC3 6481   7.645   4.634  17.689
24137DPPC   PO4 6482   7.575   4.904  18.009
24137DPPC   GL1 6483   7.235   4.764  18.289
24137DPPC   GL2 6484   7.525   4.594  18.299
24137DPPC   C1A 6485   6.915   4.844  18.469
24137DPPC   C2A 6486   6.725   4.914  18.839
24137DPPC   C3A 6487   6.455   4.794  19.139
24137DPPC   C4A 6488   6.165   4.764  19.499
24137DPPC   C1B 6489   7.495   4.364  18.589
24137DPPC   C2B 6490   7.365   4.314  19.009
24137DPPC   C3B 6491   7.065   4.354  19.419
24137DPPC   C4B 6492   6.835   4.394  19.829
24138DPPC   NC3 6493   9.565   2.524  16.109
24138DPPC   PO4 6494   9.815   2.254  15.969
24138DPPC   GL1 6495  10.265   2.394  16.029
24138DPPC   GL2 6496  10.275   2.174  16.099
24138DPPC   C1A 6497  10.475   2.554  16.279
24138DPPC   C2A 6498  10.805   2.644  16.469
24138DPPC   C3A 6499  11.085   2.684  16.869
24138DPPC   C4A 6500  11.365   2.724  17.269
24138DPPC   C1B 6501  10.615   2.104  16.199
24138DPPC   C2B 6502  10.895   2.164  16.469
24138DPPC   C3B 6503  11.195   2.204  16.819
24138DPPC   C4B 6504  11.575   2.224  17.199
24139DPPC   NC3 6505   7.545   5.454  17.939
24139DPPC   PO4 6506   7.685   5.784  17.749
24139DPPC   GL1 6507   7.375   5.994  17.979
24139DPPC   GL2 6508   7.235   5.864  17.749
24139DPPC   C1A 6509   7.155   6.074  18.239
24139DPPC   C2A 6510   6.885   6.214  18.559
24139DPPC   C3A 6511   6.665   6.244  18.989
24139DPPC   C4A 6512   6.455   6.204  19.379
24139DPPC   C1B 6513   6.985   5.854  17.959
24139DPPC   C2B 6514   6.705   5.824  18.289
24139DPPC   C3B 6515   6.365   5.784  18.609
24139DPPC   C4B 6516   6.125   5.794  19.029
24140DPPC   NC3 6517  10.765   0.636  14.879
24140DPPC   PO4 6518  10.755   0.686  15.309
24140DPPC   GL1 6519  10.935   0.896  15.649
24140DPPC   GL2 6520  10.775   1.174  15.669
24140DPPC   C1A 6521  11.145   0.846  15.869
24140DPPC   C2A 6522  11.385   0.816  16.209
24140DPPC   C3A 6523  11.655   0.846  16.559
24140DPPC   C4A 6524  11.945   0.786  16.949
24140DPPC   C1B 6525  10.965   1.184  15.979
24140DPPC   C2B 6526  11.175   1.304  16.309
24140DPPC   C3B 6527  11.465   1.324  16.709
24140DPPC   C4B 6528  11.865   1.314  16.969
24141DPPC   NC3 6529   7.365   5.914  17.289
24141DPPC   PO4 6530   7.515   6.224  17.469
24141DPPC   GL1 6531   7.185   6.344  17.479
24141DPPC   GL2 6532   7.025   6.194  17.309
24141DPPC   C1A 6533   6.925   6.304  17.749
24141DPPC   C2A 6534   6.655   6.254  18.109
24141DPPC   C3A 6535   6.335   6.284  18.559
24141DPPC   C4A 6536   6.095   6.294  18.959
24141DPPC   C1B 6537   6.835   5.914  17.479
24141DPPC   C2B 6538   6.555   5.934  17.709
24141DPPC   C3B 6539   6.275   5.944  18.069
24141DPPC   C4B 6540   5.925   6.034  18.429
24142DPPC   NC3 6541   9.565   5.724  17.129
24142DPPC   PO4 6542   9.605   6.104  16.959
24142DPPC   GL1 6543   9.875   6.154  17.169
24142DPPC   GL2 6544  10.005   5.844  17.219
24142DPPC   C1A 6545   9.995   6.354  17.459
24142DPPC   C2A 6546  10.205   6.434  17.819
24142DPPC   C3A 6547  10.495   6.454  18.219
24142DPPC   C4A 6548  10.775   6.474  18.659
24142DPPC   C1B 6549  10.215   5.874  17.549
24142DPPC   C2B 6550  10.425   5.934  17.859
24142DPPC   C3B 6551  10.745   5.884  18.229
24142DPPC   C4B 6552  11.015   5.954  18.609
24143DPPC   NC3 6553   9.935   5.634  15.679
24143DPPC   PO4 6554  10.115   5.974  15.679
24143DPPC   GL1 6555  10.565   5.964  15.739
24143DPPC   GL2 6556  10.465   6.034  16.009
24143DPPC   C1A 6557  10.935   5.894  15.849
24143DPPC   C2A 6558  11.215   6.014  16.069
24143DPPC   C3A 6559  11.535   6.064  16.389
24143DPPC   C4A 6560  11.885   6.084  16.759
24143DPPC   C1B 6561  10.705   6.124  16.219
24143DPPC   C2B 6562  10.995   6.124  16.519
24143DPPC   C3B 6563  11.315   6.154  16.849
24143DPPC   C4B 6564  11.635   6.164  17.189
24144DPPC   NC3 6565   8.865   0.436  19.119
24144DPPC   PO4 6566   8.565   0.506  18.879
24144DPPC   GL1 6567   8.195   0.616  19.039
24144DPPC   GL2 6568   8.075   0.366  19.039
24144DPPC   C1A 6569   8.055   0.596  19.359
24144DPPC   C2A 6570   7.835   0.646  19.739
24144DPPC   C3A 6571   7.595   0.686  20.159
24144DPPC   C4A 6572   7.285   0.646  20.539
24144DPPC   C1B 6573   7.795   0.266  19.189
24144DPPC   C2B 6574   7.615   0.256  19.529
24144DPPC   C3B 6575   7.385   0.306  19.949
24144DPPC   C4B 6576   7.075   0.256  20.319
24145DPPC   NC3 6577   9.315   4.754  17.319
24145DPPC   PO4 6578   9.145   5.084  17.469
24145DPPC   GL1 6579   9.385   4.984  17.769
24145DPPC   GL2 6580   9.225   4.794  17.879
24145DPPC   C1A 6581   9.705   5.154  17.939
24145DPPC   C2A 6582  10.015   5.214  18.269
24145DPPC   C3A 6583  10.265   5.244  18.699
24145DPPC   C4A 6584  10.535   5.264  19.129
24145DPPC   C1B 6585   9.485   4.774  18.139
24145DPPC   C2B 6586   9.695   4.834  18.439
24145DPPC   C3B 6587   9.975   4.844  18.759
24145DPPC   C4B 6588  10.265   4.844  19.119
24146DPPC   NC3 6589   9.175   6.334  18.479
24146DPPC   PO4 6590   8.975   6.124  18.739
24146DPPC   GL1 6591   9.165   6.194  19.119
24146DPPC   GL2 6592   9.225   5.904  19.239
24146DPPC   C1A 6593   9.215   6.354  19.469
24146DPPC   C2A 6594   9.445   6.384  19.799
24146DPPC   C3A 6595   9.785   6.294  20.139
24146DPPC   C4A 6596   9.895   6.254  20.609
24146DPPC   C1B 6597   9.495   5.854  19.539
24146DPPC   C2B 6598   9.705   5.844  19.889
24146DPPC   C3B 6599   9.995   5.854  20.329
24146DPPC   C4B 6600  10.195   5.914  20.809
24147DPPC   NC3 6601   8.215   1.554  17.979
24147DPPC   PO4 6602   8.155   1.204  18.209
24147DPPC   GL1 6603   7.895   0.996  18.499
24147DPPC   GL2 6604   7.825   0.796  18.279
24147DPPC   C1A 6605   7.675   1.164  18.739
24147DPPC   C2A 6606   7.565   1.194  19.149
24147DPPC   C3A 6607   7.235   1.184  19.489
24147DPPC   C4A 6608   6.975   1.174  19.899
24147DPPC   C1B 6609   7.535   0.646  18.459
24147DPPC   C2B 6610   7.325   0.716  18.739
24147DPPC   C3B 6611   7.115   0.836  19.159
24147DPPC   C4B 6612   6.785   0.806  19.539
24148DPPC   NC3 6613   8.685   2.264  17.549
24148DPPC   PO4 6614   8.975   2.554  17.519
24148DPPC   GL1 6615   9.315   2.524  17.739
24148DPPC   GL2 6616   9.245   2.604  17.959
24148DPPC   C1A 6617   9.665   2.644  17.789
24148DPPC   C2A 6618   9.995   2.864  17.909
24148DPPC   C3A 6619  10.355   2.954  18.199
24148DPPC   C4A 6620  10.605   2.904  18.589
24148DPPC   C1B 6621   9.495   2.714  18.259
24148DPPC   C2B 6622   9.685   2.644  18.599
24148DPPC   C3B 6623   9.845   2.644  19.079
24148DPPC   C4B 6624  10.155   2.714  19.429
24149DPPC   NC3 6625   9.995   0.286  16.559
24149DPPC   PO4 6626  10.165   0.126  16.239
24149DPPC   GL1 6627  10.555   6.514  16.199
24149DPPC   GL2 6628  10.555   0.126  16.039
24149DPPC   C1A 6629  10.735   0.006  16.489
24149DPPC   C2A 6630  11.045   0.026  16.799
24149DPPC   C3A 6631  11.385   0.096  17.129
24149DPPC   C4A 6632  11.705   0.006  17.499
24149DPPC   C1B 6633  10.845   0.306  16.189
24149DPPC   C2B 6634  11.125   0.376  16.459
24149DPPC   C3B 6635  11.505   0.396  16.779
24149DPPC   C4B 6636  11.765   0.396  17.189
24150DPPC   NC3 6637   9.715   3.544  16.249
24150DPPC   PO4 6638  10.025   3.294  16.269
24150DPPC   GL1 6639  10.315   3.474  16.369
24150DPPC   GL2 6640  10.415   3.634  16.159
24150DPPC   C1A 6641  10.515   3.524  16.639
24150DPPC   C2A 6642  10.595   3.614  17.019
24150DPPC   C3A 6643  11.005   3.624  17.279
24150DPPC   C4A 6644  11.395   3.634  17.639
24150DPPC   C1B 6645  10.665   3.884  16.319
24150DPPC   C2B 6646  10.795   3.964  16.709
24150DPPC   C3B 6647  11.135   4.014  17.019
24150DPPC   C4B 6648  11.505   4.014  17.329
24151DPPC   NC3 6649   7.655   6.554  17.019
24151DPPC   PO4 6650   7.365   0.146  16.799
24151DPPC   GL1 6651   6.955   0.126  16.879
24151DPPC   GL2 6652   6.855   0.326  16.809
24151DPPC   C1A 6653   6.755   6.504  17.119
24151DPPC   C2A 6654   6.545   6.374  17.439
24151DPPC   C3A 6655   6.205   6.434  17.779
24151DPPC   C4A 6656   5.965   6.424  18.179
24151DPPC   C1B 6657   6.645   0.356  17.099
24151DPPC   C2B 6658   6.355   0.296  17.419
24151DPPC   C3B 6659   6.055   0.276  17.779
24151DPPC   C4B 6660   5.865   0.316  18.149
24152DPPC   NC3 6661  10.355   1.384  15.739
24152DPPC   PO4 6662  10.575   1.524  15.469
24152DPPC   GL1 6663  10.805   1.864  15.559
24152DPPC   GL2 6664  10.985   1.604  15.479
24152DPPC   C1A 6665  10.895   1.964  15.899
24152DPPC   C2A 6666  11.225   2.044  16.109
24152DPPC   C3A 6667  11.575   2.084  16.479
24152DPPC   C4A 6668  11.945   2.144  16.839
24152DPPC   C1B 6669  11.215   1.604  15.799
24152DPPC   C2B 6670  11.505   1.584  16.149
24152DPPC   C3B 6671  11.815   1.654  16.459
24152DPPC   C4B 6672  12.215   1.684  16.849
24153DPPC   NC3 6673  10.195   5.654  16.099
24153DPPC   PO4 6674  10.045   5.544  16.449
24153DPPC   GL1 6675  10.305   5.234  16.699
24153DPPC   GL2 6676  10.085   5.054  16.679
24153DPPC   C1A 6677  10.555   5.254  16.969
24153DPPC   C2A 6678  10.815   5.314  17.259
24153DPPC   C3A 6679  11.145   5.374  17.639
24153DPPC   C4A 6680  11.435   5.384  18.029
24153DPPC   C1B 6681  10.215   4.884  16.969
24153DPPC   C2B 6682  10.345   5.004  17.349
24153DPPC   C3B 6683  10.715   4.984  17.659
24153DPPC   C4B 6684  11.055   5.004  18.039
24154DPPC   NC3 6685   7.965   5.144  17.989
24154DPPC   PO4 6686   7.995   4.944  18.349
24154DPPC   GL1 6687   7.575   4.994  18.449
24154DPPC   GL2 6688   7.625   4.844  18.689
24154DPPC   C1A 6689   7.245   5.164  18.579
24154DPPC   C2A 6690   7.015   5.314  18.909
24154DPPC   C3A 6691   6.745   5.254  19.299
24154DPPC   C4A 6692   6.515   5.264  19.709
24154DPPC   C1B 6693   7.285   4.744  18.899
24154DPPC   C2B 6694   7.055   4.834  19.239
24154DPPC   C3B 6695   6.785   4.894  19.679
24154DPPC   C4B 6696   6.455   4.814  20.009
24155DPPC   NC3 6697   7.895   5.894  17.289
24155DPPC   PO4 6698   7.675   5.554  17.299
24155DPPC   GL1 6699   7.315   5.524  17.489
24155DPPC   GL2 6700   7.115   5.514  17.329
24155DPPC   C1A 6701   7.155   5.464  17.809
24155DPPC   C2A 6702   7.025   5.324  18.179
24155DPPC   C3A 6703   6.715   5.294  18.539
24155DPPC   C4A 6704   6.465   5.354  18.899
24155DPPC   C1B 6705   6.845   5.474  17.539
24155DPPC   C2B 6706   6.605   5.484  17.869
24155DPPC   C3B 6707   6.295   5.454  18.259
24155DPPC   C4B 6708   5.955   5.474  18.619
24156DPPC   NC3 6709   9.765   4.094  16.799
24156DPPC   PO4 6710   9.485   4.364  16.969
24156DPPC   GL1 6711   9.725   4.334  17.319
24156DPPC   GL2 6712   9.615   4.194  17.519
24156DPPC   C1A 6713  10.005   4.534  17.379
24156DPPC   C2A 6714  10.285   4.604  17.669
24156DPPC   C3A 6715  10.615   4.634  18.059
24156DPPC   C4A 6716  10.905   4.634  18.419
24156DPPC   C1B 6717   9.845   4.174  17.759
24156DPPC   C2B 6718  10.115   4.264  18.009
24156DPPC   C3B 6719  10.465   4.264  18.339
24156DPPC   C4B 6720  10.695   4.254  18.729
24157DPPC   NC3 6721   9.215   0.256  18.389
24157DPPC   PO4 6722   9.045   0.526  18.649
24157DPPC   GL1 6723   9.305   0.646  18.929
24157DPPC   GL2 6724   9.075   0.886  18.999
24157DPPC   C1A 6725   9.365   0.536  19.259
24157DPPC   C2A 6726   9.505   0.626  19.629
24157DPPC   C3A 6727   9.865   0.656  19.909
24157DPPC   C4A 6728  10.255   0.616  20.209
24157DPPC   C1B 6729   9.195   1.036  19.369
24157DPPC   C2B 6730   9.395   1.136  19.679
24157DPPC   C3B 6731   9.745   1.164  20.049
24157DPPC   C4B 6732  10.075   1.026  20.429
24158DPPC   NC3 6733   7.885   6.004  18.219
24158DPPC   PO4 6734   8.045   6.264  18.479
24158DPPC   GL1 6735   7.705   6.374  18.579
24158DPPC   GL2 6736   7.525   6.364  18.369
24158DPPC   C1A 6737   7.515   6.444  18.929
24158DPPC   C2A 6738   7.345   6.474  19.359
24158DPPC   C3A 6739   7.105   6.534  19.759
24158DPPC   C4A 6740   6.795   6.424  20.179
24158DPPC   C1B 6741   7.275   6.474  18.579
24158DPPC   C2B 6742   7.025   6.584  18.959
24158DPPC   C3B 6743   6.805   6.584  19.349
24158DPPC   C4B 6744   6.525   6.584  19.739
24159DPPC   NC3 6745   8.495   2.824  19.359
24159DPPC   PO4 6746   8.455   2.404  19.289
24159DPPC   GL1 6747   8.835   2.194  19.479
24159DPPC   GL2 6748   8.955   2.214  19.199
24159DPPC   C1A 6749   9.065   2.214  19.749
24159DPPC   C2A 6750   9.275   2.164  20.089
24159DPPC   C3A 6751   9.765   2.054  20.459
24159DPPC   C4A 6752  10.185   1.954  20.669
24159DPPC   C1B 6753   9.265   2.384  19.399
24159DPPC   C2B 6754   9.485   2.454  19.719
24159DPPC   C3B 6755   9.725   2.514  20.089
24159DPPC   C4B 6756  10.025   2.514  20.429
24160DPPC   NC3 6757   8.765   5.244  18.349
24160DPPC   PO4 6758   8.825   5.614  18.439
24160DPPC   GL1 6759   8.985   5.594  18.819
24160DPPC   GL2 6760   9.165   5.354  18.699
24160DPPC   C1A 6761   8.945   5.614  19.149
24160DPPC   C2A 6762   9.115   5.534  19.519
24160DPPC   C3A 6763   9.365   5.494  19.979
24160DPPC   C4A 6764   9.705   5.454  20.349
24160DPPC   C1B 6765   9.355   5.424  19.019
24160DPPC   C2B 6766   9.535   5.324  19.339
24160DPPC   C3B 6767   9.795   5.374  19.689
24160DPPC   C4B 6768  10.075   5.344  20.119
24161DPPC   NC3 6769   9.925   2.404  16.869
24161DPPC   PO4 6770   9.705   2.764  16.869
24161DPPC   GL1 6771   9.865   2.964  17.219
24161DPPC   GL2 6772   9.805   2.664  17.349
24161DPPC   C1A 6773  10.135   2.934  17.499
24161DPPC   C2A 6774  10.485   2.854  17.709
24161DPPC   C3A 6775  10.845   2.844  18.029
24161DPPC   C4A 6776  11.125   2.904  18.399
24161DPPC   C1B 6777  10.155   2.524  17.369
24161DPPC   C2B 6778  10.545   2.404  17.459
24161DPPC   C3B 6779  10.865   2.394  17.799
24161DPPC   C4B 6780  11.115   2.424  18.179
24162DPPC   NC3 6781   7.515   1.046  17.679
24162DPPC   PO4 6782   7.815   1.284  17.759
24162DPPC   GL1 6783   7.665   1.244  18.079
24162DPPC   GL2 6784   7.735   1.484  18.259
24162DPPC   C1A 6785   7.405   1.214  18.319
24162DPPC   C2A 6786   7.145   1.224  18.679
24162DPPC   C3A 6787   6.915   1.274  19.069
24162DPPC   C4A 6788   6.725   1.264  19.519
24162DPPC   C1B 6789   7.385   1.674  18.299
24162DPPC   C2B 6790   7.075   1.674  18.549
24162DPPC   C3B 6791   6.725   1.704  18.899
24162DPPC   C4B 6792   6.495   1.714  19.279
24163DPPC   NC3 6793   8.635   2.054  18.969
24163DPPC   PO4 6794   8.255   2.174  18.809
24163DPPC   GL1 6795   8.075   2.174  19.209
24163DPPC   GL2 6796   8.025   1.884  19.079
24163DPPC   C1A 6797   7.795   2.394  19.359
24163DPPC   C2A 6798   7.605   2.434  19.699
24163DPPC   C3A 6799   7.325   2.444  20.059
24163DPPC   C4A 6800   7.045   2.464  20.509
24163DPPC   C1B 6801   7.835   1.624  19.289
24163DPPC   C2B 6802   7.525   1.574  19.629
24163DPPC   C3B 6803   7.245   1.574  20.029
24163DPPC   C4B 6804   7.025   1.554  20.429
24164DPPC   NC3 6805  10.815   4.724  15.289
24164DPPC   PO4 6806  10.615   5.054  15.429
24164DPPC   GL1 6807  10.765   5.094  15.809
24164DPPC   GL2 6808  10.655   4.894  15.989
24164DPPC   C1A 6809  11.035   5.174  16.039
24164DPPC   C2A 6810  11.255   5.224  16.359
24164DPPC   C3A 6811  11.545   5.264  16.729
24164DPPC   C4A 6812  11.915   5.224  17.109
24164DPPC   C1B 6813  10.795   4.954  16.329
24164DPPC   C2B 6814  11.075   4.804  16.609
24164DPPC   C3B 6815  11.375   4.804  16.959
24164DPPC   C4B 6816  11.665   4.844  17.329
24165DPPC   NC3 6817   8.635   5.644  17.779
24165DPPC   PO4 6818   8.895   5.334  17.859
24165DPPC   GL1 6819   9.235   5.344  17.889
24165DPPC   GL2 6820   9.225   5.244  18.169
24165DPPC   C1A 6821   9.535   5.564  17.909
24165DPPC   C2A 6822   9.745   5.654  18.299
24165DPPC   C3A 6823  10.035   5.684  18.689
24165DPPC   C4A 6824  10.315   5.754  19.069
24165DPPC   C1B 6825   9.515   5.264  18.359
24165DPPC   C2B 6826   9.705   5.334  18.699
24165DPPC   C3B 6827   9.975   5.324  19.139
24165DPPC   C4B 6828  10.235   5.294  19.579
24166DPPC   NC3 6829   8.355   4.254  18.729
24166DPPC   PO4 6830   8.125   4.004  18.849
24166DPPC   GL1 6831   7.675   4.014  18.899
24166DPPC   GL2 6832   7.615   3.914  18.689
24166DPPC   C1A 6833   7.405   3.884  19.129
24166DPPC   C2A 6834   7.175   3.884  19.449
24166DPPC   C3A 6835   6.885   3.864  19.829
24166DPPC   C4A 6836   6.725   3.844  20.219
24166DPPC   C1B 6837   7.225   3.934  18.729
24166DPPC   C2B 6838   6.935   3.934  19.029
24166DPPC   C3B 6839   6.685   3.984  19.409
24166DPPC   C4B 6840   6.435   4.034  19.769
24167DPPC   NC3 6841   8.495   5.934  18.539
24167DPPC   PO4 6842   8.155   5.764  18.609
24167DPPC   GL1 6843   7.775   5.984  18.839
24167DPPC   GL2 6844   7.695   5.664  18.829
24167DPPC   C1A 6845   7.595   6.074  19.149
24167DPPC   C2A 6846   7.405   5.974  19.519
24167DPPC   C3A 6847   7.175   6.054  19.939
24167DPPC   C4A 6848   6.915   5.994  20.339
24167DPPC   C1B 6849   7.355   5.664  18.969
24167DPPC   C2B 6850   7.135   5.654  19.269
24167DPPC   C3B 6851   6.915   5.604  19.669
24167DPPC   C4B 6852   6.715   5.604  20.089
24168DPPC   NC3 6853   9.115   5.364  16.779
24168DPPC   PO4 6854   9.335   5.234  17.059
24168DPPC   GL1 6855   9.545   5.364  17.459
24168DPPC   GL2 6856   9.615   5.104  17.409
24168DPPC   C1A 6857   9.845   5.544  17.609
24168DPPC   C2A 6858  10.095   5.564  17.939
24168DPPC   C3A 6859  10.345   5.574  18.329
24168DPPC   C4A 6860  10.655   5.604  18.739
24168DPPC   C1B 6861   9.935   5.054  17.579
24168DPPC   C2B 6862  10.225   5.064  17.849
24168DPPC   C3B 6863  10.585   5.074  18.189
24168DPPC   C4B 6864  10.815   5.114  18.589
24169DPPC   NC3 6865  11.295   4.974  14.699
24169DPPC   PO4 6866  11.015   5.084  14.979
24169DPPC   GL1 6867  11.055   5.194  15.389
24169DPPC   GL2 6868  11.115   4.974  15.489
24169DPPC   C1A 6869  11.095   5.454  15.659
24169DPPC   C2A 6870  11.335   5.534  15.979
24169DPPC   C3A 6871  11.675   5.604  16.289
24169DPPC   C4A 6872  11.965   5.614  16.739
24169DPPC   C1B 6873  11.365   5.024  15.819
24169DPPC   C2B 6874  11.645   5.144  16.069
24169DPPC   C3B 6875  12.005   5.114  16.359
24169DPPC   C4B 6876  12.285   5.204  16.759
24170DPPC   NC3 6877   9.905   0.996  15.849
24170DPPC   PO4 6878  10.145   1.086  16.139
24170DPPC   GL1 6879  10.535   1.184  16.229
24170DPPC   GL2 6880  10.665   0.946  16.099
24170DPPC   C1A 6881  10.765   1.264  16.469
24170DPPC   C2A 6882  10.975   1.354  16.799
24170DPPC   C3A 6883  11.335   1.384  17.189
24170DPPC   C4A 6884  11.665   1.424  17.569
24170DPPC   C1B 6885  10.955   0.846  16.339
24170DPPC   C2B 6886  11.165   0.926  16.669
24170DPPC   C3B 6887  11.465   0.906  17.029
24170DPPC   C4B 6888  11.765   0.976  17.429
24171DPPC   NC3 6889   8.955   1.324  18.979
24171DPPC   PO4 6890   8.855   1.634  18.779
24171DPPC   GL1 6891   9.145   1.814  18.839
24171DPPC   GL2 6892   9.325   1.824  18.659
24171DPPC   C1A 6893   9.275   1.914  19.169
24171DPPC   C2A 6894   9.485   1.984  19.539
24171DPPC   C3A 6895   9.805   1.954  19.879
24171DPPC   C4A 6896  10.225   1.994  20.139
24171DPPC   C1B 6897   9.625   1.814  18.859
24171DPPC   C2B 6898   9.845   1.844  19.199
24171DPPC   C3B 6899  10.135   1.794  19.479
24171DPPC   C4B 6900  10.495   1.824  19.789
24172DPPC   NC3 6901   9.005   4.064  16.759
24172DPPC   PO4 6902   9.255   3.794  16.939
24172DPPC   GL1 6903   9.595   3.924  17.209
24172DPPC   GL2 6904   9.485   3.714  17.349
24172DPPC   C1A 6905   9.935   3.964  17.219
24172DPPC   C2A 6906  10.275   4.184  17.439
24172DPPC   C3A 6907  10.605   4.144  17.789
24172DPPC   C4A 6908  10.935   4.194  18.179
24172DPPC   C1B 6909   9.785   3.684  17.569
24172DPPC   C2B 6910  10.125   3.824  17.769
24172DPPC   C3B 6911  10.425   3.784  18.139
24172DPPC   C4B 6912  10.765   3.734  18.489
24173DPPC   NC3 6913  11.065   2.464  15.299
24173DPPC   PO4 6914  11.115   2.454  14.899
24173DPPC   GL1 6915  11.465   2.274  14.709
24173DPPC   GL2 6916  11.585   2.594  14.789
24173DPPC   C1A 6917  11.675   2.104  14.899
24173DPPC   C2A 6918  11.745   1.954  15.279
24173DPPC   C3A 6919  12.125   1.934  15.569
24173DPPC   C4A 6920  12.465   1.944  15.859
24173DPPC   C1B 6921  11.865   2.724  14.989
24173DPPC   C2B 6922  12.095   2.764  15.329
24173DPPC   C3B 6923  12.435   2.744  15.659
24173DPPC   C4B 6924  12.715   2.704  16.049
24174DPPC   NC3 6925   9.485   2.034  16.239
24174DPPC   PO4 6926   9.795   2.024  16.439
24174DPPC   GL1 6927  10.055   1.874  16.779
24174DPPC   GL2 6928  10.185   1.974  16.449
24174DPPC   C1A 6929  10.205   2.084  17.079
24174DPPC   C2A 6930  10.585   1.924  17.279
24174DPPC   C3A 6931  10.955   1.884  17.649
24174DPPC   C4A 6932  11.245   1.984  18.059
24174DPPC   C1B 6933  10.415   2.204  16.619
24174DPPC   C2B 6934  10.655   2.314  16.889
24174DPPC   C3B 6935  10.955   2.364  17.229
24174DPPC   C4B 6936  11.305   2.354  17.599
24175DPPC   NC3 6937   8.695   3.144  18.089
24175DPPC   PO4 6938   8.655   3.454  18.369
24175DPPC   GL1 6939   9.045   3.604  18.539
24175DPPC   GL2 6940   8.905   3.884  18.609
24175DPPC   C1A 6941   9.305   3.554  18.799
24175DPPC   C2A 6942   9.515   3.574  19.169
24175DPPC   C3A 6943   9.885   3.564  19.509
24175DPPC   C4A 6944  10.195   3.614  19.889
24175DPPC   C1B 6945   9.085   4.064  18.819
24175DPPC   C2B 6946   9.365   4.094  19.109
24175DPPC   C3B 6947   9.535   4.054  19.509
24175DPPC   C4B 6948   9.775   3.854  19.899
24176DPPC   NC3 6949   8.465   2.644  18.769
24176DPPC   PO4 6950   8.825   2.534  18.879
24176DPPC   GL1 6951   8.985   2.774  19.229
24176DPPC   GL2 6952   9.055   3.034  19.089
24176DPPC   C1A 6953   8.925   2.754  19.589
24176DPPC   C2A 6954   8.895   2.674  19.939
24176DPPC   C3A 6955   8.895   2.354  20.279
24176DPPC   C4A 6956   8.895   2.494  20.769
24176DPPC   C1B 6957   9.195   3.234  19.299
24176DPPC   C2B 6958   9.415   3.364  19.629
24176DPPC   C3B 6959   9.755   3.324  20.009
24176DPPC   C4B 6960   9.975   3.604  20.369
24177DPPC   NC3 6961  10.125   3.464  15.359
24177DPPC   PO4 6962  10.475   3.574  15.469
24177DPPC   GL1 6963  10.705   3.244  15.709
24177DPPC   GL2 6964  11.015   3.344  15.669
24177DPPC   C1A 6965  10.705   3.374  16.019
24177DPPC   C2A 6966  10.905   3.484  16.369
24177DPPC   C3A 6967  11.195   3.554  16.769
24177DPPC   C4A 6968  11.515   3.494  17.129
24177DPPC   C1B 6969  11.155   3.424  15.969
24177DPPC   C2B 6970  11.435   3.484  16.249
24177DPPC   C3B 6971  11.725   3.494  16.669
24177DPPC   C4B 6972  12.025   3.574  17.109
24178DPPC   NC3 6973   8.975   1.684  18.309
24178DPPC   PO4 6974   9.055   1.634  17.919
24178DPPC   GL1 6975   9.425   1.554  18.039
24178DPPC   GL2 6976   9.425   1.804  18.219
24178DPPC   C1A 6977   9.785   1.624  17.889
24178DPPC   C2A 6978  10.175   1.594  18.009
24178DPPC   C3A 6979  10.495   1.604  18.369
24178DPPC   C4A 6980  10.845   1.584  18.729
24178DPPC   C1B 6981   9.725   1.734  18.389
24178DPPC   C2B 6982  10.045   1.734  18.649
24178DPPC   C3B 6983  10.375   1.714  18.999
24178DPPC   C4B 6984  10.775   1.724  19.339
24179DPPC   NC3 6985   9.715   0.956  16.929
24179DPPC   PO4 6986   9.435   0.786  17.139
24179DPPC   GL1 6987   9.605   0.596  17.489
24179DPPC   GL2 6988   9.665   0.366  17.419
24179DPPC   C1A 6989   9.805   0.666  17.779
24179DPPC   C2A 6990  10.015   0.746  18.109
24179DPPC   C3A 6991  10.415   0.806  18.419
24179DPPC   C4A 6992  10.695   0.796  18.819
24179DPPC   C1B 6993   9.945   0.256  17.599
24179DPPC   C2B 6994  10.235   0.276  17.939
24179DPPC   C3B 6995  10.495   0.296  18.349
24179DPPC   C4B 6996  10.805   0.346  18.759
24180DPPC   NC3 6997   7.585   5.134  17.539
24180DPPC   PO4 6998   7.365   5.174  17.199
24180DPPC   GL1 6999   7.095   5.114  17.539
24180DPPC   GL2 7000   7.205   4.874  17.659
24180DPPC   C1A 7001   6.865   5.094  17.819
24180DPPC   C2A 7002   6.565   5.074  18.109
24180DPPC   C3A 7003   6.325   5.034  18.469
24180DPPC   C4A 7004   6.035   5.074  18.889
24180DPPC   C1B 7005   6.975   4.654  17.809
24180DPPC   C2B 7006   6.725   4.544  18.129
24180DPPC   C3B 7007   6.465   4.504  18.509
24180DPPC   C4B 7008   6.215   4.464  18.919
24181DPPC   NC3 7009   9.175   4.064  17.359
24181DPPC   PO4 7010   9.195   4.394  17.559
24181DPPC   GL1 7011   9.485   4.424  17.889
24181DPPC   GL2 7012   9.645   4.704  17.699
24181DPPC   C1A 7013   9.625   4.394  18.249
24181DPPC   C2A 7014   9.995   4.364  18.529
24181DPPC   C3A 7015  10.265   4.404  18.909
24181DPPC   C4A 7016  10.515   4.434  19.299
24181DPPC   C1B 7017   9.915   4.674  17.899
24181DPPC   C2B 7018  10.145   4.744  18.259
24181DPPC   C3B 7019  10.495   4.784  18.619
24181DPPC   C4B 7020  10.805   4.714  18.959
24182DPPC   NC3 7021   8.595   4.794  18.959
24182DPPC   PO4 7022   8.825   5.084  18.849
24182DPPC   GL1 7023   8.905   5.124  19.269
24182DPPC   GL2 7024   8.675   5.234  19.359
24182DPPC   C1A 7025   9.195   5.094  19.509
24182DPPC   C2A 7026   9.455   5.034  19.859
24182DPPC   C3A 7027   9.745   4.984  20.259
24182DPPC   C4A 7028  10.025   4.884  20.689
24182DPPC   C1B 7029   8.655   5.314  19.679
24182DPPC   C2B 7030   8.505   5.324  20.039
24182DPPC   C3B 7031   8.135   5.324  20.409
24182DPPC   C4B 7032   7.805   5.194  20.769
24183DPPC   NC3 7033   7.865   2.984  18.559
24183DPPC   PO4 7034   8.065   2.614  18.519
24183DPPC   GL1 7035   7.715   2.454  18.719
24183DPPC   GL2 7036   7.535   2.674  18.489
24183DPPC   C1A 7037   7.555   2.454  19.009
24183DPPC   C2A 7038   7.275   2.454  19.329
24183DPPC   C3A 7039   6.955   2.524  19.689
24183DPPC   C4A 7040   6.695   2.594  20.049
24183DPPC   C1B 7041   7.315   2.674  18.689
24183DPPC   C2B 7042   7.015   2.624  18.929
24183DPPC   C3B 7043   6.645   2.574  19.259
24183DPPC   C4B 7044   6.395   2.684  19.649
24184DPPC   NC3 7045  10.065   2.214  15.589
24184DPPC   PO4 7046  10.375   2.004  15.709
24184DPPC   GL1 7047  10.445   1.684  16.069
24184DPPC   GL2 7048  10.695   1.554  15.969
24184DPPC   C1A 7049  10.565   1.644  16.399
24184DPPC   C2A 7050  10.755   1.764  16.799
24184DPPC   C3A 7051  11.115   1.844  17.159
24184DPPC   C4A 7052  11.415   1.874  17.559
24184DPPC   C1B 7053  10.955   1.694  16.199
24184DPPC   C2B 7054  11.175   1.744  16.529
24184DPPC   C3B 7055  11.535   1.804  16.869
24184DPPC   C4B 7056  11.905   1.774  17.209
24185DPPC   NC3 7057   9.635   5.334  16.209
24185DPPC   PO4 7058   9.685   5.224  16.609
24185DPPC   GL1 7059   9.885   5.544  16.879
24185DPPC   GL2 7060   9.815   5.374  17.019
24185DPPC   C1A 7061  10.245   5.634  16.929
24185DPPC   C2A 7062  10.515   5.824  17.179
24185DPPC   C3A 7063  10.845   5.794  17.529
24185DPPC   C4A 7064  11.195   5.814  17.909
24185DPPC   C1B 7065  10.115   5.364  17.249
24185DPPC   C2B 7066  10.385   5.484  17.509
24185DPPC   C3B 7067  10.695   5.484  17.929
24185DPPC   C4B 7068  11.025   5.444  18.279
24186DPPC   NC3 7069   9.535   6.244  16.419
24186DPPC   PO4 7070   9.735   6.484  16.649
24186DPPC   GL1 7071  10.125   6.434  16.829
24186DPPC   GL2 7072  10.305   6.544  16.689
24186DPPC   C1A 7073  10.275   6.324  17.119
24186DPPC   C2A 7074  10.535   6.234  17.449
24186DPPC   C3A 7075  10.815   6.274  17.859
24186DPPC   C4A 7076  11.155   6.344  18.199
24186DPPC   C1B 7077  10.495   0.116  16.909
24186DPPC   C2B 7078  10.775   0.116  17.219
24186DPPC   C3B 7079  11.135   0.116  17.599
24186DPPC   C4B 7080  11.425   0.126  17.999
24187DPPC   NC3 7081   9.065   3.564  17.419
24187DPPC   PO4 7082   8.875   3.824  17.669
24187DPPC   GL1 7083   9.185   3.944  17.949
24187DPPC   GL2 7084   9.405   3.904  17.819
24187DPPC   C1A 7085   9.295   3.914  18.279
24187DPPC   C2A 7086   9.555   4.024  18.539
24187DPPC   C3A 7087   9.855   4.034  18.869
24187DPPC   C4A 7088  10.085   3.964  19.309
24187DPPC   C1B 7089   9.685   3.924  18.049
24187DPPC   C2B 7090   9.995   3.924  18.319
24187DPPC   C3B 7091  10.315   3.924  18.729
24187DPPC   C4B 7092  10.585   3.824  19.109
24188DPPC   NC3 7093  10.635   0.556  15.809
24188DPPC   PO4 7094  10.295   0.576  15.959
24188DPPC   GL1 7095  10.305   0.656  16.349
24188DPPC   GL2 7096  10.445   0.436  16.499
24188DPPC   C1A 7097  10.515   0.876  16.509
24188DPPC   C2A 7098  10.705   0.986  16.849
24188DPPC   C3A 7099  11.015   0.986  17.209
24188DPPC   C4A 7100  11.295   0.976  17.619
24188DPPC   C1B 7101  10.765   0.536  16.709
24188DPPC   C2B 7102  11.035   0.546  16.969
24188DPPC   C3B 7103  11.265   0.556  17.389
24188DPPC   C4B 7104  11.625   0.556  17.729
24189DPPC   NC3 7105   8.725   3.934  18.139
24189DPPC   PO4 7106   8.425   3.894  18.429
24189DPPC   GL1 7107   8.535   3.854  18.909
24189DPPC   GL2 7108   8.705   3.644  18.859
24189DPPC   C1A 7109   8.545   3.914  19.279
24189DPPC   C2A 7110   8.465   4.064  19.649
24189DPPC   C3A 7111   8.245   4.014  20.079
24189DPPC   C4A 7112   8.145   3.794  20.459
24189DPPC   C1B 7113   8.955   3.674  19.149
24189DPPC   C2B 7114   9.065   3.684  19.559
24189DPPC   C3B 7115   9.125   3.724  20.019
24189DPPC   C4B 7116   9.115   3.904  20.489
24190DPPC   NC3 7117   9.715   4.764  16.479
24190DPPC   PO4 7118   9.835   4.384  16.419
24190DPPC   GL1 7119  10.175   4.284  16.609
24190DPPC   GL2 7120  10.105   4.504  16.849
24190DPPC   C1A 7121  10.525   4.344  16.679
24190DPPC   C2A 7122  10.855   4.404  16.899
24190DPPC   C3A 7123  11.245   4.454  17.279
24190DPPC   C4A 7124  11.555   4.384  17.629
24190DPPC   C1B 7125  10.405   4.524  17.109
24190DPPC   C2B 7126  10.685   4.474  17.399
24190DPPC   C3B 7127  11.085   4.554  17.749
24190DPPC   C4B 7128  11.355   4.554  18.179
24191DPPC   NC3 7129   8.755   0.906  18.599
24191DPPC   PO4 7130   8.945   1.214  18.459
24191DPPC   GL1 7131   9.255   1.384  18.609
24191DPPC   GL2 7132   9.405   1.284  18.409
24191DPPC   C1A 7133   9.415   1.424  18.969
24191DPPC   C2A 7134   9.405   1.494  19.349
24191DPPC   C3A 7135   9.715   1.524  19.649
24191DPPC   C4A 7136  10.115   1.474  19.919
24191DPPC   C1B 7137   9.685   1.314  18.689
24191DPPC   C2B 7138  10.005   1.364  19.009
24191DPPC   C3B 7139  10.315   1.394  19.359
24191DPPC   C4B 7140  10.655   1.344  19.679
24192DPPC   NC3 7141   9.075   1.534  17.149
24192DPPC   PO4 7142   9.425   1.394  17.069
24192DPPC   GL1 7143   9.775   1.244  17.319
24192DPPC   GL2 7144   9.725   1.006  17.449
24192DPPC   C1A 7145  10.135   1.096  17.249
24192DPPC   C2A 7146  10.505   1.026  17.419
24192DPPC   C3A 7147  10.815   1.026  17.769
24192DPPC   C4A 7148  11.165   1.116  18.139
24192DPPC   C1B 7149  10.065   1.136  17.679
24192DPPC   C2B 7150  10.385   1.106  17.979
24192DPPC   C3B 7151  10.715   1.164  18.309
24192DPPC   C4B 7152  11.045   1.146  18.659
24193DPPC   NC3 7153  10.405   1.934  15.179
24193DPPC   PO4 7154  10.765   2.084  15.159
24193DPPC   GL1 7155  11.215   1.944  15.399
24193DPPC   GL2 7156  11.275   2.114  15.139
24193DPPC   C1A 7157  11.465   2.034  15.659
24193DPPC   C2A 7158  11.725   2.024  16.019
24193DPPC   C3A 7159  12.095   2.014  16.309
24193DPPC   C4A 7160  12.425   2.024  16.629
24193DPPC   C1B 7161  11.525   2.334  15.309
24193DPPC   C2B 7162  11.925   2.354  15.499
24193DPPC   C3B 7163  12.155   2.364  15.879
24193DPPC   C4B 7164  12.475   2.354  16.219
24194DPPC   NC3 7165  10.025   5.974  16.729
24194DPPC   PO4 7166  10.035   6.124  16.379
24194DPPC   GL1 7167  10.385   6.034  16.419
24194DPPC   GL2 7168  10.445   5.794  16.569
24194DPPC   C1A 7169  10.555   6.184  16.689
24194DPPC   C2A 7170  10.825   6.224  16.989
24194DPPC   C3A 7171  11.155   6.224  17.349
24194DPPC   C4A 7172  11.365   6.234  17.759
24194DPPC   C1B 7173  10.735   5.744  16.779
24194DPPC   C2B 7174  11.025   5.754  17.079
24194DPPC   C3B 7175  11.395   5.774  17.449
24194DPPC   C4B 7176  11.725   5.824  17.879
24195DPPC   NC3 7177   9.555   4.524  15.899
24195DPPC   PO4 7178   9.865   4.704  16.029
24195DPPC   GL1 7179  10.315   4.584  16.219
24195DPPC   GL2 7180  10.245   4.694  16.489
24195DPPC   C1A 7181  10.685   4.504  16.259
24195DPPC   C2A 7182  11.085   4.344  16.459
24195DPPC   C3A 7183  11.415   4.364  16.769
24195DPPC   C4A 7184  11.795   4.404  17.129
24195DPPC   C1B 7185  10.605   4.804  16.689
24195DPPC   C2B 7186  10.815   4.844  17.059
24195DPPC   C3B 7187  11.105   4.964  17.359
24195DPPC   C4B 7188  11.435   4.884  17.799
24196DPPC   NC3 7189   9.165   1.136  18.019
24196DPPC   PO4 7190   9.285   0.996  17.669
24196DPPC   GL1 7191   9.645   1.146  17.909
24196DPPC   GL2 7192   9.605   0.916  18.049
24196DPPC   C1A 7193   9.895   1.234  18.139
24196DPPC   C2A 7194  10.145   1.244  18.429
24196DPPC   C3A 7195  10.445   1.264  18.749
24196DPPC   C4A 7196  10.785   1.254  19.079
24196DPPC   C1B 7197   9.715   0.946  18.429
24196DPPC   C2B 7198   9.955   0.896  18.729
24196DPPC   C3B 7199  10.215   0.946  19.149
24196DPPC   C4B 7200  10.575   0.886  19.389
35995DPPC   NC3 7201  15.275   3.884  16.869
35995DPPC   PO4 7202  15.075   4.084  17.159
35995DPPC   GL1 7203  14.625   4.164  16.989
35995DPPC   GL2 7204  14.855   4.164  16.719
35995DPPC   C1A 7205  14.275   4.004  16.949
35995DPPC   C2A 7206  13.975   3.984  16.699
35995DPPC   C3A 7207  13.675   3.984  16.309
35995DPPC   C4A 7208  13.355   3.904  15.949
35995DPPC   C1B 7209  14.585   4.104  16.459
35995DPPC   C2B 7210  14.245   3.924  16.309
35995DPPC   C3B 7211  14.025   3.864  15.889
35995DPPC   C4B 7212  13.615   3.814  15.479
35996DPPC   NC3 7213  14.205   4.254  17.789
35996DPPC   PO4 7214  14.235   4.464  17.469
35996DPPC   GL1 7215  14.255   4.434  17.089
35996DPPC   GL2 7216  14.325   4.764  17.099
35996DPPC   C1A 7217  13.945   4.434  16.979
35996DPPC   C2A 7218  13.675   4.444  16.609
35996DPPC   C3A 7219  13.355   4.374  16.219
35996DPPC   C4A 7220  13.025   4.414  15.839
35996DPPC   C1B 7221  14.155   4.854  16.809
35996DPPC   C2B 7222  13.955   4.854  16.449
35996DPPC   C3B 7223  13.655   4.794  16.089
35996DPPC   C4B 7224  13.375   4.764  15.719
35997DPPC   NC3 7225  16.825   2.724  14.139
35997DPPC   PO4 7226  17.005   2.374  14.079
35997DPPC   GL1 7227  16.705   2.144  13.959
35997DPPC   GL2 7228  16.575   2.374  13.859
35997DPPC   C1A 7229  16.775   2.024  13.619
35997DPPC   C2A 7230  16.805   1.964  13.219
35997DPPC   C3A 7231  16.555   1.934  12.879
35997DPPC   C4A 7232  16.225   1.884  12.559
35997DPPC   C1B 7233  16.305   2.424  13.649
35997DPPC   C2B 7234  16.035   2.474  13.349
35997DPPC   C3B 7235  15.735   2.404  12.999
35997DPPC   C4B 7236  15.435   2.384  12.629
35998DPPC   NC3 7237  16.845   3.564  14.289
35998DPPC   PO4 7238  16.905   3.164  14.389
35998DPPC   GL1 7239  16.645   3.124  14.079
35998DPPC   GL2 7240  16.435   3.284  14.119
35998DPPC   C1A 7241  16.455   2.874  13.909
35998DPPC   C2A 7242  16.135   2.924  13.679
35998DPPC   C3A 7243  15.755   2.924  13.319
35998DPPC   C4A 7244  15.565   2.894  12.939
35998DPPC   C1B 7245  16.195   3.344  13.869
35998DPPC   C2B 7246  15.905   3.354  13.569
35998DPPC   C3B 7247  15.565   3.364  13.199
35998DPPC   C4B 7248  15.265   3.284  12.779
35999DPPC   NC3 7249  14.665   5.584  17.439
35999DPPC   PO4 7250  14.445   5.384  17.699
35999DPPC   GL1 7251  14.035   5.284  17.649
35999DPPC   GL2 7252  14.085   5.014  17.499
35999DPPC   C1A 7253  13.805   5.474  17.469
35999DPPC   C2A 7254  13.655   5.784  17.229
35999DPPC   C3A 7255  13.305   5.884  16.919
35999DPPC   C4A 7256  12.975   5.934  16.539
35999DPPC   C1B 7257  13.895   4.864  17.219
35999DPPC   C2B 7258  13.635   4.864  16.869
35999DPPC   C3B 7259  13.345   4.864  16.469
35999DPPC   C4B 7260  12.995   4.914  16.069
36000DPPC   NC3 7261  15.775   2.854  15.829
36000DPPC   PO4 7262  15.785   2.564  15.609
36000DPPC   GL1 7263  15.385   2.544  15.499
36000DPPC   GL2 7264  15.415   2.254  15.539
36000DPPC   C1A 7265  15.125   2.684  15.249
36000DPPC   C2A 7266  14.845   2.624  14.909
36000DPPC   C3A 7267  14.545   2.734  14.589
36000DPPC   C4A 7268  14.205   2.784  14.199
36000DPPC   C1B 7269  15.405   1.954  15.269
36000DPPC   C2B 7270  15.235   1.774  14.939
36000DPPC   C3B 7271  14.905   1.764  14.579
36000DPPC   C4B 7272  14.575   1.784  14.239
36001DPPC   NC3 7273  18.125   1.204  13.279
36001DPPC   PO4 7274  17.815   1.016  13.449
36001DPPC   GL1 7275  17.405   1.294  13.359
36001DPPC   GL2 7276  17.455   1.086  13.029
36001DPPC   C1A 7277  17.095   1.454  13.259
36001DPPC   C2A 7278  16.795   1.414  12.979
36001DPPC   C3A 7279  16.535   1.424  12.609
36001DPPC   C4A 7280  16.185   1.414  12.279
36001DPPC   C1B 7281  17.245   1.116  12.749
36001DPPC   C2B 7282  17.025   1.264  12.489
36001DPPC   C3B 7283  16.755   1.364  12.159
36001DPPC   C4B 7284  16.435   1.274  11.779
36002DPPC   NC3 7285  16.565   2.964  14.919
36002DPPC   PO4 7286  16.355   2.844  15.209
36002DPPC   GL1 7287  15.975   2.644  15.099
36002DPPC   GL2 7288  15.965   2.394  14.919
36002DPPC   C1A 7289  15.615   2.784  15.079
36002DPPC   C2A 7290  15.345   2.714  14.799
36002DPPC   C3A 7291  15.045   2.634  14.469
36002DPPC   C4A 7292  14.685   2.724  14.139
36002DPPC   C1B 7293  15.665   2.344  14.719
36002DPPC   C2B 7294  15.315   2.224  14.519
36002DPPC   C3B 7295  14.915   2.184  14.209
36002DPPC   C4B 7296  14.655   2.214  13.839
36003DPPC   NC3 7297  16.165   2.364  15.369
36003DPPC   PO4 7298  16.265   2.014  15.289
36003DPPC   GL1 7299  15.905   1.904  15.149
36003DPPC   GL2 7300  15.785   2.134  15.289
36003DPPC   C1A 7301  15.645   1.954  14.889
36003DPPC   C2A 7302  15.555   1.764  14.479
36003DPPC   C3A 7303  15.165   1.714  14.149
36003DPPC   C4A 7304  14.865   1.684  13.779
36003DPPC   C1B 7305  15.545   2.384  15.129
36003DPPC   C2B 7306  15.165   2.244  14.989
36003DPPC   C3B 7307  14.775   2.184  14.669
36003DPPC   C4B 7308  14.425   2.314  14.299
36004DPPC   NC3 7309  14.995   5.824  16.569
36004DPPC   PO4 7310  14.875   6.004  16.239
36004DPPC   GL1 7311  14.715   6.004  15.879
36004DPPC   GL2 7312  14.395   6.094  15.989
36004DPPC   C1A 7313  14.525   5.944  15.569
36004DPPC   C2A 7314  14.265   5.964  15.259
36004DPPC   C3A 7315  13.895   5.904  14.949
36004DPPC   C4A 7316  13.675   6.044  14.499
36004DPPC   C1B 7317  14.125   6.044  15.839
36004DPPC   C2B 7318  13.845   6.084  15.539
36004DPPC   C3B 7319  13.525   6.034  15.229
36004DPPC   C4B 7320  13.245   6.004  14.829
36005DPPC   NC3 7321  15.275   1.036  16.909
36005DPPC   PO4 7322  15.085   0.756  17.119
36005DPPC   GL1 7323  14.725   0.726  16.949
36005DPPC   GL2 7324  14.525   0.716  17.039
36005DPPC   C1A 7325  14.675   0.986  16.669
36005DPPC   C2A 7326  14.405   1.156  16.429
36005DPPC   C3A 7327  14.085   1.224  16.079
36005DPPC   C4A 7328  13.765   1.274  15.719
36005DPPC   C1B 7329  14.275   0.856  16.779
36005DPPC   C2B 7330  14.015   0.866  16.429
36005DPPC   C3B 7331  13.685   0.856  16.079
36005DPPC   C4B 7332  13.395   0.946  15.749
36006DPPC   NC3 7333  15.175   1.474  17.409
36006DPPC   PO4 7334  14.915   1.714  17.349
36006DPPC   GL1 7335  14.505   1.744  17.259
36006DPPC   GL2 7336  14.565   1.534  17.059
36006DPPC   C1A 7337  14.185   1.844  17.089
36006DPPC   C2A 7338  13.925   1.814  16.839
36006DPPC   C3A 7339  13.615   1.814  16.489
36006DPPC   C4A 7340  13.345   1.864  16.089
36006DPPC   C1B 7341  14.375   1.684  16.729
36006DPPC   C2B 7342  14.155   1.734  16.369
36006DPPC   C3B 7343  13.885   1.674  16.009
36006DPPC   C4B 7344  13.505   1.704  15.649
36007DPPC   NC3 7345  14.795   4.544  17.309
36007DPPC   PO4 7346  14.865   4.874  17.129
36007DPPC   GL1 7347  14.635   4.864  16.789
36007DPPC   GL2 7348  14.545   4.574  16.799
36007DPPC   C1A 7349  14.415   5.074  16.529
36007DPPC   C2A 7350  14.225   5.274  16.249
36007DPPC   C3A 7351  13.915   5.174  15.889
36007DPPC   C4A 7352  13.595   5.214  15.529
36007DPPC   C1B 7353  14.205   4.414  16.649
36007DPPC   C2B 7354  14.045   4.374  16.289
36007DPPC   C3B 7355  13.745   4.304  15.889
36007DPPC   C4B 7356  13.445   4.294  15.529
36008DPPC   NC3 7357  16.575   1.574  14.569
36008DPPC   PO4 7358  16.865   1.264  14.549
36008DPPC   GL1 7359  16.695   1.096  14.169
36008DPPC   GL2 7360  16.535   1.136  14.369
36008DPPC   C1A 7361  16.435   1.116  13.909
36008DPPC   C2A 7362  16.155   1.146  13.569
36008DPPC   C3A 7363  15.895   1.184  13.239
36008DPPC   C4A 7364  15.555   1.116  12.889
36008DPPC   C1B 7365  16.195   1.116  14.319
36008DPPC   C2B 7366  15.925   1.174  14.019
36008DPPC   C3B 7367  15.635   1.116  13.679
36008DPPC   C4B 7368  15.325   1.204  13.379
36009DPPC   NC3 7369  14.485   3.544  17.129
36009DPPC   PO4 7370  14.775   3.694  16.909
36009DPPC   GL1 7371  14.495   3.664  16.639
36009DPPC   GL2 7372  14.595   3.514  16.419
36009DPPC   C1A 7373  14.205   3.514  16.589
36009DPPC   C2A 7374  13.885   3.444  16.359
36009DPPC   C3A 7375  13.625   3.484  15.949
36009DPPC   C4A 7376  13.295   3.414  15.599
36009DPPC   C1B 7377  14.355   3.394  16.199
36009DPPC   C2B 7378  14.145   3.404  15.879
36009DPPC   C3B 7379  13.875   3.384  15.499
36009DPPC   C4B 7380  13.515   3.404  15.169
36010DPPC   NC3 7381  15.735   5.244  15.619
36010DPPC   PO4 7382  16.075   5.274  15.439
36010DPPC   GL1 7383  15.955   5.074  15.149
36010DPPC   GL2 7384  15.715   4.954  15.249
36010DPPC   C1A 7385  15.895   5.194  14.799
36010DPPC   C2A 7386  15.745   5.144  14.399
36010DPPC   C3A 7387  15.425   5.194  14.069
36010DPPC   C4A 7388  15.035   5.224  13.739
36010DPPC   C1B 7389  15.395   4.954  15.059
36010DPPC   C2B 7390  15.015   4.914  14.879
36010DPPC   C3B 7391  14.655   4.864  14.529
36010DPPC   C4B 7392  14.355   4.884  14.199
36011DPPC   NC3 7393  15.935   1.164  15.229
36011DPPC   PO4 7394  16.115   0.846  15.129
36011DPPC   GL1 7395  15.895   0.776  14.729
36011DPPC   GL2 7396  15.815   1.076  14.789
36011DPPC   C1A 7397  15.835   0.786  14.339
36011DPPC   C2A 7398  15.515   0.786  14.109
36011DPPC   C3A 7399  15.245   0.776  13.689
36011DPPC   C4A 7400  14.975   0.836  13.349
36011DPPC   C1B 7401  15.635   1.174  14.439
36011DPPC   C2B 7402  15.355   1.254  14.129
36011DPPC   C3B 7403  15.105   1.254  13.789
36011DPPC   C4B 7404  14.745   1.284  13.469
36012DPPC   NC3 7405  14.525   6.564  17.299
36012DPPC   PO4 7406  14.635   0.286  17.089
36012DPPC   GL1 7407  14.485   0.356  16.649
36012DPPC   GL2 7408  14.395   6.594  16.729
36012DPPC   C1A 7409  14.195   0.366  16.359
36012DPPC   C2A 7410  13.865   0.376  16.109
36012DPPC   C3A 7411  13.495   0.406  15.779
36012DPPC   C4A 7412  13.185   0.376  15.429
36012DPPC   C1B 7413  14.075   6.574  16.629
36012DPPC   C2B 7414  13.745   0.026  16.419
36012DPPC   C3B 7415  13.475   0.046  16.079
36012DPPC   C4B 7416  13.065   0.036  15.779
36013DPPC   NC3 7417  17.025   6.374  14.009
36013DPPC   PO4 7418  16.945   6.234  14.329
36013DPPC   GL1 7419  16.595   6.484  14.219
36013DPPC   GL2 7420  16.575   6.254  14.039
36013DPPC   C1A 7421  16.295   0.146  14.129
36013DPPC   C2A 7422  15.895   0.336  14.049
36013DPPC   C3A 7423  15.505   0.266  13.699
36013DPPC   C4A 7424  15.145   0.306  13.379
36013DPPC   C1B 7425  16.375   6.264  13.749
36013DPPC   C2B 7426  16.215   6.384  13.429
36013DPPC   C3B 7427  15.825   6.344  13.129
36013DPPC   C4B 7428  15.495   6.334  12.719
36014DPPC   NC3 7429  17.795   0.086  12.589
36014DPPC   PO4 7430  17.865   0.456  12.729
36014DPPC   GL1 7431  17.405   0.636  12.659
36014DPPC   GL2 7432  17.385   0.296  12.719
36014DPPC   C1A 7433  17.095   0.726  12.549
36014DPPC   C2A 7434  16.885   0.716  12.209
36014DPPC   C3A 7435  16.555   0.756  11.849
36014DPPC   C4A 7436  16.285   0.726  11.419
36014DPPC   C1B 7437  17.215   0.196  12.369
36014DPPC   C2B 7438  17.025   0.246  12.039
36014DPPC   C3B 7439  16.655   0.226  11.709
36014DPPC   C4B 7440  16.375   0.206  11.359
36015DPPC   NC3 7441  18.405   1.384  11.789
36015DPPC   PO4 7442  18.785   1.394  11.919
36015DPPC   GL1 7443  19.035   1.036  11.709
36015DPPC   GL2 7444  19.175   1.284  11.609
36015DPPC   C1A 7445  19.065   0.946  11.359
36015DPPC   C2A 7446  19.015   1.116  10.989
36015DPPC   C3A 7447  19.215   1.126  10.509
36015DPPC   C4A 7448  19.335   1.066  10.109
36015DPPC   C1B 7449  19.225   1.404  11.289
36015DPPC   C2B 7450  19.315   1.484  10.859
36015DPPC   C3B 7451  19.585   1.464  10.429
36015DPPC   C4B 7452  19.755   1.474   9.989
36016DPPC   NC3 7453  16.785   6.564  14.679
36016DPPC   PO4 7454  16.665   0.266  14.479
36016DPPC   GL1 7455  16.345   0.526  14.359
36016DPPC   GL2 7456  16.465   0.736  14.229
36016DPPC   C1A 7457  16.005   0.406  14.479
36016DPPC   C2A 7458  15.625   0.376  14.609
36016DPPC   C3A 7459  15.255   0.376  14.279
36016DPPC   C4A 7460  14.965   0.396  13.849
36016DPPC   C1B 7461  16.145   0.726  14.019
36016DPPC   C2B 7462  15.835   0.696  13.739
36016DPPC   C3B 7463  15.575   0.736  13.299
36016DPPC   C4B 7464  15.245   0.746  12.999
36017DPPC   NC3 7465  16.515   6.064  14.529
36017DPPC   PO4 7466  16.495   5.684  14.549
36017DPPC   GL1 7467  16.195   5.544  14.499
36017DPPC   GL2 7468  16.245   5.214  14.549
36017DPPC   C1A 7469  15.985   5.634  14.179
36017DPPC   C2A 7470  15.745   5.604  13.859
36017DPPC   C3A 7471  15.445   5.594  13.519
36017DPPC   C4A 7472  15.035   5.604  13.209
36017DPPC   C1B 7473  16.205   5.114  14.239
36017DPPC   C2B 7474  15.925   5.094  13.949
36017DPPC   C3B 7475  15.615   5.104  13.549
36017DPPC   C4B 7476  15.275   5.134  13.239
36018DPPC   NC3 7477  16.325   3.384  15.819
36018DPPC   PO4 7478  16.365   3.334  15.439
36018DPPC   GL1 7479  16.205   3.254  14.989
36018DPPC   GL2 7480  16.015   3.474  15.149
36018DPPC   C1A 7481  15.975   3.144  14.709
36018DPPC   C2A 7482  15.625   3.114  14.499
36018DPPC   C3A 7483  15.295   3.054  14.179
36018DPPC   C4A 7484  14.995   3.054  13.809
36018DPPC   C1B 7485  15.785   3.684  14.949
36018DPPC   C2B 7486  15.515   3.594  14.659
36018DPPC   C3B 7487  15.225   3.484  14.369
36018DPPC   C4B 7488  14.925   3.504  13.999
36019DPPC   NC3 7489  16.445   1.234  15.239
36019DPPC   PO4 7490  16.345   1.574  15.029
36019DPPC   GL1 7491  16.085   1.484  14.729
36019DPPC   GL2 7492  15.815   1.554  14.879
36019DPPC   C1A 7493  15.945   1.524  14.359
36019DPPC   C2A 7494  15.705   1.644  14.029
36019DPPC   C3A 7495  15.385   1.654  13.669
36019DPPC   C4A 7496  15.065   1.674  13.329
36019DPPC   C1B 7497  15.475   1.424  14.769
36019DPPC   C2B 7498  15.115   1.324  14.569
36019DPPC   C3B 7499  14.795   1.284  14.239
36019DPPC   C4B 7500  14.505   1.274  13.889
36020DPPC   NC3 7501  13.935   4.054  18.539
36020DPPC   PO4 7502  13.995   3.674  18.379
36020DPPC   GL1 7503  13.735   3.514  18.089
36020DPPC   GL2 7504  13.835   3.724  17.819
36020DPPC   C1A 7505  13.495   3.344  17.939
36020DPPC   C2A 7506  13.265   3.304  17.579
36020DPPC   C3A 7507  12.905   3.284  17.229
36020DPPC   C4A 7508  12.455   3.264  16.939
36020DPPC   C1B 7509  13.635   3.754  17.489
36020DPPC   C2B 7510  13.385   3.624  17.229
36020DPPC   C3B 7511  13.005   3.704  16.899
36020DPPC   C4B 7512  12.645   3.614  16.549
36021DPPC   NC3 7513  15.275   5.044  16.119
36021DPPC   PO4 7514  15.315   5.344  15.859
36021DPPC   GL1 7515  14.945   5.574  15.839
36021DPPC   GL2 7516  15.065   5.774  15.799
36021DPPC   C1A 7517  14.685   5.504  15.629
36021DPPC   C2A 7518  14.505   5.404  15.309
36021DPPC   C3A 7519  14.185   5.404  14.959
36021DPPC   C4A 7520  13.865   5.524  14.569
36021DPPC   C1B 7521  14.925   6.064  15.539
36021DPPC   C2B 7522  14.725   6.284  15.259
36021DPPC   C3B 7523  14.425   6.294  14.889
36021DPPC   C4B 7524  14.085   6.414  14.559
36022DPPC   NC3 7525  15.555   0.246  16.719
36022DPPC   PO4 7526  15.265   0.146  16.439
36022DPPC   GL1 7527  14.915   0.256  16.259
36022DPPC   GL2 7528  14.865   0.526  16.429
36022DPPC   C1A 7529  14.695   0.256  15.989
36022DPPC   C2A 7530  14.345   0.186  15.799
36022DPPC   C3A 7531  14.035   0.196  15.459
36022DPPC   C4A 7532  13.635   0.286  15.229
36022DPPC   C1B 7533  14.555   0.576  16.229
36022DPPC   C2B 7534  14.225   0.716  15.989
36022DPPC   C3B 7535  13.865   0.656  15.609
36022DPPC   C4B 7536  13.505   0.776  15.269
36023DPPC   NC3 7537  16.705   5.454  13.729
36023DPPC   PO4 7538  16.975   5.174  13.699
36023DPPC   GL1 7539  16.745   4.864  13.459
36023DPPC   GL2 7540  17.055   4.904  13.189
36023DPPC   C1A 7541  16.525   4.824  13.139
36023DPPC   C2A 7542  16.315   4.884  12.739
36023DPPC   C3A 7543  15.925   4.844  12.459
36023DPPC   C4A 7544  15.635   4.824  12.089
36023DPPC   C1B 7545  16.985   4.744  12.889
36023DPPC   C2B 7546  16.785   4.804  12.549
36023DPPC   C3B 7547  16.405   4.854  12.269
36023DPPC   C4B 7548  16.085   4.834  11.829
36024DPPC   NC3 7549  16.725   0.316  13.999
36024DPPC   PO4 7550  16.995   0.406  13.759
36024DPPC   GL1 7551  16.975   0.326  13.369
36024DPPC   GL2 7552  16.735   0.336  13.459
36024DPPC   C1A 7553  16.945   0.046  13.159
36024DPPC   C2A 7554  16.675   6.534  12.849
36024DPPC   C3A 7555  16.315   0.026  12.569
36024DPPC   C4A 7556  16.075   6.604  12.219
36024DPPC   C1B 7557  16.475   0.226  13.249
36024DPPC   C2B 7558  16.165   0.186  13.039
36024DPPC   C3B 7559  15.855   0.076  12.719
36024DPPC   C4B 7560  15.555   0.156  12.319
36025DPPC   NC3 7561  16.085   4.534  15.749
36025DPPC   PO4 7562  15.745   4.604  15.609
36025DPPC   GL1 7563  15.415   4.584  15.349
36025DPPC   GL2 7564  15.385   4.304  15.429
36025DPPC   C1A 7565  15.045   4.544  15.219
36025DPPC   C2A 7566  14.645   4.534  15.029
36025DPPC   C3A 7567  14.295   4.554  14.739
36025DPPC   C4A 7568  13.985   4.494  14.329
36025DPPC   C1B 7569  15.115   4.084  15.349
36025DPPC   C2B 7570  14.915   4.084  14.999
36025DPPC   C3B 7571  14.615   4.154  14.599
36025DPPC   C4B 7572  14.285   4.094  14.269
36026DPPC   NC3 7573  17.505   2.814  13.729
36026DPPC   PO4 7574  17.345   3.124  13.509
36026DPPC   GL1 7575  16.965   3.104  13.329
36026DPPC   GL2 7576  17.025   2.844  13.399
36026DPPC   C1A 7577  16.745   3.164  13.019
36026DPPC   C2A 7578  16.435   3.124  12.759
36026DPPC   C3A 7579  16.115   3.104  12.329
36026DPPC   C4A 7580  15.655   2.894  12.379
36026DPPC   C1B 7581  16.945   2.734  13.029
36026DPPC   C2B 7582  16.745   2.674  12.689
36026DPPC   C3B 7583  16.375   2.664  12.459
36026DPPC   C4B 7584  16.055   2.684  12.079
36027DPPC   NC3 7585  13.865   5.864  17.819
36027DPPC   PO4 7586  14.185   5.844  17.619
36027DPPC   GL1 7587  14.225   5.554  17.349
36027DPPC   GL2 7588  14.285   5.744  17.169
36027DPPC   C1A 7589  14.045   5.304  17.159
36027DPPC   C2A 7590  13.675   5.344  16.989
36027DPPC   C3A 7591  13.315   5.334  16.719
36027DPPC   C4A 7592  12.955   5.434  16.369
36027DPPC   C1B 7593  14.045   5.774  16.879
36027DPPC   C2B 7594  13.715   5.764  16.599
36027DPPC   C3B 7595  13.455   5.674  16.319
36027DPPC   C4B 7596  13.205   5.654  15.919
36028DPPC   NC3 7597  17.645   3.694  12.849
36028DPPC   PO4 7598  17.535   3.954  13.159
36028DPPC   GL1 7599  17.205   3.694  13.009
36028DPPC   GL2 7600  17.035   4.004  13.059
36028DPPC   C1A 7601  16.955   3.614  12.779
36028DPPC   C2A 7602  16.655   3.504  12.469
36028DPPC   C3A 7603  16.395   3.494  12.069
36028DPPC   C4A 7604  16.005   3.464  11.739
36028DPPC   C1B 7605  16.785   4.074  12.799
36028DPPC   C2B 7606  16.485   4.004  12.529
36028DPPC   C3B 7607  16.165   3.984  12.199
36028DPPC   C4B 7608  15.865   3.914  11.839
36029DPPC   NC3 7609  16.435   5.884  14.999
36029DPPC   PO4 7610  16.205   6.174  14.919
36029DPPC   GL1 7611  15.995   6.154  14.679
36029DPPC   GL2 7612  16.035   5.974  14.469
36029DPPC   C1A 7613  15.645   6.164  14.639
36029DPPC   C2A 7614  15.275   6.104  14.419
36029DPPC   C3A 7615  14.955   6.104  14.059
36029DPPC   C4A 7616  14.655   6.114  13.689
36029DPPC   C1B 7617  15.745   6.054  14.219
36029DPPC   C2B 7618  15.475   6.044  13.889
36029DPPC   C3B 7619  15.135   6.044  13.569
36029DPPC   C4B 7620  14.825   6.064  13.239
36030DPPC   NC3 7621  14.875   3.214  17.289
36030DPPC   PO4 7622  15.015   3.204  16.939
36030DPPC   GL1 7623  14.705   3.174  16.809
36030DPPC   GL2 7624  14.795   3.124  16.559
36030DPPC   C1A 7625  14.405   3.034  16.639
36030DPPC   C2A 7626  14.165   2.964  16.339
36030DPPC   C3A 7627  13.925   3.014  15.979
36030DPPC   C4A 7628  13.565   3.054  15.699
36030DPPC   C1B 7629  14.675   3.014  16.259
36030DPPC   C2B 7630  14.415   2.954  15.899
36030DPPC   C3B 7631  14.115   2.944  15.529
36030DPPC   C4B 7632  13.725   2.944  15.229
36031DPPC   NC3 7633  14.205   3.434  18.009
36031DPPC   PO4 7634  14.365   3.744  17.789
36031DPPC   GL1 7635  14.235   3.764  17.499
36031DPPC   GL2 7636  14.115   4.034  17.369
36031DPPC   C1A 7637  14.005   3.624  17.239
36031DPPC   C2A 7638  13.805   3.594  16.909
36031DPPC   C3A 7639  13.455   3.614  16.549
36031DPPC   C4A 7640  13.095   3.554  16.239
36031DPPC   C1B 7641  13.825   4.024  17.119
36031DPPC   C2B 7642  13.525   4.024  16.859
36031DPPC   C3B 7643  13.175   4.024  16.509
36031DPPC   C4B 7644  12.865   4.024  16.149
36032DPPC   NC3 7645  15.975   0.796  15.649
36032DPPC   PO4 7646  15.775   0.436  15.689
36032DPPC   GL1 7647  15.455   0.626  15.429
36032DPPC   GL2 7648  15.695   0.706  15.229
36032DPPC   C1A 7649  15.055   0.506  15.449
36032DPPC   C2A 7650  14.745   0.486  15.149
36032DPPC   C3A 7651  14.475   0.536  14.839
36032DPPC   C4A 7652  14.185   0.536  14.449
36032DPPC   C1B 7653  15.535   0.776  14.919
36032DPPC   C2B 7654  15.335   0.816  14.599
36032DPPC   C3B 7655  15.015   0.806  14.199
36032DPPC   C4B 7656  14.755   0.876  13.819
36033DPPC   NC3 7657  17.655   4.454  13.089
36033DPPC   PO4 7658  17.515   4.814  13.089
36033DPPC   GL1 7659  17.335   4.954  12.749
36033DPPC   GL2 7660  17.325   5.184  12.689
36033DPPC   C1A 7661  17.225   4.804  12.429
36033DPPC   C2A 7662  17.035   4.744  12.099
36033DPPC   C3A 7663  16.655   4.774  11.769
36033DPPC   C4A 7664  16.305   4.714  11.389
36033DPPC   C1B 7665  17.055   5.234  12.449
36033DPPC   C2B 7666  16.765   5.214  12.129
36033DPPC   C3B 7667  16.465   5.204  11.769
36033DPPC   C4B 7668  16.115   5.204  11.469
36034DPPC   NC3 7669  16.545   5.084  15.189
36034DPPC   PO4 7670  16.455   4.914  14.849
36034DPPC   GL1 7671  16.215   4.754  14.639
36034DPPC   GL2 7672  16.005   4.784  14.849
36034DPPC   C1A 7673  15.975   4.704  14.379
36034DPPC   C2A 7674  15.645   4.724  14.109
36034DPPC   C3A 7675  15.295   4.724  13.729
36034DPPC   C4A 7676  14.945   4.804  13.359
36034DPPC   C1B 7677  15.665   4.844  14.729
36034DPPC   C2B 7678  15.335   4.834  14.489
36034DPPC   C3B 7679  15.005   4.804  14.129
36034DPPC   C4B 7680  14.665   4.874  13.819
36035DPPC   NC3 7681  16.245   3.814  15.399
36035DPPC   PO4 7682  16.265   4.194  15.389
36035DPPC   GL1 7683  15.945   4.334  15.299
36035DPPC   GL2 7684  15.835   4.154  15.569
36035DPPC   C1A 7685  15.735   4.434  15.019
36035DPPC   C2A 7686  15.355   4.444  14.909
36035DPPC   C3A 7687  15.015   4.484  14.559
36035DPPC   C4A 7688  14.625   4.464  14.219
36035DPPC   C1B 7689  15.595   3.964  15.319
36035DPPC   C2B 7690  15.395   3.964  14.949
36035DPPC   C3B 7691  15.155   4.004  14.559
36035DPPC   C4B 7692  14.865   4.054  14.159
36036DPPC   NC3 7693  17.245   4.754  13.579
36036DPPC   PO4 7694  17.075   4.474  13.799
36036DPPC   GL1 7695  16.645   4.444  13.789
36036DPPC   GL2 7696  16.605   4.144  13.559
36036DPPC   C1A 7697  16.415   4.604  13.609
36036DPPC   C2A 7698  16.245   4.454  13.289
36036DPPC   C3A 7699  15.865   4.544  12.869
36036DPPC   C4A 7700  15.575   4.514  12.489
36036DPPC   C1B 7701  16.705   4.334  13.249
36036DPPC   C2B 7702  16.545   4.454  12.859
36036DPPC   C3B 7703  16.235   4.444  12.519
36036DPPC   C4B 7704  15.925   4.414  12.169
36037DPPC   NC3 7705  15.385   5.784  16.179
36037DPPC   PO4 7706  15.175   5.474  16.329
36037DPPC   GL1 7707  14.785   5.384  16.329
36037DPPC   GL2 7708  14.685   5.614  16.339
36037DPPC   C1A 7709  14.675   5.264  16.049
36037DPPC   C2A 7710  14.475   5.104  15.749
36037DPPC   C3A 7711  14.155   5.054  15.399
36037DPPC   C4A 7712  13.795   5.104  15.069
36037DPPC   C1B 7713  14.435   5.644  16.039
36037DPPC   C2B 7714  14.185   5.614  15.699
36037DPPC   C3B 7715  13.835   5.644  15.309
36037DPPC   C4B 7716  13.505   5.564  14.919
36038DPPC   NC3 7717  15.035   5.044  16.609
36038DPPC   PO4 7718  14.865   5.354  16.769
36038DPPC   GL1 7719  14.445   5.504  16.749
36038DPPC   GL2 7720  14.555   5.744  16.729
36038DPPC   C1A 7721  14.095   5.414  16.649
36038DPPC   C2A 7722  13.705   5.284  16.389
36038DPPC   C3A 7723  13.395   5.214  16.139
36038DPPC   C4A 7724  13.145   5.194  15.709
36038DPPC   C1B 7725  14.255   5.754  16.449
36038DPPC   C2B 7726  14.005   5.694  16.149
36038DPPC   C3B 7727  13.705   5.684  15.809
36038DPPC   C4B 7728  13.335   5.654  15.469
36039DPPC   NC3 7729  15.995   0.016  16.009
36039DPPC   PO4 7730  16.065   6.494  15.669
36039DPPC   GL1 7731  15.815   0.006  15.379
36039DPPC   GL2 7732  15.905   6.504  15.099
36039DPPC   C1A 7733  15.605   0.236  15.239
36039DPPC   C2A 7734  15.335   0.416  15.049
36039DPPC   C3A 7735  14.995   0.436  14.699
36039DPPC   C4A 7736  14.635   0.436  14.309
36039DPPC   C1B 7737  15.605   6.554  14.859
36039DPPC   C2B 7738  15.275   6.584  14.579
36039DPPC   C3B 7739  14.935   6.544  14.249
36039DPPC   C4B 7740  14.615   0.016  13.919
36040DPPC   NC3 7741  17.015   2.344  14.549
36040DPPC   PO4 7742  16.715   2.604  14.609
36040DPPC   GL1 7743  16.315   2.494  14.669
36040DPPC   GL2 7744  16.195   2.744  14.709
36040DPPC   C1A 7745  16.085   2.364  14.449
36040DPPC   C2A 7746  15.795   2.144  14.259
36040DPPC   C3A 7747  15.435   2.124  13.929
36040DPPC   C4A 7748  15.105   2.104  13.589
36040DPPC   C1B 7749  15.875   2.714  14.529
36040DPPC   C2B 7750  15.505   2.614  14.299
36040DPPC   C3B 7751  15.145   2.544  13.949
36040DPPC   C4B 7752  14.835   2.554  13.549
36041DPPC   NC3 7753  13.895   0.296  17.939
36041DPPC   PO4 7754  14.035   0.096  17.609
36041DPPC   GL1 7755  14.135   0.166  17.129
36041DPPC   GL2 7756  13.875   0.046  17.169
36041DPPC   C1A 7757  14.125   0.486  16.879
36041DPPC   C2A 7758  13.795   0.496  16.619
36041DPPC   C3A 7759  13.385   0.566  16.309
36041DPPC   C4A 7760  12.975   0.546  16.029
36041DPPC   C1B 7761  13.595   0.086  16.889
36041DPPC   C2B 7762  13.305   0.146  16.639
36041DPPC   C3B 7763  13.005   0.166  16.319
36041DPPC   C4B 7764  12.635   0.136  16.009
36042DPPC   NC3 7765  15.965   2.044  15.729
36042DPPC   PO4 7766  15.675   1.844  15.719
36042DPPC   GL1 7767  15.285   1.814  15.759
36042DPPC   GL2 7768  15.165   2.124  15.869
36042DPPC   C1A 7769  15.045   1.884  15.479
36042DPPC   C2A 7770  14.745   1.824  15.149
36042DPPC   C3A 7771  14.465   1.834  14.779
36042DPPC   C4A 7772  14.085   1.834  14.439
36042DPPC   C1B 7773  15.005   2.334  15.649
36042DPPC   C2B 7774  14.765   2.334  15.309
36042DPPC   C3B 7775  14.375   2.334  14.939
36042DPPC   C4B 7776  14.075   2.454  14.639
36043DPPC   NC3 7777  18.285   4.014  12.729
36043DPPC   PO4 7778  17.885   4.174  12.739
36043DPPC   GL1 7779  17.525   4.164  12.739
36043DPPC   GL2 7780  17.315   4.394  12.799
36043DPPC   C1A 7781  17.245   3.974  12.609
36043DPPC   C2A 7782  17.015   3.804  12.339
36043DPPC   C3A 7783  16.745   3.844  12.029
36043DPPC   C4A 7784  16.375   3.874  11.669
36043DPPC   C1B 7785  17.025   4.424  12.599
36043DPPC   C2B 7786  16.725   4.354  12.339
36043DPPC   C3B 7787  16.415   4.334  11.979
36043DPPC   C4B 7788  16.125   4.314  11.609
36044DPPC   NC3 7789  14.745   0.676  17.459
36044DPPC   PO4 7790  14.585   0.906  17.679
36044DPPC   GL1 7791  14.355   0.956  17.429
36044DPPC   GL2 7792  14.415   1.224  17.289
36044DPPC   C1A 7793  14.045   0.896  17.209
36044DPPC   C2A 7794  13.805   0.906  16.919
36044DPPC   C3A 7795  13.385   1.006  16.589
36044DPPC   C4A 7796  13.085   1.006  16.199
36044DPPC   C1B 7797  14.205   1.324  16.969
36044DPPC   C2B 7798  13.925   1.314  16.619
36044DPPC   C3B 7799  13.615   1.344  16.249
36044DPPC   C4B 7800  13.285   1.354  15.909
36045DPPC   NC3 7801  16.775   4.284  14.169
36045DPPC   PO4 7802  16.795   4.014  14.449
36045DPPC   GL1 7803  16.425   3.884  14.449
36045DPPC   GL2 7804  16.305   4.084  14.509
36045DPPC   C1A 7805  16.195   3.714  14.199
36045DPPC   C2A 7806  15.925   3.764  13.879
36045DPPC   C3A 7807  15.645   3.774  13.499
36045DPPC   C4A 7808  15.215   3.844  13.159
36045DPPC   C1B 7809  16.025   4.174  14.329
36045DPPC   C2B 7810  15.835   4.294  14.019
36045DPPC   C3B 7811  15.435   4.224  13.679
36045DPPC   C4B 7812  15.125   4.304  13.279
36046DPPC   NC3 7813  16.075   5.564  15.829
36046DPPC   PO4 7814  15.705   5.734  15.829
36046DPPC   GL1 7815  15.415   5.784  15.469
36046DPPC   GL2 7816  15.615   5.604  15.379
36046DPPC   C1A 7817  15.095   5.654  15.359
36046DPPC   C2A 7818  14.785   5.734  15.129
36046DPPC   C3A 7819  14.475   5.844  14.819
36046DPPC   C4A 7820  14.155   5.954  14.479
36046DPPC   C1B 7821  15.615   5.404  15.059
36046DPPC   C2B 7822  15.385   5.284  14.739
36046DPPC   C3B 7823  14.995   5.264  14.419
36046DPPC   C4B 7824  14.595   5.344  14.059
36047DPPC   NC3 7825  15.705   3.564  16.109
36047DPPC   PO4 7826  15.515   3.594  16.449
36047DPPC   GL1 7827  15.095   3.524  16.519
36047DPPC   GL2 7828  15.055   3.824  16.459
36047DPPC   C1A 7829  14.985   3.374  16.179
36047DPPC   C2A 7830  14.725   3.344  15.899
36047DPPC   C3A 7831  14.445   3.304  15.489
36047DPPC   C4A 7832  14.185   3.344  15.089
36047DPPC   C1B 7833  14.815   3.864  16.179
36047DPPC   C2B 7834  14.535   3.764  15.899
36047DPPC   C3B 7835  14.225   3.754  15.489
36047DPPC   C4B 7836  13.935   3.764  15.059
36048DPPC   NC3 7837  16.625   4.514  14.609
36048DPPC   PO4 7838  16.725   4.864  14.439
36048DPPC   GL1 7839  16.655   4.764  14.069
36048DPPC   GL2 7840  16.395   4.594  14.189
36048DPPC   C1A 7841  16.465   5.004  13.879
36048DPPC   C2A 7842  16.315   5.014  13.489
36048DPPC   C3A 7843  15.995   4.934  13.179
36048DPPC   C4A 7844  15.595   4.994  12.839
36048DPPC   C1B 7845  16.135   4.654  13.929
36048DPPC   C2B 7846  15.845   4.624  13.659
36048DPPC   C3B 7847  15.555   4.664  13.239
36048DPPC   C4B 7848  15.185   4.614  12.909
36049DPPC   NC3 7849  17.925   1.056  12.859
36049DPPC   PO4 7850  17.955   1.274  12.589
36049DPPC   GL1 7851  17.865   1.204  12.199
36049DPPC   GL2 7852  18.045   1.136  12.039
36049DPPC   C1A 7853  17.615   1.334  11.929
36049DPPC   C2A 7854  17.345   1.444  11.649
36049DPPC   C3A 7855  17.075   1.544  11.269
36049DPPC   C4A 7856  16.705   1.544  10.969
36049DPPC   C1B 7857  17.965   1.234  11.689
36049DPPC   C2B 7858  17.825   1.414  11.359
36049DPPC   C3B 7859  17.555   1.434  10.999
36049DPPC   C4B 7860  17.105   1.474  10.749
36050DPPC   NC3 7861  18.115   3.134  12.539
36050DPPC   PO4 7862  18.065   3.534  12.619
36050DPPC   GL1 7863  17.715   3.814  12.409
36050DPPC   GL2 7864  17.895   3.684  12.169
36050DPPC   C1A 7865  17.435   3.874  12.209
36050DPPC   C2A 7866  17.185   3.824  11.909
36050DPPC   C3A 7867  16.965   3.894  11.499
36050DPPC   C4A 7868  16.625   3.834  11.189
36050DPPC   C1B 7869  17.685   3.794  11.879
36050DPPC   C2B 7870  17.415   3.694  11.519
36050DPPC   C3B 7871  17.175   3.664  11.089
36050DPPC   C4B 7872  16.825   3.704  10.769
36051DPPC   NC3 7873  17.845   2.354  14.039
36051DPPC   PO4 7874  17.495   2.174  13.859
36051DPPC   GL1 7875  17.325   2.354  13.489
36051DPPC   GL2 7876  17.165   2.504  13.629
36051DPPC   C1A 7877  17.145   2.274  13.159
36051DPPC   C2A 7878  17.005   2.224  12.759
36051DPPC   C3A 7879  16.625   2.214  12.439
36051DPPC   C4A 7880  16.225   2.214  12.149
36051DPPC   C1B 7881  16.875   2.414  13.419
36051DPPC   C2B 7882  16.645   2.404  13.119
36051DPPC   C3B 7883  16.255   2.324  12.829
36051DPPC   C4B 7884  15.925   2.434  12.469
36052DPPC   NC3 7885  14.965   2.744  16.789
36052DPPC   PO4 7886  14.685   2.554  16.989
36052DPPC   GL1 7887  14.375   2.594  16.759
36052DPPC   GL2 7888  14.585   2.664  16.499
36052DPPC   C1A 7889  14.045   2.624  16.719
36052DPPC   C2A 7890  13.815   2.624  16.379
36052DPPC   C3A 7891  13.515   2.664  15.999
36052DPPC   C4A 7892  13.165   2.694  15.759
36052DPPC   C1B 7893  14.425   2.514  16.199
36052DPPC   C2B 7894  14.105   2.514  15.929
36052DPPC   C3B 7895  13.835   2.554  15.629
36052DPPC   C4B 7896  13.455   2.554  15.359
36053DPPC   NC3 7897  18.575   0.686  12.499
36053DPPC   PO4 7898  18.205   0.826  12.559
36053DPPC   GL1 7899  17.805   0.786  12.349
36053DPPC   GL2 7900  17.665   0.976  12.489
36053DPPC   C1A 7901  17.765   0.826  12.029
36053DPPC   C2A 7902  17.585   0.946  11.699
36053DPPC   C3A 7903  17.285   1.006  11.319
36053DPPC   C4A 7904  16.955   1.086  11.029
36053DPPC   C1B 7905  17.355   1.016  12.279
36053DPPC   C2B 7906  17.115   1.096  11.959
36053DPPC   C3B 7907  16.865   1.106  11.559
36053DPPC   C4B 7908  16.465   1.194  11.249
36054DPPC   NC3 7909  18.225   6.164  12.249
36054DPPC   PO4 7910  17.995   6.484  12.209
36054DPPC   GL1 7911  17.605   6.464  12.139
36054DPPC   GL2 7912  17.455   6.464  12.379
36054DPPC   C1A 7913  17.465   0.056  11.929
36054DPPC   C2A 7914  17.325   0.216  11.569
36054DPPC   C3A 7915  16.975   0.266  11.179
36054DPPC   C4A 7916  16.665   0.246  10.849
36054DPPC   C1B 7917  17.185   6.414  12.119
36054DPPC   C2B 7918  16.965   6.434  11.739
36054DPPC   C3B 7919  16.685   6.434  11.409
36054DPPC   C4B 7920  16.385   6.354  11.059
36055DPPC   NC3 7921  15.315   4.214  16.529
36055DPPC   PO4 7922  15.225   4.624  16.429
36055DPPC   GL1 7923  14.765   4.774  16.419
36055DPPC   GL2 7924  14.785   4.864  16.109
36055DPPC   C1A 7925  14.425   4.644  16.259
36055DPPC   C2A 7926  14.165   4.714  15.929
36055DPPC   C3A 7927  13.835   4.704  15.569
36055DPPC   C4A 7928  13.505   4.704  15.229
36055DPPC   C1B 7929  14.625   4.684  15.879
36055DPPC   C2B 7930  14.395   4.634  15.499
36055DPPC   C3B 7931  14.045   4.614  15.109
36055DPPC   C4B 7932  13.665   4.704  14.759
36056DPPC   NC3 7933  16.305   6.544  15.269
36056DPPC   PO4 7934  16.465   0.126  14.969
36056DPPC   GL1 7935  16.275   6.514  14.589
36056DPPC   GL2 7936  16.015   0.006  14.709
36056DPPC   C1A 7937  16.185   6.334  14.289
36056DPPC   C2A 7938  15.935   6.364  13.899
36056DPPC   C3A 7939  15.595   6.384  13.529
36056DPPC   C4A 7940  15.235   6.454  13.189
36056DPPC   C1B 7941  15.845   0.006  14.369
36056DPPC   C2B 7942  15.525   6.564  14.109
36056DPPC   C3B 7943  15.165   6.544  13.849
36056DPPC   C4B 7944  14.835   6.544  13.479
36057DPPC   NC3 7945  16.275   2.044  14.829
36057DPPC   PO4 7946  16.615   2.074  14.629
36057DPPC   GL1 7947  16.495   2.284  14.299
36057DPPC   GL2 7948  16.405   2.574  14.279
36057DPPC   C1A 7949  16.215   2.134  14.119
36057DPPC   C2A 7950  16.005   2.064  13.779
36057DPPC   C3A 7951  15.645   2.034  13.469
36057DPPC   C4A 7952  15.325   2.124  13.089
36057DPPC   C1B 7953  16.085   2.534  14.059
36057DPPC   C2B 7954  15.715   2.514  13.839
36057DPPC   C3B 7955  15.475   2.534  13.469
36057DPPC   C4B 7956  15.095   2.564  13.029
36058DPPC   NC3 7957  16.745   4.044  15.289
36058DPPC   PO4 7958  16.555   4.044  14.929
36058DPPC   GL1 7959  16.215   3.814  14.849
36058DPPC   GL2 7960  16.025   3.964  15.009
36058DPPC   C1A 7961  15.955   3.734  14.549
36058DPPC   C2A 7962  15.665   3.894  14.319
36058DPPC   C3A 7963  15.335   3.814  13.989
36058DPPC   C4A 7964  14.965   3.874  13.649
36058DPPC   C1B 7965  15.835   4.104  14.729
36058DPPC   C2B 7966  15.575   4.384  14.469
36058DPPC   C3B 7967  15.265   4.384  14.129
36058DPPC   C4B 7968  14.935   4.374  13.759
36059DPPC   NC3 7969  17.155   1.106  14.109
36059DPPC   PO4 7970  16.975   0.756  14.119
36059DPPC   GL1 7971  16.775   0.826  13.639
36059DPPC   GL2 7972  16.585   0.696  13.759
36059DPPC   C1A 7973  16.675   0.766  13.339
36059DPPC   C2A 7974  16.615   0.576  13.019
36059DPPC   C3A 7975  16.315   0.486  12.639
36059DPPC   C4A 7976  15.975   0.456  12.369
36059DPPC   C1B 7977  16.315   0.596  13.499
36059DPPC   C2B 7978  16.135   0.696  13.129
36059DPPC   C3B 7979  15.785   0.666  12.829
36059DPPC   C4B 7980  15.425   0.626  12.499
36060DPPC   NC3 7981  17.715   3.404  14.349
36060DPPC   PO4 7982  17.445   3.134  14.319
36060DPPC   GL1 7983  17.195   2.994  14.009
36060DPPC   GL2 7984  17.005   3.304  13.949
36060DPPC   C1A 7985  16.925   2.874  13.779
36060DPPC   C2A 7986  16.635   2.794  13.499
36060DPPC   C3A 7987  16.295   2.854  13.169
36060DPPC   C4A 7988  16.025   2.834  12.789
36060DPPC   C1B 7989  16.735   3.254  13.689
36060DPPC   C2B 7990  16.475   3.274  13.409
36060DPPC   C3B 7991  16.095   3.324  13.059
36060DPPC   C4B 7992  15.765   3.304  12.659
36061DPPC   NC3 7993  15.705   0.666  16.099
36061DPPC   PO4 7994  15.665   0.296  16.189
36061DPPC   GL1 7995  15.335   0.416  16.019
36061DPPC   GL2 7996  15.235   0.636  16.119
36061DPPC   C1A 7997  15.085   0.216  15.829
36061DPPC   C2A 7998  14.795   0.126  15.529
36061DPPC   C3A 7999  14.425   0.126  15.239
36061DPPC   C4A 8000  14.085   0.226  14.959
36061DPPC   C1B 8001  14.945   0.676  15.879
36061DPPC   C2B 8002  14.615   0.606  15.629
36061DPPC   C3B 8003  14.265   0.576  15.329
36061DPPC   C4B 8004  13.885   0.656  14.969
36062DPPC   NC3 8005  14.285   1.046  18.129
36062DPPC   PO4 8006  14.095   0.776  17.839
36062DPPC   GL1 8007  13.795   0.726  17.619
36062DPPC   GL2 8008  13.705   0.446  17.529
36062DPPC   C1A 8009  13.595   0.966  17.409
36062DPPC   C2A 8010  13.335   1.066  17.129
36062DPPC   C3A 8011  12.995   1.164  16.859
36062DPPC   C4A 8012  12.715   1.174  16.479
36062DPPC   C1B 8013  13.565   0.526  17.189
36062DPPC   C2B 8014  13.275   0.586  16.909
36062DPPC   C3B 8015  12.925   0.716  16.559
36062DPPC   C4B 8016  12.565   0.656  16.229
36063DPPC   NC3 8017  15.405   3.914  15.709
36063DPPC   PO4 8018  15.405   3.984  16.119
36063DPPC   GL1 8019  15.115   4.204  16.039
36063DPPC   GL2 8020  14.945   4.254  16.219
36063DPPC   C1A 8021  14.935   4.204  15.719
36063DPPC   C2A 8022  14.645   4.164  15.449
36063DPPC   C3A 8023  14.265   4.134  15.089
36063DPPC   C4A 8024  14.015   4.094  14.659
36063DPPC   C1B 8025  14.575   4.234  16.069
36063DPPC   C2B 8026  14.295   4.264  15.809
36063DPPC   C3B 8027  13.965   4.264  15.459
36063DPPC   C4B 8028  13.665   4.184  15.049
36064DPPC   NC3 8029  15.345   3.114  16.469
36064DPPC   PO4 8030  15.495   3.124  16.119
36064DPPC   GL1 8031  15.305   3.284  15.819
36064DPPC   GL2 8032  15.265   3.524  15.939
36064DPPC   C1A 8033  15.095   3.304  15.529
36064DPPC   C2A 8034  14.875   3.174  15.189
36064DPPC   C3A 8035  14.605   3.244  14.769
36064DPPC   C4A 8036  14.225   3.284  14.389
36064DPPC   C1B 8037  14.995   3.694  15.789
36064DPPC   C2B 8038  14.855   3.724  15.419
36064DPPC   C3B 8039  14.575   3.684  15.039
36064DPPC   C4B 8040  14.235   3.664  14.679
36065DPPC   NC3 8041  17.235   5.384  14.049
36065DPPC   PO4 8042  17.345   5.554  13.719
36065DPPC   GL1 8043  17.035   5.774  13.479
36065DPPC   GL2 8044  17.005   5.874  13.719
36065DPPC   C1A 8045  16.815   5.814  13.179
36065DPPC   C2A 8046  16.505   5.744  12.899
36065DPPC   C3A 8047  16.175   5.784  12.529
36065DPPC   C4A 8048  15.845   5.714  12.199
36065DPPC   C1B 8049  16.665   5.984  13.589
36065DPPC   C2B 8050  16.325   5.894  13.359
36065DPPC   C3B 8051  15.965   5.844  13.009
36065DPPC   C4B 8052  15.685   5.864  12.659
36066DPPC   NC3 8053  16.945   5.744  14.479
36066DPPC   PO4 8054  16.755   5.804  14.129
36066DPPC   GL1 8055  16.385   5.594  14.049
36066DPPC   GL2 8056  16.335   5.894  14.019
36066DPPC   C1A 8057  16.265   5.384  13.779
36066DPPC   C2A 8058  15.985   5.424  13.429
36066DPPC   C3A 8059  15.655   5.454  13.079
36066DPPC   C4A 8060  15.315   5.504  12.749
36066DPPC   C1B 8061  16.085   5.924  13.779
36066DPPC   C2B 8062  15.815   5.944  13.499
36066DPPC   C3B 8063  15.455   5.944  13.179
36066DPPC   C4B 8064  15.145   5.984  12.819
36067DPPC   NC3 8065  17.345   6.124  13.259
36067DPPC   PO4 8066  17.175   6.324  13.559
36067DPPC   GL1 8067  16.725   6.424  13.499
36067DPPC   GL2 8068  16.685   6.534  13.739
36067DPPC   C1A 8069  16.665   6.264  13.209
36067DPPC   C2A 8070  16.335   6.184  12.969
36067DPPC   C3A 8071  16.045   6.234  12.619
36067DPPC   C4A 8072  15.675   6.244  12.279
36067DPPC   C1B 8073  16.385   0.106  13.739
36067DPPC   C2B 8074  16.055   0.246  13.559
36067DPPC   C3B 8075  15.665   0.256  13.219
36067DPPC   C4B 8076  15.445   0.306  12.829
36068DPPC   NC3 8077  17.955   1.874  12.799
36068DPPC   PO4 8078  17.885   2.024  12.449
36068DPPC   GL1 8079  17.705   2.394  12.479
36068DPPC   GL2 8080  17.775   2.374  12.159
36068DPPC   C1A 8081  17.385   2.394  12.369
36068DPPC   C2A 8082  16.995   2.504  12.299
36068DPPC   C3A 8083  16.625   2.574  11.999
36068DPPC   C4A 8084  16.245   2.554  11.629
36068DPPC   C1B 8085  17.475   2.464  11.929
36068DPPC   C2B 8086  17.105   2.424  11.779
36068DPPC   C3B 8087  16.785   2.424  11.399
36068DPPC   C4B 8088  16.475   2.534  11.059
36069DPPC   NC3 8089  15.795   6.114  15.489
36069DPPC   PO4 8090  16.035   5.794  15.359
36069DPPC   GL1 8091  15.885   5.804  14.909
36069DPPC   GL2 8092  15.715   6.034  15.059
36069DPPC   C1A 8093  15.755   5.644  14.669
36069DPPC   C2A 8094  15.525   5.684  14.339
36069DPPC   C3A 8095  15.175   5.654  13.989
36069DPPC   C4A 8096  14.805   5.674  13.689
36069DPPC   C1B 8097  15.415   5.874  14.929
36069DPPC   C2B 8098  15.145   5.684  14.709
36069DPPC   C3B 8099  14.805   5.734  14.389
36069DPPC   C4B 8100  14.465   5.814  14.079
36070DPPC   NC3 8101  17.695   1.574  13.499
36070DPPC   PO4 8102  17.755   1.474  13.099
36070DPPC   GL1 8103  17.365   1.514  12.929
36070DPPC   GL2 8104  17.535   1.714  12.749
36070DPPC   C1A 8105  17.115   1.744  12.719
36070DPPC   C2A 8106  16.875   1.754  12.449
36070DPPC   C3A 8107  16.495   1.774  12.129
36070DPPC   C4A 8108  16.065   1.834  11.849
36070DPPC   C1B 8109  17.455   1.584  12.419
36070DPPC   C2B 8110  17.195   1.594  12.109
36070DPPC   C3B 8111  16.865   1.594  11.729
36070DPPC   C4B 8112  16.415   1.694  11.469
36071DPPC   NC3 8113  15.235   6.534  17.009
36071DPPC   PO4 8114  14.975   6.274  17.129
36071DPPC   GL1 8115  14.635   6.224  16.909
36071DPPC   GL2 8116  14.695   6.174  16.629
36071DPPC   C1A 8117  14.245   6.174  16.919
36071DPPC   C2A 8118  13.815   6.224  16.899
36071DPPC   C3A 8119  13.405   6.194  16.579
36071DPPC   C4A 8120  13.065   6.184  16.189
36071DPPC   C1B 8121  14.385   6.174  16.449
36071DPPC   C2B 8122  13.925   6.144  16.389
36071DPPC   C3B 8123  13.605   6.054  16.079
36071DPPC   C4B 8124  13.245   6.134  15.679
36072DPPC   NC3 8125  17.295   3.224  13.009
36072DPPC   PO4 8126  17.645   3.164  12.819
36072DPPC   GL1 8127  17.605   3.404  12.499
36072DPPC   GL2 8128  17.335   3.394  12.559
36072DPPC   C1A 8129  17.605   3.344  12.159
36072DPPC   C2A 8130  17.475   3.274  11.729
36072DPPC   C3A 8131  17.145   3.254  11.369
36072DPPC   C4A 8132  16.725   3.284  11.019
36072DPPC   C1B 8133  17.125   3.344  12.239
36072DPPC   C2B 8134  16.985   3.374  11.869
36072DPPC   C3B 8135  16.635   3.464  11.579
36072DPPC   C4B 8136  16.245   3.404  11.259
36073DPPC   NC3 8137  15.695   1.484  16.019
36073DPPC   PO4 8138  15.895   1.244  15.729
36073DPPC   GL1 8139  15.615   1.056  15.509
36073DPPC   GL2 8140  15.475   0.916  15.769
36073DPPC   C1A 8141  15.405   1.066  15.209
36073DPPC   C2A 8142  15.115   0.876  15.039
36073DPPC   C3A 8143  14.805   0.856  14.639
36073DPPC   C4A 8144  14.525   0.906  14.259
36073DPPC   C1B 8145  15.145   1.036  15.639
36073DPPC   C2B 8146  14.845   0.966  15.439
36073DPPC   C3B 8147  14.575   1.016  15.079
36073DPPC   C4B 8148  14.275   0.996  14.679
36074DPPC   NC3 8149  14.985   0.376  16.799
36074DPPC   PO4 8150  14.845   6.604  16.699
36074DPPC   GL1 8151  14.645   6.524  16.319
36074DPPC   GL2 8152  14.735   6.464  16.159
36074DPPC   C1A 8153  14.285   6.454  16.179
36074DPPC   C2A 8154  13.945   6.444  15.959
36074DPPC   C3A 8155  13.585   6.534  15.619
36074DPPC   C4A 8156  13.255   6.534  15.209
36074DPPC   C1B 8157  14.595   6.394  15.769
36074DPPC   C2B 8158  14.295   6.374  15.509
36074DPPC   C3B 8159  13.945   6.404  15.169
36074DPPC   C4B 8160  13.615   6.414  14.869
36075DPPC   NC3 8161  17.665   1.224  13.879
36075DPPC   PO4 8162  17.335   1.374  13.779
36075DPPC   GL1 8163  16.895   1.254  13.699
36075DPPC   GL2 8164  16.885   1.544  13.649
36075DPPC   C1A 8165  16.665   1.184  13.359
36075DPPC   C2A 8166  16.405   1.056  13.039
36075DPPC   C3A 8167  16.145   1.026  12.689
36075DPPC   C4A 8168  15.725   0.956  12.359
36075DPPC   C1B 8169  16.615   1.564  13.399
36075DPPC   C2B 8170  16.285   1.554  13.109
36075DPPC   C3B 8171  15.935   1.494  12.819
36075DPPC   C4B 8172  15.645   1.504  12.409
36076DPPC   NC3 8173  17.435   5.184  13.389
36076DPPC   PO4 8174  17.415   5.494  13.139
36076DPPC   GL1 8175  17.045   5.264  12.999
36076DPPC   GL2 8176  16.995   5.344  13.309
36076DPPC   C1A 8177  16.725   5.244  12.829
36076DPPC   C2A 8178  16.455   5.284  12.519
36076DPPC   C3A 8179  16.095   5.284  12.249
36076DPPC   C4A 8180  15.795   5.284  11.869
36076DPPC   C1B 8181  16.645   5.294  13.259
36076DPPC   C2B 8182  16.295   5.364  13.079
36076DPPC   C3B 8183  15.975   5.324  12.709
36076DPPC   C4B 8184  15.605   5.264  12.379
36077DPPC   NC3 8185  17.075   4.044  13.509
36077DPPC   PO4 8186  16.995   3.934  13.859
36077DPPC   GL1 8187  16.635   3.884  13.939
36077DPPC   GL2 8188  16.535   3.604  13.829
36077DPPC   C1A 8189  16.335   4.094  14.039
36077DPPC   C2A 8190  16.115   4.194  13.659
36077DPPC   C3A 8191  15.785   4.204  13.259
36077DPPC   C4A 8192  15.455   4.204  12.889
36077DPPC   C1B 8193  16.325   3.664  13.549
36077DPPC   C2B 8194  16.105   3.784  13.239
36077DPPC   C3B 8195  15.785   3.754  12.969
36077DPPC   C4B 8196  15.475   3.734  12.579
36078DPPC   NC3 8197  14.595   2.484  17.519
36078DPPC   PO4 8198  14.685   2.894  17.619
36078DPPC   GL1 8199  14.545   2.884  17.289
36078DPPC   GL2 8200  14.485   3.064  17.129
36078DPPC   C1A 8201  14.235   2.734  17.229
36078DPPC   C2A 8202  13.855   2.684  17.129
36078DPPC   C3A 8203  13.515   2.704  16.769
36078DPPC   C4A 8204  13.085   2.744  16.519
36078DPPC   C1B 8205  14.125   3.084  16.979
36078DPPC   C2B 8206  13.845   3.114  16.659
36078DPPC   C3B 8207  13.555   3.064  16.379
36078DPPC   C4B 8208  13.175   3.094  16.079
36079DPPC   NC3 8209  17.415   0.246  13.179
36079DPPC   PO4 8210  17.505   6.514  12.979
36079DPPC   GL1 8211  17.095   6.314  12.909
36079DPPC   GL2 8212  17.145   6.384  12.649
36079DPPC   C1A 8213  16.855   6.044  12.789
36079DPPC   C2A 8214  16.575   6.144  12.499
36079DPPC   C3A 8215  16.165   6.104  12.139
36079DPPC   C4A 8216  15.875   6.154  11.749
36079DPPC   C1B 8217  16.875   6.524  12.409
36079DPPC   C2B 8218  16.565   6.514  12.109
36079DPPC   C3B 8219  16.225   6.474  11.779
36079DPPC   C4B 8220  15.735   6.604  11.779
36080DPPC   NC3 8221  14.845   1.944  16.899
36080DPPC   PO4 8222  15.155   1.944  16.629
36080DPPC   GL1 8223  14.955   1.864  16.179
36080DPPC   GL2 8224  14.765   1.854  16.469
36080DPPC   C1A 8225  14.755   1.954  15.849
36080DPPC   C2A 8226  14.475   1.924  15.549
36080DPPC   C3A 8227  14.175   1.994  15.179
36080DPPC   C4A 8228  13.875   2.004  14.829
36080DPPC   C1B 8229  14.515   1.984  16.229
36080DPPC   C2B 8230  14.245   2.054  15.959
36080DPPC   C3B 8231  13.975   2.024  15.599
36080DPPC   C4B 8232  13.685   2.144  15.279
36081DPPC   NC3 8233  14.345   2.944  18.089
36081DPPC   PO4 8234  14.165   2.714  18.359
36081DPPC   GL1 8235  13.725   2.824  18.249
36081DPPC   GL2 8236  13.885   3.114  18.079
36081DPPC   C1A 8237  13.665   2.774  17.899
36081DPPC   C2A 8238  13.535   2.774  17.519
36081DPPC   C3A 8239  13.265   2.854  17.169
36081DPPC   C4A 8240  12.855   2.834  16.929
36081DPPC   C1B 8241  13.885   3.104  17.679
36081DPPC   C2B 8242  13.725   3.204  17.319
36081DPPC   C3B 8243  13.445   3.224  16.919
36081DPPC   C4B 8244  13.025   3.214  16.679
36082DPPC   NC3 8245  16.565   3.544  15.109
36082DPPC   PO4 8246  16.565   3.534  14.709
36082DPPC   GL1 8247  16.205   3.414  14.549
36082DPPC   GL2 8248  16.405   3.134  14.529
36082DPPC   C1A 8249  15.945   3.374  14.309
36082DPPC   C2A 8250  15.645   3.394  14.019
36082DPPC   C3A 8251  15.355   3.434  13.669
36082DPPC   C4A 8252  14.975   3.384  13.419
36082DPPC   C1B 8253  16.165   2.944  14.309
36082DPPC   C2B 8254  15.845   2.944  14.059
36082DPPC   C3B 8255  15.505   2.994  13.739
36082DPPC   C4B 8256  15.175   2.924  13.339
36083DPPC   NC3 8257  15.675   1.784  16.739
36083DPPC   PO4 8258  15.465   1.504  16.539
36083DPPC   GL1 8259  15.105   1.394  16.379
36083DPPC   GL2 8260  15.045   1.136  16.489
36083DPPC   C1A 8261  14.755   1.494  16.169
36083DPPC   C2A 8262  14.465   1.584  15.969
36083DPPC   C3A 8263  14.155   1.544  15.609
36083DPPC   C4A 8264  13.855   1.644  15.219
36083DPPC   C1B 8265  14.795   0.996  16.289
36083DPPC   C2B 8266  14.645   1.026  15.909
36083DPPC   C3B 8267  14.295   1.036  15.509
36083DPPC   C4B 8268  13.955   1.076  15.169
36084DPPC   NC3 8269  18.615   1.684  12.289
36084DPPC   PO4 8270  18.245   1.684  12.429
36084DPPC   GL1 8271  17.975   1.604  12.199
36084DPPC   GL2 8272  18.125   1.664  11.929
36084DPPC   C1A 8273  17.685   1.714  12.059
36084DPPC   C2A 8274  17.425   1.924  11.809
36084DPPC   C3A 8275  17.015   2.014  11.559
36084DPPC   C4A 8276  16.725   2.014  11.159
36084DPPC   C1B 8277  17.875   1.724  11.649
36084DPPC   C2B 8278  17.605   1.894  11.369
36084DPPC   C3B 8279  17.235   1.944  11.009
36084DPPC   C4B 8280  16.855   1.984  10.649
36085DPPC   NC3 8281  15.685   1.026  16.429
36085DPPC   PO4 8282  15.395   1.106  16.199
36085DPPC   GL1 8283  15.275   1.384  15.969
36085DPPC   GL2 8284  15.365   1.344  15.699
36085DPPC   C1A 8285  14.955   1.484  15.809
36085DPPC   C2A 8286  14.725   1.444  15.509
36085DPPC   C3A 8287  14.395   1.474  15.119
36085DPPC   C4A 8288  14.105   1.464  14.789
36085DPPC   C1B 8289  15.135   1.444  15.349
36085DPPC   C2B 8290  14.895   1.334  15.049
36085DPPC   C3B 8291  14.575   1.364  14.669
36085DPPC   C4B 8292  14.245   1.334  14.349
36086DPPC   NC3 8293  17.265   0.906  13.659
36086DPPC   PO4 8294  17.395   0.586  13.529
36086DPPC   GL1 8295  17.215   0.656  13.179
36086DPPC   GL2 8296  17.075   0.806  13.269
36086DPPC   C1A 8297  17.005   0.466  12.909
36086DPPC   C2A 8298  16.815   0.346  12.569
36086DPPC   C3A 8299  16.535   0.396  12.209
36086DPPC   C4A 8300  16.185   0.386  11.849
36086DPPC   C1B 8301  16.935   0.916  12.979
36086DPPC   C2B 8302  16.705   0.906  12.619
36086DPPC   C3B 8303  16.365   0.886  12.259
36086DPPC   C4B 8304  16.015   0.896  11.929
36087DPPC   NC3 8305  15.225   2.274  16.279
36087DPPC   PO4 8306  15.285   2.594  16.439
36087DPPC   GL1 8307  14.955   2.714  16.329
36087DPPC   GL2 8308  15.045   2.924  16.139
36087DPPC   C1A 8309  14.845   2.504  16.099
36087DPPC   C2A 8310  14.585   2.424  15.779
36087DPPC   C3A 8311  14.275   2.454  15.429
36087DPPC   C4A 8312  13.975   2.544  15.129
36087DPPC   C1B 8313  14.905   2.874  15.809
36087DPPC   C2B 8314  14.685   2.814  15.459
36087DPPC   C3B 8315  14.425   2.834  15.079
36087DPPC   C4B 8316  14.115   2.954  14.719
36088DPPC   NC3 8317  13.825   1.764  17.899
36088DPPC   PO4 8318  14.155   1.934  18.019
36088DPPC   GL1 8319  14.025   2.214  17.729
36088DPPC   GL2 8320  14.025   1.934  17.529
36088DPPC   C1A 8321  13.765   2.374  17.499
36088DPPC   C2A 8322  13.465   2.354  17.249
36088DPPC   C3A 8323  13.185   2.364  16.889
36088DPPC   C4A 8324  12.805   2.314  16.659
36088DPPC   C1B 8325  13.775   1.834  17.279
36088DPPC   C2B 8326  13.435   1.854  16.979
36088DPPC   C3B 8327  13.135   1.934  16.619
36088DPPC   C4B 8328  12.805   1.914  16.239
36089DPPC   NC3 8329  15.195   6.424  16.089
36089DPPC   PO4 8330  15.375   6.164  15.809
36089DPPC   GL1 8331  15.345   6.204  15.329
36089DPPC   GL2 8332  15.415   6.474  15.389
36089DPPC   C1A 8333  15.155   6.224  15.019
36089DPPC   C2A 8334  14.935   6.244  14.729
36089DPPC   C3A 8335  14.595   6.234  14.369
36089DPPC   C4A 8336  14.275   6.264  13.949
36089DPPC   C1B 8337  15.145   0.026  15.229
36089DPPC   C2B 8338  14.875   0.016  14.969
36089DPPC   C3B 8339  14.455   0.116  14.629
36089DPPC   C4B 8340  14.175   0.096  14.219
36090DPPC   NC3 8341  14.315   1.784  18.589
36090DPPC   PO4 8342  13.985   1.804  18.829
36090DPPC   GL1 8343  13.655   1.914  18.679
36090DPPC   GL2 8344  13.805   1.924  18.379
36090DPPC   C1A 8345  13.425   1.744  18.489
36090DPPC   C2A 8346  13.305   1.564  18.149
36090DPPC   C3A 8347  12.965   1.664  17.719
36090DPPC   C4A 8348  12.585   1.694  17.389
36090DPPC   C1B 8349  13.555   2.044  18.139
36090DPPC   C2B 8350  13.365   2.024  17.799
36090DPPC   C3B 8351  13.125   2.024  17.389
36090DPPC   C4B 8352  12.735   2.014  17.029
36091DPPC   NC3 8353  15.945   3.074  15.349
36091DPPC   PO4 8354  15.825   3.334  15.649
36091DPPC   GL1 8355  15.575   3.584  15.419
36091DPPC   GL2 8356  15.625   3.354  15.239
36091DPPC   C1A 8357  15.275   3.704  15.289
36091DPPC   C2A 8358  15.065   3.554  14.959
36091DPPC   C3A 8359  14.755   3.654  14.609
36091DPPC   C4A 8360  14.495   3.654  14.169
36091DPPC   C1B 8361  15.365   3.154  15.099
36091DPPC   C2B 8362  15.085   3.074  14.729
36091DPPC   C3B 8363  14.815   3.174  14.349
36091DPPC   C4B 8364  14.495   3.144  13.959
36092DPPC   NC3 8365  17.425   3.684  13.669
36092DPPC   PO4 8366  17.075   3.564  13.459
36092DPPC   GL1 8367  16.765   3.774  13.329
36092DPPC   GL2 8368  16.735   3.584  13.159
36092DPPC   C1A 8369  16.485   3.984  13.139
36092DPPC   C2A 8370  16.165   4.144  12.899
36092DPPC   C3A 8371  15.855   4.064  12.569
36092DPPC   C4A 8372  15.555   4.024  12.219
36092DPPC   C1B 8373  16.455   3.624  12.899
36092DPPC   C2B 8374  16.135   3.624  12.619
36092DPPC   C3B 8375  15.885   3.504  12.219
36092DPPC   C4B 8376  15.755   3.124  11.949
36093DPPC   NC3 8377  15.115   4.604  15.669
36093DPPC   PO4 8378  15.375   4.914  15.649
36093DPPC   GL1 8379  15.145   5.194  15.369
36093DPPC   GL2 8380  14.915   5.084  15.519
36093DPPC   C1A 8381  15.025   5.324  15.039
36093DPPC   C2A 8382  14.705   5.414  14.799
36093DPPC   C3A 8383  14.395   5.424  14.479
36093DPPC   C4A 8384  14.035   5.524  14.119
36093DPPC   C1B 8385  14.715   4.934  15.259
36093DPPC   C2B 8386  14.425   4.984  14.969
36093DPPC   C3B 8387  14.085   5.064  14.609
36093DPPC   C4B 8388  13.775   4.984  14.329
36094DPPC   NC3 8389  17.085   1.864  14.029
36094DPPC   PO4 8390  16.875   1.514  14.089
36094DPPC   GL1 8391  16.395   1.484  14.129
36094DPPC   GL2 8392  16.555   1.804  14.149
36094DPPC   C1A 8393  16.135   1.534  13.859
36094DPPC   C2A 8394  15.895   1.624  13.549
36094DPPC   C3A 8395  15.585   1.624  13.219
36094DPPC   C4A 8396  15.315   1.634  12.799
36094DPPC   C1B 8397  16.525   1.754  13.789
36094DPPC   C2B 8398  16.345   1.964  13.449
36094DPPC   C3B 8399  15.985   1.944  13.119
36094DPPC   C4B 8400  15.685   1.934  12.759
36095DPPC   NC3 8401  13.285   3.474  11.249
36095DPPC   PO4 8402  13.365   3.144  11.419
36095DPPC   GL1 8403  13.675   2.964  11.589
36095DPPC   GL2 8404  13.815   2.874  11.429
36095DPPC   C1A 8405  13.825   2.914  11.909
36095DPPC   C2A 8406  14.095   2.954  12.259
36095DPPC   C3A 8407  14.485   2.954  12.609
36095DPPC   C4A 8408  14.875   2.984  12.959
36095DPPC   C1B 8409  14.155   2.804  11.589
36095DPPC   C2B 8410  14.465   2.784  11.839
36095DPPC   C3B 8411  14.805   2.844  12.179
36095DPPC   C4B 8412  15.195   2.804  12.519
36096DPPC   NC3 8413  10.115   0.216  15.029
36096DPPC   PO4 8414  10.505   0.226  14.989
36096DPPC   GL1 8415  10.865   0.246  15.209
36096DPPC   GL2 8416  10.735   0.146  15.419
36096DPPC   C1A 8417  11.215   0.246  15.209
36096DPPC   C2A 8418  11.525   0.206  15.469
36096DPPC   C3A 8419  11.785   0.166  15.839
36096DPPC   C4A 8420  12.155   0.276  16.059
36096DPPC   C1B 8421  10.945   0.206  15.749
36096DPPC   C2B 8422  11.285   0.266  15.989
36096DPPC   C3B 8423  11.635   0.376  16.279
36096DPPC   C4B 8424  11.995   0.386  16.659
36097DPPC   NC3 8425  12.475   0.976  12.789
36097DPPC   PO4 8426  12.295   1.234  13.069
36097DPPC   GL1 8427  12.715   1.244  13.139
36097DPPC   GL2 8428  12.595   1.174  13.459
36097DPPC   C1A 8429  12.995   1.136  13.349
36097DPPC   C2A 8430  13.305   1.106  13.659
36097DPPC   C3A 8431  13.585   1.066  14.039
36097DPPC   C4A 8432  13.915   0.916  14.389
36097DPPC   C1B 8433  12.715   1.214  13.819
36097DPPC   C2B 8434  13.025   1.184  14.109
36097DPPC   C3B 8435  13.325   1.096  14.439
36097DPPC   C4B 8436  13.595   1.076  14.839
36098DPPC   NC3 8437  11.595   5.344  13.089
36098DPPC   PO4 8438  11.795   5.534  12.839
36098DPPC   GL1 8439  12.025   5.794  13.149
36098DPPC   GL2 8440  11.765   5.754  13.309
36098DPPC   C1A 8441  12.215   5.684  13.489
36098DPPC   C2A 8442  12.475   5.584  13.749
36098DPPC   C3A 8443  12.815   5.614  14.109
36098DPPC   C4A 8444  13.155   5.614  14.539
36098DPPC   C1B 8445  11.955   5.984  13.599
36098DPPC   C2B 8446  12.275   6.114  13.809
36098DPPC   C3B 8447  12.615   6.144  14.119
36098DPPC   C4B 8448  12.885   6.134  14.519
36099DPPC   NC3 8449  10.755   5.644  14.639
36099DPPC   PO4 8450  11.135   5.524  14.669
36099DPPC   GL1 8451  11.425   5.704  14.909
36099DPPC   GL2 8452  11.215   5.524  15.119
36099DPPC   C1A 8453  11.645   5.874  15.119
36099DPPC   C2A 8454  11.985   5.864  15.349
36099DPPC   C3A 8455  12.265   5.864  15.779
36099DPPC   C4A 8456  12.615   5.874  16.079
36099DPPC   C1B 8457  11.455   5.414  15.379
36099DPPC   C2B 8458  11.775   5.414  15.659
36099DPPC   C3B 8459  12.095   5.434  16.019
36099DPPC   C4B 8460  12.445   5.474  16.359
36100DPPC   NC3 8461  13.185   1.854  11.539
36100DPPC   PO4 8462  13.485   1.604  11.299
36100DPPC   GL1 8463  13.695   1.424  11.589
36100DPPC   GL2 8464  13.855   1.224  11.539
36100DPPC   C1A 8465  13.715   1.614  11.919
36100DPPC   C2A 8466  14.025   1.684  12.169
36100DPPC   C3A 8467  14.355   1.724  12.519
36100DPPC   C4A 8468  14.665   1.704  12.849
36100DPPC   C1B 8469  14.075   1.096  11.849
36100DPPC   C2B 8470  14.315   1.126  12.209
36100DPPC   C3B 8471  14.635   1.156  12.559
36100DPPC   C4B 8472  14.995   1.214  12.929
36101DPPC   NC3 8473  12.605   3.084  11.439
36101DPPC   PO4 8474  12.905   2.864  11.599
36101DPPC   GL1 8475  13.345   2.834  11.819
36101DPPC   GL2 8476  13.305   3.064  11.889
36101DPPC   C1A 8477  13.485   2.754  12.169
36101DPPC   C2A 8478  13.805   2.654  12.419
36101DPPC   C3A 8479  14.155   2.594  12.759
36101DPPC   C4A 8480  14.485   2.494  13.169
36101DPPC   C1B 8481  13.635   3.214  12.129
36101DPPC   C2B 8482  13.945   3.454  12.249
36101DPPC   C3B 8483  14.295   3.384  12.619
36101DPPC   C4B 8484  14.695   3.454  12.929
36102DPPC   NC3 8485  12.985   4.724  12.209
36102DPPC   PO4 8486  12.955   4.344  12.039
36102DPPC   GL1 8487  13.305   4.274  12.219
36102DPPC   GL2 8488  13.195   4.264  12.469
36102DPPC   C1A 8489  13.635   4.374  12.389
36102DPPC   C2A 8490  13.885   4.414  12.679
36102DPPC   C3A 8491  14.215   4.424  12.989
36102DPPC   C4A 8492  14.525   4.374  13.389
36102DPPC   C1B 8493  13.355   4.454  12.729
36102DPPC   C2B 8494  13.605   4.484  13.089
36102DPPC   C3B 8495  13.945   4.504  13.409
36102DPPC   C4B 8496  14.245   4.484  13.829
36103DPPC   NC3 8497  12.605   1.584  12.179
36103DPPC   PO4 8498  12.625   1.894  12.419
36103DPPC   GL1 8499  13.085   1.864  12.469
36103DPPC   GL2 8500  13.065   1.594  12.319
36103DPPC   C1A 8501  13.325   1.844  12.769
36103DPPC   C2A 8502  13.565   1.844  13.089
36103DPPC   C3A 8503  13.935   1.804  13.429
36103DPPC   C4A 8504  14.335   1.774  13.759
36103DPPC   C1B 8505  13.385   1.424  12.259
36103DPPC   C2B 8506  13.775   1.274  12.299
36103DPPC   C3B 8507  14.125   1.264  12.639
36103DPPC   C4B 8508  14.435   1.264  12.999
36104DPPC   NC3 8509  12.335   5.164  12.739
36104DPPC   PO4 8510  11.985   5.064  12.889
36104DPPC   GL1 8511  12.135   4.904  13.229
36104DPPC   GL2 8512  12.355   5.104  13.219
36104DPPC   C1A 8513  12.325   4.644  13.389
36104DPPC   C2A 8514  12.705   4.634  13.599
36104DPPC   C3A 8515  13.085   4.624  13.959
36104DPPC   C4A 8516  13.415   4.654  14.329
36104DPPC   C1B 8517  12.515   5.164  13.569
36104DPPC   C2B 8518  12.785   5.104  13.919
36104DPPC   C3B 8519  13.135   5.094  14.179
36104DPPC   C4B 8520  13.435   5.124  14.629
36105DPPC   NC3 8521  10.635   4.614  14.489
36105DPPC   PO4 8522  10.945   4.584  14.729
36105DPPC   GL1 8523  11.355   4.544  14.869
36105DPPC   GL2 8524  11.305   4.684  15.109
36105DPPC   C1A 8525  11.715   4.614  14.969
36105DPPC   C2A 8526  11.945   4.544  15.269
36105DPPC   C3A 8527  12.215   4.574  15.619
36105DPPC   C4A 8528  12.575   4.504  15.929
36105DPPC   C1B 8529  11.575   4.974  15.199
36105DPPC   C2B 8530  11.825   4.984  15.519
36105DPPC   C3B 8531  12.155   4.984  15.839
36105DPPC   C4B 8532  12.465   4.944  16.209
36106DPPC   NC3 8533  11.095   0.116  13.779
36106DPPC   PO4 8534  11.065   0.346  14.129
36106DPPC   GL1 8535  11.355   0.326  14.429
36106DPPC   GL2 8536  11.505   0.556  14.259
36106DPPC   C1A 8537  11.705   0.156  14.499
36106DPPC   C2A 8538  12.025   0.066  14.689
36106DPPC   C3A 8539  12.385   6.594  15.029
36106DPPC   C4A 8540  12.745   0.006  15.359
36106DPPC   C1B 8541  11.765   0.616  14.489
36106DPPC   C2B 8542  12.095   0.626  14.729
36106DPPC   C3B 8543  12.355   0.556  15.089
36106DPPC   C4B 8544  12.685   0.516  15.489
36107DPPC   NC3 8545  12.265   3.564  13.009
36107DPPC   PO4 8546  12.425   3.804  12.719
36107DPPC   GL1 8547  12.725   3.674  12.879
36107DPPC   GL2 8548  12.685   3.664  13.159
36107DPPC   C1A 8549  13.065   3.754  12.909
36107DPPC   C2A 8550  13.385   3.594  13.089
36107DPPC   C3A 8551  13.755   3.714  13.399
36107DPPC   C4A 8552  14.105   3.584  13.809
36107DPPC   C1B 8553  12.995   3.694  13.339
36107DPPC   C2B 8554  13.295   3.764  13.569
36107DPPC   C3B 8555  13.585   3.734  13.929
36107DPPC   C4B 8556  13.905   3.724  14.279
36108DPPC   NC3 8557  12.685   0.176  12.619
36108DPPC   PO4 8558  12.385   0.436  12.739
36108DPPC   GL1 8559  12.655   0.516  12.899
36108DPPC   GL2 8560  12.495   0.676  13.109
36108DPPC   C1A 8561  12.965   0.496  13.099
36108DPPC   C2A 8562  13.215   0.676  13.389
36108DPPC   C3A 8563  13.585   0.646  13.719
36108DPPC   C4A 8564  13.865   0.546  14.119
36108DPPC   C1B 8565  12.655   0.746  13.439
36108DPPC   C2B 8566  12.895   0.716  13.739
36108DPPC   C3B 8567  13.205   0.726  14.059
36108DPPC   C4B 8568  13.465   0.656  14.479
36109DPPC   NC3 8569  13.525   0.226  11.559
36109DPPC   PO4 8570  13.205   0.076  11.719
36109DPPC   GL1 8571  13.475   6.414  11.819
36109DPPC   GL2 8572  13.305   6.244  12.009
36109DPPC   C1A 8573  13.855   6.474  11.859
36109DPPC   C2A 8574  14.255   6.404  11.999
36109DPPC   C3A 8575  14.575   6.424  12.359
36109DPPC   C4A 8576  14.985   6.474  12.699
36109DPPC   C1B 8577  13.385   6.224  12.339
36109DPPC   C2B 8578  13.675   6.204  12.629
36109DPPC   C3B 8579  13.975   6.114  12.959
36109DPPC   C4B 8580  14.305   6.214  13.329
36110DPPC   NC3 8581  12.085   4.164  12.789
36110DPPC   PO4 8582  11.965   3.974  13.119
36110DPPC   GL1 8583  12.155   4.034  13.419
36110DPPC   GL2 8584  12.325   3.804  13.399
36110DPPC   C1A 8585  12.415   4.254  13.649
36110DPPC   C2A 8586  12.675   4.294  13.959
36110DPPC   C3A 8587  12.995   4.294  14.349
36110DPPC   C4A 8588  13.315   4.264  14.699
36110DPPC   C1B 8589  12.595   3.874  13.689
36110DPPC   C2B 8590  12.905   3.884  13.989
36110DPPC   C3B 8591  13.255   3.844  14.259
36110DPPC   C4B 8592  13.535   3.834  14.719
36111DPPC   NC3 8593  13.985   0.616  10.379
36111DPPC   PO4 8594  13.865   0.286  10.569
36111DPPC   GL1 8595  14.025   0.396  10.969
36111DPPC   GL2 8596  13.895   0.526  11.119
36111DPPC   C1A 8597  14.315   0.216  11.139
36111DPPC   C2A 8598  14.565   6.574  11.239
36111DPPC   C3A 8599  14.875   0.086  11.569
36111DPPC   C4A 8600  15.165   0.106  11.949
36111DPPC   C1B 8601  14.025   0.556  11.429
36111DPPC   C2B 8602  14.265   0.636  11.779
36111DPPC   C3B 8603  14.625   0.686  12.159
36111DPPC   C4B 8604  14.955   0.716  12.519
36112DPPC   NC3 8605  11.545   5.184  13.989
36112DPPC   PO4 8606  11.345   5.254  14.329
36112DPPC   GL1 8607  11.565   5.364  14.629
36112DPPC   GL2 8608  11.835   5.304  14.509
36112DPPC   C1A 8609  11.785   5.454  14.929
36112DPPC   C2A 8610  12.025   5.364  15.239
36112DPPC   C3A 8611  12.395   5.414  15.589
36112DPPC   C4A 8612  12.665   5.334  15.979
36112DPPC   C1B 8613  12.195   5.344  14.699
36112DPPC   C2B 8614  12.515   5.304  14.909
36112DPPC   C3B 8615  12.825   5.284  15.279
36112DPPC   C4B 8616  13.285   5.184  15.119
36113DPPC   NC3 8617  12.335   1.814  12.839
36113DPPC   PO4 8618  12.015   2.034  12.839
36113DPPC   GL1 8619  12.315   2.214  13.199
36113DPPC   GL2 8620  12.335   2.054  13.309
36113DPPC   C1A 8621  12.485   2.524  13.409
36113DPPC   C2A 8622  12.595   2.464  13.789
36113DPPC   C3A 8623  12.975   2.454  14.119
36113DPPC   C4A 8624  13.325   2.384  14.479
36113DPPC   C1B 8625  12.615   1.984  13.519
36113DPPC   C2B 8626  12.945   1.984  13.759
36113DPPC   C3B 8627  13.285   2.004  14.079
36113DPPC   C4B 8628  13.625   1.904  14.359
36114DPPC   NC3 8629  11.595   1.694  13.579
36114DPPC   PO4 8630  11.645   1.994  13.829
36114DPPC   GL1 8631  12.015   1.864  13.769
36114DPPC   GL2 8632  11.925   1.784  14.069
36114DPPC   C1A 8633  12.325   1.994  13.879
36114DPPC   C2A 8634  12.585   2.104  14.139
36114DPPC   C3A 8635  12.905   2.084  14.509
36114DPPC   C4A 8636  13.285   1.974  14.839
36114DPPC   C1B 8637  12.225   1.754  14.219
36114DPPC   C2B 8638  12.505   1.774  14.539
36114DPPC   C3B 8639  12.865   1.684  14.849
36114DPPC   C4B 8640  13.195   1.644  15.209
36115DPPC   NC3 8641  11.415   0.936  13.599
36115DPPC   PO4 8642  11.765   0.826  13.499
36115DPPC   GL1 8643  11.965   0.546  13.609
36115DPPC   GL2 8644  12.235   0.706  13.519
36115DPPC   C1A 8645  11.965   0.356  13.919
36115DPPC   C2A 8646  12.205   0.396  14.319
36115DPPC   C3A 8647  12.575   0.446  14.629
36115DPPC   C4A 8648  12.805   0.346  14.949
36115DPPC   C1B 8649  12.415   0.866  13.809
36115DPPC   C2B 8650  12.565   0.866  14.139
36115DPPC   C3B 8651  12.885   0.806  14.449
36115DPPC   C4B 8652  13.215   0.756  14.889
36116DPPC   NC3 8653  15.825   2.504   8.929
36116DPPC   PO4 8654  15.525   2.684   8.799
36116DPPC   GL1 8655  15.635   2.904   9.149
36116DPPC   GL2 8656  15.365   2.804   9.319
36116DPPC   C1A 8657  15.905   2.794   9.369
36116DPPC   C2A 8658  16.235   2.804   9.659
36116DPPC   C3A 8659  16.565   3.044   9.849
36116DPPC   C4A 8660  16.515   3.434  10.089
36116DPPC   C1B 8661  15.465   2.584   9.619
36116DPPC   C2B 8662  15.535   2.514  10.009
36116DPPC   C3B 8663  15.725   2.394  10.389
36116DPPC   C4B 8664  16.165   2.494  10.619
36117DPPC   NC3 8665  12.035   0.096  12.779
36117DPPC   PO4 8666  12.165   6.424  12.529
36117DPPC   GL1 8667  12.545   6.354  12.549
36117DPPC   GL2 8668  12.715   6.394  12.319
36117DPPC   C1A 8669  12.755   6.304  12.859
36117DPPC   C2A 8670  12.925   6.304  13.269
36117DPPC   C3A 8671  13.275   6.384  13.599
36117DPPC   C4A 8672  13.535   6.404  14.049
36117DPPC   C1B 8673  13.005   6.454  12.509
36117DPPC   C2B 8674  13.215   6.334  12.809
36117DPPC   C3B 8675  13.495   6.214  13.169
36117DPPC   C4B 8676  13.855   6.274  13.539
36118DPPC   NC3 8677  11.695   2.794  13.069
36118DPPC   PO4 8678  11.675   2.974  13.399
36118DPPC   GL1 8679  12.095   3.054  13.559
36118DPPC   GL2 8680  12.025   3.204  13.729
36118DPPC   C1A 8681  12.415   2.964  13.709
36118DPPC   C2A 8682  12.665   3.014  14.039
36118DPPC   C3A 8683  13.025   2.984  14.409
36118DPPC   C4A 8684  13.445   2.914  14.689
36118DPPC   C1B 8685  12.275   3.314  13.969
36118DPPC   C2B 8686  12.595   3.504  14.139
36118DPPC   C3B 8687  12.895   3.434  14.489
36118DPPC   C4B 8688  13.205   3.384  14.809
36119DPPC   NC3 8689  14.225   2.124  10.299
36119DPPC   PO4 8690  14.185   2.484  10.219
36119DPPC   GL1 8691  14.585   2.724  10.279
36119DPPC   GL2 8692  14.645   2.414  10.139
36119DPPC   C1A 8693  14.815   2.724  10.569
36119DPPC   C2A 8694  14.975   2.614  10.939
36119DPPC   C3A 8695  15.325   2.584  11.289
36119DPPC   C4A 8696  15.605   2.684  11.659
36119DPPC   C1B 8697  14.885   2.164  10.189
36119DPPC   C2B 8698  15.225   1.984  10.279
36119DPPC   C3B 8699  15.565   2.024  10.639
36119DPPC   C4B 8700  15.915   2.024  10.919
36120DPPC   NC3 8701  15.085   2.224   9.689
36120DPPC   PO4 8702  14.935   1.844   9.629
36120DPPC   GL1 8703  14.855   1.704   9.979
36120DPPC   GL2 8704  14.945   1.404   9.819
36120DPPC   C1A 8705  15.045   1.554  10.259
36120DPPC   C2A 8706  15.215   1.634  10.659
36120DPPC   C3A 8707  15.525   1.684  11.099
36120DPPC   C4A 8708  15.825   1.784  11.369
36120DPPC   C1B 8709  15.275   1.334   9.949
36120DPPC   C2B 8710  15.495   1.096  10.179
36120DPPC   C3B 8711  15.855   1.056  10.479
36120DPPC   C4B 8712  16.275   1.194  10.739
36121DPPC   NC3 8713  12.795   2.284  11.619
36121DPPC   PO4 8714  13.155   2.334  11.569
36121DPPC   GL1 8715  13.415   2.384  11.809
36121DPPC   GL2 8716  13.255   2.324  12.069
36121DPPC   C1A 8717  13.725   2.434  11.939
36121DPPC   C2A 8718  14.095   2.474  11.999
36121DPPC   C3A 8719  14.455   2.504  12.319
36121DPPC   C4A 8720  14.845   2.494  12.619
36121DPPC   C1B 8721  13.455   2.324  12.349
36121DPPC   C2B 8722  13.655   2.244  12.689
36121DPPC   C3B 8723  13.995   2.144  13.039
36121DPPC   C4B 8724  14.345   2.124  13.389
36122DPPC   NC3 8725  14.685   0.596   9.469
36122DPPC   PO4 8726  14.475   0.316   9.679
36122DPPC   GL1 8727  14.735   0.116  10.019
36122DPPC   GL2 8728  14.615   6.484   9.959
36122DPPC   C1A 8729  14.915   0.226  10.329
36122DPPC   C2A 8730  15.105   0.376  10.629
36122DPPC   C3A 8731  15.505   0.346  11.029
36122DPPC   C4A 8732  15.785   0.346  11.449
36122DPPC   C1B 8733  14.675   6.374  10.329
36122DPPC   C2B 8734  14.765   6.544  10.669
36122DPPC   C3B 8735  15.045   6.574  11.109
36122DPPC   C4B 8736  15.405   6.574  11.419
36123DPPC   NC3 8737  12.135   1.136  13.519
36123DPPC   PO4 8738  11.835   1.314  13.719
36123DPPC   GL1 8739  11.955   1.324  14.149
36123DPPC   GL2 8740  12.185   1.184  14.099
36123DPPC   C1A 8741  12.035   1.384  14.489
36123DPPC   C2A 8742  12.265   1.464  14.809
36123DPPC   C3A 8743  12.595   1.344  15.169
36123DPPC   C4A 8744  12.925   1.354  15.569
36123DPPC   C1B 8745  12.515   1.304  14.299
36123DPPC   C2B 8746  12.765   1.284  14.599
36123DPPC   C3B 8747  13.115   1.224  14.929
36123DPPC   C4B 8748  13.485   1.284  15.289
36124DPPC   NC3 8749  13.825   3.574  10.679
36124DPPC   PO4 8750  13.625   3.694  10.979
36124DPPC   GL1 8751  13.905   3.694  11.359
36124DPPC   GL2 8752  13.785   3.424  11.329
36124DPPC   C1A 8753  14.095   3.774  11.699
36124DPPC   C2A 8754  14.265   3.764  12.069
36124DPPC   C3A 8755  14.595   3.774  12.379
36124DPPC   C4A 8756  14.985   3.724  12.689
36124DPPC   C1B 8757  14.015   3.254  11.499
36124DPPC   C2B 8758  14.175   3.214  11.839
36124DPPC   C3B 8759  14.545   3.254  12.089
36124DPPC   C4B 8760  14.865   3.264  12.449
36125DPPC   NC3 8761  12.535   2.984  12.369
36125DPPC   PO4 8762  12.605   2.614  12.419
36125DPPC   GL1 8763  13.035   2.554  12.499
36125DPPC   GL2 8764  13.015   2.324  12.569
36125DPPC   C1A 8765  13.325   2.704  12.689
36125DPPC   C2A 8766  13.635   2.694  12.919
36125DPPC   C3A 8767  13.995   2.624  13.259
36125DPPC   C4A 8768  14.275   2.674  13.639
36125DPPC   C1B 8769  13.255   2.284  12.889
36125DPPC   C2B 8770  13.465   2.354  13.259
36125DPPC   C3B 8771  13.755   2.304  13.589
36125DPPC   C4B 8772  14.175   2.274  13.879
36126DPPC   NC3 8773  13.425   0.316  10.789
36126DPPC   PO4 8774  13.605   0.086  11.089
36126DPPC   GL1 8775  13.935   6.584  11.159
36126DPPC   GL2 8776  13.865   6.334  11.269
36126DPPC   C1A 8777  14.055   0.116  11.489
36126DPPC   C2A 8778  14.335   0.166  11.739
36126DPPC   C3A 8779  14.675   0.186  12.059
36126DPPC   C4A 8780  15.065   0.276  12.419
36126DPPC   C1B 8781  14.225   6.264  11.339
36126DPPC   C2B 8782  14.515   6.224  11.579
36126DPPC   C3B 8783  14.815   6.304  11.919
36126DPPC   C4B 8784  15.125   6.214  12.289
36127DPPC   NC3 8785  12.825   2.264  12.179
36127DPPC   PO4 8786  13.015   1.944  12.009
36127DPPC   GL1 8787  13.375   1.894  12.109
36127DPPC   GL2 8788  13.535   1.994  11.919
36127DPPC   C1A 8789  13.605   1.814  12.399
36127DPPC   C2A 8790  13.865   1.744  12.719
36127DPPC   C3A 8791  14.205   1.744  13.009
36127DPPC   C4A 8792  14.595   1.724  13.349
36127DPPC   C1B 8793  13.815   2.084  12.149
36127DPPC   C2B 8794  14.145   2.154  12.439
36127DPPC   C3B 8795  14.455   2.134  12.769
36127DPPC   C4B 8796  14.845   2.134  13.119
36128DPPC   NC3 8797  12.055   5.954  12.629
36128DPPC   PO4 8798  12.335   5.634  12.539
36128DPPC   GL1 8799  12.355   5.554  13.009
36128DPPC   GL2 8800  12.485   5.744  12.989
36128DPPC   C1A 8801  12.595   5.424  13.239
36128DPPC   C2A 8802  12.905   5.444  13.509
36128DPPC   C3A 8803  13.235   5.504  13.839
36128DPPC   C4A 8804  13.525   5.444  14.169
36128DPPC   C1B 8805  12.465   5.974  13.289
36128DPPC   C2B 8806  12.705   5.994  13.589
36128DPPC   C3B 8807  13.015   6.024  13.849
36128DPPC   C4B 8808  13.285   5.964  14.189
36129DPPC   NC3 8809  13.905   5.874  10.389
36129DPPC   PO4 8810  14.035   5.644  10.129
36129DPPC   GL1 8811  14.405   5.514  10.239
36129DPPC   GL2 8812  14.585   5.794  10.289
36129DPPC   C1A 8813  14.625   5.294  10.449
36129DPPC   C2A 8814  14.975   5.224  10.639
36129DPPC   C3A 8815  15.215   5.304  11.079
36129DPPC   C4A 8816  15.545   5.334  11.379
36129DPPC   C1B 8817  14.895   5.684  10.379
36129DPPC   C2B 8818  15.305   5.674  10.539
36129DPPC   C3B 8819  15.625   5.704  10.959
36129DPPC   C4B 8820  15.825   5.684  11.359
36130DPPC   NC3 8821  10.655   6.304  14.579
36130DPPC   PO4 8822  11.005   6.104  14.549
36130DPPC   GL1 8823  11.425   6.114  14.689
36130DPPC   GL2 8824  11.575   6.034  14.479
36130DPPC   C1A 8825  11.635   6.334  14.879
36130DPPC   C2A 8826  12.055   6.284  15.009
36130DPPC   C3A 8827  12.385   6.224  15.409
36130DPPC   C4A 8828  12.705   6.284  15.799
36130DPPC   C1B 8829  11.915   5.924  14.629
36130DPPC   C2B 8830  12.235   5.804  14.869
36130DPPC   C3B 8831  12.475   5.724  15.259
36130DPPC   C4B 8832  12.835   5.674  15.589
36131DPPC   NC3 8833  10.585   0.666  14.079
36131DPPC   PO4 8834  10.765   0.816  14.349
36131DPPC   GL1 8835  11.085   0.626  14.489
36131DPPC   GL2 8836  11.245   0.806  14.509
36131DPPC   C1A 8837  11.205   0.506  14.819
36131DPPC   C2A 8838  11.575   0.316  14.939
36131DPPC   C3A 8839  11.915   0.186  15.189
36131DPPC   C4A 8840  12.235   0.186  15.549
36131DPPC   C1B 8841  11.515   0.776  14.749
36131DPPC   C2B 8842  11.725   0.736  15.109
36131DPPC   C3B 8843  11.995   0.646  15.479
36131DPPC   C4B 8844  12.335   0.646  15.799
36132DPPC   NC3 8845  10.545   1.046  14.699
36132DPPC   PO4 8846  10.575   1.086  15.079
36132DPPC   GL1 8847  10.965   1.164  15.259
36132DPPC   GL2 8848  11.095   0.906  15.079
36132DPPC   C1A 8849  11.235   1.184  15.549
36132DPPC   C2A 8850  11.485   1.194  15.859
36132DPPC   C3A 8851  11.845   1.164  16.239
36132DPPC   C4A 8852  12.175   1.184  16.599
36132DPPC   C1B 8853  11.305   0.776  15.329
36132DPPC   C2B 8854  11.515   0.686  15.659
36132DPPC   C3B 8855  11.855   0.716  16.009
36132DPPC   C4B 8856  12.095   0.766  16.379
36133DPPC   NC3 8857  11.735   3.964  13.549
36133DPPC   PO4 8858  11.665   3.824  13.899
36133DPPC   GL1 8859  11.915   3.574  13.969
36133DPPC   GL2 8860  12.115   3.734  13.839
36133DPPC   C1A 8861  12.095   3.504  14.279
36133DPPC   C2A 8862  12.265   3.514  14.649
36133DPPC   C3A 8863  12.605   3.594  14.919
36133DPPC   C4A 8864  12.945   3.494  15.219
36133DPPC   C1B 8865  12.335   3.904  14.099
36133DPPC   C2B 8866  12.605   3.944  14.389
36133DPPC   C3B 8867  12.935   3.964  14.769
36133DPPC   C4B 8868  13.265   3.904  15.149
36134DPPC   NC3 8869  11.875   2.044  13.309
36134DPPC   PO4 8870  11.995   1.674  13.249
36134DPPC   GL1 8871  12.275   1.584  13.589
36134DPPC   GL2 8872  12.485   1.624  13.239
36134DPPC   C1A 8873  12.535   1.624  13.909
36134DPPC   C2A 8874  12.885   1.664  14.169
36134DPPC   C3A 8875  13.215   1.594  14.479
36134DPPC   C4A 8876  13.565   1.584  14.779
36134DPPC   C1B 8877  12.725   1.564  13.499
36134DPPC   C2B 8878  13.095   1.514  13.729
36134DPPC   C3B 8879  13.435   1.554  14.019
36134DPPC   C4B 8880  13.755   1.414  14.369
36135DPPC   NC3 8881  11.505   1.664  14.179
36135DPPC   PO4 8882  11.395   2.034  14.299
36135DPPC   GL1 8883  11.695   2.184  14.349
36135DPPC   GL2 8884  11.905   2.164  14.179
36135DPPC   C1A 8885  11.905   2.314  14.639
36135DPPC   C2A 8886  12.055   2.334  15.039
36135DPPC   C3A 8887  12.435   2.314  15.349
36135DPPC   C4A 8888  12.825   2.294  15.689
36135DPPC   C1B 8889  12.215   2.184  14.429
36135DPPC   C2B 8890  12.425   2.184  14.759
36135DPPC   C3B 8891  12.855   2.194  14.969
36135DPPC   C4B 8892  13.165   2.114  15.349
36136DPPC   NC3 8893  13.415   2.684  11.249
36136DPPC   PO4 8894  13.745   2.614  11.019
36136DPPC   GL1 8895  14.065   2.474  11.149
36136DPPC   GL2 8896  14.015   2.194  11.159
36136DPPC   C1A 8897  14.385   2.654  11.149
36136DPPC   C2A 8898  14.725   2.714  11.379
36136DPPC   C3A 8899  15.015   2.754  11.689
36136DPPC   C4A 8900  15.275   2.834  12.049
36136DPPC   C1B 8901  14.295   1.964  11.319
36136DPPC   C2B 8902  14.585   1.884  11.529
36136DPPC   C3B 8903  14.935   1.864  11.889
36136DPPC   C4B 8904  15.325   1.824  12.249
36137DPPC   NC3 8905  11.825   3.164  14.119
36137DPPC   PO4 8906  11.545   3.444  14.249
36137DPPC   GL1 8907  11.725   3.594  14.489
36137DPPC   GL2 8908  11.795   3.894  14.329
36137DPPC   C1A 8909  11.865   3.624  14.849
36137DPPC   C2A 8910  12.165   3.614  15.119
36137DPPC   C3A 8911  12.495   3.614  15.479
36137DPPC   C4A 8912  12.745   3.574  15.899
36137DPPC   C1B 8913  12.105   3.984  14.559
36137DPPC   C2B 8914  12.365   3.984  14.839
36137DPPC   C3B 8915  12.675   4.004  15.189
36137DPPC   C4B 8916  12.975   3.874  15.559
36138DPPC   NC3 8917  13.815   2.534  10.559
36138DPPC   PO4 8918  14.015   2.234  10.709
36138DPPC   GL1 8919  14.385   2.214  10.829
36138DPPC   GL2 8920  14.535   2.334  10.539
36138DPPC   C1A 8921  14.565   2.284  11.179
36138DPPC   C2A 8922  14.915   2.244  11.369
36138DPPC   C3A 8923  15.265   2.284  11.659
36138DPPC   C4A 8924  15.585   2.314  12.109
36138DPPC   C1B 8925  14.895   2.224  10.629
36138DPPC   C2B 8926  15.195   2.114  10.899
36138DPPC   C3B 8927  15.565   2.194  11.179
36138DPPC   C4B 8928  15.835   2.254  11.619
36139DPPC   NC3 8929  11.275   3.914  14.319
36139DPPC   PO4 8930  11.015   3.914  14.589
36139DPPC   GL1 8931  11.115   3.934  14.939
36139DPPC   GL2 8932  11.095   4.164  14.939
36139DPPC   C1A 8933  11.385   3.794  15.129
36139DPPC   C2A 8934  11.745   3.684  15.339
36139DPPC   C3A 8935  12.055   3.634  15.719
36139DPPC   C4A 8936  12.365   3.754  16.129
36139DPPC   C1B 8937  11.425   4.264  15.169
36139DPPC   C2B 8938  11.635   4.214  15.549
36139DPPC   C3B 8939  11.985   4.184  15.919
36139DPPC   C4B 8940  12.345   4.224  16.309
36140DPPC   NC3 8941  13.005   5.524  11.339
36140DPPC   PO4 8942  13.215   5.844  11.229
36140DPPC   GL1 8943  13.585   5.824  11.339
36140DPPC   GL2 8944  13.655   5.554  11.399
36140DPPC   C1A 8945  13.785   6.024  11.529
36140DPPC   C2A 8946  14.075   5.944  11.769
36140DPPC   C3A 8947  14.535   5.934  11.999
36140DPPC   C4A 8948  14.735   5.924  12.439
36140DPPC   C1B 8949  13.835   5.594  11.709
36140DPPC   C2B 8950  13.985   5.574  12.099
36140DPPC   C3B 8951  14.395   5.604  12.399
36140DPPC   C4B 8952  14.735   5.564  12.799
36141DPPC   NC3 8953  14.295   5.964   9.549
36141DPPC   PO4 8954  14.405   5.634   9.769
36141DPPC   GL1 8955  14.855   5.664   9.849
36141DPPC   GL2 8956  14.715   5.954   9.859
36141DPPC   C1A 8957  15.065   5.464  10.029
36141DPPC   C2A 8958  15.355   5.274  10.229
36141DPPC   C3A 8959  15.505   5.244  10.679
36141DPPC   C4A 8960  15.855   5.164  11.069
36141DPPC   C1B 8961  14.955   6.014  10.109
36141DPPC   C2B 8962  15.075   6.094  10.509
36141DPPC   C3B 8963  15.245   6.104  10.959
36141DPPC   C4B 8964  15.575   6.104  11.309
36142DPPC   NC3 8965  11.725   3.424  13.149
36142DPPC   PO4 8966  11.955   3.524  13.439
36142DPPC   GL1 8967  12.395   3.414  13.569
36142DPPC   GL2 8968  12.355   3.254  13.339
36142DPPC   C1A 8969  12.725   3.394  13.729
36142DPPC   C2A 8970  13.085   3.414  13.989
36142DPPC   C3A 8971  13.415   3.344  14.349
36142DPPC   C4A 8972  13.785   3.314  14.699
36142DPPC   C1B 8973  12.765   3.274  13.299
36142DPPC   C2B 8974  13.105   3.254  13.449
36142DPPC   C3B 8975  13.515   3.294  13.719
36142DPPC   C4B 8976  13.855   3.204  14.089
36143DPPC   NC3 8977  12.885   3.454  12.479
36143DPPC   PO4 8978  13.165   3.484  12.179
36143DPPC   GL1 8979  13.375   3.594  12.439
36143DPPC   GL2 8980  13.325   3.844  12.539
36143DPPC   C1A 8981  13.665   3.524  12.649
36143DPPC   C2A 8982  13.935   3.564  12.949
36143DPPC   C3A 8983  14.215   3.564  13.259
36143DPPC   C4A 8984  14.565   3.624  13.579
36143DPPC   C1B 8985  13.565   3.964  12.759
36143DPPC   C2B 8986  13.835   4.034  13.079
36143DPPC   C3B 8987  14.165   4.074  13.489
36143DPPC   C4B 8988  14.495   4.074  13.799
36144DPPC   NC3 8989  12.015   4.854  12.389
36144DPPC   PO4 8990  12.235   4.554  12.569
36144DPPC   GL1 8991  12.375   4.534  12.949
36144DPPC   GL2 8992  12.335   4.354  13.099
36144DPPC   C1A 8993  12.635   4.774  13.019
36144DPPC   C2A 8994  12.915   5.004  13.229
36144DPPC   C3A 8995  13.145   5.034  13.589
36144DPPC   C4A 8996  13.525   5.004  13.879
36144DPPC   C1B 8997  12.695   4.294  13.239
36144DPPC   C2B 8998  12.925   4.164  13.559
36144DPPC   C3B 8999  13.315   4.184  13.889
36144DPPC   C4B 9000  13.595   4.154  14.279
36145DPPC   NC3 9001  10.805   3.924  14.159
36145DPPC   PO4 9002  10.935   4.304  14.209
36145DPPC   GL1 9003  11.325   4.334  14.519
36145DPPC   GL2 9004  11.435   4.394  14.279
36145DPPC   C1A 9005  11.525   4.144  14.689
36145DPPC   C2A 9006  11.815   4.044  14.969
36145DPPC   C3A 9007  12.155   4.094  15.349
36145DPPC   C4A 9008  12.505   4.044  15.749
36145DPPC   C1B 9009  11.785   4.374  14.399
36145DPPC   C2B 9010  12.035   4.454  14.699
36145DPPC   C3B 9011  12.365   4.444  14.989
36145DPPC   C4B 9012  12.665   4.534  15.419
36146DPPC   NC3 9013  12.985   3.364  11.719
36146DPPC   PO4 9014  12.795   3.154  11.999
36146DPPC   GL1 9015  13.175   3.084  12.349
36146DPPC   GL2 9016  12.945   2.974  12.559
36146DPPC   C1A 9017  13.505   3.084  12.509
36146DPPC   C2A 9018  13.865   3.094  12.709
36146DPPC   C3A 9019  14.245   3.124  13.019
36146DPPC   C4A 9020  14.585   3.064  13.409
36146DPPC   C1B 9021  12.925   2.784  12.869
36146DPPC   C2B 9022  13.155   2.724  13.169
36146DPPC   C3B 9023  13.555   2.794  13.479
36146DPPC   C4B 9024  13.845   2.754  13.849
36147DPPC   NC3 9025  16.525   6.014   8.289
36147DPPC   PO4 9026  16.645   5.694   8.449
36147DPPC   GL1 9027  16.935   5.704   8.779
36147DPPC   GL2 9028  17.005   5.404   8.709
36147DPPC   C1A 9029  17.065   5.634   9.089
36147DPPC   C2A 9030  17.245   5.594   9.469
36147DPPC   C3A 9031  17.365   5.344   9.869
36147DPPC   C4A 9032  17.475   5.234  10.329
36147DPPC   C1B 9033  17.365   5.474   8.779
36147DPPC   C2B 9034  17.595   5.644   9.119
36147DPPC   C3B 9035  17.995   5.794   9.319
36147DPPC   C4B 9036  18.395   6.084   9.339
36148DPPC   NC3 9037  13.445   2.864  10.739
36148DPPC   PO4 9038  13.695   3.134  10.969
36148DPPC   GL1 9039  14.085   3.184  10.899
36148DPPC   GL2 9040  14.115   2.994  11.139
36148DPPC   C1A 9041  14.265   3.464  11.069
36148DPPC   C2A 9042  14.405   3.534  11.469
36148DPPC   C3A 9043  14.745   3.714  11.789
36148DPPC   C4A 9044  15.055   3.704  12.159
36148DPPC   C1B 9045  14.385   3.084  11.359
36148DPPC   C2B 9046  14.775   3.184  11.549
36148DPPC   C3B 9047  15.075   3.254  11.909
36148DPPC   C4B 9048  15.375   3.294  12.269
36149DPPC   NC3 9049  10.255   4.784  15.719
36149DPPC   PO4 9050  10.375   4.544  15.439
36149DPPC   GL1 9051  10.725   4.414  15.609
36149DPPC   GL2 9052  10.575   4.294  15.849
36149DPPC   C1A 9053  10.945   4.594  15.769
36149DPPC   C2A 9054  11.195   4.714  16.129
36149DPPC   C3A 9055  11.535   4.764  16.429
36149DPPC   C4A 9056  11.865   4.794  16.769
36149DPPC   C1B 9057  10.845   4.194  16.039
36149DPPC   C2B 9058  11.135   3.904  16.179
36149DPPC   C3B 9059  11.455   3.924  16.529
36149DPPC   C4B 9060  11.705   3.954  16.919
36150DPPC   NC3 9061  14.465   1.414   9.629
36150DPPC   PO4 9062  14.515   1.384  10.039
36150DPPC   GL1 9063  14.665   1.244  10.409
36150DPPC   GL2 9064  14.915   1.076  10.299
36150DPPC   C1A 9065  14.865   1.374  10.689
36150DPPC   C2A 9066  15.065   1.324  11.089
36150DPPC   C3A 9067  15.465   1.334  11.469
36150DPPC   C4A 9068  15.735   1.454  11.909
36150DPPC   C1B 9069  15.175   1.204  10.459
36150DPPC   C2B 9070  15.445   1.234  10.769
36150DPPC   C3B 9071  15.805   1.294  11.109
36150DPPC   C4B 9072  16.005   1.304  11.569
36151DPPC   NC3 9073  13.495   4.774  11.099
36151DPPC   PO4 9074  13.695   4.994  10.819
36151DPPC   GL1 9075  13.965   5.304  10.959
36151DPPC   GL2 9076  13.955   5.104  11.239
36151DPPC   C1A 9077  14.305   5.334  11.019
36151DPPC   C2A 9078  14.695   5.304  11.189
36151DPPC   C3A 9079  14.985   5.304  11.609
36151DPPC   C4A 9080  15.255   5.304  11.979
36151DPPC   C1B 9081  14.255   4.944  11.349
36151DPPC   C2B 9082  14.545   4.934  11.669
36151DPPC   C3B 9083  14.905   4.994  12.009
36151DPPC   C4B 9084  15.205   4.904  12.339
36152DPPC   NC3 9085  11.305   3.554  14.699
36152DPPC   PO4 9086  10.945   3.464  14.899
36152DPPC   GL1 9087  11.145   3.414  15.279
36152DPPC   GL2 9088  11.025   3.664  15.369
36152DPPC   C1A 9089  11.475   3.334  15.349
36152DPPC   C2A 9090  11.675   3.334  15.739
36152DPPC   C3A 9091  11.965   3.344  16.159
36152DPPC   C4A 9092  12.255   3.314  16.509
36152DPPC   C1B 9093  11.265   3.734  15.629
36152DPPC   C2B 9094  11.575   3.874  15.889
36152DPPC   C3B 9095  11.855   3.824  16.239
36152DPPC   C4B 9096  12.155   3.854  16.649
36153DPPC   NC3 9097  10.655   3.874  15.029
36153DPPC   PO4 9098  10.815   4.044  15.329
36153DPPC   GL1 9099  11.115   4.394  15.409
36153DPPC   GL2 9100  11.215   4.134  15.549
36153DPPC   C1A 9101  11.385   4.594  15.559
36153DPPC   C2A 9102  11.685   4.664  15.859
36153DPPC   C3A 9103  12.045   4.654  16.199
36153DPPC   C4A 9104  12.405   4.674  16.569
36153DPPC   C1B 9105  11.315   4.274  15.869
36153DPPC   C2B 9106  11.505   4.304  16.209
36153DPPC   C3B 9107  11.875   4.294  16.539
36153DPPC   C4B 9108  12.245   4.344  16.869
36154DPPC   NC3 9109  13.085   5.014  11.529
36154DPPC   PO4 9110  13.475   5.114  11.439
36154DPPC   GL1 9111  13.635   5.004  11.769
36154DPPC   GL2 9112  13.445   4.974  12.029
36154DPPC   C1A 9113  13.945   5.104  11.919
36154DPPC   C2A 9114  14.295   5.134  12.099
36154DPPC   C3A 9115  14.645   5.164  12.439
36154DPPC   C4A 9116  15.035   5.094  12.809
36154DPPC   C1B 9117  13.405   4.884  12.369
36154DPPC   C2B 9118  13.635   4.894  12.679
36154DPPC   C3B 9119  13.985   4.874  12.989
36154DPPC   C4B 9120  14.295   4.824  13.349
36155DPPC   NC3 9121  11.105   1.214  14.399
36155DPPC   PO4 9122  10.995   1.194  14.789
36155DPPC   GL1 9123  11.235   1.344  14.979
36155DPPC   GL2 9124  11.245   1.624  15.059
36155DPPC   C1A 9125  11.525   1.194  15.069
36155DPPC   C2A 9126  11.665   1.086  15.419
36155DPPC   C3A 9127  12.045   1.116  15.679
36155DPPC   C4A 9128  12.375   1.146  16.079
36155DPPC   C1B 9129  11.475   1.494  15.359
36155DPPC   C2B 9130  11.725   1.584  15.679
36155DPPC   C3B 9131  12.065   1.564  16.009
36155DPPC   C4B 9132  12.345   1.614  16.319
36156DPPC   NC3 9133  11.025   5.724  14.199
36156DPPC   PO4 9134  11.225   5.614  13.879
36156DPPC   GL1 9135  11.635   5.744  13.749
36156DPPC   GL2 9136  11.645   5.454  13.629
36156DPPC   C1A 9137  11.965   5.724  13.949
36156DPPC   C2A 9138  12.325   5.734  14.239
36156DPPC   C3A 9139  12.665   5.664  14.599
36156DPPC   C4A 9140  12.895   5.674  14.999
36156DPPC   C1B 9141  12.005   5.334  13.729
36156DPPC   C2B 9142  12.265   5.274  14.069
36156DPPC   C3B 9143  12.585   5.234  14.399
36156DPPC   C4B 9144  12.945   5.204  14.739
36157DPPC   NC3 9145  11.295   6.134  14.079
36157DPPC   PO4 9146  11.345   6.324  13.779
36157DPPC   GL1 9147  11.695   6.344  13.809
36157DPPC   GL2 9148  11.715   6.234  14.089
36157DPPC   C1A 9149  12.025   6.534  13.899
36157DPPC   C2A 9150  12.325   6.584  14.149
36157DPPC   C3A 9151  12.635   6.554  14.549
36157DPPC   C4A 9152  12.935   6.444  14.879
36157DPPC   C1B 9153  11.985   6.254  14.269
36157DPPC   C2B 9154  12.295   6.204  14.529
36157DPPC   C3B 9155  12.565   6.134  14.929
36157DPPC   C4B 9156  12.895   6.114  15.329
36158DPPC   NC3 9157  12.045   6.474  13.429
36158DPPC   PO4 9158  11.975   6.294  13.059
36158DPPC   GL1 9159  12.365   6.424  13.059
36158DPPC   GL2 9160  12.445   0.056  12.989
36158DPPC   C1A 9161  12.495   6.404  13.399
36158DPPC   C2A 9162  12.785   6.544  13.709
36158DPPC   C3A 9163  12.995   6.494  14.149
36158DPPC   C4A 9164  13.285   6.454  14.509
36158DPPC   C1B 9165  12.815   0.066  13.019
36158DPPC   C2B 9166  13.235   0.086  13.179
36158DPPC   C3B 9167  13.645   0.116  13.449
36158DPPC   C4B 9168  13.915   0.106  13.789
36159DPPC   NC3 9169  13.635   1.994  10.939
36159DPPC   PO4 9170  13.325   2.134  11.129
36159DPPC   GL1 9171  13.585   2.264  11.419
36159DPPC   GL2 9172  13.695   1.944  11.509
36159DPPC   C1A 9173  13.935   2.354  11.519
36159DPPC   C2A 9174  14.375   2.344  11.609
36159DPPC   C3A 9175  14.735   2.364  11.919
36159DPPC   C4A 9176  15.075   2.384  12.169
36159DPPC   C1B 9177  14.005   1.904  11.709
36159DPPC   C2B 9178  14.295   2.014  11.979
36159DPPC   C3B 9179  14.635   2.044  12.259
36159DPPC   C4B 9180  15.045   2.084  12.599
36160DPPC   NC3 9181  10.455   5.974  15.299
36160DPPC   PO4 9182  10.555   5.964  14.929
36160DPPC   GL1 9183  10.945   5.864  14.969
36160DPPC   GL2 9184  10.875   5.784  15.249
36160DPPC   C1A 9185  11.265   6.084  15.049
36160DPPC   C2A 9186  11.525   6.284  15.269
36160DPPC   C3A 9187  11.915   6.304  15.569
36160DPPC   C4A 9188  12.245   6.404  15.899
36160DPPC   C1B 9189  11.095   5.834  15.449
36160DPPC   C2B 9190  11.415   5.924  15.629
36160DPPC   C3B 9191  11.795   5.914  15.879
36160DPPC   C4B 9192  12.115   5.954  16.279
36161DPPC   NC3 9193  12.065   0.796  13.109
36161DPPC   PO4 9194  12.125   0.396  13.219
36161DPPC   GL1 9195  12.295   0.236  13.559
36161DPPC   GL2 9196  12.495   0.326  13.359
36161DPPC   C1A 9197  12.415   0.446  13.849
36161DPPC   C2A 9198  12.725   0.346  14.079
36161DPPC   C3A 9199  13.005   0.306  14.429
36161DPPC   C4A 9200  13.315   0.256  14.789
36161DPPC   C1B 9201  12.865   0.336  13.509
36161DPPC   C2B 9202  13.245   0.276  13.759
36161DPPC   C3B 9203  13.485   0.226  14.189
36161DPPC   C4B 9204  13.775   0.196  14.549
36162DPPC   NC3 9205  14.175   5.154   9.719
36162DPPC   PO4 9206  14.205   5.014  10.069
36162DPPC   GL1 9207  14.425   4.844  10.399
36162DPPC   GL2 9208  14.145   4.754  10.589
36162DPPC   C1A 9209  14.685   4.764  10.669
36162DPPC   C2A 9210  15.075   4.724  10.889
36162DPPC   C3A 9211  15.465   4.794  11.149
36162DPPC   C4A 9212  15.735   4.834  11.459
36162DPPC   C1B 9213  14.255   4.834  10.909
36162DPPC   C2B 9214  14.595   4.814  11.129
36162DPPC   C3B 9215  14.975   4.814  11.389
36162DPPC   C4B 9216  15.305   4.884  11.709
36163DPPC   NC3 9217  12.795   5.514  12.249
36163DPPC   PO4 9218  12.965   5.204  12.069
36163DPPC   GL1 9219  13.315   5.394  12.259
36163DPPC   GL2 9220  13.215   5.544  12.519
36163DPPC   C1A 9221  13.645   5.304  12.319
36163DPPC   C2A 9222  13.995   5.164  12.529
36163DPPC   C3A 9223  14.355   5.164  12.809
36163DPPC   C4A 9224  14.755   5.214  13.169
36163DPPC   C1B 9225  13.425   5.314  12.719
36163DPPC   C2B 9226  13.765   5.314  12.919
36163DPPC   C3B 9227  14.135   5.294  13.249
36163DPPC   C4B 9228  14.435   5.304  13.589
36164DPPC   NC3 9229  11.065   1.944  14.779
36164DPPC   PO4 9230  11.275   1.644  14.599
36164DPPC   GL1 9231  11.595   1.684  14.719
36164DPPC   GL2 9232  11.815   1.844  14.559
36164DPPC   C1A 9233  11.835   1.584  14.979
36164DPPC   C2A 9234  12.065   1.494  15.319
36164DPPC   C3A 9235  12.435   1.434  15.669
36164DPPC   C4A 9236  12.765   1.454  16.059
36164DPPC   C1B 9237  12.055   1.954  14.809
36164DPPC   C2B 9238  12.325   1.844  15.109
36164DPPC   C3B 9239  12.675   1.874  15.369
36164DPPC   C4B 9240  12.965   1.824  15.759
36165DPPC   NC3 9241  11.025   4.574  13.759
36165DPPC   PO4 9242  11.395   4.734  13.839
36165DPPC   GL1 9243  11.755   4.734  14.099
36165DPPC   GL2 9244  11.535   4.844  14.329
36165DPPC   C1A 9245  12.025   4.854  14.299
36165DPPC   C2A 9246  12.295   4.874  14.609
36165DPPC   C3A 9247  12.655   4.834  14.949
36165DPPC   C4A 9248  13.055   4.824  15.329
36165DPPC   C1B 9249  11.705   4.874  14.629
36165DPPC   C2B 9250  11.975   5.034  14.909
36165DPPC   C3B 9251  12.255   4.924  15.279
36165DPPC   C4B 9252  12.645   4.954  15.689
36166DPPC   NC3 9253  12.505   5.984  11.749
36166DPPC   PO4 9254  12.615   5.984  12.159
36166DPPC   GL1 9255  12.925   6.034  12.419
36166DPPC   GL2 9256  12.785   5.864  12.659
36166DPPC   C1A 9257  13.215   5.954  12.659
36166DPPC   C2A 9258  13.505   5.784  12.939
36166DPPC   C3A 9259  13.855   5.784  13.289
36166DPPC   C4A 9260  14.155   5.844  13.669
36166DPPC   C1B 9261  12.915   5.914  13.019
36166DPPC   C2B 9262  13.165   5.884  13.329
36166DPPC   C3B 9263  13.485   5.934  13.629
36166DPPC   C4B 9264  13.745   5.944  13.999
36167DPPC   NC3 9265  20.365   4.114   9.309
36167DPPC   PO4 9266  20.455   3.774   9.419
36167DPPC   GL1 9267  20.395   3.664   9.789
36167DPPC   GL2 9268  20.645   3.644   9.929
36167DPPC   C1A 9269  20.215   3.774  10.039
36167DPPC   C2A 9270  20.045   3.864  10.409
36167DPPC   C3A 9271  19.885   3.864  10.849
36167DPPC   C4A 9272  19.775   3.864  11.339
36167DPPC   C1B 9273  20.855   3.534  10.229
36167DPPC   C2B 9274   0.055   3.464  10.419
36167DPPC   C3B 9275   0.305   3.034  10.449
36167DPPC   C4B 9276   0.315   2.704  10.819
36168DPPC   NC3 9277  14.205   6.544  10.379
36168DPPC   PO4 9278  14.345   0.296  10.229
36168DPPC   GL1 9279  14.395   0.566  10.569
36168DPPC   GL2 9280  14.335   0.286  10.719
36168DPPC   C1A 9281  14.765   0.646  10.499
36168DPPC   C2A 9282  15.015   0.846  10.759
36168DPPC   C3A 9283  15.335   0.896  11.109
36168DPPC   C4A 9284  15.675   0.866  11.469
36168DPPC   C1B 9285  14.675   0.356  10.909
36168DPPC   C2B 9286  15.035   0.446  11.169
36168DPPC   C3B 9287  15.315   0.516  11.569
36168DPPC   C4B 9288  15.625   0.506  11.939
36169DPPC   NC3 9289  11.465   4.344  13.079
36169DPPC   PO4 9290  11.445   4.364  13.499
36169DPPC   GL1 9291  11.845   4.514  13.729
36169DPPC   GL2 9292  11.735   4.294  13.919
36169DPPC   C1A 9293  12.185   4.694  13.849
36169DPPC   C2A 9294  12.475   4.814  14.129
36169DPPC   C3A 9295  12.815   4.764  14.459
36169DPPC   C4A 9296  13.145   4.744  14.829
36169DPPC   C1B 9297  12.075   4.314  14.059
36169DPPC   C2B 9298  12.355   4.334  14.379
36169DPPC   C3B 9299  12.765   4.384  14.749
36169DPPC   C4B 9300  13.055   4.354  15.109
36170DPPC   NC3 9301  13.655   3.464  11.759
36170DPPC   PO4 9302  13.335   3.654  11.689
36170DPPC   GL1 9303  13.495   4.104  11.839
36170DPPC   GL2 9304  13.515   3.914  12.039
36170DPPC   C1A 9305  13.845   4.194  11.899
36170DPPC   C2A 9306  14.055   4.264  12.239
36170DPPC   C3A 9307  14.405   4.234  12.529
36170DPPC   C4A 9308  14.815   4.294  12.859
36170DPPC   C1B 9309  13.745   3.904  12.309
36170DPPC   C2B 9310  14.045   3.924  12.589
36170DPPC   C3B 9311  14.385   3.954  12.909
36170DPPC   C4B 9312  14.705   3.924  13.229
36171DPPC   NC3 9313  19.065   5.694   8.859
36171DPPC   PO4 9314  19.455   5.834   8.879
36171DPPC   GL1 9315  19.485   5.744   9.279
36171DPPC   GL2 9316  19.355   5.524   9.319
36171DPPC   C1A 9317  19.275   5.884   9.519
36171DPPC   C2A 9318  19.165   5.884   9.939
36171DPPC   C3A 9319  18.955   5.914  10.379
36171DPPC   C4A 9320  18.795   6.044  10.829
36171DPPC   C1B 9321  19.355   5.184   9.419
36171DPPC   C2B 9322  19.095   5.064   9.699
36171DPPC   C3B 9323  18.925   5.014  10.169
36171DPPC   C4B 9324  18.755   5.074  10.589
36172DPPC   NC3 9325  13.295   1.116  11.009
36172DPPC   PO4 9326  13.575   1.284  10.809
36172DPPC   GL1 9327  13.965   1.344  10.809
36172DPPC   GL2 9328  13.925   1.564  11.009
36172DPPC   C1A 9329  14.215   1.194  11.039
36172DPPC   C2A 9330  14.255   1.026  11.379
36172DPPC   C3A 9331  14.535   1.046  11.789
36172DPPC   C4A 9332  14.875   1.086  12.149
36172DPPC   C1B 9333  14.165   1.554  11.309
36172DPPC   C2B 9334  14.335   1.454  11.649
36172DPPC   C3B 9335  14.585   1.544  12.039
36172DPPC   C4B 9336  14.875   1.614  12.419
36173DPPC   NC3 9337  12.205   2.334  12.509
36173DPPC   PO4 9338  12.145   2.504  12.849
36173DPPC   GL1 9339  12.585   2.544  12.879
36173DPPC   GL2 9340  12.605   2.244  12.759
36173DPPC   C1A 9341  12.825   2.444  13.149
36173DPPC   C2A 9342  13.035   2.454  13.539
36173DPPC   C3A 9343  13.345   2.474  13.829
36173DPPC   C4A 9344  13.685   2.344  14.179
36173DPPC   C1B 9345  12.735   2.004  13.029
36173DPPC   C2B 9346  13.015   2.054  13.269
36173DPPC   C3B 9347  13.405   1.964  13.599
36173DPPC   C4B 9348  13.845   1.914  13.889
36174DPPC   NC3 9349  11.585   2.514  14.039
36174DPPC   PO4 9350  11.805   2.764  13.849
36174DPPC   GL1 9351  12.155   2.844  14.069
36174DPPC   GL2 9352  12.175   2.604  14.089
36174DPPC   C1A 9353  12.205   3.074  14.379
36174DPPC   C2A 9354  12.565   3.064  14.569
36174DPPC   C3A 9355  12.875   3.034  14.899
36174DPPC   C4A 9356  13.165   3.004  15.299
36174DPPC   C1B 9357  12.465   2.534  14.299
36174DPPC   C2B 9358  12.785   2.554  14.599
36174DPPC   C3B 9359  13.135   2.614  14.859
36174DPPC   C4B 9360  13.575   2.404  14.909
36175DPPC   NC3 9361  14.285   3.624   9.969
36175DPPC   PO4 9362  14.015   3.504  10.219
36175DPPC   GL1 9363  14.285   3.344  10.469
36175DPPC   GL2 9364  14.285   3.574  10.659
36175DPPC   C1A 9365  14.565   3.164  10.579
36175DPPC   C2A 9366  14.665   3.084  10.979
36175DPPC   C3A 9367  15.105   3.074  11.219
36175DPPC   C4A 9368  15.465   3.164  11.539
36175DPPC   C1B 9369  14.595   3.554  10.779
36175DPPC   C2B 9370  14.785   3.614  11.179
36175DPPC   C3B 9371  15.095   3.564  11.489
36175DPPC   C4B 9372  15.455   3.544  11.839
36176DPPC   NC3 9373  12.085   1.344  12.249
36176DPPC   PO4 9374  12.305   1.424  12.539
36176DPPC   GL1 9375  12.625   1.534  12.729
36176DPPC   GL2 9376  12.795   1.354  12.579
36176DPPC   C1A 9377  12.945   1.584  12.979
36176DPPC   C2A 9378  13.205   1.524  13.269
36176DPPC   C3A 9379  13.595   1.474  13.529
36176DPPC   C4A 9380  13.935   1.424  13.909
36176DPPC   C1B 9381  13.165   1.294  12.669
36176DPPC   C2B 9382  13.565   1.374  12.769
36176DPPC   C3B 9383  13.865   1.394  13.079
36176DPPC   C4B 9384  14.205   1.414  13.489
36177DPPC   NC3 9385  12.375   0.306  12.209
36177DPPC   PO4 9386  12.755   0.176  12.039
36177DPPC   GL1 9387  13.095   0.146  12.159
36177DPPC   GL2 9388  13.035   0.316  12.389
36177DPPC   C1A 9389  13.405   0.036  12.279
36177DPPC   C2A 9390  13.825   6.574  12.359
36177DPPC   C3A 9391  14.215   6.504  12.679
36177DPPC   C4A 9392  14.565   6.554  12.989
36177DPPC   C1B 9393  13.215   0.176  12.679
36177DPPC   C2B 9394  13.585   0.086  12.819
36177DPPC   C3B 9395  13.965   0.006  13.079
36177DPPC   C4B 9396  14.315   0.106  13.479
36178DPPC   NC3 9397  10.995   2.814  14.119
36178DPPC   PO4 9398  11.345   2.934  14.169
36178DPPC   GL1 9399  11.585   2.854  14.389
36178DPPC   GL2 9400  11.625   3.094  14.529
36178DPPC   C1A 9401  11.855   2.684  14.409
36178DPPC   C2A 9402  12.215   2.614  14.619
36178DPPC   C3A 9403  12.485   2.644  14.979
36178DPPC   C4A 9404  12.885   2.594  15.319
36178DPPC   C1B 9405  11.945   3.104  14.709
36178DPPC   C2B 9406  12.285   3.134  14.979
36178DPPC   C3B 9407  12.565   3.154  15.349
36178DPPC   C4B 9408  12.845   3.124  15.699
36179DPPC   NC3 9409  12.495   4.734  12.159
36179DPPC   PO4 9410  12.485   5.134  12.259
36179DPPC   GL1 9411  12.765   5.164  12.579
36179DPPC   GL2 9412  12.955   5.064  12.529
36179DPPC   C1A 9413  12.835   5.414  12.759
36179DPPC   C2A 9414  13.135   5.454  13.039
36179DPPC   C3A 9415  13.425   5.444  13.399
36179DPPC   C4A 9416  13.765   5.534  13.689
36179DPPC   C1B 9417  13.195   4.974  12.819
36179DPPC   C2B 9418  13.445   4.994  13.139
36179DPPC   C3B 9419  13.755   4.994  13.459
36179DPPC   C4B 9420  14.055   4.944  13.829
36180DPPC   NC3 9421  12.335   3.984  11.919
36180DPPC   PO4 9422  12.455   4.194  12.239
36180DPPC   GL1 9423  12.735   4.434  12.499
36180DPPC   GL2 9424  12.575   4.214  12.729
36180DPPC   C1A 9425  12.905   4.584  12.779
36180DPPC   C2A 9426  13.075   4.564  13.179
36180DPPC   C3A 9427  13.385   4.604  13.549
36180DPPC   C4A 9428  13.705   4.544  13.899
36180DPPC   C1B 9429  12.835   4.114  12.939
36180DPPC   C2B 9430  13.215   4.104  13.139
36180DPPC   C3B 9431  13.565   4.144  13.479
36180DPPC   C4B 9432  13.915   4.104  13.909
36181DPPC   NC3 9433  11.135   0.876  14.039
36181DPPC   PO4 9434  11.495   1.016  14.059
36181DPPC   GL1 9435  11.725   1.056  14.349
36181DPPC   GL2 9436  11.595   1.244  14.519
36181DPPC   C1A 9437  12.105   0.956  14.419
36181DPPC   C2A 9438  12.395   0.956  14.619
36181DPPC   C3A 9439  12.715   0.856  14.939
36181DPPC   C4A 9440  13.005   0.906  15.329
36181DPPC   C1B 9441  11.835   1.136  14.779
36181DPPC   C2B 9442  12.085   1.066  15.079
36181DPPC   C3B 9443  12.405   0.966  15.439
36181DPPC   C4B 9444  12.735   0.936  15.779
36182DPPC   NC3 9445  14.255   1.504  10.489
36182DPPC   PO4 9446  14.245   1.794  10.759
36182DPPC   GL1 9447  14.455   1.664  11.029
36182DPPC   GL2 9448  14.665   1.864  10.969
36182DPPC   C1A 9449  14.625   1.424  11.279
36182DPPC   C2A 9450  14.855   1.414  11.629
36182DPPC   C3A 9451  15.165   1.394  11.939
36182DPPC   C4A 9452  15.285   1.204  12.439
36182DPPC   C1B 9453  14.955   1.804  11.249
36182DPPC   C2B 9454  15.295   1.844  11.519
36182DPPC   C3B 9455  15.565   1.894  11.829
36182DPPC   C4B 9456  15.845   1.934  12.269
36183DPPC   NC3 9457  12.885   6.324  11.899
36183DPPC   PO4 9458  12.995   6.054  11.699
36183DPPC   GL1 9459  13.315   5.894  11.799
36183DPPC   GL2 9460  13.185   5.814  12.059
36183DPPC   C1A 9461  13.635   6.024  11.939
36183DPPC   C2A 9462  13.915   6.074  12.199
36183DPPC   C3A 9463  14.245   6.094  12.479
36183DPPC   C4A 9464  14.475   6.044  12.839
36183DPPC   C1B 9465  13.485   5.774  12.309
36183DPPC   C2B 9466  13.815   5.704  12.569
36183DPPC   C3B 9467  14.215   5.614  12.869
36183DPPC   C4B 9468  14.525   5.674  13.259
36184DPPC   NC3 9469  13.505   5.444  10.939
36184DPPC   PO4 9470  13.825   5.704  10.869
36184DPPC   GL1 9471  13.965   5.924  11.169
36184DPPC   GL2 9472  14.265   5.994  11.039
36184DPPC   C1A 9473  14.095   5.604  11.369
36184DPPC   C2A 9474  14.265   5.414  11.689
36184DPPC   C3A 9475  14.655   5.424  11.999
36184DPPC   C4A 9476  15.025   5.434  12.369
36184DPPC   C1B 9477  14.495   5.794  11.229
36184DPPC   C2B 9478  14.745   5.774  11.529
36184DPPC   C3B 9479  15.025   5.824  11.899
36184DPPC   C4B 9480  15.365   5.784  12.279
36185DPPC   NC3 9481  13.265   4.184  11.459
36185DPPC   PO4 9482  13.425   4.184  11.119
36185DPPC   GL1 9483  13.805   4.214  11.289
36185DPPC   GL2 9484  13.925   4.134  11.069
36185DPPC   C1A 9485  14.125   4.204  11.519
36185DPPC   C2A 9486  14.405   4.174  11.879
36185DPPC   C3A 9487  14.795   4.214  12.139
36185DPPC   C4A 9488  15.175   4.144  12.489
36185DPPC   C1B 9489  14.175   4.404  11.169
36185DPPC   C2B 9490  14.505   4.484  11.429
36185DPPC   C3B 9491  14.895   4.504  11.759
36185DPPC   C4B 9492  15.315   4.454  12.069
36186DPPC   NC3 9493  14.565   0.626  10.029
36186DPPC   PO4 9494  14.355   0.896  10.239
36186DPPC   GL1 9495  14.305   1.076  10.629
36186DPPC   GL2 9496  14.165   0.876  10.759
36186DPPC   C1A 9497  14.595   1.036  10.809
36186DPPC   C2A 9498  14.715   0.956  11.199
36186DPPC   C3A 9499  15.065   0.976  11.539
36186DPPC   C4A 9500  15.465   1.016  11.899
36186DPPC   C1B 9501  14.345   0.676  10.999
36186DPPC   C2B 9502  14.525   0.536  11.369
36186DPPC   C3B 9503  14.755   0.536  11.699
36186DPPC   C4B 9504  15.155   0.596  12.039
36187DPPC   NC3 9505  11.915   3.294  12.259
36187DPPC   PO4 9506  12.215   3.344  12.569
36187DPPC   GL1 9507  12.595   3.214  12.789
36187DPPC   GL2 9508  12.465   2.974  12.809
36187DPPC   C1A 9509  12.975   3.304  12.899
36187DPPC   C2A 9510  13.315   3.144  13.019
36187DPPC   C3A 9511  13.745   3.174  13.209
36187DPPC   C4A 9512  14.095   3.114  13.549
36187DPPC   C1B 9513  12.615   2.874  13.189
36187DPPC   C2B 9514  12.805   2.854  13.539
36187DPPC   C3B 9515  13.135   2.914  13.909
36187DPPC   C4B 9516  13.515   2.844  14.219
36188DPPC   NC3 9517  12.885   4.294  11.079
36188DPPC   PO4 9518  13.075   4.594  11.269
36188DPPC   GL1 9519  13.395   4.614  11.539
36188DPPC   GL2 9520  13.315   4.564  11.799
36188DPPC   C1A 9521  13.775   4.674  11.479
36188DPPC   C2A 9522  14.135   4.674  11.729
36188DPPC   C3A 9523  14.445   4.664  12.089
36188DPPC   C4A 9524  14.805   4.604  12.449
36188DPPC   C1B 9525  13.605   4.574  11.989
36188DPPC   C2B 9526  13.935   4.724  12.239
36188DPPC   C3B 9527  14.315   4.754  12.579
36188DPPC   C4B 9528  14.635   4.764  12.979
36189DPPC   NC3 9529  13.245   1.474  11.849
36189DPPC   PO4 9530  12.905   1.304  11.899
36189DPPC   GL1 9531  13.045   1.066  12.279
36189DPPC   GL2 9532  13.295   0.996  11.959
36189DPPC   C1A 9533  13.365   0.916  12.479
36189DPPC   C2A 9534  13.765   0.866  12.709
36189DPPC   C3A 9535  14.085   0.936  13.069
36189DPPC   C4A 9536  14.455   0.936  13.369
36189DPPC   C1B 9537  13.605   0.926  11.979
36189DPPC   C2B 9538  13.945   0.806  12.229
36189DPPC   C3B 9539  14.275   0.766  12.529
36189DPPC   C4B 9540  14.645   0.796  12.919
36190DPPC   NC3 9541  13.655   0.696  11.599
36190DPPC   PO4 9542  13.275   0.626  11.669
36190DPPC   GL1 9543  13.545   0.406  11.989
36190DPPC   GL2 9544  13.365   0.536  12.189
36190DPPC   C1A 9545  13.925   0.386  11.999
36190DPPC   C2A 9546  14.225   0.326  12.229
36190DPPC   C3A 9547  14.585   0.316  12.539
36190DPPC   C4A 9548  14.935   0.376  12.889
36190DPPC   C1B 9549  13.545   0.406  12.469
36190DPPC   C2B 9550  13.945   0.386  12.689
36190DPPC   C3B 9551  14.315   0.396  13.019
36190DPPC   C4B 9552  14.625   0.486  13.409
36191DPPC   NC3 9553  18.765   1.066   8.779
36191DPPC   PO4 9554  18.555   0.966   8.429
36191DPPC   GL1 9555  18.305   0.696   8.659
36191DPPC   GL2 9556  18.555   0.616   8.829
36191DPPC   C1A 9557  18.135   0.656   8.939
36191DPPC   C2A 9558  18.095   0.406   9.299
36191DPPC   C3A 9559  17.795   0.166   9.609
36191DPPC   C4A 9560  17.705   0.346  10.049
36191DPPC   C1B 9561  18.515   0.746   9.129
36191DPPC   C2B 9562  18.355   0.776   9.509
36191DPPC   C3B 9563  18.075   0.736   9.939
36191DPPC   C4B 9564  17.885   0.726  10.349
36192DPPC   NC3 9565  13.585   6.144  10.979
36192DPPC   PO4 9566  13.925   6.214  10.749
36192DPPC   GL1 9567  14.245   6.074  10.559
36192DPPC   GL2 9568  14.225   5.774  10.659
36192DPPC   C1A 9569  14.525   6.204  10.739
36192DPPC   C2A 9570  14.715   6.164  11.059
36192DPPC   C3A 9571  15.015   6.184  11.449
36192DPPC   C4A 9572  15.345   6.254  11.799
36192DPPC   C1B 9573  14.615   5.754  10.779
36192DPPC   C2B 9574  14.945   5.684  11.019
36192DPPC   C3B 9575  15.235   5.734  11.429
36192DPPC   C4B 9576  15.575   5.744  11.769
36193DPPC   NC3 9577  13.715   3.964  10.219
36193DPPC   PO4 9578  13.995   4.004   9.959
36193DPPC   GL1 9579  14.285   3.974  10.279
36193DPPC   GL2 9580  14.095   3.944  10.489
36193DPPC   C1A 9581  14.545   3.904  10.509
36193DPPC   C2A 9582  14.805   3.974  10.839
36193DPPC   C3A 9583  15.175   3.904  11.159
36193DPPC   C4A 9584  15.555   3.974  11.479
36193DPPC   C1B 9585  14.245   3.994  10.819
36193DPPC   C2B 9586  14.425   3.924  11.179
36193DPPC   C3B 9587  14.795   4.074  11.479
36193DPPC   C4B 9588  15.145   4.074  11.779
36194DPPC   NC3 9589  12.895   0.676  12.039
36194DPPC   PO4 9590  12.735   0.676  12.399
36194DPPC   GL1 9591  12.995   0.776  12.639
36194DPPC   GL2 9592  13.175   0.586  12.689
36194DPPC   C1A 9593  13.105   0.956  12.909
36194DPPC   C2A 9594  13.415   1.046  13.129
36194DPPC   C3A 9595  13.785   0.996  13.479
36194DPPC   C4A 9596  14.095   0.936  13.879
36194DPPC   C1B 9597  13.465   0.566  12.909
36194DPPC   C2B 9598  13.785   0.516  13.129
36194DPPC   C3B 9599  14.105   0.596  13.489
36194DPPC   C4B 9600  14.355   0.446  13.899
  21.17083   6.60835  45.15858
