INSANE! Membrane UpperLeaflet>DPPC=100.0 LowerLeaflet>DPPC=100.0
56792
    1DPPC   NC3    1   3.489   2.556  19.715  0.1729  0.2118 -0.0977
    1DPPC   PO4    2   3.151   2.738  19.753 -0.3741 -0.3697  0.0181
    1DPPC   GL1    3   2.766   2.770  19.693 -0.0406  0.1395  0.1408
    1DPPC   GL2    4   2.754   2.419  19.696  0.1964 -0.3052 -0.2723
    1DPPC   C1A    5   2.471   2.884  19.465 -0.0336  0.1938  0.4370
    1DPPC   C2A    6   2.175   2.778  19.203 -0.0613 -0.2506 -0.0168
    1DPPC   C3A    7   1.896   2.770  18.747 -0.0468  0.0441  0.1593
    1DPPC   C4A    8   1.618   2.748  18.283 -0.0471 -0.1363 -0.0324
    1DPPC   C1B    9   2.532   2.385  19.454  0.4670  0.2723  0.1607
    1DPPC   C2B   10   2.356   2.312  19.062  0.2781 -0.0402  0.4555
    1DPPC   C3B   11   2.154   2.295  18.628  0.1682  0.1106  0.2740
    1DPPC   C4B   12   1.832   2.280  18.285  0.1384 -0.0457 -0.1145
    2DPPC   NC3   13   2.843   2.901  20.163  0.2390 -0.1717  0.4793
    2DPPC   PO4   14   2.865   2.494  20.172  0.0023  0.0244  0.0474
    2DPPC   GL1   15   2.468   2.340  20.001 -0.2764  0.3991  0.2990
    2DPPC   GL2   16   2.431   2.597  20.128 -0.0291  0.2748  0.1504
    2DPPC   C1A   17   2.261   2.244  19.740  0.3912 -0.1093  0.0582
    2DPPC   C2A   18   2.025   2.359  19.447 -0.1081  0.1098  0.1166
    2DPPC   C3A   19   1.792   2.323  19.032 -0.1983  0.0511 -0.3740
    2DPPC   C4A   20   1.457   2.203  18.651  0.0927 -0.2555 -0.2007
    2DPPC   C1B   21   2.293   2.705  19.847 -0.1160 -0.1219  0.1319
    2DPPC   C2B   22   1.945   2.777  19.670  0.0799 -0.1885 -0.2207
    2DPPC   C3B   23   1.652   2.783  19.286  0.0475  0.0106  0.1319
    2DPPC   C4B   24   1.401   2.787  18.800 -0.0523  0.2231 -0.0523
    3DPPC   NC3   25   5.457   5.729  21.583  0.0848 -0.1157 -0.0332
    3DPPC   PO4   26   5.178   5.949  21.369 -0.1353 -0.0794  0.0279
    3DPPC   GL1   27   5.513   5.975  21.028 -0.1592 -0.0910  0.0784
    3DPPC   GL2   28   5.311   6.180  20.967 -0.0472  0.3511 -0.1586
    3DPPC   C1A   29   5.690   5.952  20.708 -0.1221 -0.3758 -0.1146
    3DPPC   C2A   30   5.843   6.018  20.336 -0.2128 -0.1960 -0.0732
    3DPPC   C3A   31   6.082   5.963  19.917  0.1339  0.1770  0.2155
    3DPPC   C4A   32   6.299   6.033  19.435 -0.0579 -0.2357  0.0099
    3DPPC   C1B   33   5.446   6.307  20.722  0.2335 -0.1557  0.0042
    3DPPC   C2B   34   5.538   6.425  20.358 -0.0236  0.1945  0.3414
    3DPPC   C3B   35   5.848   6.408  20.016  0.0289 -0.1087  0.1530
    3DPPC   C4B   36   6.095   6.451  19.588  0.0501  0.2410 -0.2695
    4DPPC   NC3   37   5.892   1.455  21.757  0.0238  0.1815 -0.1097
    4DPPC   PO4   38   5.504   1.586  21.681  0.2081  0.1379  0.3464
    4DPPC   GL1   39   5.700   1.747  21.469 -0.4035 -0.3476 -0.0016
    4DPPC   GL2   40   5.696   2.042  21.355 -0.2142 -0.0184  0.0679
    4DPPC   C1A   41   5.885   1.525  21.265 -0.2254 -0.3730 -0.1130
    4DPPC   C2A   42   6.124   1.429  20.936  0.4739  0.0107 -0.1385
    4DPPC   C3A   43   6.415   1.440  20.525  0.1463  0.2812  0.2058
    4DPPC   C4A   44   6.734   1.451  20.139  0.2610 -0.1300  0.0461
    4DPPC   C1B   45   5.900   1.976  21.007 -0.0906 -0.0163 -0.2012
    4DPPC   C2B   46   6.137   1.872  20.689 -0.1545  0.3209 -0.1468
    4DPPC   C3B   47   6.431   1.975  20.282 -0.0168  0.2020  0.0002
    4DPPC   C4B   48   6.707   1.916  19.870 -0.2297  0.1416 -0.0508
    5DPPC   NC3   49   2.358   3.053  20.141 -0.0264 -0.1679 -0.0102
    5DPPC   PO4   50   2.455   3.212  20.481  0.4458 -0.2969  0.3488
    5DPPC   GL1   51   2.120   3.384  20.625  0.1874  0.1696  0.1475
    5DPPC   GL2   52   2.215   3.651  20.676  0.3159 -0.5044  0.1689
    5DPPC   C1A   53   1.855   3.362  20.374  0.2014 -0.4735  0.3173
    5DPPC   C2A   54   1.506   3.429  20.116 -0.2632 -0.2421  0.0413
    5DPPC   C3A   55   1.260   3.446  19.710  0.0001 -0.2101  0.1743
    5DPPC   C4A   56   1.007   3.408  19.286  0.2024  0.0240  0.1105
    5DPPC   C1B   57   2.075   3.799  20.357 -0.3037  0.2308 -0.2011
    5DPPC   C2B   58   1.911   3.788  19.968  0.0034  0.0506 -0.0166
    5DPPC   C3B   59   1.597   3.819  19.631 -0.1022 -0.0068  0.1427
    5DPPC   C4B   60   1.369   3.760  19.219 -0.0011 -0.2442  0.0427
    6DPPC   NC3   61   3.966   1.201  19.745  0.3224  0.2251  0.0354
    6DPPC   PO4   62   3.983   0.870  19.593  0.1092  0.2300 -0.4293
    6DPPC   GL1   63   4.295   0.947  19.327 -0.4698 -0.0353  0.1008
    6DPPC   GL2   64   4.485   0.937  19.567 -0.0278 -0.1783  0.2266
    6DPPC   C1A   65   4.541   0.866  19.101 -0.1171  0.3886  0.1653
    6DPPC   C2A   66   4.897   0.762  18.826  0.1073 -0.0915  0.1133
    6DPPC   C3A   67   5.243   0.896  18.569 -0.2160  0.4242  0.3704
    6DPPC   C4A   68   5.497   0.938  18.149 -0.2167 -0.0743 -0.1307
    6DPPC   C1B   69   4.736   0.714  19.507  0.0148 -0.1611  0.0984
    6DPPC   C2B   70   4.935   0.422  19.255  0.0616 -0.0318  0.2049
    6DPPC   C3B   71   5.194   0.377  18.848  0.0180 -0.0577 -0.0269
    6DPPC   C4B   72   5.518   0.434  18.493 -0.0195  0.0757  0.4544
    7DPPC   NC3   73   5.908   5.682  22.699 -0.0402  0.3952  0.0839
    7DPPC   PO4   74   5.887   5.788  22.324  0.1560 -0.2402 -0.3145
    7DPPC   GL1   75   6.182   5.923  21.982  0.1300  0.1199 -0.2048
    7DPPC   GL2   76   6.301   5.639  21.992  0.2020 -0.1696 -0.2791
    7DPPC   C1A   77   6.383   6.175  21.801  0.2306 -0.2202 -0.0062
    7DPPC   C2A   78   6.660   6.250  21.473  0.2204 -0.0435 -0.3174
    7DPPC   C3A   79   6.932   6.248  21.073 -0.5253 -0.0512 -0.0404
    7DPPC   C4A   80   7.182   6.232  20.627 -0.2811 -0.0886 -0.0336
    7DPPC   C1B   81   6.603   5.732  21.783  0.3711 -0.0423  0.1940
    7DPPC   C2B   82   6.884   5.767  21.481  0.0520  0.0832 -0.0950
    7DPPC   C3B   83   7.160   5.748  21.113 -0.0578 -0.0576  0.2260
    7DPPC   C4B   84   7.449   5.746  20.686 -0.0336  0.1982 -0.0908
    8DPPC   NC3   85   4.716   1.761  19.926 -0.4068 -0.0444 -0.3585
    8DPPC   PO4   86   4.446   1.479  19.880 -0.4220  0.0432 -0.2341
    8DPPC   GL1   87   4.632   1.376  19.497  0.0018 -0.0004  0.2579
    8DPPC   GL2   88   4.825   1.166  19.624  0.0318  0.4703 -0.2568
    8DPPC   C1A   89   4.743   1.429  19.159 -0.0420 -0.0229  0.1024
    8DPPC   C2A   90   4.843   1.386  18.742 -0.1259 -0.4465  0.1499
    8DPPC   C3A   91   5.254   1.413  18.407 -0.0297  0.1201  0.0861
    8DPPC   C4A   92   5.501   1.472  18.031  0.3244  0.0037  0.3167
    8DPPC   C1B   93   5.097   1.244  19.353  0.1571 -0.0206 -0.0007
    8DPPC   C2B   94   5.317   1.262  19.011 -0.3953  0.2143 -0.2153
    8DPPC   C3B   95   5.683   1.241  18.668  0.2056  0.0909  0.0856
    8DPPC   C4B   96   5.882   1.316  18.289 -0.0385 -0.0423  0.2152
    9DPPC   NC3   97   4.573   1.054  20.233 -0.0035  0.0883 -0.4236
    9DPPC   PO4   98   4.385   0.864  19.975  0.1650 -0.0050  0.1228
    9DPPC   GL1   99   4.757   0.582  19.890  0.0716  0.0088 -0.0603
    9DPPC   GL2  100   4.910   0.801  19.909  0.1973 -0.0531  0.1837
    9DPPC   C1A  101   4.814   0.318  19.659  0.0858 -0.0912  0.0346
    9DPPC   C2A  102   4.975  -0.043  19.507  0.1269 -0.0413  0.1065
    9DPPC   C3A  103   5.243  -0.043  19.110  0.1487  0.2684 -0.0694
    9DPPC   C4A  104   5.589  -0.040  18.703  0.2718 -0.2999  0.0113
    9DPPC   C1B  105   5.152   0.805  19.618  0.1927 -0.1170 -0.1700
    9DPPC   C2B  106   5.231   0.802  19.230  0.0150 -0.2311 -0.0420
    9DPPC   C3B  107   5.588   0.811  18.875  0.0054  0.0026 -0.3171
    9DPPC   C4B  108   5.937   0.831  18.559 -0.1092  0.1444  0.0371
   10DPPC   NC3  109   4.455   2.177  19.106  0.1818 -0.0638 -0.1955
   10DPPC   PO4  110   4.143   2.402  18.992  0.1596  0.1617  0.2472
   10DPPC   GL1  111   4.173   2.385  18.612  0.2219  0.5594  0.1857
   10DPPC   GL2  112   4.337   2.104  18.632  0.1764 -0.0364  0.0723
   10DPPC   C1A  113   4.327   2.403  18.257 -0.0054  0.1466 -0.4945
   10DPPC   C2A  114   4.516   2.381  17.891  0.3882  0.1030  0.1312
   10DPPC   C3A  115   4.822   2.424  17.491 -0.1322 -0.1208 -0.2204
   10DPPC   C4A  116   5.072   2.421  17.039  0.0980 -0.2335  0.1694
   10DPPC   C1B  117   4.438   1.945  18.364  0.2028  0.0584 -0.1460
   10DPPC   C2B  118   4.629   1.942  18.036  0.2009  0.1178 -0.2343
   10DPPC   C3B  119   4.928   1.936  17.655 -0.1526  0.0000  0.2043
   10DPPC   C4B  120   5.132   1.959  17.214 -0.0879 -0.4393 -0.0030
   11DPPC   NC3  121   3.040   3.766  19.914  0.1330  0.2778 -0.0923
   11DPPC   PO4  122   3.263   3.536  19.718 -0.4241  0.1598 -0.2417
   11DPPC   GL1  123   2.972   3.578  19.442  0.1120  0.0786  0.3107
   11DPPC   GL2  124   2.719   3.644  19.526  0.2814 -0.3080  0.2257
   11DPPC   C1A  125   2.872   3.576  19.073 -0.2570 -0.0296  0.1063
   11DPPC   C2A  126   2.744   3.535  18.639 -0.1252  0.1149 -0.1240
   11DPPC   C3A  127   2.420   3.465  18.291 -0.0915 -0.0771 -0.0488
   11DPPC   C4A  128   2.244   3.528  17.824 -0.1713 -0.3487  0.2628
   11DPPC   C1B  129   2.482   3.623  19.263  0.1003 -0.0232  0.0553
   11DPPC   C2B  130   2.280   3.613  18.863 -0.1798  0.2429  0.3732
   11DPPC   C3B  131   2.006   3.653  18.498 -0.1933 -0.0333  0.1174
   11DPPC   C4B  132   1.730   3.672  18.096 -0.1574  0.2609  0.1025
   12DPPC   NC3  133   3.169   6.513  19.556  0.0383  0.0197 -0.0991
   12DPPC   PO4  134   3.407   6.798  19.470 -0.1266  0.1561 -0.0013
   12DPPC   GL1  135   3.222   7.004  19.267 -0.1042 -0.4985  0.1700
   12DPPC   GL2  136   3.178   7.251  19.161 -0.0710  0.1401  0.2965
   12DPPC   C1A  137   3.022   6.781  19.107 -0.2807 -0.0272 -0.2636
   12DPPC   C2A  138   2.744   6.612  18.814  0.0119  0.0067  0.1216
   12DPPC   C3A  139   2.510   6.645  18.440  0.0375 -0.1992 -0.0162
   12DPPC   C4A  140   2.210   6.562  18.089 -0.0869  0.2179  0.0311
   12DPPC   C1B  141   3.127   7.293  18.800 -0.0245 -0.2049 -0.3399
   12DPPC   C2B  142   2.985   7.212  18.469 -0.2039  0.2513 -0.0430
   12DPPC   C3B  143   2.808   7.084  18.080 -0.1237  0.1291 -0.0856
   12DPPC   C4B  144   2.439   6.939  17.818 -0.1779  0.0424 -0.2317
   13DPPC   NC3  145   3.082   1.459  19.218 -0.0297 -0.0018 -0.2077
   13DPPC   PO4  146   3.042   1.675  18.872  0.0270  0.1129  0.2163
   13DPPC   GL1  147   2.842   1.455  18.612 -0.3429 -0.3348  0.1058
   13DPPC   GL2  148   2.600   1.488  18.745  0.6878 -0.1681 -0.0706
   13DPPC   C1A  149   2.776   1.361  18.251 -0.0892  0.1327 -0.0612
   13DPPC   C2A  150   2.701   1.244  17.842 -0.2693  0.0247  0.1455
   13DPPC   C3A  151   2.519   1.029  17.446 -0.1170 -0.1557  0.0831
   13DPPC   C4A  152   2.335   0.645  17.193  0.0836  0.0619  0.0404
   13DPPC   C1B  153   2.412   1.334  18.479 -0.2306  0.1573  0.0780
   13DPPC   C2B  154   2.225   1.363  18.105 -0.5195  0.2552  0.0124
   13DPPC   C3B  155   1.969   1.318  17.676 -0.0954  0.0464  0.0586
   13DPPC   C4B  156   1.967   1.076  17.243 -0.0475  0.0202 -0.0997
   14DPPC   NC3  157   5.909   6.232  21.708 -0.0663  0.3527  0.1741
   14DPPC   PO4  158   5.641   6.178  21.423 -0.1337 -0.0464 -0.2482
   14DPPC   GL1  159   5.797   6.318  20.981  0.5651 -0.2953 -0.1924
   14DPPC   GL2  160   5.809   6.514  21.160 -0.0934 -0.0446  0.3969
   14DPPC   C1A  161   5.960   6.299  20.678  0.0213 -0.2466 -0.0461
   14DPPC   C2A  162   6.222   6.351  20.363 -0.0716 -0.0872  0.1783
   14DPPC   C3A  163   6.451   6.369  19.912 -0.0900 -0.1694 -0.2923
   14DPPC   C4A  164   6.691   6.325  19.551 -0.0760 -0.2757  0.0775
   14DPPC   C1B  165   6.090   6.711  21.118 -0.1052  0.1185 -0.1743
   14DPPC   C2B  166   6.353   6.710  20.792  0.0897  0.2022  0.0987
   14DPPC   C3B  167   6.614   6.695  20.432  0.0903 -0.0184  0.2402
   14DPPC   C4B  168   6.880   6.708  19.973  0.4747 -0.2768 -0.0160
   15DPPC   NC3  169   4.294   4.252  19.854 -0.1298 -0.0579 -0.0764
   15DPPC   PO4  170   4.283   4.620  19.722  0.2242  0.3568 -0.1836
   15DPPC   GL1  171   4.431   4.740  19.283 -0.0045  0.4069 -0.0426
   15DPPC   GL2  172   4.646   4.909  19.424  0.0415  0.0462  0.1201
   15DPPC   C1A  173   4.551   4.604  18.995 -0.4280  0.3118 -0.1184
   15DPPC   C2A  174   4.804   4.463  18.698 -0.0101  0.3462 -0.0469
   15DPPC   C3A  175   5.056   4.455  18.339 -0.1987 -0.0104  0.1028
   15DPPC   C4A  176   5.193   4.452  17.872 -0.2577 -0.0340 -0.2188
   15DPPC   C1B  177   4.872   4.858  19.126  0.1606 -0.2949  0.1801
   15DPPC   C2B  178   5.103   4.858  18.715  0.2586  0.1925  0.3478
   15DPPC   C3B  179   5.366   4.858  18.340  0.1798 -0.2169  0.2683
   15DPPC   C4B  180   5.572   4.849  17.918  0.0926 -0.0611  0.3801
   16DPPC   NC3  181   4.594   3.806  19.951 -0.1993  0.1881 -0.2147
   16DPPC   PO4  182   4.787   3.647  19.620  0.1031  0.0135 -0.1801
   16DPPC   GL1  183   5.082   3.372  19.527 -0.1702  0.0869 -0.0349
   16DPPC   GL2  184   5.020   3.129  19.563 -0.0144  0.0404  0.0940
   16DPPC   C1A  185   5.396   3.386  19.293  0.1451 -0.0852  0.2409
   16DPPC   C2A  186   5.592   3.394  18.939  0.0169  0.1760 -0.0468
   16DPPC   C3A  187   5.874   3.479  18.542 -0.1888 -0.1093 -0.1872
   16DPPC   C4A  188   6.144   3.399  18.129  0.1094 -0.0700 -0.1181
   16DPPC   C1B  189   5.315   2.996  19.447  0.1246  0.5660  0.2083
   16DPPC   C2B  190   5.633   2.978  19.233 -0.1098 -0.1701 -0.4851
   16DPPC   C3B  191   5.939   3.029  18.881  0.1965  0.0916 -0.1165
   16DPPC   C4B  192   6.130   2.996  18.426 -0.1376 -0.2147 -0.2740
   17DPPC   NC3  193   5.023   4.851  20.726  0.0922 -0.1766 -0.2237
   17DPPC   PO4  194   4.921   5.188  20.547 -0.0755 -0.0007  0.1583
   17DPPC   GL1  195   5.134   5.315  20.152  0.1069  0.1704 -0.0743
   17DPPC   GL2  196   4.943   5.369  20.008  0.1065 -0.0431  0.0532
   17DPPC   C1A  197   5.350   5.196  19.904 -0.1201  0.3010 -0.2406
   17DPPC   C2A  198   5.590   5.169  19.565 -0.0222 -0.2116  0.2939
   17DPPC   C3A  199   5.856   5.079  19.187  0.2052 -0.0184 -0.1572
   17DPPC   C4A  200   6.048   5.113  18.813  0.0626  0.0503  0.0365
   17DPPC   C1B  201   5.016   5.278  19.612 -0.0649 -0.1891  0.1821
   17DPPC   C2B  202   5.225   5.213  19.244 -0.2069  0.1103 -0.1925
   17DPPC   C3B  203   5.553   5.213  18.842  0.0109 -0.2698 -0.0781
   17DPPC   C4B  204   5.709   5.278  18.365 -0.0927  0.1410  0.1389
   18DPPC   NC3  205   3.081   2.418  19.370  0.1543  0.0769  0.1478
   18DPPC   PO4  206   3.315   2.707  19.284  0.0338  0.0301 -0.0179
   18DPPC   GL1  207   2.989   2.920  19.083  0.1992  0.1683 -0.1487
   18DPPC   GL2  208   2.851   2.800  19.229  0.0231  0.2200 -0.0143
   18DPPC   C1A  209   2.833   2.986  18.745  0.2193  0.0136 -0.0362
   18DPPC   C2A  210   2.722   3.062  18.392  0.2397  0.4360 -0.0722
   18DPPC   C3A  211   2.405   3.054  18.034 -0.2250  0.1539  0.0012
   18DPPC   C4A  212   2.150   2.884  17.583  0.4266 -0.0723 -0.1807
   18DPPC   C1B  213   2.569   2.726  19.021  0.1507 -0.0607 -0.3728
   18DPPC   C2B  214   2.432   2.706  18.651  0.3270  0.0400  0.0052
   18DPPC   C3B  215   2.120   2.698  18.221  0.4458 -0.1036  0.1099
   18DPPC   C4B  216   1.770   2.724  17.813  0.1018  0.0637 -0.1811
   19DPPC   NC3  217   4.016   6.065  19.834 -0.2285  0.1700  0.2018
   19DPPC   PO4  218   4.245   5.751  19.954  0.1111 -0.2894 -0.0786
   19DPPC   GL1  219   4.649   5.666  19.745 -0.0615 -0.2656 -0.1956
   19DPPC   GL2  220   4.716   5.897  19.995  0.0615 -0.1637 -0.3186
   19DPPC   C1A  221   4.866   5.745  19.453 -0.2656 -0.0164 -0.1704
   19DPPC   C2A  222   5.002   5.712  19.093  0.0081 -0.1460 -0.0004
   19DPPC   C3A  223   5.265   5.678  18.658 -0.0979  0.0136  0.1169
   19DPPC   C4A  224   5.541   5.722  18.264 -0.3450 -0.1599  0.0370
   19DPPC   C1B  225   5.045   5.808  19.879  0.0231  0.3578 -0.3070
   19DPPC   C2B  226   5.324   5.679  19.619  0.1360 -0.2387 -0.1077
   19DPPC   C3B  227   5.530   5.689  19.188  0.3026  0.1329  0.0122
   19DPPC   C4B  228   5.765   5.641  18.752 -0.1332  0.0481 -0.1374
   20DPPC   NC3  229   6.781   4.645  23.232  0.1689 -0.2373 -0.3364
   20DPPC   PO4  230   6.473   4.861  23.136  0.0407 -0.1441 -0.1221
   20DPPC   GL1  231   6.722   4.935  22.835 -0.2130 -0.3740 -0.0332
   20DPPC   GL2  232   6.561   5.124  22.710 -0.0465 -0.0719  0.1296
   20DPPC   C1A  233   6.935   4.764  22.591 -0.1986 -0.3225 -0.1715
   20DPPC   C2A  234   7.208   4.700  22.294 -0.1326 -0.1088  0.1492
   20DPPC   C3A  235   7.455   4.683  21.827 -0.1406 -0.1525 -0.1064
   20DPPC   C4A  236   7.663   4.658  21.447 -0.2623 -0.2211 -0.1024
   20DPPC   C1B  237   6.690   5.161  22.399  0.0256  0.1830 -0.2705
   20DPPC   C2B  238   7.007   5.161  22.133  0.0719  0.2016  0.0325
   20DPPC   C3B  239   7.316   5.187  21.755  0.0107 -0.0188 -0.2289
   20DPPC   C4B  240   7.652   5.248  21.376  0.0310  0.1433  0.0094
   21DPPC   NC3  241   6.307   0.284  22.415  0.0725  0.0453 -0.0359
   21DPPC   PO4  242   6.275  -0.000  22.653 -0.1219  0.2155 -0.0891
   21DPPC   GL1  243   6.495  -0.204  22.444 -0.1125  0.2432 -0.3607
   21DPPC   GL2  244   6.508  -0.084  22.172 -0.2281  0.2761 -0.1830
   21DPPC   C1A  245   6.814  -0.420  22.492 -0.1217 -0.0614 -0.1641
   21DPPC   C2A  246   7.192  -0.490  22.421  0.1897 -0.0269  0.0158
   21DPPC   C3A  247   7.454  -0.522  21.926 -0.3957 -0.0223 -0.1193
   21DPPC   C4A  248   7.803  -0.474  21.536  0.0624 -0.1356  0.0908
   21DPPC   C1B  249   6.712  -0.071  21.893  0.0872 -0.1923  0.1182
   21DPPC   C2B  250   7.010  -0.062  21.582  0.0650 -0.0135  0.2419
   21DPPC   C3B  251   7.247  -0.008  21.222 -0.1480 -0.2385 -0.1372
   21DPPC   C4B  252   7.535  -0.012  20.769  0.2087  0.1831 -0.0101
   22DPPC   NC3  253   4.707   5.719  21.253 -0.2984  0.1699 -0.1024
   22DPPC   PO4  254   4.850   6.025  21.011 -0.2186 -0.0620 -0.0813
   22DPPC   GL1  255   5.198   5.769  20.790 -0.1129 -0.1442  0.1915
   22DPPC   GL2  256   5.154   6.006  20.646 -0.1663  0.1076 -0.0715
   22DPPC   C1A  257   5.429   5.640  20.518 -0.1850 -0.2049  0.0789
   22DPPC   C2A  258   5.562   5.602  20.150 -0.3922 -0.1339  0.4258
   22DPPC   C3A  259   5.852   5.569  19.747 -0.2786  0.1943 -0.2370
   22DPPC   C4A  260   6.028   5.597  19.269 -0.0672  0.1250 -0.1309
   22DPPC   C1B  261   5.246   5.975  20.262 -0.1629  0.0080  0.0993
   22DPPC   C2B  262   5.523   6.049  19.943  0.0948 -0.0398  0.3054
   22DPPC   C3B  263   5.704   6.100  19.535 -0.0514  0.2617 -0.0904
   22DPPC   C4B  264   5.891   6.086  19.061  0.1273 -0.0691 -0.0827
   23DPPC   NC3  265   4.778   3.291  19.939  0.2244  0.0205 -0.0236
   23DPPC   PO4  266   4.605   3.455  20.268 -0.2069 -0.0262 -0.1056
   23DPPC   GL1  267   5.037   3.383  20.383  0.1575 -0.1587 -0.0525
   23DPPC   GL2  268   4.998   3.648  20.211 -0.1252 -0.3162 -0.0541
   23DPPC   C1A  269   5.266   3.281  20.129 -0.0861  0.1632  0.0518
   23DPPC   C2A  270   5.459   3.293  19.785  0.1671 -0.2104 -0.0672
   23DPPC   C3A  271   5.816   3.377  19.484 -0.1805 -0.1773  0.3106
   23DPPC   C4A  272   6.191   3.406  19.113  0.1416  0.1880  0.4421
   23DPPC   C1B  273   5.234   3.703  19.917 -0.1220 -0.2238 -0.0736
   23DPPC   C2B  274   5.492   3.828  19.580 -0.3531 -0.0884 -0.1572
   23DPPC   C3B  275   5.769   3.831  19.250 -0.0960 -0.2217  0.2036
   23DPPC   C4B  276   6.076   3.837  18.836  0.0748  0.2041 -0.1369
   24DPPC   NC3  277   5.150   1.542  20.844  0.0939  0.2070 -0.0510
   24DPPC   PO4  278   5.041   1.894  20.687  0.0482 -0.1072  0.1321
   24DPPC   GL1  279   5.155   1.947  20.269  0.0863  0.0573 -0.2231
   24DPPC   GL2  280   5.225   2.171  20.326  0.2605  0.0737 -0.0390
   24DPPC   C1A  281   5.414   1.943  19.998  0.0429  0.0547 -0.0376
   24DPPC   C2A  282   5.671   1.999  19.674  0.3111  0.0869 -0.0545
   24DPPC   C3A  283   5.974   2.039  19.319  0.1730  0.0302  0.0932
   24DPPC   C4A  284   6.197   2.072  18.931 -0.2089 -0.0646 -0.0336
   24DPPC   C1B  285   5.263   2.397  20.037 -0.3665  0.1903 -0.1020
   24DPPC   C2B  286   5.456   2.565  19.688 -0.1362  0.0279 -0.1623
   24DPPC   C3B  287   5.746   2.519  19.336 -0.2713  0.1182 -0.0709
   24DPPC   C4B  288   6.046   2.555  18.991 -0.1333 -0.0453 -0.3733
   25DPPC   NC3  289   4.623   0.067  20.011 -0.0997 -0.0816 -0.0390
   25DPPC   PO4  290   4.339  -0.074  19.745  0.2554  0.5620 -0.0863
   25DPPC   GL1  291   4.528  -0.122  19.366  0.0775 -0.0366 -0.2473
   25DPPC   GL2  292   4.527   0.198  19.318 -0.0765 -0.3509 -0.0300
   25DPPC   C1A  293   4.763  -0.355  19.189  0.0072  0.2062 -0.1550
   25DPPC   C2A  294   4.932  -0.476  18.805 -0.1917 -0.3538 -0.2799
   25DPPC   C3A  295   5.234  -0.409  18.434  0.0281  0.1591 -0.1187
   25DPPC   C4A  296   5.505  -0.432  18.053 -0.2063 -0.0864  0.1820
   25DPPC   C1B  297   4.585   0.328  18.998 -0.2208 -0.0057  0.0857
   25DPPC   C2B  298   4.681   0.383  18.615  0.0212 -0.0503 -0.1613
   25DPPC   C3B  299   4.998   0.500  18.339  0.1815  0.1788  0.1717
   25DPPC   C4B  300   5.213   0.519  17.976 -0.1106 -0.2584  0.3268
   26DPPC   NC3  301   2.650   0.652  20.580  0.1159 -0.0632  0.0515
   26DPPC   PO4  302   2.857   0.555  20.258 -0.1045  0.0060 -0.2462
   26DPPC   GL1  303   2.579   0.625  19.979  0.0783 -0.6586 -0.3175
   26DPPC   GL2  304   2.341   0.644  20.157 -0.0502 -0.4796  0.1130
   26DPPC   C1A  305   2.469   0.581  19.641 -0.1602 -0.1220 -0.0008
   26DPPC   C2A  306   2.297   0.541  19.259  0.1428 -0.0524  0.3643
   26DPPC   C3A  307   2.015   0.533  18.843 -0.2466  0.2529 -0.0492
   26DPPC   C4A  308   1.740   0.595  18.494  0.1969 -0.1205  0.0802
   26DPPC   C1B  309   2.063   0.668  19.898 -0.0813 -0.2424 -0.3617
   26DPPC   C2B  310   1.835   0.671  19.551 -0.2627 -0.0528 -0.0517
   26DPPC   C3B  311   1.599   0.641  19.093  0.0606 -0.3493 -0.0691
   26DPPC   C4B  312   1.260   0.623  18.801  0.1814 -0.1927  0.0836
   27DPPC   NC3  313   3.679   6.321  18.775  0.0318 -0.1396 -0.0595
   27DPPC   PO4  314   4.008   6.115  18.840 -0.0579  0.2108  0.0736
   27DPPC   GL1  315   4.315   6.060  18.601  0.0377  0.1730 -0.2057
   27DPPC   GL2  316   4.293   5.877  18.481  0.0162  0.1861  0.0766
   27DPPC   C1A  317   4.629   6.174  18.429 -0.3211 -0.2097 -0.3785
   27DPPC   C2A  318   4.900   6.299  18.110  0.2515 -0.0722 -0.1969
   27DPPC   C3A  319   5.168   6.289  17.746 -0.1652 -0.1959 -0.1656
   27DPPC   C4A  320   5.411   6.210  17.345  0.1134  0.3612 -0.2460
   27DPPC   C1B  321   4.457   5.947  18.125 -0.3140  0.1499  0.1506
   27DPPC   C2B  322   4.704   5.922  17.808  0.2235  0.1019  0.1039
   27DPPC   C3B  323   4.870   5.873  17.423 -0.1127  0.2375 -0.0814
   27DPPC   C4B  324   5.227   5.834  17.003 -0.1757 -0.2214 -0.2608
   28DPPC   NC3  325   3.746   0.216  19.116 -0.1526 -0.2667 -0.1816
   28DPPC   PO4  326   4.069   0.067  18.924  0.0847 -0.0982  0.0060
   28DPPC   GL1  327   3.933   0.010  18.504 -0.1115  0.0365  0.2014
   28DPPC   GL2  328   3.689   0.139  18.607  0.2750 -0.0031 -0.1055
   28DPPC   C1A  329   3.783  -0.162  18.257  0.1673 -0.5119 -0.0512
   28DPPC   C2A  330   3.477  -0.284  18.093  0.2499 -0.1205  0.3590
   28DPPC   C3A  331   3.163  -0.375  17.812 -0.2083  0.2039  0.1265
   28DPPC   C4A  332   2.866  -0.306  17.429  0.0279 -0.0110  0.1488
   28DPPC   C1B  333   3.491   0.127  18.317  0.3776 -0.3975  0.1269
   28DPPC   C2B  334   3.293   0.137  17.952 -0.1682 -0.1743  0.0981
   28DPPC   C3B  335   2.966   0.161  17.670  0.2357 -0.0410 -0.3341
   28DPPC   C4B  336   2.587   0.240  17.382 -0.1605  0.0177 -0.0376
   29DPPC   NC3  337   5.338   3.906  22.029  0.2149 -0.0176  0.0341
   29DPPC   PO4  338   5.493   4.170  21.789 -0.1143  0.1240  0.2931
   29DPPC   GL1  339   5.783   3.971  21.578 -0.0796 -0.1690 -0.2294
   29DPPC   GL2  340   5.616   3.873  21.317  0.0036  0.0700  0.0081
   29DPPC   C1A  341   6.036   3.919  21.304 -0.3836 -0.1405  0.1984
   29DPPC   C2A  342   6.220   3.719  21.026  0.0524 -0.0952 -0.0311
   29DPPC   C3A  343   6.534   3.636  20.642  0.0688  0.0984  0.1755
   29DPPC   C4A  344   6.829   3.678  20.285 -0.2092 -0.1199  0.0804
   29DPPC   C1B  345   5.742   3.816  20.979 -0.1812 -0.0469 -0.3398
   29DPPC   C2B  346   5.972   3.731  20.608 -0.1346 -0.0878 -0.0638
   29DPPC   C3B  347   6.233   3.749  20.184 -0.3416 -0.2168  0.1089
   29DPPC   C4B  348   6.552   3.748  19.802 -0.3445 -0.0833 -0.2655
   30DPPC   NC3  349   5.961   4.380  21.411 -0.3478  0.0666  0.2011
   30DPPC   PO4  350   5.644   4.557  21.419  0.0787 -0.0823 -0.0007
   30DPPC   GL1  351   5.803   4.881  21.251 -0.1004 -0.0344 -0.2743
   30DPPC   GL2  352   5.802   4.692  20.949 -0.3706 -0.0357  0.0225
   30DPPC   C1A  353   6.221   4.995  21.188 -0.0230 -0.0572 -0.2346
   30DPPC   C2A  354   6.490   4.958  20.852 -0.0296 -0.0427  0.1262
   30DPPC   C3A  355   6.785   4.962  20.463  0.0272 -0.1746 -0.2247
   30DPPC   C4A  356   6.961   4.979  20.021 -0.0016  0.3671  0.2982
   30DPPC   C1B  357   6.152   4.614  20.739 -0.2864 -0.2578 -0.1088
   30DPPC   C2B  358   6.400   4.579  20.390 -0.0716 -0.0791  0.1113
   30DPPC   C3B  359   6.672   4.593  20.036  0.2197  0.0922  0.2011
   30DPPC   C4B  360   6.911   4.603  19.594 -0.2161  0.1036 -0.0117
   31DPPC   NC3  361   3.927   3.910  18.575  0.1303  0.1683  0.1097
   31DPPC   PO4  362   3.634   3.900  18.791  0.1829  0.0151 -0.2316
   31DPPC   GL1  363   3.360   4.154  18.857  0.3577 -0.1913  0.2964
   31DPPC   GL2  364   3.468   4.352  18.739 -0.1025  0.0356  0.1526
   31DPPC   C1A  365   3.088   3.999  18.650 -0.1196  0.3037 -0.2447
   31DPPC   C2A  366   2.865   3.880  18.311 -0.1924 -0.0814 -0.1830
   31DPPC   C3A  367   2.589   3.874  17.972 -0.0706  0.0646  0.2679
   31DPPC   C4A  368   2.284   3.978  17.621 -0.2622 -0.1767  0.0825
   31DPPC   C1B  369   3.369   4.229  18.392 -0.4237  0.1601 -0.0820
   31DPPC   C2B  370   3.169   4.152  17.999  0.1501 -0.1345 -0.2104
   31DPPC   C3B  371   3.003   3.917  17.584  0.0500  0.3204  0.0088
   31DPPC   C4B  372   2.632   3.610  17.490  0.1047 -0.0518  0.0113
   32DPPC   NC3  373   5.059   0.742  21.025 -0.2075  0.1231 -0.0725
   32DPPC   PO4  374   5.384   0.717  21.271  0.2299  0.0867  0.2693
   32DPPC   GL1  375   5.608   0.813  20.951  0.2519  0.1217  0.2317
   32DPPC   GL2  376   5.749   0.554  20.973 -0.0212 -0.1011  0.1443
   32DPPC   C1A  377   5.893   1.009  20.856 -0.2238  0.2154 -0.0677
   32DPPC   C2A  378   6.136   1.038  20.506 -0.0613 -0.0682 -0.1105
   32DPPC   C3A  379   6.385   1.029  20.112 -0.1675  0.0674 -0.1038
   32DPPC   C4A  380   6.666   1.084  19.776 -0.0758 -0.1074 -0.0113
   32DPPC   C1B  381   6.057   0.616  20.733 -0.0042  0.3558 -0.4445
   32DPPC   C2B  382   6.387   0.565  20.447  0.1974 -0.1695  0.1175
   32DPPC   C3B  383   6.690   0.623  20.038 -0.1075 -0.4225  0.0355
   32DPPC   C4B  384   6.961   0.725  19.614 -0.0585  0.1330 -0.2183
   33DPPC   NC3  385   2.687   3.853  20.290 -0.2771 -0.1573 -0.0440
   33DPPC   PO4  386   2.797   3.476  20.222 -0.0581 -0.0319 -0.1288
   33DPPC   GL1  387   2.365   3.544  20.115 -0.1137 -0.2788 -0.0379
   33DPPC   GL2  388   2.385   3.788  19.981 -0.0266 -0.1977  0.1624
   33DPPC   C1A  389   2.048   3.384  19.981  0.0673 -0.0109  0.2920
   33DPPC   C2A  390   1.759   3.303  19.739 -0.2799  0.0335  0.1571
   33DPPC   C3A  391   1.546   3.276  19.297  0.1743  0.1683  0.2065
   33DPPC   C4A  392   1.303   3.307  18.903  0.2126 -0.0289  0.0957
   33DPPC   C1B  393   2.247   3.718  19.630  0.0726  0.1430  0.0960
   33DPPC   C2B  394   1.973   3.689  19.286  0.0395 -0.1182 -0.0888
   33DPPC   C3B  395   1.726   3.633  18.889 -0.3189  0.3418  0.0662
   33DPPC   C4B  396   1.385   3.695  18.537  0.0101 -0.1790 -0.3523
   34DPPC   NC3  397   5.450   2.045  22.148 -0.0496  0.3304  0.0847
   34DPPC   PO4  398   5.805   1.833  22.197  0.0066 -0.1727 -0.0044
   34DPPC   GL1  399   6.092   2.086  21.968  0.0522 -0.2939 -0.1785
   34DPPC   GL2  400   5.939   1.952  21.735 -0.1067 -0.1307  0.3094
   34DPPC   C1A  401   6.390   2.183  21.704 -0.1292  0.2007  0.0788
   34DPPC   C2A  402   6.664   2.255  21.415  0.1114  0.2483 -0.2635
   34DPPC   C3A  403   6.902   2.269  20.986  0.0413  0.0279  0.2374
   34DPPC   C4A  404   7.201   2.289  20.609  0.1705  0.0591 -0.0834
   34DPPC   C1B  405   6.128   1.927  21.436  0.2572 -0.1069 -0.3148
   34DPPC   C2B  406   6.403   1.846  21.196 -0.0368  0.1204  0.1613
   34DPPC   C3B  407   6.651   1.880  20.768 -0.0153 -0.0959 -0.3939
   34DPPC   C4B  408   6.963   1.836  20.338 -0.1623 -0.0056 -0.1017
   35DPPC   NC3  409   5.206   4.970  21.458 -0.0962 -0.1065 -0.3338
   35DPPC   PO4  410   5.331   5.033  21.116 -0.0231  0.2164  0.0092
   35DPPC   GL1  411   5.644   5.112  20.917 -0.1807  0.1188 -0.4244
   35DPPC   GL2  412   5.424   5.208  20.712 -0.0715 -0.1477 -0.0054
   35DPPC   C1A  413   5.851   5.073  20.682  0.0694 -0.1184 -0.0740
   35DPPC   C2A  414   6.215   5.071  20.458  0.1232 -0.1127 -0.0144
   35DPPC   C3A  415   6.455   5.060  20.078 -0.2042  0.0510 -0.0220
   35DPPC   C4A  416   6.603   5.092  19.614  0.1127 -0.2068  0.3772
   35DPPC   C1B  417   5.502   5.211  20.372  0.2182  0.1451 -0.0505
   35DPPC   C2B  418   5.746   5.153  20.057  0.0182 -0.2038  0.2954
   35DPPC   C3B  419   6.070   5.140  19.641 -0.0044 -0.0472  0.1070
   35DPPC   C4B  420   6.348   5.212  19.215  0.2528 -0.1013  0.0828
   36DPPC   NC3  421   3.932   2.699  18.474 -0.0201 -0.4307  0.0299
   36DPPC   PO4  422   3.765   3.038  18.535 -0.1442  0.0633  0.1033
   36DPPC   GL1  423   4.076   3.281  18.462  0.0064  0.3957  0.0125
   36DPPC   GL2  424   4.297   3.085  18.547 -0.2160 -0.2976  0.0859
   36DPPC   C1A  425   4.154   3.401  18.161 -0.0158  0.0293  0.1013
   36DPPC   C2A  426   4.188   3.336  17.779  0.0895 -0.3153 -0.1324
   36DPPC   C3A  427   4.364   3.356  17.400 -0.1679  0.1480 -0.1914
   36DPPC   C4A  428   4.642   3.311  16.979 -0.1936  0.1066  0.3081
   36DPPC   C1B  429   4.582   3.141  18.294  0.0118 -0.0508 -0.1268
   36DPPC   C2B  430   4.729   3.271  17.916  0.3899 -0.1374  0.1536
   36DPPC   C3B  431   4.941   3.289  17.466 -0.0463 -0.3480 -0.0017
   36DPPC   C4B  432   5.136   3.321  16.986  0.1568  0.2819 -0.0070
   37DPPC   NC3  433   3.080   2.369  20.556  0.1481  0.0171 -0.3938
   37DPPC   PO4  434   3.051   2.015  20.336  0.1032 -0.1524  0.0657
   37DPPC   GL1  435   2.714   2.010  20.029 -0.2251 -0.3714 -0.0329
   37DPPC   GL2  436   2.576   1.889  20.288  0.1271  0.0057 -0.1677
   37DPPC   C1A  437   2.596   1.894  19.728  0.0042 -0.2206  0.0082
   37DPPC   C2A  438   2.283   1.925  19.435  0.1644 -0.2290  0.2684
   37DPPC   C3A  439   2.036   1.811  19.093 -0.0145 -0.1629 -0.0197
   37DPPC   C4A  440   1.901   1.845  18.566  0.2053 -0.0984  0.0921
   37DPPC   C1B  441   2.286   1.968  20.115  0.0232  0.8509  0.2257
   37DPPC   C2B  442   1.929   1.972  19.871  0.2969 -0.0378  0.0851
   37DPPC   C3B  443   1.714   1.935  19.428  0.0221  0.0204 -0.0944
   37DPPC   C4B  444   1.368   1.924  19.077  0.0732 -0.1564  0.1341
   38DPPC   NC3  445   4.642   5.423  19.310 -0.3723  0.4515 -0.1934
   38DPPC   PO4  446   4.354   5.211  19.208 -0.0251  0.2389  0.2876
   38DPPC   GL1  447   4.382   5.080  18.874 -0.3501 -0.0093  0.1977
   38DPPC   GL2  448   4.134   5.035  18.779  0.0558 -0.3780  0.4960
   38DPPC   C1A  449   4.626   4.890  18.682  0.0299 -0.0818  0.0172
   38DPPC   C2A  450   4.824   4.855  18.289 -0.0596 -0.2403 -0.0324
   38DPPC   C3A  451   5.057   4.965  17.876  0.0278  0.3617 -0.0156
   38DPPC   C4A  452   5.324   4.973  17.468 -0.0412 -0.2631  0.2995
   38DPPC   C1B  453   4.219   5.068  18.460 -0.3216  0.1109  0.2637
   38DPPC   C2B  454   4.440   5.025  18.065 -0.1035  0.2591  0.0803
   38DPPC   C3B  455   4.577   5.025  17.634  0.0718  0.1286 -0.1577
   38DPPC   C4B  456   4.840   5.061  17.250  0.0000 -0.4507  0.2964
   39DPPC   NC3  457   6.239   1.903  22.481 -0.2054 -0.0264 -0.1650
   39DPPC   PO4  458   6.346   2.210  22.740 -0.1978 -0.0637 -0.0709
   39DPPC   GL1  459   6.828   2.262  22.766 -0.0012  0.0638 -0.1629
   39DPPC   GL2  460   6.836   2.501  22.640  0.0693  0.2610  0.0068
   39DPPC   C1A  461   6.925   2.152  22.434  0.0339 -0.2926  0.5947
   39DPPC   C2A  462   7.235   2.023  22.163 -0.1631  0.0421  0.1969
   39DPPC   C3A  463   7.584   2.009  21.796 -0.2042 -0.0069 -0.0864
   39DPPC   C4A  464   7.887   1.939  21.393 -0.2320  0.3236 -0.1160
   39DPPC   C1B  465   7.011   2.529  22.365 -0.2081 -0.0923 -0.1516
   39DPPC   C2B  466   7.211   2.556  22.002 -0.1697  0.1018 -0.3608
   39DPPC   C3B  467   7.541   2.501  21.686  0.2386  0.1963 -0.2793
   39DPPC   C4B  468   7.778   2.484  21.227 -0.0382 -0.0753  0.0302
   40DPPC   NC3  469   4.657   4.529  20.075 -0.2093  0.0534  0.1578
   40DPPC   PO4  470   4.664   4.196  20.218 -0.1918  0.0974 -0.2297
   40DPPC   GL1  471   5.060   4.112  19.992  0.3574 -0.4978  0.0899
   40DPPC   GL2  472   4.960   4.077  19.737 -0.1633 -0.2436 -0.1233
   40DPPC   C1A  473   5.322   4.270  19.719  0.0509  0.0658  0.3511
   40DPPC   C2A  474   5.526   4.268  19.369 -0.1051  0.1671 -0.0847
   40DPPC   C3A  475   5.824   4.340  19.002 -0.2147  0.2736 -0.0328
   40DPPC   C4A  476   6.058   4.272  18.609 -0.0848 -0.3378  0.2170
   40DPPC   C1B  477   5.117   4.028  19.412 -0.2004 -0.0936 -0.1903
   40DPPC   C2B  478   5.286   3.888  19.100 -0.1263  0.2067 -0.0839
   40DPPC   C3B  479   5.570   3.860  18.754 -0.2914  0.1078 -0.1447
   40DPPC   C4B  480   5.683   3.893  18.327  0.1605  0.0076  0.0863
   41DPPC   NC3  481   4.998   2.807  19.879  0.3476  0.1125  0.2357
   41DPPC   PO4  482   4.664   2.777  19.728  0.0896  0.2856  0.0119
   41DPPC   GL1  483   4.796   2.775  19.318 -0.2452 -0.0544  0.3182
   41DPPC   GL2  484   5.020   2.627  19.475 -0.3122 -0.1079  0.3547
   41DPPC   C1A  485   4.907   2.710  18.991  0.0229  0.5156 -0.5274
   41DPPC   C2A  486   5.066   2.687  18.600 -0.0198  0.1372 -0.0252
   41DPPC   C3A  487   5.357   2.639  18.283  0.0102  0.1361 -0.4561
   41DPPC   C4A  488   5.573   2.712  17.789  0.1011  0.0650 -0.0203
   41DPPC   C1B  489   5.308   2.639  19.217  0.2292 -0.1465 -0.0076
   41DPPC   C2B  490   5.527   2.626  18.858  0.0289  0.0278 -0.1385
   41DPPC   C3B  491   5.795   2.626  18.524 -0.1433 -0.0501  0.0186
   41DPPC   C4B  492   6.074   2.573  18.141 -0.2836  0.3332  0.0236
   42DPPC   NC3  493   5.907   2.884  22.250  0.2959  0.1398 -0.0468
   42DPPC   PO4  494   5.781   3.076  21.892 -0.3590  0.1007 -0.0392
   42DPPC   GL1  495   5.973   3.028  21.591 -0.1213  0.1903 -0.0258
   42DPPC   GL2  496   5.998   2.766  21.435  0.0716 -0.0468  0.0693
   42DPPC   C1A  497   6.173   3.204  21.313 -0.1200  0.0390  0.1059
   42DPPC   C2A  498   6.515   3.184  21.009 -0.1648  0.0375  0.1022
   42DPPC   C3A  499   6.762   3.213  20.607  0.1168  0.0597  0.3789
   42DPPC   C4A  500   7.040   3.254  20.138 -0.2713 -0.0365 -0.3703
   42DPPC   C1B  501   6.127   2.839  21.098 -0.1309  0.0103  0.1145
   42DPPC   C2B  502   6.392   2.805  20.719 -0.1862 -0.1923  0.0612
   42DPPC   C3B  503   6.612   2.796  20.300  0.0221  0.0544  0.1373
   42DPPC   C4B  504   6.895   2.836  19.958  0.3298 -0.0440 -0.1092
   43DPPC   NC3  505   3.718   3.000  19.090 -0.0742  0.1073 -0.0756
   43DPPC   PO4  506   4.055   2.902  18.957  0.0718  0.1918 -0.0294
   43DPPC   GL1  507   4.392   2.723  18.713  0.3785 -0.0255  0.4531
   43DPPC   GL2  508   4.512   2.636  18.978 -0.1769 -0.2356  0.3230
   43DPPC   C1A  509   4.547   2.730  18.403 -0.0378 -0.3694  0.1756
   43DPPC   C2A  510   4.775   2.796  18.079  0.1956  0.0246  0.1861
   43DPPC   C3A  511   5.081   2.795  17.642  0.0869  0.1901 -0.0730
   43DPPC   C4A  512   5.321   2.904  17.221  0.0641 -0.0683 -0.0256
   43DPPC   C1B  513   4.715   2.410  18.739  0.2658 -0.2481  0.1211
   43DPPC   C2B  514   4.850   2.361  18.317  0.2504  0.3787  0.0960
   43DPPC   C3B  515   5.124   2.335  17.937  0.2327 -0.2446 -0.1242
   43DPPC   C4B  516   5.365   2.311  17.484  0.1502 -0.1195  0.4611
   44DPPC   NC3  517   3.517   3.316  20.275 -0.0985 -0.0975  0.0336
   44DPPC   PO4  518   3.246   3.166  20.078  0.1606  0.1542  0.0798
   44DPPC   GL1  519   2.850   3.304  19.815  0.2573 -0.1406  0.3502
   44DPPC   GL2  520   2.916   3.129  19.639 -0.2165  0.0083  0.2850
   44DPPC   C1A  521   2.523   3.261  19.738 -0.2867  0.3202 -0.0834
   44DPPC   C2A  522   2.208   3.306  19.453  0.1899 -0.0873 -0.0393
   44DPPC   C3A  523   1.964   3.236  19.038 -0.0729  0.1993  0.0055
   44DPPC   C4A  524   1.740   3.224  18.599 -0.2118 -0.1722  0.1636
   44DPPC   C1B  525   2.758   3.189  19.339  0.4137 -0.3100 -0.0298
   44DPPC   C2B  526   2.514   3.186  18.998 -0.0565  0.0010 -0.2850
   44DPPC   C3B  527   2.237   3.201  18.605  0.2123  0.2401 -0.1013
   44DPPC   C4B  528   1.953   3.217  18.162 -0.1808 -0.1235 -0.1577
   45DPPC   NC3  529   3.855   3.459  18.850  0.0479  0.0470  0.3438
   45DPPC   PO4  530   4.244   3.446  18.837  0.3731  0.1073  0.1517
   45DPPC   GL1  531   4.626   3.470  18.591 -0.0575 -0.4088 -0.2496
   45DPPC   GL2  532   4.760   3.234  18.706  0.2834 -0.2604  0.2790
   45DPPC   C1A  533   4.874   3.569  18.336  0.0821  0.0132 -0.2346
   45DPPC   C2A  534   5.103   3.617  17.931  0.2636  0.3107  0.0195
   45DPPC   C3A  535   5.310   3.649  17.451 -0.0364  0.2177  0.1986
   45DPPC   C4A  536   5.477   3.623  16.995 -0.4464 -0.2148 -0.2632
   45DPPC   C1B  537   5.011   3.152  18.433  0.0507 -0.1029 -0.1353
   45DPPC   C2B  538   5.245   3.095  18.059 -0.1200  0.1183  0.1020
   45DPPC   C3B  539   5.484   3.142  17.633  0.2053  0.0014  0.2635
   45DPPC   C4B  540   5.770   3.148  17.226 -0.0987 -0.1574 -0.0302
   46DPPC   NC3  541   4.969   6.502  20.918  0.1995 -0.2566 -0.2449
   46DPPC   PO4  542   4.834   6.844  20.802 -0.0184 -0.0571  0.1169
   46DPPC   GL1  543   4.888   6.806  20.361 -0.2279  0.3260  0.1821
   46DPPC   GL2  544   5.083   6.650  20.489  0.0498 -0.1148  0.2159
   46DPPC   C1A  545   5.076   6.889  20.081 -0.0227  0.0083 -0.2636
   46DPPC   C2A  546   5.269   7.010  19.698 -0.1845  0.0257  0.0063
   46DPPC   C3A  547   5.507   6.981  19.268 -0.1323  0.0852 -0.1889
   46DPPC   C4A  548   5.825   7.002  18.899 -0.1961  0.0235 -0.3277
   46DPPC   C1B  549   5.385   6.857  20.405 -0.1108  0.1271  0.0865
   46DPPC   C2B  550   5.567   6.867  20.069 -0.3032 -0.1899  0.2335
   46DPPC   C3B  551   5.901   6.888  19.688 -0.1330  0.2954  0.0630
   46DPPC   C4B  552   6.134   6.885  19.231  0.1701 -0.3013  0.1141
   47DPPC   NC3  553   3.367   4.971  19.534 -0.1313  0.2503 -0.0437
   47DPPC   PO4  554   3.089   5.100  19.828  0.2657  0.1513 -0.0230
   47DPPC   GL1  555   2.717   4.903  19.612  0.3208 -0.0965 -0.0574
   47DPPC   GL2  556   2.588   4.941  19.848 -0.2207  0.0616 -0.0039
   47DPPC   C1A  557   2.563   4.927  19.296 -0.0167 -0.1971  0.2026
   47DPPC   C2A  558   2.351   4.940  19.016 -0.0426  0.1867  0.2703
   47DPPC   C3A  559   2.040   4.904  18.683 -0.0051 -0.0760  0.1286
   47DPPC   C4A  560   1.791   5.001  18.324  0.1218 -0.1890  0.3795
   47DPPC   C1B  561   2.245   5.044  19.771 -0.1301 -0.0691  0.2955
   47DPPC   C2B  562   2.057   5.095  19.438 -0.0712  0.0626 -0.1737
   47DPPC   C3B  563   1.769   5.047  19.083 -0.1210  0.1960 -0.2281
   47DPPC   C4B  564   1.508   5.036  18.710  0.1517  0.1270 -0.3267
   48DPPC   NC3  565   3.478   0.178  19.997  0.0226  0.0019 -0.3370
   48DPPC   PO4  566   3.126   0.330  19.857  0.2270  0.3133 -0.1403
   48DPPC   GL1  567   2.843   0.286  19.549 -0.2181  0.0407  0.0922
   48DPPC   GL2  568   2.743   0.046  19.592  0.1883  0.0320  0.3502
   48DPPC   C1A  569   2.772   0.470  19.241 -0.2480  0.0029 -0.0885
   48DPPC   C2A  570   2.653   0.552  18.843  0.1741 -0.0329  0.0424
   48DPPC   C3A  571   2.341   0.533  18.421  0.2765  0.5216 -0.1181
   48DPPC   C4A  572   2.038   0.531  18.105 -0.0790 -0.1829 -0.3566
   48DPPC   C1B  573   2.571   0.043  19.219 -0.3188  0.0274 -0.3269
   48DPPC   C2B  574   2.263   0.125  18.910  0.1248  0.1097  0.0168
   48DPPC   C3B  575   2.020   0.158  18.553 -0.1923 -0.0508 -0.1903
   48DPPC   C4B  576   1.729   0.170  18.219  0.2089 -0.1356 -0.1419
   49DPPC   NC3  577   5.482   2.650  21.931  0.0328  0.1611  0.0198
   49DPPC   PO4  578   5.767   2.403  22.089  0.3171 -0.0625 -0.1192
   49DPPC   GL1  579   6.168   2.360  22.286  0.2889  0.1910 -0.0211
   49DPPC   GL2  580   6.237   2.613  22.168 -0.0362 -0.1452  0.0607
   49DPPC   C1A  581   6.469   2.178  22.162  0.0344 -0.1250 -0.1360
   49DPPC   C2A  582   6.830   2.163  21.961  0.1861  0.0412  0.1954
   49DPPC   C3A  583   7.139   2.187  21.623 -0.1280 -0.4691  0.1523
   49DPPC   C4A  584   7.371   2.173  21.184 -0.2488  0.0349 -0.0668
   49DPPC   C1B  585   6.598   2.661  22.107  0.1128  0.1942 -0.0980
   49DPPC   C2B  586   6.781   2.663  21.740  0.2178  0.2291 -0.1525
   49DPPC   C3B  587   7.146   2.616  21.392  0.1220  0.0456  0.1471
   49DPPC   C4B  588   7.392   2.574  20.957 -0.2422 -0.1429  0.2219
   50DPPC   NC3  589   4.002   1.804  18.735 -0.1957  0.1974 -0.2930
   50DPPC   PO4  590   3.750   2.123  18.731  0.1164  0.1168  0.2078
   50DPPC   GL1  591   3.726   2.308  18.285 -0.1314 -0.2024  0.2619
   50DPPC   GL2  592   3.993   2.109  18.278 -0.2815 -0.0285  0.2568
   50DPPC   C1A  593   3.588   2.198  17.992 -0.3939  0.0676 -0.1203
   50DPPC   C2A  594   3.863   2.195  17.643  0.0824 -0.0022  0.0271
   50DPPC   C3A  595   4.089   2.166  17.187 -0.2882  0.0123  0.2129
   50DPPC   C4A  596   4.374   2.082  16.794  0.0350 -0.3908 -0.0095
   50DPPC   C1B  597   4.180   2.044  17.940  0.1865 -0.0056 -0.0733
   50DPPC   C2B  598   4.373   2.014  17.562 -0.3976 -0.1135  0.0941
   50DPPC   C3B  599   4.631   2.068  17.199 -0.0414 -0.1011 -0.0380
   50DPPC   C4B  600   4.884   2.077  16.729 -0.2503  0.2744  0.3482
   51DPPC   NC3  601   5.165   2.229  21.212 -0.1821 -0.0129  0.3467
   51DPPC   PO4  602   5.272   1.843  21.203 -0.1727  0.0706 -0.0914
   51DPPC   GL1  603   5.493   1.895  20.868  0.1834  0.2174 -0.0328
   51DPPC   GL2  604   5.517   2.205  20.940 -0.0134  0.1734 -0.1039
   51DPPC   C1A  605   5.669   1.936  20.534 -0.0898 -0.0924 -0.0027
   51DPPC   C2A  606   5.894   2.010  20.179 -0.0899  0.1316  0.3314
   51DPPC   C3A  607   6.165   1.962  19.788  0.2268  0.1586  0.0875
   51DPPC   C4A  608   6.482   1.970  19.376 -0.1138 -0.2825 -0.1830
   51DPPC   C1B  609   5.457   2.318  20.620 -0.1488  0.2514  0.0576
   51DPPC   C2B  610   5.707   2.454  20.338  0.0878 -0.1110  0.0086
   51DPPC   C3B  611   5.932   2.443  19.918 -0.1380  0.0246  0.3503
   51DPPC   C4B  612   6.196   2.425  19.518 -0.0138  0.0470  0.1606
   52DPPC   NC3  613   4.515   3.116  19.073 -0.0904  0.0117  0.1446
   52DPPC   PO4  614   4.633   3.187  19.418  0.0045 -0.1086  0.3248
   52DPPC   GL1  615   5.006   3.206  19.120 -0.1842  0.3298 -0.2550
   52DPPC   GL2  616   4.931   3.517  19.066 -0.0578  0.2734 -0.0603
   52DPPC   C1A  617   5.260   3.047  18.887 -0.1185  0.4252  0.2985
   52DPPC   C2A  618   5.559   3.061  18.568  0.1394 -0.1132 -0.1202
   52DPPC   C3A  619   5.738   3.049  18.123 -0.3911  0.0832  0.1260
   52DPPC   C4A  620   5.990   3.045  17.722  0.0629 -0.0564 -0.0165
   52DPPC   C1B  621   5.102   3.498  18.735 -0.0777  0.0309 -0.4628
   52DPPC   C2B  622   5.340   3.450  18.403 -0.2311 -0.2415 -0.0144
   52DPPC   C3B  623   5.588   3.503  18.006  0.0273 -0.1952  0.3266
   52DPPC   C4B  624   5.888   3.522  17.546 -0.2685 -0.0848  0.0124
   53DPPC   NC3  625   4.037   4.717  19.027 -0.2096 -0.1823 -0.1406
   53DPPC   PO4  626   3.918   4.378  18.939 -0.0138  0.0932 -0.1882
   53DPPC   GL1  627   3.903   4.355  18.504 -0.2632 -0.2065  0.2099
   53DPPC   GL2  628   3.926   4.659  18.538  0.2172 -0.1440 -0.0000
   53DPPC   C1A  629   4.154   4.153  18.261  0.7744 -0.0597 -0.1968
   53DPPC   C2A  630   4.365   4.189  17.926 -0.1510  0.0793  0.1195
   53DPPC   C3A  631   4.495   4.226  17.468  0.0169  0.0840 -0.0183
   53DPPC   C4A  632   4.791   4.347  17.090 -0.4126  0.2078  0.0775
   53DPPC   C1B  633   3.575   4.684  18.377  0.1024 -0.2166 -0.0877
   53DPPC   C2B  634   3.141   4.784  18.352 -0.0531  0.0862 -0.1170
   53DPPC   C3B  635   2.882   4.758  17.961  0.0086  0.0443  0.0214
   53DPPC   C4B  636   2.674   4.877  17.568 -0.2955 -0.0494  0.0324
   54DPPC   NC3  637   5.126   4.432  21.493 -0.3472  0.0882  0.0297
   54DPPC   PO4  638   5.263   4.141  21.246  0.2652 -0.1720  0.0290
   54DPPC   GL1  639   5.630   4.226  21.052 -0.3775 -0.1428 -0.0697
   54DPPC   GL2  640   5.382   4.064  20.832  0.0091 -0.0805 -0.4706
   54DPPC   C1A  641   5.986   4.250  20.940 -0.0982 -0.1764 -0.0242
   54DPPC   C2A  642   6.331   4.120  20.761  0.2379  0.0819  0.0785
   54DPPC   C3A  643   6.551   4.123  20.342  0.1242  0.0684 -0.3170
   54DPPC   C4A  644   6.863   4.131  19.971  0.4316  0.0524 -0.0588
   54DPPC   C1B  645   5.712   4.124  20.629 -0.0901  0.3828 -0.0769
   54DPPC   C2B  646   5.964   4.221  20.295 -0.0561 -0.2540  0.5239
   54DPPC   C3B  647   6.248   4.245  19.912  0.2440  0.1487  0.1358
   54DPPC   C4B  648   6.555   4.251  19.526 -0.1408 -0.0422 -0.0635
   55DPPC   NC3  649   6.854   0.527  23.129 -0.3540 -0.1158 -0.0757
   55DPPC   PO4  650   6.580   0.558  22.819  0.1399 -0.1059  0.0063
   55DPPC   GL1  651   6.782   0.360  22.469  0.1182  0.2164  0.0343
   55DPPC   GL2  652   6.927   0.580  22.641  0.0776 -0.1933 -0.1158
   55DPPC   C1A  653   6.926   0.376  22.132  0.0525 -0.3279 -0.1460
   55DPPC   C2A  654   7.175   0.400  21.777  0.1626 -0.0188  0.0902
   55DPPC   C3A  655   7.490   0.402  21.393  0.1852 -0.1101 -0.1621
   55DPPC   C4A  656   7.740   0.396  20.975 -0.1870  0.0944  0.3301
   55DPPC   C1B  657   7.178   0.674  22.399  0.3018  0.1604 -0.1233
   55DPPC   C2B  658   7.388   0.759  22.080 -0.0364 -0.2379 -0.1667
   55DPPC   C3B  659   7.637   0.804  21.712  0.0857 -0.2136  0.0902
   55DPPC   C4B  660   7.924   0.787  21.312  0.1249 -0.1332  0.0848
   56DPPC   NC3  661   6.196   1.305  23.210  0.0832  0.2007  0.1831
   56DPPC   PO4  662   6.347   1.678  23.254 -0.0535  0.3633 -0.2324
   56DPPC   GL1  663   6.531   1.811  22.912 -0.1629 -0.2892 -0.2713
   56DPPC   GL2  664   6.402   1.597  22.799  0.3482 -0.1009 -0.0574
   56DPPC   C1A  665   6.880   1.780  22.752 -0.3754  0.0181  0.1132
   56DPPC   C2A  666   7.166   1.642  22.519 -0.4488 -0.0449  0.0428
   56DPPC   C3A  667   7.486   1.574  22.164  0.1529  0.0537  0.0766
   56DPPC   C4A  668   7.837   1.593  21.752 -0.4436 -0.1076 -0.0589
   56DPPC   C1B  669   6.571   1.612  22.492 -0.1665 -0.2515 -0.1128
   56DPPC   C2B  670   6.812   1.665  22.198 -0.1525 -0.0714  0.3222
   56DPPC   C3B  671   7.055   1.675  21.817 -0.1500  0.0047  0.1517
   56DPPC   C4B  672   7.378   1.714  21.457  0.0805 -0.1198  0.2816
   57DPPC   NC3  673   5.555   0.269  21.340  0.1872 -0.0056 -0.0753
   57DPPC   PO4  674   5.179   0.289  21.189  0.1283 -0.2295 -0.0776
   57DPPC   GL1  675   5.316   0.167  20.850  0.0722  0.0902  0.1530
   57DPPC   GL2  676   5.334   0.501  20.761  0.0485 -0.2488  0.3055
   57DPPC   C1A  677   5.647   0.121  20.768  0.1638  0.3231 -0.0680
   57DPPC   C2A  678   5.917   0.152  20.461 -0.1231 -0.0797 -0.1412
   57DPPC   C3A  679   6.227   0.206  20.163 -0.0508  0.0061  0.1091
   57DPPC   C4A  680   6.447   0.192  19.667  0.1019  0.0670  0.0116
   57DPPC   C1B  681   5.600   0.594  20.504  0.2194  0.5257 -0.0518
   57DPPC   C2B  682   5.881   0.616  20.288  0.1291  0.0983 -0.3260
   57DPPC   C3B  683   6.222   0.609  19.867  0.3635  0.1536 -0.1828
   57DPPC   C4B  684   6.461   0.680  19.520  0.0313 -0.1313  0.0711
   58DPPC   NC3  685   3.326   3.058  18.764 -0.0248 -0.2306  0.0286
   58DPPC   PO4  686   3.394   3.428  18.678 -0.1156 -0.2494  0.3007
   58DPPC   GL1  687   3.676   3.614  18.372  0.1019  0.1188  0.5410
   58DPPC   GL2  688   3.519   3.846  18.327 -0.3008  0.1682  0.1426
   58DPPC   C1A  689   3.626   3.481  17.996 -0.1790 -0.2023  0.1081
   58DPPC   C2A  690   3.734   3.460  17.592 -0.1703 -0.0164 -0.1988
   58DPPC   C3A  691   3.917   3.463  17.140  0.0280 -0.1319 -0.0096
   58DPPC   C4A  692   4.200   3.465  16.760 -0.1740 -0.2997  0.1885
   58DPPC   C1B  693   3.232   3.728  18.127 -0.5531  0.0136  0.2409
   58DPPC   C2B  694   2.941   3.475  17.909 -0.0383 -0.2689 -0.3111
   58DPPC   C3B  695   2.695   3.148  17.601  0.0473  0.1596 -0.0451
   58DPPC   C4B  696   2.630   2.635  17.693  0.2835  0.0756  0.1230
   59DPPC   NC3  697   6.287   4.745  22.720  0.0347 -0.4146  0.0300
   59DPPC   PO4  698   6.179   4.966  22.444 -0.0668 -0.3094 -0.1069
   59DPPC   GL1  699   6.346   5.206  22.144 -0.1112 -0.2175 -0.2959
   59DPPC   GL2  700   6.358   4.921  21.993 -0.0061  0.3650  0.3007
   59DPPC   C1A  701   6.599   5.366  22.029 -0.0067 -0.1078  0.0124
   59DPPC   C2A  702   6.799   5.317  21.671 -0.0447 -0.2267 -0.0195
   59DPPC   C3A  703   7.101   5.335  21.303 -0.2766 -0.1085  0.0896
   59DPPC   C4A  704   7.380   5.264  21.003 -0.2111  0.1276  0.0903
   59DPPC   C1B  705   6.537   4.969  21.669  0.2169  0.0836  0.0631
   59DPPC   C2B  706   6.721   4.940  21.305  0.1322 -0.0157 -0.2833
   59DPPC   C3B  707   6.978   4.868  20.923 -0.1328  0.0118  0.3278
   59DPPC   C4B  708   7.270   4.881  20.547  0.0536 -0.2930  0.2295
   60DPPC   NC3  709   5.833   4.500  21.903 -0.0865  0.1642  0.4654
   60DPPC   PO4  710   5.968   4.337  22.232  0.2035  0.0151 -0.2014
   60DPPC   GL1  711   6.489   4.267  22.195  0.1804 -0.2028  0.0915
   60DPPC   GL2  712   6.456   4.576  22.312  0.0422 -0.1298  0.3490
   60DPPC   C1A  713   6.678   4.122  21.904  0.0321  0.3296  0.0432
   60DPPC   C2A  714   6.904   3.942  21.598 -0.2330  0.0354  0.1425
   60DPPC   C3A  715   7.169   3.976  21.189 -0.4590  0.2790  0.1873
   60DPPC   C4A  716   7.418   4.006  20.826 -0.0478  0.0920  0.1341
   60DPPC   C1B  717   6.754   4.701  22.099  0.4522  0.1005  0.3163
   60DPPC   C2B  718   6.981   4.793  21.736 -0.1431  0.0434 -0.0376
   60DPPC   C3B  719   7.219   4.818  21.368 -0.1330 -0.4905  0.0132
   60DPPC   C4B  720   7.569   4.788  20.945  0.0122  0.1774 -0.0350
   61DPPC   NC3  721   4.029   0.961  18.925  0.1933 -0.0209  0.1892
   61DPPC   PO4  722   3.909   1.339  18.837 -0.0172  0.0091 -0.1142
   61DPPC   GL1  723   4.168   1.323  18.545  0.0674 -0.1380 -0.1710
   61DPPC   GL2  724   4.312   1.541  18.517  0.1636 -0.1215 -0.0883
   61DPPC   C1A  725   4.284   1.100  18.272  0.1536 -0.0861 -0.2392
   61DPPC   C2A  726   4.527   1.060  17.887  0.2330 -0.2254 -0.0209
   61DPPC   C3A  727   4.790   1.033  17.499  0.2590 -0.3097  0.0966
   61DPPC   C4A  728   4.930   1.087  17.059  0.0148 -0.1100 -0.2358
   61DPPC   C1B  729   4.583   1.521  18.335 -0.4409  0.0729 -0.2984
   61DPPC   C2B  730   4.845   1.467  18.034  0.0486 -0.1265  0.0865
   61DPPC   C3B  731   5.107   1.410  17.660  0.0305  0.1427 -0.0109
   61DPPC   C4B  732   5.284   1.320  17.197 -0.0559 -0.0580 -0.2518
   62DPPC   NC3  733   4.394   5.028  20.563  0.1128  0.0071  0.4351
   62DPPC   PO4  734   4.355   4.931  20.194 -0.1578 -0.1831 -0.0242
   62DPPC   GL1  735   4.723   5.035  19.936 -0.0837  0.0353  0.0116
   62DPPC   GL2  736   4.921   4.947  20.178  0.0744 -0.0570 -0.0660
   62DPPC   C1A  737   4.977   4.851  19.770  0.1788 -0.2863 -0.2313
   62DPPC   C2A  738   5.247   4.786  19.493  0.0735 -0.0393  0.2742
   62DPPC   C3A  739   5.482   4.750  19.058 -0.0501 -0.0438 -0.0689
   62DPPC   C4A  740   5.790   4.709  18.614 -0.0169  0.1015 -0.1645
   62DPPC   C1B  741   5.295   4.865  20.260 -0.3458 -0.2580  0.2140
   62DPPC   C2B  742   5.707   4.733  20.329  0.0921 -0.0370 -0.0933
   62DPPC   C3B  743   6.056   4.694  20.000  0.1277 -0.0913 -0.1141
   62DPPC   C4B  744   6.332   4.693  19.639 -0.2290  0.2255 -0.0503
   63DPPC   NC3  745   4.390   0.326  20.558 -0.2703  0.1419  0.0946
   63DPPC   PO4  746   4.623   0.590  20.369 -0.0305 -0.1650  0.0778
   63DPPC   GL1  747   4.970   0.753  20.455  0.0507  0.0154 -0.1441
   63DPPC   GL2  748   5.132   0.553  20.399 -0.0081  0.1149 -0.0917
   63DPPC   C1A  749   5.139   1.005  20.310 -0.0783 -0.2365 -0.0347
   63DPPC   C2A  750   5.339   1.128  19.979 -0.2660 -0.0695  0.0184
   63DPPC   C3A  751   5.595   1.120  19.576 -0.1691  0.1581  0.0300
   63DPPC   C4A  752   5.832   1.168  19.169 -0.0890  0.0237 -0.0185
   63DPPC   C1B  753   5.345   0.651  20.087  0.2449  0.2493  0.2160
   63DPPC   C2B  754   5.619   0.700  19.810 -0.0493 -0.0686  0.4500
   63DPPC   C3B  755   5.906   0.701  19.401 -0.1894 -0.0735 -0.0735
   63DPPC   C4B  756   6.176   0.757  19.026  0.0388  0.2826  0.1194
   64DPPC   NC3  757   4.658   3.312  20.710 -0.0182 -0.0302  0.1169
   64DPPC   PO4  758   4.940   3.422  20.969 -0.0628 -0.2873  0.0761
   64DPPC   GL1  759   5.380   3.611  20.951 -0.0198 -0.0125 -0.0459
   64DPPC   GL2  760   5.192   3.683  20.705 -0.1407 -0.0076 -0.0360
   64DPPC   C1A  761   5.512   3.345  20.679 -0.1843  0.2260 -0.1584
   64DPPC   C2A  762   5.718   3.282  20.327  0.4078  0.0286  0.0685
   64DPPC   C3A  763   6.039   3.332  19.971 -0.1635 -0.1058 -0.2146
   64DPPC   C4A  764   6.324   3.357  19.541  0.3577  0.1575 -0.1911
   64DPPC   C1B  765   5.433   3.660  20.405  0.1723 -0.0173  0.0452
   64DPPC   C2B  766   5.672   3.698  20.082 -0.0396  0.1085 -0.0345
   64DPPC   C3B  767   5.959   3.836  19.720  0.1351 -0.0183  0.1498
   64DPPC   C4B  768   6.322   3.829  19.326  0.1526 -0.0006 -0.0113
   65DPPC   NC3  769   5.887   5.301  22.061 -0.3224 -0.0083 -0.0030
   65DPPC   PO4  770   5.887   5.629  21.835  0.1458 -0.4881 -0.0921
   65DPPC   GL1  771   6.065   5.835  21.486 -0.1180  0.0017  0.2193
   65DPPC   GL2  772   5.867   5.767  21.347 -0.0091 -0.0303 -0.0936
   65DPPC   C1A  773   6.410   5.856  21.361  0.0524 -0.2339  0.2526
   65DPPC   C2A  774   6.647   5.850  21.006 -0.0101 -0.1023  0.0245
   65DPPC   C3A  775   6.903   5.783  20.594  0.0114 -0.0571 -0.0019
   65DPPC   C4A  776   7.189   5.777  20.163 -0.4477  0.2334  0.0823
   65DPPC   C1B  777   5.963   5.842  21.034 -0.0110 -0.2085  0.0855
   65DPPC   C2B  778   6.197   5.942  20.724 -0.1443 -0.0642 -0.0703
   65DPPC   C3B  779   6.452   5.903  20.312  0.1629  0.0720 -0.0693
   65DPPC   C4B  780   6.684   5.921  19.850 -0.1636 -0.1091  0.0410
   66DPPC   NC3  781   5.013   1.514  21.551  0.2602 -0.2351  0.1990
   66DPPC   PO4  782   5.050   1.176  21.318  0.1189  0.2160  0.0574
   66DPPC   GL1  783   5.330   1.180  21.051 -0.0704  0.2883 -0.0038
   66DPPC   GL2  784   5.474   1.397  21.143 -0.1253  0.1075  0.0328
   66DPPC   C1A  785   5.404   1.090  20.715 -0.3096  0.4411  0.1740
   66DPPC   C2A  786   5.636   1.062  20.407  0.0657  0.1433 -0.2928
   66DPPC   C3A  787   5.896   1.090  20.061 -0.1460  0.2733  0.1030
   66DPPC   C4A  788   6.118   1.076  19.652  0.1787 -0.0902  0.0554
   66DPPC   C1B  789   5.655   1.528  20.861  0.0702 -0.3364 -0.1220
   66DPPC   C2B  790   5.840   1.508  20.476 -0.2294  0.2194 -0.2020
   66DPPC   C3B  791   6.148   1.527  20.107 -0.0498 -0.1849 -0.2347
   66DPPC   C4B  792   6.426   1.546  19.696  0.4809  0.0556 -0.0422
   67DPPC   NC3  793   3.252   2.361  18.336 -0.1146 -0.2077 -0.3873
   67DPPC   PO4  794   3.418   2.698  18.381 -0.1125 -0.1875 -0.0943
   67DPPC   GL1  795   3.596   2.887  18.126 -0.0245  0.0075  0.1603
   67DPPC   GL2  796   3.487   2.705  17.905  0.0042 -0.2643 -0.2524
   67DPPC   C1A  797   3.796   3.054  17.891  0.6928 -0.4087  0.0552
   67DPPC   C2A  798   3.987   2.978  17.518  0.0627  0.2579  0.0419
   67DPPC   C3A  799   4.181   2.993  17.068 -0.0615 -0.1177  0.0348
   67DPPC   C4A  800   4.412   2.931  16.643  0.1763  0.1751  0.0702
   67DPPC   C1B  801   3.599   2.721  17.565 -0.1777 -0.1687 -0.0712
   67DPPC   C2B  802   3.750   2.639  17.235  0.2491  0.0832 -0.1542
   67DPPC   C3B  803   3.999   2.498  16.839  0.2759  0.0347  0.1939
   67DPPC   C4B  804   4.032   2.153  16.464  0.2069 -0.1739  0.1623
   68DPPC   NC3  805   4.159   5.535  18.935 -0.0334  0.1616 -0.4983
   68DPPC   PO4  806   3.779   5.671  19.027  0.0347  0.1923 -0.2290
   68DPPC   GL1  807   3.446   5.533  18.766  0.2272 -0.0165 -0.1851
   68DPPC   GL2  808   3.792   5.395  18.748  0.2494  0.1573 -0.1449
   68DPPC   C1A  809   3.268   5.547  18.411  0.0570 -0.2413 -0.0563
   68DPPC   C2A  810   3.126   5.578  18.042 -0.1484 -0.1412  0.0208
   68DPPC   C3A  811   3.202   5.606  17.579 -0.0909  0.0948 -0.1162
   68DPPC   C4A  812   2.992   5.804  17.195  0.2595 -0.2307  0.2330
   68DPPC   C1B  813   4.056   5.486  18.479 -0.0560 -0.0287  0.0399
   68DPPC   C2B  814   4.190   5.508  18.072  0.0108 -0.3479  0.1846
   68DPPC   C3B  815   4.423   5.540  17.591 -0.0742 -0.1248 -0.3467
   68DPPC   C4B  816   4.603   5.592  17.165 -0.2776 -0.1625 -0.3820
   69DPPC   NC3  817   3.506   2.193  19.191  0.0297 -0.2412 -0.2064
   69DPPC   PO4  818   3.208   1.941  19.311  0.3841  0.1443  0.1150
   69DPPC   GL1  819   2.791   2.059  19.290  0.0653  0.1612 -0.0515
   69DPPC   GL2  820   2.712   1.781  19.203 -0.4930  0.1038 -0.0032
   69DPPC   C1A  821   2.804   2.279  19.037 -0.2048 -0.0512 -0.1418
   69DPPC   C2A  822   2.703   2.310  18.672  0.1737  0.0090  0.0790
   69DPPC   C3A  823   2.680   2.573  18.228  0.3072 -0.1596  0.2537
   69DPPC   C4A  824   2.914   2.926  17.983 -0.2458 -0.2819 -0.0441
   69DPPC   C1B  825   2.538   1.895  18.939 -0.3114 -0.0961 -0.1652
   69DPPC   C2B  826   2.482   1.898  18.531 -0.0991  0.3692 -0.0044
   69DPPC   C3B  827   2.354   2.202  18.162 -0.0504  0.0213 -0.1527
   69DPPC   C4B  828   2.149   2.405  17.839  0.1943 -0.1679 -0.1802
   70DPPC   NC3  829   4.327   2.722  19.392 -0.1956 -0.1532 -0.1483
   70DPPC   PO4  830   4.206   2.361  19.539 -0.2120  0.3233  0.2621
   70DPPC   GL1  831   4.572   2.099  19.602 -0.4628  0.0772  0.1124
   70DPPC   GL2  832   4.694   2.370  19.559  0.1111 -0.0424 -0.1271
   70DPPC   C1A  833   4.693   1.858  19.362  0.1109  0.1079 -0.3795
   70DPPC   C2A  834   5.117   1.734  19.174  0.3101 -0.1485 -0.1460
   70DPPC   C3A  835   5.368   1.763  18.777 -0.1234 -0.2272  0.1138
   70DPPC   C4A  836   5.643   1.796  18.388 -0.2050 -0.3336  0.1490
   70DPPC   C1B  837   4.874   2.310  19.231  0.1221 -0.0218  0.0159
   70DPPC   C2B  838   5.123   2.227  18.900  0.4298  0.0622  0.3888
   70DPPC   C3B  839   5.324   2.192  18.475  0.2214 -0.2041  0.0478
   70DPPC   C4B  840   5.634   2.284  18.103 -0.0050  0.3462 -0.0545
   71DPPC   NC3  841   6.456   2.719  22.543  0.2507 -0.0667 -0.1696
   71DPPC   PO4  842   6.227   3.062  22.636  0.2324 -0.1111 -0.0657
   71DPPC   GL1  843   6.343   3.258  22.331  0.0156  0.3687  0.1257
   71DPPC   GL2  844   6.346   3.047  22.188 -0.0161 -0.2341 -0.0873
   71DPPC   C1A  845   6.592   3.472  22.178  0.0477  0.1851  0.0643
   71DPPC   C2A  846   6.831   3.516  21.831  0.0680  0.1103  0.0771
   71DPPC   C3A  847   7.228   3.468  21.505  0.0276 -0.1833 -0.0305
   71DPPC   C4A  848   7.418   3.512  21.069  0.3722  0.1246 -0.0220
   71DPPC   C1B  849   6.437   3.058  21.821  0.0696  0.2995  0.4247
   71DPPC   C2B  850   6.694   3.150  21.516  0.2189 -0.0248 -0.0533
   71DPPC   C3B  851   6.999   3.130  21.204  0.1814  0.0796 -0.3179
   71DPPC   C4B  852   7.265   3.065  20.831 -0.0697 -0.1109  0.2037
   72DPPC   NC3  853   4.952   3.902  20.988  0.2214 -0.1806 -0.1751
   72DPPC   PO4  854   4.980   4.239  20.763  0.0067  0.0067  0.0577
   72DPPC   GL1  855   5.247   4.480  20.479 -0.1296 -0.1429 -0.1482
   72DPPC   GL2  856   5.015   4.525  20.338 -0.0157 -0.0771 -0.1837
   72DPPC   C1A  857   5.499   4.356  20.235  0.0895  0.1422 -0.5579
   72DPPC   C2A  858   5.737   4.278  19.882  0.2492 -0.1013 -0.1206
   72DPPC   C3A  859   6.027   4.215  19.439 -0.4856 -0.0413  0.0026
   72DPPC   C4A  860   6.319   4.239  19.039  0.2244 -0.3538 -0.1744
   72DPPC   C1B  861   5.152   4.547  19.983  0.0991  0.2352 -0.1186
   72DPPC   C2B  862   5.488   4.704  19.869 -0.0309  0.0985 -0.0658
   72DPPC   C3B  863   5.829   4.696  19.525  0.0924 -0.2109  0.1400
   72DPPC   C4B  864   6.159   4.713  19.177  0.0425 -0.1216  0.0247
   73DPPC   NC3  865   5.073   5.396  20.950  0.0129 -0.1022  0.0593
   73DPPC   PO4  866   5.165   5.455  21.321  0.0414  0.2629 -0.0223
   73DPPC   GL1  867   5.534   5.504  21.148 -0.2587  0.0849 -0.4021
   73DPPC   GL2  868   5.666   5.298  21.365  0.1048  0.1173 -0.0605
   73DPPC   C1A  869   5.708   5.509  20.886  0.1354 -0.3254 -0.0495
   73DPPC   C2A  870   5.888   5.478  20.483 -0.0478 -0.1207 -0.1061
   73DPPC   C3A  871   6.171   5.508  20.126 -0.4678 -0.3339 -0.1591
   73DPPC   C4A  872   6.357   5.519  19.667 -0.0790 -0.1671  0.0293
   73DPPC   C1B  873   5.970   5.361  21.183 -0.1061 -0.0191 -0.2171
   73DPPC   C2B  874   6.200   5.413  20.872  0.1535  0.0601 -0.1338
   73DPPC   C3B  875   6.510   5.486  20.528  0.1426 -0.1290  0.0329
   73DPPC   C4B  876   6.744   5.454  20.077 -0.0918  0.0517 -0.1155
   74DPPC   NC3  877   6.115   6.319  22.193  0.0356 -0.3219 -0.3996
   74DPPC   PO4  878   6.041   6.671  22.018 -0.1101  0.1710  0.2653
   74DPPC   GL1  879   6.359   6.953  21.834  0.0760  0.3802 -0.1975
   74DPPC   GL2  880   6.337   6.645  21.723 -0.0600 -0.0319 -0.0073
   74DPPC   C1A  881   6.638   7.030  21.667 -0.5733 -0.6532  0.1078
   74DPPC   C2A  882   6.876   7.085  21.296  0.2993 -0.0303  0.0236
   74DPPC   C3A  883   7.237   7.075  20.911 -0.0742 -0.0881 -0.0575
   74DPPC   C4A  884   7.467   7.213  20.475  0.0563  0.2254 -0.2129
   74DPPC   C1B  885   6.547   6.665  21.439 -0.3820 -0.2038 -0.2401
   74DPPC   C2B  886   6.707   6.672  21.081  0.1257  0.0007  0.1053
   74DPPC   C3B  887   7.008   6.659  20.776  0.1958  0.4013  0.1501
   74DPPC   C4B  888   7.230   6.663  20.327 -0.0197  0.1376  0.2624
   75DPPC   NC3  889   4.504   3.674  19.227  0.2433 -0.1468  0.0440
   75DPPC   PO4  890   4.415   3.920  19.484  0.0867 -0.2272  0.1468
   75DPPC   GL1  891   4.597   4.192  19.347  0.0660  0.1864  0.0755
   75DPPC   GL2  892   4.638   4.347  19.598 -0.2721  0.0284  0.1466
   75DPPC   C1A  893   4.775   4.116  19.003 -0.0054 -0.3207 -0.1887
   75DPPC   C2A  894   4.920   3.921  18.690 -0.1328 -0.2405  0.0791
   75DPPC   C3A  895   5.213   3.927  18.327 -0.0607  0.3360  0.1049
   75DPPC   C4A  896   5.444   3.977  17.841  0.0600 -0.0295  0.0155
   75DPPC   C1B  897   4.907   4.482  19.423  0.0886 -0.0969  0.0374
   75DPPC   C2B  898   5.148   4.331  19.059 -0.1422  0.2473 -0.1440
   75DPPC   C3B  899   5.395   4.314  18.660 -0.0688 -0.1911 -0.2210
   75DPPC   C4B  900   5.590   4.413  18.195  0.2274 -0.3968 -0.3510
   76DPPC   NC3  901   5.414   0.625  21.769 -0.1054 -0.4218  0.2374
   76DPPC   PO4  902   5.629   0.922  21.966  0.0466  0.0199  0.0753
   76DPPC   GL1  903   5.899   0.848  21.722 -0.2489 -0.0125 -0.0619
   76DPPC   GL2  904   5.810   0.742  21.486  0.1269  0.0277 -0.1313
   76DPPC   C1A  905   6.221   1.103  21.648  0.2906 -0.0954 -0.1996
   76DPPC   C2A  906   6.465   1.281  21.388 -0.0929  0.0217 -0.3009
   76DPPC   C3A  907   6.712   1.381  20.969 -0.0761 -0.2085  0.1858
   76DPPC   C4A  908   7.008   1.339  20.583 -0.2086 -0.1377 -0.2124
   76DPPC   C1B  909   6.071   0.787  21.237  0.1296  0.1671 -0.0768
   76DPPC   C2B  910   6.328   0.937  20.900 -0.1888  0.2379  0.0124
   76DPPC   C3B  911   6.669   0.981  20.547  0.0859 -0.1477  0.1111
   76DPPC   C4B  912   6.965   1.042  20.204 -0.2279 -0.0862 -0.0807
   77DPPC   NC3  913   3.543   5.359  20.221 -0.1043 -0.1239 -0.0699
   77DPPC   PO4  914   3.571   5.275  19.859  0.0766  0.0682  0.1028
   77DPPC   GL1  915   3.255   5.436  19.550 -0.0213 -0.3213 -0.4278
   77DPPC   GL2  916   3.439   5.479  19.384 -0.5305  0.3913 -0.2822
   77DPPC   C1A  917   2.953   5.326  19.387 -0.1952  0.0218 -0.2100
   77DPPC   C2A  918   2.730   5.320  19.058  0.0931  0.2179  0.1524
   77DPPC   C3A  919   2.435   5.225  18.632 -0.2440  0.0386 -0.1392
   77DPPC   C4A  920   2.207   5.206  18.221 -0.0331  0.1679 -0.2251
   77DPPC   C1B  921   3.246   5.359  19.109 -0.2582  0.1361  0.0848
   77DPPC   C2B  922   3.185   5.191  18.724  0.1615  0.1613 -0.3114
   77DPPC   C3B  923   2.909   5.236  18.330 -0.2752 -0.0751 -0.0838
   77DPPC   C4B  924   2.628   5.195  17.907  0.2947  0.2696 -0.0755
   78DPPC   NC3  925   6.044   1.883  22.946  0.0323  0.1563 -0.0016
   78DPPC   PO4  926   5.950   1.601  22.688  0.3119 -0.0365 -0.1475
   78DPPC   GL1  927   6.127   1.513  22.325 -0.0055  0.0291 -0.1597
   78DPPC   GL2  928   6.282   1.285  22.481 -0.4242 -0.4213  0.1278
   78DPPC   C1A  929   6.365   1.623  22.021  0.0321  0.3954  0.2365
   78DPPC   C2A  930   6.579   1.766  21.665  0.2122 -0.2460 -0.0176
   78DPPC   C3A  931   6.866   1.779  21.287  0.2970 -0.2461  0.2260
   78DPPC   C4A  932   7.204   1.804  20.915 -0.0666  0.2906 -0.3644
   78DPPC   C1B  933   6.512   1.263  22.209 -0.1790  0.4667 -0.3664
   78DPPC   C2B  934   6.684   1.291  21.838  0.1565  0.1397 -0.1608
   78DPPC   C3B  935   6.955   1.331  21.390 -0.0432  0.2620  0.0733
   78DPPC   C4B  936   7.257   1.286  21.018  0.0518  0.0834 -0.3754
   79DPPC   NC3  937   4.313   0.502  19.587  0.2547  0.4732 -0.1817
   79DPPC   PO4  938   4.080   0.518  19.246  0.0235 -0.1047  0.1940
   79DPPC   GL1  939   4.289   0.613  18.840  0.0923  0.1411 -0.2521
   79DPPC   GL2  940   4.184   0.403  18.647 -0.1892  0.0800  0.1074
   79DPPC   C1A  941   4.350   0.793  18.548 -0.3892  0.2893  0.0513
   79DPPC   C2A  942   4.457   0.712  18.184 -0.0071 -0.0457  0.1659
   79DPPC   C3A  943   4.764   0.584  17.831 -0.0199  0.2633  0.1531
   79DPPC   C4A  944   5.083   0.566  17.434 -0.1397  0.0131  0.0451
   79DPPC   C1B  945   4.328   0.130  18.428 -0.0529  0.0226 -0.3823
   79DPPC   C2B  946   4.675   0.133  18.151  0.1423  0.0350  0.2067
   79DPPC   C3B  947   4.975   0.118  17.785  0.2806 -0.0318 -0.2307
   79DPPC   C4B  948   5.316   0.104  17.413  0.0596 -0.2318  0.1062
   80DPPC   NC3  949   2.936   4.652  19.935  0.2876 -0.0228  0.1072
   80DPPC   PO4  950   3.247   4.557  19.696 -0.0942 -0.0083 -0.2122
   80DPPC   GL1  951   3.024   4.682  19.445 -0.0681 -0.1486  0.2743
   80DPPC   GL2  952   2.791   4.559  19.412  0.3945  0.0522 -0.0457
   80DPPC   C1A  953   3.023   4.914  19.139  0.4837 -0.1905  0.1194
   80DPPC   C2A  954   2.787   4.926  18.793  0.0859  0.0638  0.1829
   80DPPC   C3A  955   2.460   4.800  18.373  0.0605  0.1863 -0.1427
   80DPPC   C4A  956   2.284   4.808  17.890 -0.0892 -0.1871 -0.0945
   80DPPC   C1B  957   2.673   4.514  19.075  0.3265 -0.1954  0.0068
   80DPPC   C2B  958   2.405   4.497  18.799  0.0817  0.0738 -0.0495
   80DPPC   C3B  959   2.134   4.455  18.369 -0.1606 -0.2653 -0.0593
   80DPPC   C4B  960   1.958   4.516  17.992  0.2799  0.1616 -0.0742
   81DPPC   NC3  961   5.960   0.549  22.056  0.0966  0.0201 -0.1773
   81DPPC   PO4  962   5.789   0.393  21.736 -0.0575  0.3922  0.0866
   81DPPC   GL1  963   6.090   0.357  21.471 -0.3812  0.3955  0.2953
   81DPPC   GL2  964   5.953   0.055  21.508 -0.1691 -0.2539 -0.0990
   81DPPC   C1A  965   6.359   0.443  21.217 -0.1238  0.1403  0.3223
   81DPPC   C2A  966   6.664   0.518  20.874  0.0505  0.2262 -0.2602
   81DPPC   C3A  967   6.905   0.513  20.472 -0.1018 -0.0088  0.0220
   81DPPC   C4A  968   7.192   0.514  20.055 -0.1257  0.1822 -0.0080
   81DPPC   C1B  969   6.158  -0.217  21.391 -0.0919 -0.3216 -0.1573
   81DPPC   C2B  970   6.356  -0.303  21.084  0.0967  0.2640 -0.2167
   81DPPC   C3B  971   6.628  -0.345  20.667  0.0169  0.0186  0.1871
   81DPPC   C4B  972   6.888  -0.400  20.235  0.0119 -0.0617 -0.0333
   82DPPC   NC3  973   4.979   3.507  21.885 -0.0081 -0.0260  0.3227
   82DPPC   PO4  974   5.389   3.417  21.799  0.1737 -0.0323 -0.0779
   82DPPC   GL1  975   5.677   3.412  21.489  0.1836  0.4318 -0.2400
   82DPPC   GL2  976   5.901   3.574  21.619 -0.2522 -0.1322  0.1089
   82DPPC   C1A  977   5.807   3.347  21.187  0.0166  0.0506 -0.0564
   82DPPC   C2A  978   5.948   3.272  20.825 -0.0755 -0.2260 -0.0155
   82DPPC   C3A  979   6.209   3.266  20.447 -0.0488 -0.2311 -0.3669
   82DPPC   C4A  980   6.514   3.266  20.134 -0.0019  0.2614  0.1298
   82DPPC   C1B  981   6.268   3.553  21.508  0.1005 -0.4062  0.0648
   82DPPC   C2B  982   6.620   3.608  21.353 -0.2810 -0.1425  0.1692
   82DPPC   C3B  983   6.941   3.579  21.017 -0.2143  0.2428 -0.0408
   82DPPC   C4B  984   7.206   3.520  20.578 -0.5057 -0.0493 -0.2060
   83DPPC   NC3  985   5.032   2.508  20.829 -0.0315  0.3778  0.2655
   83DPPC   PO4  986   5.260   2.712  21.120  0.2745  0.4661  0.1151
   83DPPC   GL1  987   5.574   2.747  20.796 -0.0681 -0.0127 -0.0921
   83DPPC   GL2  988   5.748   2.552  21.029  0.0414 -0.0996  0.2615
   83DPPC   C1A  989   5.798   2.849  20.532 -0.0357  0.0714 -0.2824
   83DPPC   C2A  990   5.997   2.914  20.161 -0.0244  0.1429  0.1518
   83DPPC   C3A  991   6.400   2.900  19.811  0.0024 -0.2314  0.1836
   83DPPC   C4A  992   6.641   2.909  19.391 -0.0726  0.1778  0.0581
   83DPPC   C1B  993   5.919   2.356  20.740 -0.1021  0.0918  0.0151
   83DPPC   C2B  994   6.165   2.375  20.387  0.2192 -0.0872  0.1225
   83DPPC   C3B  995   6.449   2.371  19.970  0.1838  0.5468  0.0028
   83DPPC   C4B  996   6.798   2.392  19.623 -0.0465 -0.0232  0.1745
   84DPPC   NC3  997   3.741   6.022  19.371 -0.0590 -0.0426  0.2476
   84DPPC   PO4  998   3.531   6.351  19.224 -0.1717  0.2816 -0.0189
   84DPPC   GL1  999   3.303   6.468  19.064 -0.2124 -0.0814 -0.0984
   84DPPC   GL2 1000   3.039   6.339  19.149 -0.3195 -0.1980 -0.1518
   84DPPC   C1A 1001   3.202   6.377  18.719  0.1259  0.0223 -0.3180
   84DPPC   C2A 1002   3.052   6.528  18.385  0.3205 -0.0579 -0.0995
   84DPPC   C3A 1003   2.769   6.522  18.024 -0.0441 -0.2122 -0.1141
   84DPPC   C4A 1004   2.431   6.483  17.641  0.2709 -0.2390 -0.3097
   84DPPC   C1B 1005   2.864   6.173  18.931  0.2845 -0.0237  0.2319
   84DPPC   C2B 1006   2.702   6.082  18.577  0.1746 -0.3341  0.2054
   84DPPC   C3B 1007   2.446   6.057  18.165 -0.0056 -0.2744 -0.0073
   84DPPC   C4B 1008   2.202   5.986  17.769  0.1792 -0.2740 -0.2001
   85DPPC   NC3 1009   6.243   3.911  22.260  0.0199 -0.2103  0.1642
   85DPPC   PO4 1010   6.046   3.929  21.959 -0.3412 -0.2002  0.3221
   85DPPC   GL1 1011   6.226   4.174  21.725 -0.0402 -0.0121  0.0072
   85DPPC   GL2 1012   6.283   4.449  21.879 -0.0067  0.0357  0.1409
   85DPPC   C1A 1013   6.409   4.040  21.382  0.0559 -0.4907 -0.1739
   85DPPC   C2A 1014   6.696   3.998  21.076  0.4994 -0.1275 -0.2824
   85DPPC   C3A 1015   6.915   4.018  20.663 -0.2448  0.0247 -0.0125
   85DPPC   C4A 1016   7.267   3.946  20.313 -0.2288  0.0920 -0.1773
   85DPPC   C1B 1017   6.585   4.543  21.726  0.1756  0.1149 -0.0218
   85DPPC   C2B 1018   6.868   4.392  21.387  0.0642 -0.2969  0.2117
   85DPPC   C3B 1019   7.141   4.442  20.990 -0.0270  0.3378 -0.0084
   85DPPC   C4B 1020   7.437   4.416  20.576  0.0695 -0.0726  0.2146
   86DPPC   NC3 1021   3.745   4.067  19.253  0.1085 -0.0698  0.1150
   86DPPC   PO4 1022   4.058   3.868  19.098  0.1612  0.0396  0.0241
   86DPPC   GL1 1023   4.363   4.173  18.936 -0.2725 -0.2067 -0.0921
   86DPPC   GL2 1024   4.435   3.890  18.814 -0.2673 -0.1946 -0.1398
   86DPPC   C1A 1025   4.373   4.377  18.633  0.1973  0.2197  0.1231
   86DPPC   C2A 1026   4.431   4.584  18.301 -0.0365 -0.0841 -0.0839
   86DPPC   C3A 1027   4.683   4.583  17.887  0.1532 -0.2649  0.4651
   86DPPC   C4A 1028   4.946   4.683  17.469  0.3089 -0.0690 -0.0433
   86DPPC   C1B 1029   4.394   3.856  18.476 -0.0628  0.1796 -0.1723
   86DPPC   C2B 1030   4.496   3.746  18.138 -0.4271  0.1717  0.4941
   86DPPC   C3B 1031   4.653   3.701  17.644 -0.0588  0.1114  0.4777
   86DPPC   C4B 1032   4.883   3.751  17.220  0.2397  0.0931  0.0322
   87DPPC   NC3 1033   2.066   0.724  21.378  0.0085  0.1383 -0.3693
   87DPPC   PO4 1034   2.199   0.379  21.202  0.1137 -0.0348 -0.1986
   87DPPC   GL1 1035   2.321   0.432  20.739  0.1275 -0.0625  0.0230
   87DPPC   GL2 1036   2.110   0.222  20.678 -0.3871 -0.0552 -0.3728
   87DPPC   C1A 1037   2.099   0.652  20.542 -0.0234  0.3024  0.0398
   87DPPC   C2A 1038   1.825   0.705  20.271  0.0005  0.0389  0.0930
   87DPPC   C3A 1039   1.420   0.721  19.956 -0.3557 -0.0214  0.0799
   87DPPC   C4A 1040   1.279   0.731  19.467 -0.1343 -0.1495 -0.0007
   87DPPC   C1B 1041   2.222  -0.042  20.386  0.2067 -0.3042 -0.0305
   87DPPC   C2B 1042   2.057  -0.194  20.017 -0.2314  0.0178 -0.1507
   87DPPC   C3B 1043   1.738  -0.154  19.610  0.5040 -0.1540 -0.3898
   87DPPC   C4B 1044   1.452  -0.170  19.249 -0.1323  0.0438 -0.0910
   88DPPC   NC3 1045   4.327   1.653  20.444  0.0821  0.1219  0.3435
   88DPPC   PO4 1046   4.664   1.526  20.484 -0.2913  0.1145 -0.0891
   88DPPC   GL1 1047   4.997   1.426  20.391 -0.1392 -0.0358 -0.1037
   88DPPC   GL2 1048   4.928   1.344  20.086  0.0494 -0.1890 -0.1062
   88DPPC   C1A 1049   5.358   1.570  20.350  0.2635 -0.3684  0.2667
   88DPPC   C2A 1050   5.610   1.530  19.971 -0.0134  0.1481 -0.0880
   88DPPC   C3A 1051   5.935   1.562  19.665  0.0904  0.1140 -0.2896
   88DPPC   C4A 1052   6.168   1.572  19.244 -0.0675  0.0985  0.2378
   88DPPC   C1B 1053   5.130   1.609  19.919 -0.3240 -0.0337  0.3359
   88DPPC   C2B 1054   5.331   1.663  19.576 -0.0841 -0.5337 -0.2862
   88DPPC   C3B 1055   5.667   1.677  19.210 -0.0424  0.2378 -0.1703
   88DPPC   C4B 1056   5.859   1.700  18.774  0.0082 -0.1822 -0.0068
   89DPPC   NC3 1057   3.253   6.080  19.814 -0.0145  0.0721  0.1522
   89DPPC   PO4 1058   3.299   5.880  19.453 -0.3267  0.0067 -0.2647
   89DPPC   GL1 1059   3.239   5.946  19.135  0.0089 -0.3765 -0.1781
   89DPPC   GL2 1060   3.351   5.995  18.912  0.0394  0.1569  0.4733
   89DPPC   C1A 1061   2.981   5.675  18.952  0.1287 -0.0844  0.1864
   89DPPC   C2A 1062   2.826   5.618  18.556  0.1814 -0.1008  0.0795
   89DPPC   C3A 1063   2.570   5.584  18.169 -0.3957 -0.0577  0.0863
   89DPPC   C4A 1064   2.206   5.469  17.827 -0.0586  0.1975 -0.1095
   89DPPC   C1B 1065   3.212   5.994  18.550 -0.0908  0.1656 -0.4119
   89DPPC   C2B 1066   2.992   5.995  18.218  0.1118 -0.0583  0.0598
   89DPPC   C3B 1067   2.759   5.945  17.792  0.2537 -0.1756 -0.1229
   89DPPC   C4B 1068   2.511   5.960  17.392  0.1353  0.0911  0.2582
   90DPPC   NC3 1069   6.269   5.948  23.358 -0.0860  0.2343 -0.0191
   90DPPC   PO4 1070   6.275   5.910  22.952 -0.1182  0.1015  0.1260
   90DPPC   GL1 1071   6.417   5.984  22.502  0.2053  0.0519 -0.0550
   90DPPC   GL2 1072   6.646   5.746  22.574 -0.3836 -0.1932  0.1462
   90DPPC   C1A 1073   6.585   6.034  22.192 -0.5094  0.1213 -0.1813
   90DPPC   C2A 1074   6.880   6.133  21.890 -0.1476 -0.3432 -0.1171
   90DPPC   C3A 1075   7.228   6.152  21.456 -0.0083  0.2768  0.0676
   90DPPC   C4A 1076   7.478   6.138  21.073  0.1352 -0.0908  0.0817
   90DPPC   C1B 1077   6.897   5.710  22.260  0.3350  0.2364  0.1372
   90DPPC   C2B 1078   7.070   5.663  21.911 -0.0197  0.1464  0.0940
   90DPPC   C3B 1079   7.402   5.662  21.544  0.3266 -0.2844 -0.1040
   90DPPC   C4B 1080   7.706   5.727  21.206  0.1251  0.2531  0.0976
   91DPPC   NC3 1081   4.485   6.082  19.666 -0.0826 -0.0373 -0.1633
   91DPPC   PO4 1082   4.255   5.958  19.346  0.2786  0.0036 -0.1328
   91DPPC   GL1 1083   4.443   5.955  19.011 -0.1705  0.2970 -0.4075
   91DPPC   GL2 1084   4.442   6.268  18.957 -0.1024 -0.2522  0.2890
   91DPPC   C1A 1085   4.644   5.748  18.767 -0.5949 -0.1150 -0.0580
   91DPPC   C2A 1086   4.849   5.796  18.431 -0.1718 -0.2486  0.0097
   91DPPC   C3A 1087   5.080   5.804  18.014 -0.1182 -0.0643  0.1443
   91DPPC   C4A 1088   5.361   5.791  17.627 -0.3816 -0.1592  0.1108
   91DPPC   C1B 1089   4.694   6.534  18.834  0.0412  0.2374  0.2493
   91DPPC   C2B 1090   4.963   6.606  18.548 -0.1770 -0.3725  0.2348
   91DPPC   C3B 1091   5.312   6.646  18.198 -0.0290 -0.1754 -0.2669
   91DPPC   C4B 1092   5.746   6.977  18.059  0.3115  0.0986  0.0453
   92DPPC   NC3 1093   5.415   5.289  21.813  0.1976  0.1720  0.3388
   92DPPC   PO4 1094   5.664   4.984  21.677  0.2057  0.2605 -0.2262
   92DPPC   GL1 1095   6.047   4.855  21.687  0.3176  0.1332  0.2092
   92DPPC   GL2 1096   6.098   5.214  21.629  0.0616 -0.1095 -0.0306
   92DPPC   C1A 1097   6.303   4.674  21.467 -0.4393  0.1413  0.2626
   92DPPC   C2A 1098   6.443   4.471  21.102  0.0263  0.1508 -0.4208
   92DPPC   C3A 1099   6.710   4.451  20.773  0.1119  0.2652 -0.2440
   92DPPC   C4A 1100   7.021   4.433  20.311 -0.0728 -0.0155  0.1558
   92DPPC   C1B 1101   6.398   5.347  21.523 -0.0875 -0.1408  0.0766
   92DPPC   C2B 1102   6.598   5.427  21.177  0.1464  0.0874  0.1582
   92DPPC   C3B 1103   6.905   5.344  20.826  0.2299 -0.1450 -0.1774
   92DPPC   C4B 1104   7.166   5.380  20.460 -0.0624 -0.1484  0.2467
   93DPPC   NC3 1105   3.726   1.613  19.504 -0.0439 -0.0771  0.0241
   93DPPC   PO4 1106   4.041   1.431  19.325  0.2152 -0.1165 -0.1378
   93DPPC   GL1 1107   4.374   1.373  18.989 -0.1510  0.2931  0.2856
   93DPPC   GL2 1108   4.364   1.731  19.052 -0.4234  0.2658 -0.1395
   93DPPC   C1A 1109   4.478   1.155  18.700 -0.1427 -0.0962 -0.0041
   93DPPC   C2A 1110   4.754   1.065  18.378 -0.0075 -0.0020 -0.0414
   93DPPC   C3A 1111   5.011   0.981  17.994 -0.2211 -0.1688 -0.2089
   93DPPC   C4A 1112   5.341   0.973  17.679  0.0317 -0.0042  0.1470
   93DPPC   C1B 1113   4.635   1.802  18.783 -0.1403  0.2870 -0.0629
   93DPPC   C2B 1114   4.887   1.903  18.529  0.2619  0.1919 -0.0775
   93DPPC   C3B 1115   5.127   1.863  18.109  0.4548  0.2166 -0.0122
   93DPPC   C4B 1116   5.443   1.939  17.796  0.0788 -0.0560 -0.1047
   94DPPC   NC3 1117   3.509   0.852  18.779 -0.1367 -0.0858  0.0005
   94DPPC   PO4 1118   3.787   0.585  18.791 -0.0622 -0.0891  0.4073
   94DPPC   GL1 1119   3.822   0.433  18.358  0.1627  0.1908  0.1400
   94DPPC   GL2 1120   3.515   0.570  18.404 -0.0746 -0.1535 -0.0881
   94DPPC   C1A 1121   4.152   0.423  18.198 -0.0035 -0.0494 -0.4106
   94DPPC   C2A 1122   4.330   0.333  17.860  0.0561 -0.1681 -0.2234
   94DPPC   C3A 1123   4.591   0.298  17.408 -0.1839 -0.0655  0.1752
   94DPPC   C4A 1124   4.980   0.224  17.089  0.1190  0.0210 -0.1591
   94DPPC   C1B 1125   3.353   0.537  18.061 -0.1161  0.2678 -0.0453
   94DPPC   C2B 1126   3.334   0.547  17.607 -0.1110  0.1125 -0.1617
   94DPPC   C3B 1127   3.061   0.488  17.253 -0.0342  0.2843 -0.0261
   94DPPC   C4B 1128   3.165   0.528  16.740  0.0072 -0.0003 -0.0729
   95DPPC   NC3 1129   3.465   4.294  20.072  0.3610  0.1421  0.1519
   95DPPC   PO4 1130   3.069   4.198  20.175 -0.4059  0.1701 -0.1278
   95DPPC   GL1 1131   2.800   4.185  19.791 -0.3143 -0.1707 -0.2959
   95DPPC   GL2 1132   2.988   4.107  19.604 -0.2941 -0.2271 -0.0708
   95DPPC   C1A 1133   2.454   4.134  19.610  0.2142 -0.1276  0.0159
   95DPPC   C2A 1134   2.358   4.123  19.188 -0.1788 -0.3457  0.1177
   95DPPC   C3A 1135   2.030   4.133  18.794  0.2024  0.1691 -0.0723
   95DPPC   C4A 1136   1.749   4.072  18.443 -0.0648 -0.0517 -0.1724
   95DPPC   C1B 1137   2.866   4.061  19.256 -0.2175  0.0781 -0.2480
   95DPPC   C2B 1138   2.694   3.996  18.863 -0.0152 -0.0250 -0.1607
   95DPPC   C3B 1139   2.420   4.046  18.486  0.0554  0.1781  0.0057
   95DPPC   C4B 1140   2.157   3.986  18.085  0.0588  0.1485  0.0313
   96DPPC   NC3 1141   2.975   0.738  19.612  0.1153 -0.0939 -0.0005
   96DPPC   PO4 1142   3.182   0.972  19.405 -0.2509  0.1213  0.0382
   96DPPC   GL1 1143   2.960   1.054  19.215  0.2343 -0.2906 -0.1906
   96DPPC   GL2 1144   3.052   1.089  18.911 -0.1805 -0.0095 -0.0555
   96DPPC   C1A 1145   2.679   0.930  19.085 -0.0428 -0.1306 -0.0078
   96DPPC   C2A 1146   2.352   0.976  18.780 -0.0378 -0.0006  0.0596
   96DPPC   C3A 1147   2.113   0.942  18.460 -0.0323  0.3504  0.2322
   96DPPC   C4A 1148   1.805   0.945  18.074 -0.0373  0.2038 -0.1557
   96DPPC   C1B 1149   2.833   1.059  18.625 -0.3760  0.0573 -0.0380
   96DPPC   C2B 1150   2.611   0.932  18.292 -0.0568 -0.0725  0.0361
   96DPPC   C3B 1151   2.323   0.897  17.934 -0.1105 -0.1525  0.0772
   96DPPC   C4B 1152   2.024   0.773  17.613  0.0765  0.0665 -0.1275
   97DPPC   NC3 1153   4.281   2.339  20.695  0.2207  0.3217 -0.2080
   97DPPC   PO4 1154   4.548   2.556  20.584 -0.2261 -0.0143  0.2089
   97DPPC   GL1 1155   4.965   2.484  20.359 -0.3087  0.0159 -0.2287
   97DPPC   GL2 1156   4.758   2.511  20.151 -0.1283  0.1037 -0.1360
   97DPPC   C1A 1157   5.199   2.783  20.313 -0.0563 -0.1286 -0.0080
   97DPPC   C2A 1158   5.483   2.834  20.056  0.1338 -0.2921 -0.0531
   97DPPC   C3A 1159   5.800   2.914  19.679  0.1620 -0.4341  0.0172
   97DPPC   C4A 1160   6.106   2.948  19.355 -0.1175 -0.0005  0.0165
   97DPPC   C1B 1161   4.880   2.198  19.978 -0.0794  0.0809  0.1675
   97DPPC   C2B 1162   5.113   2.137  19.653  0.1702 -0.0634 -0.1523
   97DPPC   C3B 1163   5.401   2.156  19.286 -0.3379 -0.3531 -0.0747
   97DPPC   C4B 1164   5.678   2.141  18.901 -0.0649 -0.3618  0.0112
   98DPPC   NC3 1165   5.479   2.889  21.503 -0.0922  0.0477  0.1655
   98DPPC   PO4 1166   5.575   2.510  21.475 -0.0422  0.1411  0.0829
   98DPPC   GL1 1167   5.967   2.345  21.521  0.0522  0.1089  0.0489
   98DPPC   GL2 1168   6.087   2.471  21.760  0.1443 -0.0226 -0.3900
   98DPPC   C1A 1169   6.203   2.360  21.295 -0.3757  0.1278  0.1771
   98DPPC   C2A 1170   6.406   2.323  20.923  0.0742 -0.5028 -0.0702
   98DPPC   C3A 1171   6.654   2.368  20.544 -0.0538 -0.0083  0.0133
   98DPPC   C4A 1172   6.939   2.346  20.183  0.1290  0.1182  0.0216
   98DPPC   C1B 1173   6.362   2.618  21.578  0.1495 -0.1072  0.0743
   98DPPC   C2B 1174   6.619   2.721  21.229  0.1786  0.0101 -0.1655
   98DPPC   C3B 1175   6.901   2.745  20.837  0.0696 -0.1633  0.1812
   98DPPC   C4B 1176   7.098   2.872  20.407 -0.1417  0.1926 -0.2795
   99DPPC   NC3 1177   3.179   1.662  18.353 -0.0576 -0.0726  0.0343
   99DPPC   PO4 1178   3.512   1.848  18.373 -0.0142 -0.0408 -0.0342
   99DPPC   GL1 1179   3.755   1.507  18.445  0.1591  0.1536 -0.0596
   99DPPC   GL2 1180   3.925   1.661  18.248 -0.0594 -0.5018 -0.1835
   99DPPC   C1A 1181   3.554   1.295  18.349 -0.1809  0.1643 -0.2814
   99DPPC   C2A 1182   3.212   1.133  18.333 -0.0480  0.1009  0.1838
   99DPPC   C3A 1183   3.047   0.878  17.912 -0.1416 -0.0546 -0.1294
   99DPPC   C4A 1184   2.748   0.645  17.584  0.1256 -0.0321 -0.1054
   99DPPC   C1B 1185   3.766   1.683  17.908  0.2939  0.0193 -0.1283
   99DPPC   C2B 1186   3.984   1.721  17.520  0.3339 -0.1096 -0.0247
   99DPPC   C3B 1187   4.293   1.653  17.122  0.0001 -0.1570 -0.1321
   99DPPC   C4B 1188   4.412   1.623  16.670  0.1014 -0.0112  0.0113
  100DPPC   NC3 1189   4.575   6.002  20.631 -0.2994 -0.0722  0.1390
  100DPPC   PO4 1190   4.746   6.385  20.498 -0.1694 -0.2462  0.1650
  100DPPC   GL1 1191   5.016   6.456  20.118 -0.0678 -0.3059  0.3080
  100DPPC   GL2 1192   4.819   6.292  20.019 -0.1550  0.2058 -0.0146
  100DPPC   C1A 1193   5.272   6.520  19.912  0.4658  0.0914  0.1655
  100DPPC   C2A 1194   5.478   6.582  19.577 -0.1756  0.0301  0.0545
  100DPPC   C3A 1195   5.739   6.549  19.174 -0.1813  0.1370 -0.0451
  100DPPC   C4A 1196   6.085   6.461  18.838  0.2663 -0.2867  0.0540
  100DPPC   C1B 1197   4.950   6.167  19.683 -0.2658 -0.2154  0.1686
  100DPPC   C2B 1198   5.242   6.090  19.349  0.1011  0.0207  0.3688
  100DPPC   C3B 1199   5.422   6.099  18.893  0.0550 -0.1901  0.0165
  100DPPC   C4B 1200   5.816   6.052  18.537 -0.0884  0.0692  0.0011
  101DPPC   NC3 1201   8.187   0.924  17.923  0.1238  0.0617  0.1199
  101DPPC   PO4 1202   8.239   1.353  18.015 -0.1944 -0.1753 -0.0647
  101DPPC   GL1 1203   7.995   1.589  18.245 -0.1132 -0.2031  0.0295
  101DPPC   GL2 1204   7.792   1.657  17.905  0.2160 -0.0382 -0.1813
  101DPPC   C1A 1205   7.764   1.584  18.557 -0.2897  0.2120 -0.0837
  101DPPC   C2A 1206   7.644   1.556  18.915 -0.1110 -0.2428  0.0549
  101DPPC   C3A 1207   7.310   1.541  19.327  0.1261 -0.1963  0.0626
  101DPPC   C4A 1208   6.990   1.490  19.719  0.2733 -0.2489 -0.2311
  101DPPC   C1B 1209   7.543   1.602  18.164  0.0416 -0.0806 -0.2996
  101DPPC   C2B 1210   7.317   1.562  18.527 -0.0290 -0.1549  0.1783
  101DPPC   C3B 1211   7.071   1.614  18.861  0.0535 -0.0552  0.0718
  101DPPC   C4B 1212   6.766   1.557  19.265 -0.2287 -0.0488  0.1103
  102DPPC   NC3 1213   3.174   2.438  15.423 -0.2639  0.0708 -0.2360
  102DPPC   PO4 1214   3.025   2.064  15.534 -0.0877  0.0348 -0.1915
  102DPPC   GL1 1215   3.041   2.079  15.921 -0.0015  0.0889  0.0194
  102DPPC   GL2 1216   2.870   1.837  15.979  0.4772 -0.1025  0.0263
  102DPPC   C1A 1217   2.871   2.275  16.169  0.0811  0.1792  0.0510
  102DPPC   C2A 1218   2.625   2.402  16.440 -0.2504 -0.0240  0.1567
  102DPPC   C3A 1219   2.448   2.445  16.881  0.1860  0.2348  0.1104
  102DPPC   C4A 1220   2.357   2.382  17.338 -0.1327  0.0450 -0.3109
  102DPPC   C1B 1221   2.622   1.929  16.244  0.3069  0.1029 -0.2197
  102DPPC   C2B 1222   2.676   1.882  16.692  0.1230  0.0413  0.3085
  102DPPC   C3B 1223   2.566   1.990  17.122  0.1110  0.0849  0.4446
  102DPPC   C4B 1224   2.529   2.106  17.695  0.1545 -0.0118 -0.0626
  103DPPC   NC3 1225   2.086   3.221  15.140  0.0969 -0.1407  0.1385
  103DPPC   PO4 1226   2.152   3.289  15.509 -0.3311 -0.0100  0.3087
  103DPPC   GL1 1227   2.210   3.150  15.822  0.0427  0.3316 -0.3557
  103DPPC   GL2 1228   2.482   3.251  15.955  0.4069 -0.7440  0.0013
  103DPPC   C1A 1229   2.084   2.857  16.016  0.1585 -0.0530 -0.0114
  103DPPC   C2A 1230   1.940   2.593  16.254 -0.2554  0.0230 -0.2485
  103DPPC   C3A 1231   1.805   2.164  16.324 -0.2930  0.1222  0.0176
  103DPPC   C4A 1232   1.874   1.818  16.649  0.3315  0.0135  0.3267
  103DPPC   C1B 1233   2.535   3.232  16.307  0.0740  0.0740  0.3035
  103DPPC   C2B 1234   2.483   3.582  16.525  0.0776 -0.2196  0.0199
  103DPPC   C3B 1235   1.996   3.712  16.629  0.2526  0.3705  0.1788
  103DPPC   C4B 1236   1.794   4.153  16.775  0.0723 -0.4209 -0.0762
  104DPPC   NC3 1237   5.638   5.168  16.355 -0.0837  0.0775 -0.1826
  104DPPC   PO4 1238   5.618   5.379  16.669  0.1448  0.2671  0.0650
  104DPPC   GL1 1239   5.430   5.305  17.041 -0.2681 -0.2281 -0.1179
  104DPPC   GL2 1240   5.633   5.394  17.243 -0.0881  0.1113  0.3233
  104DPPC   C1A 1241   5.177   5.412  17.294  0.0807 -0.1938  0.0334
  104DPPC   C2A 1242   4.899   5.430  17.646 -0.0922 -0.3073  0.0664
  104DPPC   C3A 1243   4.728   5.438  18.090  0.2122  0.1741  0.1946
  104DPPC   C4A 1244   4.608   5.383  18.561  0.1611  0.3187  0.1287
  104DPPC   C1B 1245   5.584   5.326  17.619  0.1261 -0.3558 -0.0906
  104DPPC   C2B 1246   5.386   5.276  17.984 -0.2640 -0.0314 -0.1829
  104DPPC   C3B 1247   5.149   5.315  18.420  0.0649 -0.1010 -0.0586
  104DPPC   C4B 1248   4.970   5.257  18.825 -0.0810 -0.1347 -0.0158
  105DPPC   NC3 1249   0.520   0.397  16.757 -0.0972 -0.1092  0.0218
  105DPPC   PO4 1250   0.203   0.293  16.892 -0.1782  0.2147  0.1682
  105DPPC   GL1 1251   0.219   0.356  17.341 -0.4893  0.1127 -0.0649
  105DPPC   GL2 1252  -0.066   0.512  17.266  0.1879 -0.1979  0.0909
  105DPPC   C1A 1253   0.426   0.245  17.583  0.1030 -0.0108  0.0725
  105DPPC   C2A 1254   0.743   0.258  17.733  0.1369 -0.1379 -0.0580
  105DPPC   C3A 1255   1.008   0.328  18.045  0.0940 -0.1877  0.0722
  105DPPC   C4A 1256   1.269   0.334  18.424 -0.3345  0.2130 -0.1317
  105DPPC   C1B 1257  -0.019   0.766  17.506  0.0509  0.3625 -0.1824
  105DPPC   C2B 1258   0.336   0.764  17.689 -0.1497  0.2900 -0.3023
  105DPPC   C3B 1259   0.653   0.710  17.994 -0.1504  0.0786  0.0875
  105DPPC   C4B 1260   0.932   0.690  18.424  0.0744 -0.3958 -0.3864
  106DPPC   NC3 1261  20.415   1.580  17.853 -0.0979  0.0852 -0.1823
  106DPPC   PO4 1262  20.468   1.668  17.455  0.1020 -0.0054 -0.0405
  106DPPC   GL1 1263  20.883   1.646  17.505  0.5162 -0.2494 -0.0787
  106DPPC   GL2 1264  20.872   1.593  17.854  0.1230 -0.1536  0.1307
  106DPPC   C1A 1265  21.232   1.664  17.442  0.3471 -0.0319  0.1086
  106DPPC   C2A 1266  21.547   1.546  17.687  0.0211  0.1323 -0.0432
  106DPPC   C3A 1267  21.915   1.499  18.028 -0.0790  0.0941 -0.1284
  106DPPC   C4A 1268  22.323   1.403  18.298  0.3564 -0.0343  0.0859
  106DPPC   C1B 1269  21.202   1.594  18.038 -0.3074  0.1282 -0.2590
  106DPPC   C2B 1270  21.509   1.587  18.350 -0.0237  0.1694  0.1433
  106DPPC   C3B 1271  21.859   1.623  18.657 -0.2630 -0.2467  0.1377
  106DPPC   C4B 1272  22.055   1.636  19.139 -0.2056  0.2108 -0.1011
  107DPPC   NC3 1273   6.569   5.120  16.103  0.1072 -0.0856 -0.2671
  107DPPC   PO4 1274   6.423   5.376  16.397 -0.1034 -0.2862 -0.0214
  107DPPC   GL1 1275   6.432   5.291  16.834 -0.5187  0.0248 -0.1433
  107DPPC   GL2 1276   6.668   5.324  16.857 -0.0230 -0.1032  0.1840
  107DPPC   C1A 1277   6.447   5.613  17.074  0.1266  0.1148 -0.2288
  107DPPC   C2A 1278   6.190   5.927  17.164  0.0450  0.2040 -0.0247
  107DPPC   C3A 1279   6.220   6.407  17.248  0.2698  0.1590 -0.0478
  107DPPC   C4A 1280   6.241   6.918  17.254  0.2465  0.1474  0.2197
  107DPPC   C1B 1281   6.730   5.011  17.049  0.0024 -0.0560  0.2143
  107DPPC   C2B 1282   6.697   4.743  17.362  0.1350 -0.0867 -0.1726
  107DPPC   C3B 1283   6.549   4.476  17.768  0.3745  0.4146 -0.0417
  107DPPC   C4B 1284   6.182   4.242  18.067 -0.1101 -0.0791 -0.1254
  108DPPC   NC3 1285   6.534   6.255  16.536 -0.1679  0.0270  0.1607
  108DPPC   PO4 1286   6.549   6.569  16.719 -0.0672 -0.2120 -0.3013
  108DPPC   GL1 1287   6.799   6.484  17.104  0.0162  0.1932 -0.0227
  108DPPC   GL2 1288   6.856   6.836  17.066 -0.1712 -0.0165 -0.2474
  108DPPC   C1A 1289   6.699   6.547  17.449  0.0919 -0.1151 -0.0579
  108DPPC   C2A 1290   6.607   6.496  17.847 -0.1816  0.1441  0.2206
  108DPPC   C3A 1291   6.333   6.631  18.174 -0.0187  0.1766  0.0012
  108DPPC   C4A 1292   6.105   6.852  18.496  0.0412 -0.0789  0.2283
  108DPPC   C1B 1293   6.681   7.147  17.260 -0.2484 -0.2428 -0.5240
  108DPPC   C2B 1294   6.420   7.452  17.241 -0.2460  0.2321 -0.2909
  108DPPC   C3B 1295   5.942   7.403  17.413  0.1396  0.0933 -0.2608
  108DPPC   C4B 1296   5.640   7.135  17.619  0.0573 -0.1445 -0.3559
  109DPPC   NC3 1297   4.067   0.595  16.291  0.0188  0.3871 -0.2041
  109DPPC   PO4 1298   4.016   0.906  16.071 -0.2925 -0.0955 -0.2021
  109DPPC   GL1 1299   4.143   1.210  16.364 -0.0365  0.0350  0.0756
  109DPPC   GL2 1300   3.969   1.399  16.258  0.0573  0.1006 -0.2793
  109DPPC   C1A 1301   4.000   1.262  16.768  0.1008 -0.1107  0.0439
  109DPPC   C2A 1302   3.860   1.275  17.161 -0.1663 -0.2284 -0.2022
  109DPPC   C3A 1303   3.559   1.343  17.586 -0.2274 -0.0792  0.1547
  109DPPC   C4A 1304   3.174   1.382  17.907 -0.0247 -0.1454  0.2375
  109DPPC   C1B 1305   3.913   1.624  16.521 -0.1482 -0.2284 -0.2536
  109DPPC   C2B 1306   3.847   1.792  16.896  0.1260  0.0201  0.1034
  109DPPC   C3B 1307   3.539   1.799  17.262  0.0498 -0.2585  0.0637
  109DPPC   C4B 1308   3.405   1.879  17.732 -0.2055  0.0861 -0.2674
  110DPPC   NC3 1309   4.277   3.097  16.039  0.0580  0.0308 -0.0927
  110DPPC   PO4 1310   4.416   3.455  15.893  0.3030 -0.1822 -0.2056
  110DPPC   GL1 1311   4.239   3.793  16.088  0.2729 -0.0034 -0.0393
  110DPPC   GL2 1312   4.372   3.789  16.361  0.4533  0.1323  0.3051
  110DPPC   C1A 1313   3.927   3.662  16.260  0.0721  0.1921  0.4353
  110DPPC   C2A 1314   3.649   3.524  16.566 -0.2079 -0.3167 -0.1915
  110DPPC   C3A 1315   3.406   3.493  16.990 -0.1246 -0.1445  0.0847
  110DPPC   C4A 1316   3.243   3.506  17.409 -0.1122 -0.2930  0.2742
  110DPPC   C1B 1317   4.166   3.900  16.656  0.0180 -0.4684  0.1062
  110DPPC   C2B 1318   3.918   3.920  16.978  0.1784  0.1340 -0.0093
  110DPPC   C3B 1319   3.624   3.907  17.314  0.2099 -0.2179 -0.0866
  110DPPC   C4B 1320   3.451   3.895  17.670  0.2310  0.2892 -0.1068
  111DPPC   NC3 1321   0.668   2.027  17.055 -0.0669 -0.0710  0.2757
  111DPPC   PO4 1322   0.803   2.128  16.700  0.2308  0.1789  0.1394
  111DPPC   GL1 1323   1.143   2.283  16.781  0.3129 -0.1250 -0.1625
  111DPPC   GL2 1324   1.176   2.098  17.000  0.1448 -0.1417 -0.2241
  111DPPC   C1A 1325   1.146   2.672  16.942  0.1028  0.2382 -0.1952
  111DPPC   C2A 1326   1.189   3.088  17.152  0.1591  0.1311 -0.3302
  111DPPC   C3A 1327   1.376   3.428  17.401 -0.2753 -0.1726 -0.1210
  111DPPC   C4A 1328   1.735   3.733  17.575 -0.1558 -0.1244  0.1977
  111DPPC   C1B 1329   1.159   1.740  17.041 -0.1810 -0.1433  0.3944
  111DPPC   C2B 1330   1.265   1.326  16.978  0.1505  0.1837  0.1089
  111DPPC   C3B 1331   1.559   0.900  16.840  0.2806 -0.1133  0.0288
  111DPPC   C4B 1332   1.959   0.671  16.792  0.1005 -0.1309 -0.0456
  112DPPC   NC3 1333   3.824   4.034  15.448  0.1373 -0.0733 -0.2316
  112DPPC   PO4 1334   3.667   4.131  15.801 -0.0155 -0.2077 -0.2301
  112DPPC   GL1 1335   3.958   4.089  16.202 -0.1041 -0.0505 -0.0260
  112DPPC   GL2 1336   3.807   4.398  16.213 -0.0882  0.3473 -0.0706
  112DPPC   C1A 1337   3.727   3.956  16.483 -0.2672 -0.4328  0.1848
  112DPPC   C2A 1338   3.461   3.987  16.778 -0.1016 -0.0917  0.0153
  112DPPC   C3A 1339   3.115   4.012  17.120 -0.2670 -0.1350 -0.3883
  112DPPC   C4A 1340   2.622   4.062  17.272 -0.2472 -0.1935  0.1433
  112DPPC   C1B 1341   3.504   4.392  16.425  0.0093 -0.1340  0.1758
  112DPPC   C2B 1342   3.197   4.391  16.729  0.0431 -0.0931  0.3763
  112DPPC   C3B 1343   2.932   4.518  17.189 -0.4163 -0.1630  0.0221
  112DPPC   C4B 1344   2.771   4.364  17.648  0.1799  0.0290 -0.0224
  113DPPC   NC3 1345   7.645   5.077  16.931 -0.1604  0.0261  0.2707
  113DPPC   PO4 1346   7.582   5.466  17.007 -0.2645 -0.1066  0.0865
  113DPPC   GL1 1347   7.254   5.555  17.317  0.1405  0.4417  0.0724
  113DPPC   GL2 1348   7.337   5.450  17.528 -0.0068  0.0605  0.2456
  113DPPC   C1A 1349   7.047   5.870  17.436 -0.2148 -0.0820  0.1524
  113DPPC   C2A 1350   6.943   6.107  17.716 -0.0456 -0.1637 -0.1613
  113DPPC   C3A 1351   6.642   6.124  18.145 -0.0940  0.2566  0.2245
  113DPPC   C4A 1352   6.415   6.197  18.527  0.2982 -0.1329 -0.0703
  113DPPC   C1B 1353   7.197   5.654  17.780 -0.1006  0.2688 -0.0400
  113DPPC   C2B 1354   6.957   5.706  18.052  0.2302  0.0297 -0.3358
  113DPPC   C3B 1355   6.589   5.642  18.446 -0.0845 -0.1700 -0.1338
  113DPPC   C4B 1356   6.256   5.579  18.816 -0.0384  0.1243  0.2659
  114DPPC   NC3 1357   4.531   1.173  16.065 -0.0267  0.0965 -0.0137
  114DPPC   PO4 1358   4.874   1.368  15.941  0.0258  0.1867 -0.1546
  114DPPC   GL1 1359   4.972   1.525  16.257 -0.0715 -0.1192  0.1193
  114DPPC   GL2 1360   4.932   1.293  16.542 -0.2719  0.1238  0.4234
  114DPPC   C1A 1361   5.080   1.705  16.547 -0.0240 -0.1045  0.1634
  114DPPC   C2A 1362   5.340   1.698  16.862 -0.0208 -0.0557  0.2509
  114DPPC   C3A 1363   5.774   1.531  17.063 -0.1926  0.0344  0.1866
  114DPPC   C4A 1364   6.125   1.282  17.207 -0.3499  0.0758  0.0152
  114DPPC   C1B 1365   4.850   1.522  16.842  0.1055  0.0045 -0.1143
  114DPPC   C2B 1366   4.798   1.560  17.198  0.4620 -0.2634 -0.2087
  114DPPC   C3B 1367   4.579   1.504  17.606 -0.1684 -0.1631 -0.4792
  114DPPC   C4B 1368   4.305   1.575  17.957  0.3842 -0.2935 -0.1919
  115DPPC   NC3 1369   6.546   4.907  16.586  0.0158  0.2176 -0.0971
  115DPPC   PO4 1370   6.546   4.618  16.257  0.1864 -0.0717 -0.6106
  115DPPC   GL1 1371   6.206   4.450  16.537 -0.1916 -0.4260  0.3586
  115DPPC   GL2 1372   6.454   4.465  16.760 -0.2875 -0.3715  0.3495
  115DPPC   C1A 1373   5.996   4.626  16.785 -0.1732  0.1458  0.3596
  115DPPC   C2A 1374   5.814   4.840  17.066  0.1376 -0.0016  0.1070
  115DPPC   C3A 1375   5.839   4.997  17.479  0.0048 -0.1869 -0.2345
  115DPPC   C4A 1376   5.933   5.179  17.902 -0.0333  0.0394 -0.2019
  115DPPC   C1B 1377   6.410   4.755  17.025  0.0054  0.2403 -0.1628
  115DPPC   C2B 1378   6.342   5.101  17.258 -0.1603  0.0722  0.2817
  115DPPC   C3B 1379   6.059   5.501  17.464 -0.0911 -0.0539 -0.1957
  115DPPC   C4B 1380   5.776   5.672  17.820  0.0523 -0.0365  0.2288
  116DPPC   NC3 1381  21.125   2.634  17.023 -0.1854  0.1138 -0.0756
  116DPPC   PO4 1382  20.952   2.948  16.941  0.1533  0.0257 -0.1356
  116DPPC   GL1 1383  21.069   3.351  17.072  0.0129 -0.0337 -0.0481
  116DPPC   GL2 1384  21.273   3.152  17.158  0.0266  0.1278  0.1236
  116DPPC   C1A 1385  21.303   3.635  17.229 -0.2744 -0.1137 -0.1185
  116DPPC   C2A 1386  21.599   3.739  17.494  0.0456 -0.2612 -0.0664
  116DPPC   C3A 1387  21.973   3.777  17.776 -0.0193  0.2256 -0.0557
  116DPPC   C4A 1388  22.357   3.758  18.073  0.2215  0.0196  0.0203
  116DPPC   C1B 1389  21.407   3.276  17.482  0.0134  0.2465  0.0538
  116DPPC   C2B 1390  21.548   3.362  17.860 -0.0556  0.2661 -0.0952
  116DPPC   C3B 1391  21.863   3.398  18.170 -0.2769  0.1688  0.1267
  116DPPC   C4B 1392  22.155   3.344  18.563 -0.1945 -0.1557  0.0896
  117DPPC   NC3 1393   7.571   5.947  17.372 -0.0036 -0.0930 -0.0711
  117DPPC   PO4 1394   7.818   5.635  17.478  0.0471 -0.0170  0.0913
  117DPPC   GL1 1395   7.792   5.275  17.783  0.1384 -0.0436 -0.1135
  117DPPC   GL2 1396   7.599   5.465  17.862 -0.1643 -0.1443 -0.4303
  117DPPC   C1A 1397   7.752   5.111  18.087 -0.1225 -0.2419 -0.2372
  117DPPC   C2A 1398   7.473   5.138  18.429 -0.0254 -0.0502 -0.1071
  117DPPC   C3A 1399   7.227   5.110  18.823  0.2531 -0.4630 -0.0291
  117DPPC   C4A 1400   6.866   5.168  19.171  0.1021  0.1941  0.0520
  117DPPC   C1B 1401   7.439   5.558  18.164 -0.0374 -0.3026  0.1363
  117DPPC   C2B 1402   7.206   5.595  18.492 -0.1220  0.1224 -0.2290
  117DPPC   C3B 1403   6.899   5.597  18.884 -0.0578  0.1031 -0.0039
  117DPPC   C4B 1404   6.610   5.657  19.243 -0.0257 -0.0192  0.1834
  118DPPC   NC3 1405  21.134   5.247  16.615  0.2139  0.1377 -0.1040
  118DPPC   PO4 1406  21.441   5.470  16.541  0.1642 -0.0484 -0.0094
  118DPPC   GL1 1407  21.514   5.443  16.923 -0.1608 -0.0745  0.6536
  118DPPC   GL2 1408  21.801   5.365  16.778  0.2034 -0.1127  0.0555
  118DPPC   C1A 1409  21.666   5.238  17.172  0.0674 -0.6127  0.2454
  118DPPC   C2A 1410  21.843   5.073  17.479  0.1898  0.0311  0.0271
  118DPPC   C3A 1411  22.124   5.101  17.851 -0.2140  0.0169  0.2452
  118DPPC   C4A 1412  22.514   5.006  18.189  0.2288 -0.1954  0.2159
  118DPPC   C1B 1413  21.919   5.687  16.937  0.1372 -0.0974  0.2032
  118DPPC   C2B 1414  21.976   5.819  17.290  0.1254 -0.0380  0.0910
  118DPPC   C3B 1415  22.208   5.845  17.711 -0.0897  0.3544 -0.1015
  118DPPC   C4B 1416  22.562   5.957  18.019  0.1002 -0.3080  0.1231
  119DPPC   NC3 1417  20.670   4.119  16.933 -0.0639  0.1382 -0.1608
  119DPPC   PO4 1418  20.955   4.436  16.867 -0.0744  0.0193 -0.5803
  119DPPC   GL1 1419  21.332   4.506  17.085  0.1618 -0.0238 -0.1066
  119DPPC   GL2 1420  21.474   4.272  16.947 -0.2031 -0.1774  0.1870
  119DPPC   C1A 1421  21.317   4.395  17.414 -0.4033  0.0489 -0.3886
  119DPPC   C2A 1422  21.306   4.429  17.851 -0.1429 -0.0039 -0.3903
  119DPPC   C3A 1423  21.636   4.378  18.202 -0.0762 -0.0481  0.0103
  119DPPC   C4A 1424  21.856   4.313  18.714  0.3500 -0.1783  0.1584
  119DPPC   C1B 1425  21.665   4.239  17.249  0.1561  0.0208  0.0479
  119DPPC   C2B 1426  21.756   4.244  17.667  0.0416 -0.1464 -0.1079
  119DPPC   C3B 1427  22.073   4.216  17.978 -0.1231  0.2738 -0.0807
  119DPPC   C4B 1428  22.353   4.183  18.405 -0.0251  0.0527  0.1246
  120DPPC   NC3 1429   0.666   3.928  16.144  0.2466  0.1240 -0.2413
  120DPPC   PO4 1430   0.579   4.281  16.208 -0.4821  0.0056  0.1285
  120DPPC   GL1 1431   0.629   4.493  16.610  0.0606 -0.1370  0.2140
  120DPPC   GL2 1432   0.627   4.141  16.678 -0.0270 -0.1721 -0.1914
  120DPPC   C1A 1433   0.896   4.557  16.869  0.3628 -0.2698  0.0544
  120DPPC   C2A 1434   1.167   4.787  17.158 -0.1109  0.1024 -0.0714
  120DPPC   C3A 1435   1.391   4.966  17.527 -0.2329 -0.0875  0.0921
  120DPPC   C4A 1436   1.761   5.165  17.769 -0.2654  0.0474  0.0911
  120DPPC   C1B 1437   0.993   4.126  16.753 -0.1707  0.2369  0.3365
  120DPPC   C2B 1438   1.315   4.364  16.865  0.1630 -0.0624  0.1613
  120DPPC   C3B 1439   1.741   4.602  17.054 -0.1018 -0.2532  0.0272
  120DPPC   C4B 1440   1.955   4.989  16.939 -0.1273 -0.2507  0.1542
  121DPPC   NC3 1441   2.484   2.882  15.589 -0.0743  0.1744  0.0159
  121DPPC   PO4 1442   2.827   3.079  15.623  0.2626  0.1794  0.1871
  121DPPC   GL1 1443   2.971   2.976  15.980  0.0776  0.1439  0.1081
  121DPPC   GL2 1444   2.939   2.768  16.122 -0.0024  0.0934  0.0508
  121DPPC   C1A 1445   2.966   3.217  16.250 -0.2303 -0.2006  0.3744
  121DPPC   C2A 1446   3.068   3.587  16.450  0.2819  0.1172  0.1987
  121DPPC   C3A 1447   2.877   3.976  16.647  0.2181 -0.0998  0.1537
  121DPPC   C4A 1448   2.695   4.351  16.786  0.1405  0.0863  0.0410
  121DPPC   C1B 1449   2.752   2.871  16.451  0.2252 -0.0645 -0.0659
  121DPPC   C2B 1450   2.341   2.830  16.558 -0.4983 -0.1400 -0.1633
  121DPPC   C3B 1451   1.976   2.588  16.867 -0.2103 -0.1876 -0.2086
  121DPPC   C4B 1452   1.887   2.463  17.370  0.0254  0.0205  0.1064
  122DPPC   NC3 1453   9.088   1.374  18.712  0.5667 -0.0863  0.0394
  122DPPC   PO4 1454   8.748   1.171  18.816  0.0654  0.1509 -0.1220
  122DPPC   GL1 1455   8.468   1.384  18.933 -0.0197 -0.0920 -0.3893
  122DPPC   GL2 1456   8.530   1.274  19.235 -0.5176 -0.0863  0.0888
  122DPPC   C1A 1457   8.111   1.417  19.043 -0.0433  0.1119 -0.1164
  122DPPC   C2A 1458   7.847   1.412  19.353 -0.0394 -0.1236 -0.2855
  122DPPC   C3A 1459   7.604   1.491  19.792  0.2551 -0.1050  0.1435
  122DPPC   C4A 1460   7.314   1.496  20.140  0.2510  0.0728  0.0250
  122DPPC   C1B 1461   8.329   1.371  19.480 -0.2026  0.0346  0.0630
  122DPPC   C2B 1462   8.143   1.392  19.875 -0.0166 -0.0128 -0.1222
  122DPPC   C3B 1463   7.860   1.387  20.236 -0.2464 -0.0894 -0.2320
  122DPPC   C4B 1464   7.567   1.379  20.649  0.0839  0.0877 -0.2531
  123DPPC   NC3 1465   5.071   2.807  15.917 -0.0939 -0.1735 -0.0509
  123DPPC   PO4 1466   5.219   2.987  16.232  0.1955 -0.0187  0.0829
  123DPPC   GL1 1467   5.247   2.923  16.583  0.0247 -0.6030  0.1957
  123DPPC   GL2 1468   5.523   2.993  16.770 -0.1923  0.0687 -0.3383
  123DPPC   C1A 1469   4.994   2.874  16.872 -0.0988 -0.1851 -0.2073
  123DPPC   C2A 1470   4.816   2.870  17.233 -0.0297 -0.0656 -0.1420
  123DPPC   C3A 1471   4.547   2.857  17.682 -0.1422 -0.1099  0.0300
  123DPPC   C4A 1472   4.215   2.943  18.053  0.0670 -0.0479  0.1523
  123DPPC   C1B 1473   5.681   2.733  17.002 -0.4200 -0.1957  0.1184
  123DPPC   C2B 1474   5.829   2.505  17.365  0.1404 -0.1219 -0.2901
  123DPPC   C3B 1475   5.885   2.215  17.682 -0.0144  0.2276 -0.2801
  123DPPC   C4B 1476   5.919   1.842  17.947 -0.3611 -0.2016  0.0358
  124DPPC   NC3 1477   2.179   4.050  15.426 -0.3433  0.0610 -0.1294
  124DPPC   PO4 1478   2.263   4.049  15.869  0.0730  0.2044 -0.0072
  124DPPC   GL1 1479   2.299   4.252  16.285  0.0417 -0.2650  0.0426
  124DPPC   GL2 1480   2.210   4.122  16.493  0.1895  0.0113  0.1886
  124DPPC   C1A 1481   2.561   4.477  16.365 -0.0982  0.0439  0.2491
  124DPPC   C2A 1482   2.555   4.867  16.460 -0.2012 -0.0213  0.1520
  124DPPC   C3A 1483   2.351   5.259  16.649  0.0491  0.1388  0.1289
  124DPPC   C4A 1484   2.444   5.661  16.918 -0.0731  0.2080  0.1857
  124DPPC   C1B 1485   2.367   3.931  16.803 -0.0155  0.0869  0.2070
  124DPPC   C2B 1486   2.419   3.629  17.072  0.1158 -0.1124  0.1113
  124DPPC   C3B 1487   2.133   3.349  17.372  0.0864  0.2037 -0.1224
  124DPPC   C4B 1488   1.812   3.297  17.697  0.0009 -0.1500  0.1855
  125DPPC   NC3 1489   8.547   0.352  18.732 -0.2386 -0.1207  0.2993
  125DPPC   PO4 1490   8.657   0.530  18.409  0.0085 -0.1505  0.1053
  125DPPC   GL1 1491   8.350   0.938  18.323 -0.1650  0.4865 -0.1832
  125DPPC   GL2 1492   8.353   0.793  18.635  0.1844  0.4194 -0.3355
  125DPPC   C1A 1493   7.964   0.980  18.375  0.1707 -0.0230 -0.1713
  125DPPC   C2A 1494   7.574   1.122  18.455 -0.0274  0.1772  0.0224
  125DPPC   C3A 1495   7.257   1.085  18.858  0.0659 -0.0458 -0.0588
  125DPPC   C4A 1496   7.029   1.118  19.263  0.0302 -0.0280 -0.1781
  125DPPC   C1B 1497   8.256   0.955  18.984  0.1762 -0.1034  0.0210
  125DPPC   C2B 1498   8.074   0.953  19.336 -0.1577 -0.2168 -0.0929
  125DPPC   C3B 1499   7.795   0.988  19.754 -0.0811  0.0555 -0.3030
  125DPPC   C4B 1500   7.490   1.001  20.163  0.1203 -0.0650  0.2663
  126DPPC   NC3 1501   7.883   0.039  17.634 -0.4147  0.0994  0.5838
  126DPPC   PO4 1502   8.198   0.279  17.599  0.0479  0.1338 -0.0619
  126DPPC   GL1 1503   8.039   0.424  18.027  0.1195 -0.2238 -0.1104
  126DPPC   GL2 1504   7.738   0.417  17.904 -0.1654  0.3005  0.3156
  126DPPC   C1A 1505   8.087   0.510  18.384 -0.1772  0.0267  0.0947
  126DPPC   C2A 1506   7.998   0.591  18.801 -0.0250  0.0664 -0.2039
  126DPPC   C3A 1507   7.746   0.608  19.229  0.0198  0.0830  0.1144
  126DPPC   C4A 1508   7.415   0.633  19.645 -0.2154 -0.0141 -0.0144
  126DPPC   C1B 1509   7.448   0.241  18.074 -0.1711 -0.1585 -0.1429
  126DPPC   C2B 1510   7.195   0.297  18.434 -0.0350 -0.2268 -0.2390
  126DPPC   C3B 1511   6.965   0.308  18.864  0.0523 -0.5557  0.3411
  126DPPC   C4B 1512   6.784   0.314  19.322 -0.1458  0.0460 -0.1924
  127DPPC   NC3 1513   6.595   1.140  16.850 -0.2362 -0.0582  0.0714
  127DPPC   PO4 1514   6.989   1.199  16.721 -0.2175 -0.1292  0.0096
  127DPPC   GL1 1515   7.076   0.999  17.046 -0.1862  0.0686 -0.0531
  127DPPC   GL2 1516   7.194   1.181  17.279  0.1011  0.0401 -0.0283
  127DPPC   C1A 1517   6.858   0.938  17.351  0.1333 -0.1126  0.0121
  127DPPC   C2A 1518   6.803   0.760  17.683  0.0354 -0.0588 -0.1544
  127DPPC   C3A 1519   6.693   0.760  18.135 -0.0860  0.0932  0.1413
  127DPPC   C4A 1520   6.410   0.787  18.561 -0.1636 -0.0270  0.0272
  127DPPC   C1B 1521   7.035   1.225  17.613 -0.2564  0.1650  0.3873
  127DPPC   C2B 1522   6.800   1.205  17.956  0.0071  0.0799  0.0962
  127DPPC   C3B 1523   6.387   1.222  18.264  0.2983  0.0971 -0.1299
  127DPPC   C4B 1524   6.194   1.242  18.745 -0.0261  0.0954 -0.0292
  128DPPC   NC3 1525   9.428   4.776  18.649  0.0808 -0.0805  0.1241
  128DPPC   PO4 1526   9.066   4.962  18.602 -0.1657  0.1551 -0.1584
  128DPPC   GL1 1527   8.717   4.775  18.834  0.1361  0.1178  0.2153
  128DPPC   GL2 1528   8.492   4.840  18.623 -0.1125  0.1475 -0.4249
  128DPPC   C1A 1529   8.550   4.810  19.135 -0.2081 -0.1801  0.1556
  128DPPC   C2A 1530   8.466   4.829  19.589 -0.2052  0.3167 -0.1950
  128DPPC   C3A 1531   8.142   4.875  20.008 -0.3560 -0.1859 -0.2822
  128DPPC   C4A 1532   7.805   4.765  20.446 -0.2984  0.2431 -0.0899
  128DPPC   C1B 1533   8.218   4.844  18.855 -0.1366 -0.1940 -0.4404
  128DPPC   C2B 1534   8.088   4.981  19.215 -0.0640  0.2393 -0.0063
  128DPPC   C3B 1535   7.790   4.947  19.663  0.2420  0.0154  0.1846
  128DPPC   C4B 1536   7.501   4.927  19.995 -0.1911 -0.0622  0.2101
  129DPPC   NC3 1537   0.279   3.873  16.491 -0.1759  0.1641  0.0599
  129DPPC   PO4 1538  -0.009   3.895  16.725  0.0624  0.3222 -0.0052
  129DPPC   GL1 1539   0.410   3.846  16.967  0.3799  0.2082 -0.2300
  129DPPC   GL2 1540   0.419   3.550  16.949 -0.2869  0.2240  0.0055
  129DPPC   C1A 1541   0.725   3.976  17.056 -0.0382  0.1105  0.1737
  129DPPC   C2A 1542   0.985   4.243  17.205  0.3040 -0.1250  0.0051
  129DPPC   C3A 1543   1.408   4.457  17.431 -0.1206 -0.0048 -0.0183
  129DPPC   C4A 1544   1.806   4.662  17.566 -0.0100 -0.2207 -0.0207
  129DPPC   C1B 1545   0.592   3.390  17.246 -0.0326  0.0015  0.2615
  129DPPC   C2B 1546   0.827   3.239  17.577  0.0962  0.1756 -0.4091
  129DPPC   C3B 1547   1.211   3.214  17.871  0.1521 -0.3029  0.1936
  129DPPC   C4B 1548   1.386   3.221  18.287  0.2311  0.4707 -0.2824
  130DPPC   NC3 1549   8.323   1.869  18.052  0.1588 -0.1349  0.0909
  130DPPC   PO4 1550   8.591   2.003  18.240  0.1773 -0.1189  0.0162
  130DPPC   GL1 1551   8.297   1.815  18.533  0.1303  0.2910  0.1351
  130DPPC   GL2 1552   8.334   1.521  18.497  0.0186  0.1460  0.2284
  130DPPC   C1A 1553   8.071   1.893  18.805  0.1288 -0.2894  0.1756
  130DPPC   C2A 1554   7.882   1.888  19.197 -0.0102  0.1710  0.0398
  130DPPC   C3A 1555   7.579   1.912  19.525  0.2885  0.2402  0.0176
  130DPPC   C4A 1556   7.247   1.966  19.909  0.3075  0.2788 -0.0868
  130DPPC   C1B 1557   8.127   1.262  18.645  0.0115 -0.2789 -0.0951
  130DPPC   C2B 1558   7.832   1.081  18.908 -0.0307  0.0565  0.2508
  130DPPC   C3B 1559   7.549   1.062  19.307  0.3106  0.3069 -0.1084
  130DPPC   C4B 1560   7.287   1.090  19.682 -0.1396 -0.0457  0.0070
  131DPPC   NC3 1561   5.012   4.384  16.445  0.0355 -0.0611 -0.0214
  131DPPC   PO4 1562   4.696   4.622  16.216  0.0524  0.1623  0.0977
  131DPPC   GL1 1563   4.410   4.765  16.513  0.4941 -0.2197 -0.0526
  131DPPC   GL2 1564   4.214   4.819  16.316  0.1025  0.1162  0.0605
  131DPPC   C1A 1565   4.212   4.797  16.823  0.0583 -0.2190 -0.0017
  131DPPC   C2A 1566   4.013   4.759  17.177  0.0437  0.0952  0.2147
  131DPPC   C3A 1567   3.696   4.717  17.479  0.2561  0.1870 -0.0815
  131DPPC   C4A 1568   3.419   4.731  17.865 -0.3311  0.3513  0.1993
  131DPPC   C1B 1569   3.885   4.693  16.469 -0.0478  0.0556 -0.3027
  131DPPC   C2B 1570   3.613   4.754  16.826 -0.0169 -0.1830  0.0008
  131DPPC   C3B 1571   3.337   4.847  17.153 -0.2705  0.2341  0.0951
  131DPPC   C4B 1572   3.140   4.832  17.520  0.2723 -0.1078 -0.0872
  132DPPC   NC3 1573   8.401   5.360  17.002 -0.2400 -0.2123  0.2294
  132DPPC   PO4 1574   8.027   5.288  17.184  0.0576 -0.1134  0.3035
  132DPPC   GL1 1575   7.717   5.008  17.337 -0.2895  0.0758  0.0383
  132DPPC   GL2 1576   7.975   4.939  17.493 -0.0639 -0.1911  0.0930
  132DPPC   C1A 1577   7.465   5.074  17.628 -0.1112 -0.0262  0.0725
  132DPPC   C2A 1578   7.264   5.170  18.002 -0.1870 -0.0521  0.0168
  132DPPC   C3A 1579   6.997   5.180  18.386  0.4090 -0.2146  0.2874
  132DPPC   C4A 1580   6.618   5.205  18.724  0.1663  0.1869  0.1871
  132DPPC   C1B 1581   7.813   4.852  17.784 -0.1722  0.2771 -0.2695
  132DPPC   C2B 1582   7.503   4.689  18.019 -0.2367 -0.1186  0.1776
  132DPPC   C3B 1583   7.189   4.699  18.307  0.2644 -0.0087  0.0453
  132DPPC   C4B 1584   6.888   4.754  18.693 -0.0425 -0.3055  0.0234
  133DPPC   NC3 1585   3.429   4.996  15.688  0.1019 -0.1417 -0.1107
  133DPPC   PO4 1586   3.707   5.259  15.729  0.0751 -0.1292 -0.3087
  133DPPC   GL1 1587   3.862   5.327  16.073 -0.1097  0.2049  0.0161
  133DPPC   GL2 1588   4.096   5.220  16.150  0.1254 -0.1129  0.2052
  133DPPC   C1A 1589   3.764   5.479  16.370  0.0985  0.2915  0.4061
  133DPPC   C2A 1590   3.690   5.622  16.777 -0.2495  0.2311  0.0066
  133DPPC   C3A 1591   3.557   5.636  17.246  0.0199  0.0880  0.1255
  133DPPC   C4A 1592   3.643   5.996  17.606  0.1382  0.0448 -0.2055
  133DPPC   C1B 1593   4.135   5.276  16.508 -0.2656  0.1241 -0.1637
  133DPPC   C2B 1594   3.908   5.197  16.888  0.4207 -0.0013 -0.0787
  133DPPC   C3B 1595   3.791   5.166  17.310  0.1290  0.1440  0.2054
  133DPPC   C4B 1596   3.501   5.207  17.703  0.2391  0.0562 -0.0105
  134DPPC   NC3 1597  21.028   1.473  16.565 -0.1032  0.1164  0.0636
  134DPPC   PO4 1598  21.173   1.830  16.674 -0.2503  0.0799 -0.2452
  134DPPC   GL1 1599  21.328   1.847  17.003 -0.1689  0.1372  0.0382
  134DPPC   GL2 1600  21.402   2.063  17.189 -0.0121  0.0643 -0.0381
  134DPPC   C1A 1601  21.590   1.579  17.152 -0.1038 -0.1602  0.0292
  134DPPC   C2A 1602  21.939   1.565  17.358 -0.0837 -0.2109 -0.0051
  134DPPC   C3A 1603  22.322   1.424  17.539 -0.1306  0.2855  0.2621
  134DPPC   C4A 1604  22.610   1.087  17.682 -0.3005  0.1370 -0.1583
  134DPPC   C1B 1605  21.599   1.954  17.440  0.2027  0.6073 -0.0028
  134DPPC   C2B 1606  21.899   1.977  17.679 -0.3120 -0.0685 -0.2586
  134DPPC   C3B 1607  22.277   1.906  17.996  0.0624  0.0913  0.1906
  134DPPC   C4B 1608  22.620   1.849  18.313 -0.0498  0.2260  0.0967
  135DPPC   NC3 1609   8.434   3.619  18.042 -0.0007  0.1417 -0.1396
  135DPPC   PO4 1610   8.290   3.251  18.115 -0.1852 -0.1335 -0.0404
  135DPPC   GL1 1611   8.020   3.306  18.416 -0.2755 -0.1292  0.0524
  135DPPC   GL2 1612   8.126   3.583  18.418 -0.1778  0.0194 -0.1670
  135DPPC   C1A 1613   7.664   3.284  18.528  0.1084 -0.4151 -0.1553
  135DPPC   C2A 1614   7.407   3.297  18.837  0.5644  0.0434 -0.0793
  135DPPC   C3A 1615   7.125   3.307  19.259  0.1478  0.2421  0.1383
  135DPPC   C4A 1616   6.820   3.310  19.660 -0.0133  0.1492 -0.3881
  135DPPC   C1B 1617   7.909   3.695  18.700 -0.1997 -0.0761  0.2059
  135DPPC   C2B 1618   7.657   3.718  19.030 -0.2629 -0.0952  0.0138
  135DPPC   C3B 1619   7.401   3.700  19.404 -0.3067  0.0470  0.1041
  135DPPC   C4B 1620   7.136   3.693  19.809 -0.0021 -0.0657 -0.0455
  136DPPC   NC3 1621   0.760   1.452  16.305  0.0579  0.3620 -0.0842
  136DPPC   PO4 1622   0.757   1.105  16.526  0.0562 -0.0709 -0.1775
  136DPPC   GL1 1623   0.438   1.001  16.877 -0.1638 -0.0989 -0.3637
  136DPPC   GL2 1624   0.584   1.188  16.998 -0.1303 -0.3565 -0.0883
  136DPPC   C1A 1625   0.482   0.742  17.126 -0.1702 -0.1678  0.1778
  136DPPC   C2A 1626   0.815   0.674  17.416  0.3661 -0.0184  0.3068
  136DPPC   C3A 1627   1.152   0.647  17.689  0.0757  0.1524 -0.1747
  136DPPC   C4A 1628   1.565   0.532  17.863 -0.0948  0.0691 -0.1348
  136DPPC   C1B 1629   0.872   1.119  17.147  0.2837 -0.2125  0.4643
  136DPPC   C2B 1630   1.204   0.910  17.290  0.0339 -0.0287  0.3793
  136DPPC   C3B 1631   1.576   0.647  17.367 -0.1673  0.0048  0.0916
  136DPPC   C4B 1632   1.911   0.309  17.327  0.2006  0.3500  0.0156
  137DPPC   NC3 1633   0.072   3.229  16.169  0.1333  0.3669  0.0724
  137DPPC   PO4 1634   0.354   3.500  16.228  0.0425 -0.1287  0.1314
  137DPPC   GL1 1635   0.543   3.399  16.574 -0.2939  0.1034  0.0380
  137DPPC   GL2 1636   0.672   3.663  16.611  0.0284  0.2890  0.0117
  137DPPC   C1A 1637   0.565   3.138  16.842 -0.1403 -0.4663 -0.2588
  137DPPC   C2A 1638   0.689   2.906  17.196  0.2471 -0.0715 -0.1691
  137DPPC   C3A 1639   1.009   2.730  17.565 -0.3083  0.0259  0.2826
  137DPPC   C4A 1640   1.295   2.680  17.922  0.2527 -0.1822  0.1416
  137DPPC   C1B 1641   1.055   3.762  16.527 -0.1527  0.1183  0.0170
  137DPPC   C2B 1642   1.369   3.803  16.785 -0.0923 -0.3808 -0.1946
  137DPPC   C3B 1643   1.526   3.938  17.207  0.1422  0.0259  0.4262
  137DPPC   C4B 1644   1.873   4.234  17.404  0.1816 -0.1781 -0.1582
  138DPPC   NC3 1645   2.634   6.249  15.116 -0.2233  0.0067  0.0239
  138DPPC   PO4 1646   2.581   6.204  15.515 -0.2755 -0.1219  0.0309
  138DPPC   GL1 1647   2.381   5.892  15.741 -0.0473 -0.1198 -0.2378
  138DPPC   GL2 1648   2.661   5.986  15.807 -0.1822  0.1460 -0.0798
  138DPPC   C1A 1649   2.138   5.789  16.040 -0.0921 -0.3170  0.1139
  138DPPC   C2A 1650   2.127   5.676  16.461 -0.0255  0.3457 -0.0346
  138DPPC   C3A 1651   1.939   5.531  16.876  0.2204  0.2343 -0.0844
  138DPPC   C4A 1652   2.181   5.535  17.353  0.0076  0.1153  0.1652
  138DPPC   C1B 1653   2.661   6.087  16.188  0.2572 -0.1412 -0.2893
  138DPPC   C2B 1654   2.403   6.131  16.502 -0.0768 -0.1022 -0.1169
  138DPPC   C3B 1655   2.163   6.060  16.912 -0.0847  0.0555 -0.2213
  138DPPC   C4B 1656   1.817   5.893  17.257 -0.2229  0.1126  0.0930
  139DPPC   NC3 1657   6.033   5.632  16.499  0.1259  0.2363 -0.3785
  139DPPC   PO4 1658   5.754   5.699  16.263 -0.0805 -0.0617 -0.1789
  139DPPC   GL1 1659   5.547   5.922  16.613  0.1094 -0.0493 -0.2146
  139DPPC   GL2 1660   5.723   5.808  16.813 -0.1862  0.0495 -0.2027
  139DPPC   C1A 1661   5.327   6.200  16.719 -0.1969  0.1193  0.1578
  139DPPC   C2A 1662   5.331   6.532  16.919 -0.1278 -0.3864 -0.0613
  139DPPC   C3A 1663   5.444   6.981  16.977  0.1900 -0.0373  0.1096
  139DPPC   C4A 1664   5.400   7.424  17.201  0.3184 -0.4110 -0.0460
  139DPPC   C1B 1665   5.755   5.941  17.157  0.1664  0.4476  0.1942
  139DPPC   C2B 1666   5.842   6.174  17.547 -0.1775 -0.3511 -0.3222
  139DPPC   C3B 1667   6.134   6.604  17.709 -0.1480 -0.0271  0.0724
  139DPPC   C4B 1668   6.407   6.971  17.749 -0.0994  0.0029  0.0397
  140DPPC   NC3 1669   7.317   5.767  16.733  0.0357  0.0016 -0.0696
  140DPPC   PO4 1670   7.014   6.007  16.635  0.0414 -0.0989  0.2807
  140DPPC   GL1 1671   6.761   5.985  16.952  0.0205  0.1510  0.0932
  140DPPC   GL2 1672   6.846   5.694  16.971  0.2333  0.0923 -0.2435
  140DPPC   C1A 1673   6.637   6.074  17.294  0.1990 -0.0180  0.0966
  140DPPC   C2A 1674   6.358   6.122  17.610 -0.1429  0.3394  0.0698
  140DPPC   C3A 1675   6.119   6.159  18.008  0.2308 -0.0572 -0.1816
  140DPPC   C4A 1676   5.811   6.485  18.296  0.1849  0.0083  0.3171
  140DPPC   C1B 1677   6.837   5.490  17.319 -0.3220  0.0197  0.3054
  140DPPC   C2B 1678   6.579   5.711  17.567  0.1163  0.0240 -0.1854
  140DPPC   C3B 1679   6.347   5.676  17.947  0.3586  0.1572 -0.2617
  140DPPC   C4B 1680   6.078   5.712  18.335 -0.0957 -0.0373  0.0938
  141DPPC   NC3 1681  20.978   0.656  16.881  0.1870 -0.1409  0.1303
  141DPPC   PO4 1682  21.053   1.020  16.878  0.0924 -0.0536  0.4480
  141DPPC   GL1 1683  21.317   1.068  17.219  0.2003  0.3574 -0.2028
  141DPPC   GL2 1684  21.048   1.143  17.376 -0.5693 -0.2566 -0.2715
  141DPPC   C1A 1685  21.606   1.140  17.392  0.2595  0.0847  0.1248
  141DPPC   C2A 1686  21.930   1.106  17.675  0.0188 -0.1598  0.0514
  141DPPC   C3A 1687  22.290   1.022  18.015  0.0580 -0.1237 -0.0901
  141DPPC   C4A 1688  22.570   0.944  18.413  0.0056 -0.2749 -0.0829
  141DPPC   C1B 1689  21.274   1.156  17.707  0.0647 -0.0131  0.1799
  141DPPC   C2B 1690  21.519   1.170  18.051  0.0932 -0.1145 -0.5077
  141DPPC   C3B 1691  21.858   1.107  18.404 -0.0788 -0.1081 -0.3454
  141DPPC   C4B 1692  22.218   1.110  18.729  0.3189 -0.0313  0.0234
  142DPPC   NC3 1693   7.279   4.244  16.803  0.2479 -0.2834 -0.1143
  142DPPC   PO4 1694   7.534   4.543  16.926 -0.0267  0.0221  0.0024
  142DPPC   GL1 1695   7.285   4.445  17.267  0.0177 -0.0902 -0.0507
  142DPPC   GL2 1696   7.399   4.729  17.386 -0.2458  0.2873 -0.2199
  142DPPC   C1A 1697   6.976   4.283  17.382  0.0568  0.2293 -0.2882
  142DPPC   C2A 1698   6.728   4.017  17.595  0.4963  0.0228  0.1158
  142DPPC   C3A 1699   6.453   3.811  17.951  0.1518 -0.3138  0.2107
  142DPPC   C4A 1700   6.256   3.813  18.335 -0.3606  0.2944 -0.0833
  142DPPC   C1B 1701   7.143   4.759  17.650  0.1143 -0.2426 -0.3699
  142DPPC   C2B 1702   6.825   4.849  17.992  0.0342 -0.2649  0.2701
  142DPPC   C3B 1703   6.494   4.692  18.284  0.0633  0.1294 -0.4700
  142DPPC   C4B 1704   6.346   4.776  18.741 -0.1403 -0.1257  0.0287
  143DPPC   NC3 1705  20.487   3.044  16.792  0.0144  0.1533 -0.0241
  143DPPC   PO4 1706  20.560   3.251  17.169  0.3019  0.0778  0.1373
  143DPPC   GL1 1707  20.752   3.136  17.565  0.1191 -0.0886  0.0305
  143DPPC   GL2 1708  20.870   2.884  17.391 -0.0751  0.1239  0.1208
  143DPPC   C1A 1709  21.070   3.252  17.797  0.2837 -0.0978  0.1692
  143DPPC   C2A 1710  21.137   3.439  18.173 -0.2391  0.1422 -0.1552
  143DPPC   C3A 1711  21.513   3.497  18.503 -0.1132 -0.0300 -0.3255
  143DPPC   C4A 1712  21.842   3.403  18.896 -0.0968  0.0878 -0.2566
  143DPPC   C1B 1713  21.211   2.917  17.520  0.1955 -0.1084  0.0183
  143DPPC   C2B 1714  21.568   2.896  17.688 -0.0700 -0.0974 -0.0554
  143DPPC   C3B 1715  21.911   2.952  17.994 -0.4739  0.2990  0.0263
  143DPPC   C4B 1716  22.202   2.843  18.399  0.0274 -0.0012  0.2418
  144DPPC   NC3 1717   8.349   5.942  17.904 -0.0456 -0.1933 -0.1631
  144DPPC   PO4 1718   8.321   6.316  17.796 -0.0824  0.1443  0.0125
  144DPPC   GL1 1719   8.045   6.471  18.033  0.2405 -0.0233  0.1370
  144DPPC   GL2 1720   7.991   6.221  18.175 -0.0136  0.0622  0.1478
  144DPPC   C1A 1721   7.873   6.713  18.246  0.2450 -0.0726  0.1446
  144DPPC   C2A 1722   7.670   6.836  18.591 -0.3177 -0.1081 -0.0266
  144DPPC   C3A 1723   7.529   6.804  19.016  0.0052  0.2456 -0.2811
  144DPPC   C4A 1724   7.222   6.779  19.396  0.0825  0.0462  0.0264
  144DPPC   C1B 1725   7.844   6.244  18.578  0.0612 -0.5066  0.3781
  144DPPC   C2B 1726   7.666   6.343  18.937  0.1403 -0.0383  0.0650
  144DPPC   C3B 1727   7.496   6.384  19.404 -0.0376  0.3010 -0.0649
  144DPPC   C4B 1728   7.153   6.356  19.764 -0.1177  0.0180  0.1782
  145DPPC   NC3 1729   0.343   0.299  16.244  0.1209 -0.0924  0.0770
  145DPPC   PO4 1730   0.660   0.091  16.386 -0.0959  0.2520 -0.3284
  145DPPC   GL1 1731   1.004   0.213  16.595 -0.0852 -0.2777 -0.0470
  145DPPC   GL2 1732   1.022  -0.047  16.605 -0.0638 -0.2436  0.1723
  145DPPC   C1A 1733   1.005   0.405  16.946 -0.1168  0.2043  0.1119
  145DPPC   C2A 1734   1.038   0.273  17.320  0.0548 -0.0884 -0.1014
  145DPPC   C3A 1735   1.461   0.154  17.497  0.0338  0.2000 -0.1338
  145DPPC   C4A 1736   1.862   0.010  17.770  0.1143  0.1906 -0.3475
  145DPPC   C1B 1737   1.054  -0.056  16.956 -0.1242  0.1309  0.2417
  145DPPC   C2B 1738   1.099  -0.199  17.394 -0.0917 -0.1850  0.3137
  145DPPC   C3B 1739   1.077  -0.231  17.841  0.3205 -0.1001 -0.0570
  145DPPC   C4B 1740   1.202  -0.130  18.287  0.0488 -0.2035 -0.1832
  146DPPC   NC3 1741   7.881   3.751  17.229 -0.3388  0.0953  0.1294
  146DPPC   PO4 1742   8.163   4.022  17.291  0.0776 -0.1397  0.0266
  146DPPC   GL1 1743   7.970   4.180  17.709  0.2445 -0.0067  0.0070
  146DPPC   GL2 1744   7.750   4.014  17.542 -0.0994 -0.1497 -0.2109
  146DPPC   C1A 1745   7.740   4.074  17.955 -0.1449 -0.0196 -0.2180
  146DPPC   C2A 1746   7.483   4.088  18.291  0.5820 -0.2271 -0.2402
  146DPPC   C3A 1747   7.141   4.264  18.610 -0.1188  0.0702 -0.2602
  146DPPC   C4A 1748   6.892   4.243  19.069  0.2910 -0.0441  0.0921
  146DPPC   C1B 1749   7.417   4.156  17.595 -0.0687  0.1201  0.3798
  146DPPC   C2B 1750   7.147   4.308  17.862  0.0703  0.0617  0.2927
  146DPPC   C3B 1751   6.854   4.341  18.205  0.1507  0.2016 -0.1505
  146DPPC   C4B 1752   6.597   4.362  18.676  0.2672 -0.0151  0.2625
  147DPPC   NC3 1753   9.189   4.815  18.101  0.0397  0.0122  0.1319
  147DPPC   PO4 1754   9.077   4.505  18.377  0.1810 -0.1597  0.0707
  147DPPC   GL1 1755   8.721   4.303  18.631  0.1202  0.0716  0.0575
  147DPPC   GL2 1756   8.583   4.475  18.398  0.1707  0.1232 -0.3904
  147DPPC   C1A 1757   8.466   4.426  18.864  0.1485  0.2827  0.1516
  147DPPC   C2A 1758   8.278   4.439  19.238 -0.2414  0.0111  0.0297
  147DPPC   C3A 1759   8.051   4.452  19.694 -0.1079 -0.0976  0.1705
  147DPPC   C4A 1760   7.673   4.427  20.054 -0.1111 -0.1992  0.1777
  147DPPC   C1B 1761   8.234   4.537  18.477 -0.0885  0.2863  0.2223
  147DPPC   C2B 1762   8.018   4.390  18.802 -0.2251 -0.2017  0.0997
  147DPPC   C3B 1763   7.764   4.555  19.232  0.0483 -0.1191 -0.0678
  147DPPC   C4B 1764   7.394   4.562  19.574  0.0554 -0.0255  0.0998
  148DPPC   NC3 1765   0.453   5.917  16.606 -0.2656  0.1735 -0.0703
  148DPPC   PO4 1766   0.198   5.967  16.884  0.1174 -0.0304  0.2760
  148DPPC   GL1 1767   0.237   5.810  17.178  0.0223  0.2720  0.2566
  148DPPC   GL2 1768  -0.031   5.823  17.358  0.4004  0.3240 -0.1723
  148DPPC   C1A 1769   0.435   5.629  17.408  0.1042 -0.0781 -0.2240
  148DPPC   C2A 1770   0.616   5.570  17.761 -0.0591  0.2299 -0.1328
  148DPPC   C3A 1771   0.891   5.536  18.174 -0.1029 -0.2087  0.2337
  148DPPC   C4A 1772   1.215   5.473  18.541 -0.1916  0.0170  0.0001
  148DPPC   C1B 1773   0.196   6.014  17.637  0.0698  0.2838  0.1969
  148DPPC   C2B 1774   0.608   6.071  17.794  0.0870  0.0848 -0.1591
  148DPPC   C3B 1775   0.884   6.012  18.177  0.2309 -0.0789  0.1821
  148DPPC   C4B 1776   1.152   6.014  18.582  0.0390 -0.3625  0.0637
  149DPPC   NC3 1777   0.060   4.891  16.910  0.1414 -0.2048  0.0248
  149DPPC   PO4 1778   0.337   4.856  16.627  0.1784 -0.0427 -0.0571
  149DPPC   GL1 1779   0.706   4.955  16.897 -0.1568  0.3605  0.1081
  149DPPC   GL2 1780   0.491   4.791  17.147 -0.0729  0.0103 -0.1510
  149DPPC   C1A 1781   0.913   5.187  17.086  0.0223  0.3295  0.1982
  149DPPC   C2A 1782   1.056   5.384  17.449 -0.0107  0.0060 -0.1250
  149DPPC   C3A 1783   1.276   5.472  17.904 -0.1525 -0.0718  0.0771
  149DPPC   C4A 1784   1.640   5.457  18.173  0.1000 -0.0656 -0.3254
  149DPPC   C1B 1785   0.737   4.614  17.376  0.1320 -0.0370  0.2125
  149DPPC   C2B 1786   0.978   4.646  17.688 -0.0302  0.1519 -0.0798
  149DPPC   C3B 1787   1.395   4.572  17.945 -0.2548  0.0238  0.0609
  149DPPC   C4B 1788   1.605   4.530  18.347  0.1235 -0.0306 -0.0797
  150DPPC   NC3 1789   8.027   1.731  17.494  0.1213 -0.0287  0.0543
  150DPPC   PO4 1790   8.144   2.065  17.648 -0.1607 -0.0378 -0.1157
  150DPPC   GL1 1791   7.907   2.206  18.000  0.1099  0.0166  0.0613
  150DPPC   GL2 1792   7.815   2.407  17.756 -0.0889 -0.1893 -0.2002
  150DPPC   C1A 1793   7.771   2.034  18.269 -0.1776  0.2330  0.3115
  150DPPC   C2A 1794   7.625   1.980  18.646  0.0713  0.1194  0.1949
  150DPPC   C3A 1795   7.376   1.957  19.031  0.2136 -0.1374 -0.0534
  150DPPC   C4A 1796   7.034   1.978  19.408 -0.1689 -0.0011  0.1299
  150DPPC   C1B 1797   7.482   2.436  17.951  0.1007 -0.0575 -0.3364
  150DPPC   C2B 1798   7.156   2.483  18.261  0.2802  0.1574  0.1796
  150DPPC   C3B 1799   6.849   2.529  18.691 -0.2094 -0.1168  0.2872
  150DPPC   C4B 1800   6.509   2.476  19.110  0.0052  0.2247 -0.1007
  151DPPC   NC3 1801   0.924   2.523  16.312 -0.2041 -0.0645 -0.2393
  151DPPC   PO4 1802   0.579   2.565  16.444 -0.2900  0.1458 -0.0872
  151DPPC   GL1 1803   0.462   2.696  16.877 -0.1691 -0.1026 -0.2844
  151DPPC   GL2 1804   0.740   2.538  16.963  0.2049  0.0989  0.3384
  151DPPC   C1A 1805   0.379   2.467  17.161 -0.1638 -0.1334 -0.0370
  151DPPC   C2A 1806   0.593   2.415  17.520  0.0896 -0.0543 -0.1168
  151DPPC   C3A 1807   0.821   2.391  17.940 -0.1528  0.2509  0.4069
  151DPPC   C4A 1808   1.165   2.304  18.268  0.0520  0.4064  0.0352
  151DPPC   C1B 1809   0.971   2.381  17.236  0.2439 -0.0911  0.4212
  151DPPC   C2B 1810   1.132   2.037  17.409 -0.0762  0.4008 -0.2182
  151DPPC   C3B 1811   1.459   1.751  17.699 -0.2016  0.1795  0.1201
  151DPPC   C4B 1812   1.574   1.484  18.026  0.0431 -0.1148  0.3409
  152DPPC   NC3 1813   2.024   6.214  16.051 -0.1831  0.0158  0.0666
  152DPPC   PO4 1814   1.693   6.381  16.107 -0.0147 -0.0126  0.0748
  152DPPC   GL1 1815   1.889   6.527  16.385  0.2535 -0.1377  0.1310
  152DPPC   GL2 1816   1.823   6.300  16.625  0.2545  0.0996 -0.1361
  152DPPC   C1A 1817   2.280   6.609  16.418  0.1506  0.0377 -0.4297
  152DPPC   C2A 1818   2.692   6.549  16.375  0.0539  0.2999  0.0298
  152DPPC   C3A 1819   3.087   6.212  16.396  0.1436 -0.0998 -0.0566
  152DPPC   C4A 1820   3.295   5.830  16.619  0.0697  0.1274  0.2483
  152DPPC   C1B 1821   2.007   6.510  16.855 -0.2194 -0.3292  0.3198
  152DPPC   C2B 1822   2.217   6.834  16.869 -0.2005 -0.0146 -0.0958
  152DPPC   C3B 1823   2.550   7.148  16.745  0.1667  0.1749  0.0041
  152DPPC   C4B 1824   2.631   7.544  16.441  0.2481  0.2536 -0.1202
  153DPPC   NC3 1825   9.088   6.345  18.819  0.0050  0.0544  0.1736
  153DPPC   PO4 1826   9.144   5.954  18.930 -0.0224 -0.2485  0.0577
  153DPPC   GL1 1827   8.773   5.872  19.141  0.0297  0.0677 -0.1496
  153DPPC   GL2 1828   8.742   6.163  19.206  0.1843  0.1968  0.1362
  153DPPC   C1A 1829   8.668   5.630  19.469  0.0068 -0.0151  0.2813
  153DPPC   C2A 1830   8.501   5.689  19.818  0.1829 -0.0754 -0.2057
  153DPPC   C3A 1831   8.278   5.776  20.228 -0.0676  0.0874  0.0245
  153DPPC   C4A 1832   7.973   5.735  20.703  0.2625 -0.1511 -0.1257
  153DPPC   C1B 1833   8.456   6.124  19.437 -0.3046 -0.1556  0.1439
  153DPPC   C2B 1834   8.348   6.189  19.809 -0.1062 -0.2892 -0.0635
  153DPPC   C3B 1835   8.106   6.250  20.190  0.1359  0.1659 -0.1177
  153DPPC   C4B 1836   7.758   6.200  20.554 -0.1262 -0.3123 -0.0753
  154DPPC   NC3 1837   8.680   2.105  17.662 -0.0315  0.0357  0.0422
  154DPPC   PO4 1838   8.472   2.339  17.892  0.0022 -0.0717 -0.1379
  154DPPC   GL1 1839   8.228   2.571  18.053 -0.3094  0.2155  0.2930
  154DPPC   GL2 1840   8.234   2.300  18.278 -0.3228  0.1450 -0.0917
  154DPPC   C1A 1841   7.863   2.587  18.135 -0.3275  0.0011  0.1268
  154DPPC   C2A 1842   7.644   2.472  18.452 -0.0993  0.0267 -0.1480
  154DPPC   C3A 1843   7.365   2.470  18.826 -0.0369 -0.2005  0.0594
  154DPPC   C4A 1844   7.027   2.467  19.170 -0.3350  0.2207 -0.0257
  154DPPC   C1B 1845   8.132   2.465  18.595  0.3511  0.0704  0.2819
  154DPPC   C2B 1846   7.898   2.420  18.953  0.0898  0.2216  0.0624
  154DPPC   C3B 1847   7.608   2.371  19.289 -0.1001  0.3856  0.2350
  154DPPC   C4B 1848   7.291   2.391  19.586 -0.3596  0.0458  0.0495
  155DPPC   NC3 1849  20.239   2.062  17.695 -0.1188 -0.2785  0.1515
  155DPPC   PO4 1850  20.625   2.040  17.773  0.1091  0.2975  0.2353
  155DPPC   GL1 1851  20.774   2.203  18.137  0.1824  0.2458  0.0814
  155DPPC   GL2 1852  21.005   2.104  18.005 -0.0400  0.1676  0.1395
  155DPPC   C1A 1853  20.777   2.141  18.489  0.4085 -0.1358  0.1707
  155DPPC   C2A 1854  21.033   2.255  18.744 -0.0004  0.2758  0.0555
  155DPPC   C3A 1855  21.326   2.286  19.111  0.1512 -0.0921  0.0555
  155DPPC   C4A 1856  21.659   2.247  19.432  0.0340 -0.0954  0.0688
  155DPPC   C1B 1857  21.200   2.178  18.281 -0.0121  0.2122 -0.2124
  155DPPC   C2B 1858  21.481   2.174  18.520 -0.2064 -0.0524  0.0473
  155DPPC   C3B 1859  21.758   2.154  18.856 -0.2620  0.1211 -0.2298
  155DPPC   C4B 1860  22.053   2.089  19.208  0.2403  0.0567  0.2099
  156DPPC   NC3 1861   8.480   5.688  18.464 -0.1175 -0.3055  0.2559
  156DPPC   PO4 1862   8.445   6.105  18.318  0.2184 -0.0821  0.1841
  156DPPC   GL1 1863   8.266   6.342  18.534  0.0571  0.0397  0.1517
  156DPPC   GL2 1864   8.198   6.535  18.416 -0.0759 -0.1944  0.2040
  156DPPC   C1A 1865   8.131   6.332  18.902 -0.0970  0.2569 -0.2063
  156DPPC   C2A 1866   8.049   6.276  19.339  0.0874  0.2326  0.2338
  156DPPC   C3A 1867   7.786   6.262  19.781  0.3015 -0.1730  0.0537
  156DPPC   C4A 1868   7.486   6.236  20.134 -0.1195 -0.0159 -0.1839
  156DPPC   C1B 1869   8.125   6.774  18.703 -0.2763  0.1266 -0.2448
  156DPPC   C2B 1870   8.006   6.716  19.071  0.1620 -0.1955  0.1433
  156DPPC   C3B 1871   7.802   6.774  19.524  0.1807  0.0368  0.2664
  156DPPC   C4B 1872   7.453   6.737  19.884  0.2063 -0.0917  0.1818
  157DPPC   NC3 1873   8.088   3.252  17.652 -0.0499 -0.1131  0.0821
  157DPPC   PO4 1874   8.058   3.657  17.644  0.3787  0.2708  0.0916
  157DPPC   GL1 1875   8.061   3.834  18.101  0.0431  0.0890 -0.1117
  157DPPC   GL2 1876   7.949   3.587  18.061 -0.1289  0.2020 -0.0499
  157DPPC   C1A 1877   7.904   4.076  18.425 -0.0482  0.0444  0.3070
  157DPPC   C2A 1878   7.605   4.115  18.756 -0.2629  0.1457  0.2135
  157DPPC   C3A 1879   7.389   4.185  19.126  0.0825  0.0402 -0.1082
  157DPPC   C4A 1880   7.137   4.116  19.536  0.1464  0.0912 -0.0532
  157DPPC   C1B 1881   7.615   3.668  18.189 -0.2668  0.2684 -0.0537
  157DPPC   C2B 1882   7.382   3.682  18.549 -0.0385  0.0805  0.1780
  157DPPC   C3B 1883   7.100   3.776  18.941  0.2854  0.1114  0.1362
  157DPPC   C4B 1884   6.832   3.777  19.328  0.2341  0.0154  0.0640
  158DPPC   NC3 1885   4.453   2.408  16.355 -0.0360 -0.0973 -0.1025
  158DPPC   PO4 1886   4.279   2.615  16.044 -0.1527 -0.2757  0.0675
  158DPPC   GL1 1887   3.955   2.785  16.214 -0.3382  0.1129 -0.4395
  158DPPC   GL2 1888   3.851   2.604  16.289  0.2269 -0.0849 -0.1106
  158DPPC   C1A 1889   3.923   3.069  16.485  0.0412  0.1781  0.1328
  158DPPC   C2A 1890   3.745   3.141  16.841  0.0394 -0.1762 -0.0420
  158DPPC   C3A 1891   3.515   3.083  17.303 -0.2739 -0.2479 -0.1677
  158DPPC   C4A 1892   3.373   3.108  17.762 -0.1875 -0.2426  0.2053
  158DPPC   C1B 1893   3.622   2.682  16.607  0.0156 -0.2600 -0.0527
  158DPPC   C2B 1894   3.378   2.767  16.942 -0.1546 -0.2521  0.2919
  158DPPC   C3B 1895   3.043   3.135  17.145 -0.0351  0.2545 -0.2484
  158DPPC   C4B 1896   2.905   3.563  17.038  0.0912 -0.2427  0.0759
  159DPPC   NC3 1897  20.274   1.189  17.439  0.1116 -0.0441  0.3754
  159DPPC   PO4 1898  20.655   1.228  17.622  0.1050  0.0977  0.0704
  159DPPC   GL1 1899  20.961   0.946  17.862 -0.0912  0.1037  0.0851
  159DPPC   GL2 1900  20.847   1.085  18.080 -0.3376 -0.1471 -0.1927
  159DPPC   C1A 1901  21.189   0.786  18.066 -0.0106 -0.4741 -0.0891
  159DPPC   C2A 1902  21.452   0.748  18.406 -0.2215 -0.2960  0.2743
  159DPPC   C3A 1903  21.716   0.824  18.787  0.1196  0.1132  0.1602
  159DPPC   C4A 1904  22.070   0.737  19.130  0.2382  0.1844  0.1742
  159DPPC   C1B 1905  21.142   1.126  18.351 -0.0178 -0.0869 -0.1423
  159DPPC   C2B 1906  21.336   1.225  18.673 -0.1652  0.1562  0.1191
  159DPPC   C3B 1907  21.643   1.289  19.053 -0.2385 -0.1467  0.4048
  159DPPC   C4B 1908  21.960   1.218  19.433  0.1145  0.2486  0.0026
  160DPPC   NC3 1909   1.187   2.238  15.808  0.2233  0.0382  0.0465
  160DPPC   PO4 1910   1.316   2.606  15.968  0.0843 -0.1425 -0.0837
  160DPPC   GL1 1911   1.525   2.722  16.376 -0.2235  0.0665 -0.0222
  160DPPC   GL2 1912   1.629   2.921  16.264  0.1804  0.0984  0.2413
  160DPPC   C1A 1913   1.489   2.495  16.674 -0.2238 -0.3958  0.1107
  160DPPC   C2A 1914   1.580   2.149  16.865 -0.0618  0.2819  0.1182
  160DPPC   C3A 1915   1.576   1.891  17.196 -0.0661 -0.1298  0.1120
  160DPPC   C4A 1916   1.611   1.401  17.318  0.1959  0.1367  0.0987
  160DPPC   C1B 1917   1.898   3.074  16.428  0.0205  0.1685  0.0700
  160DPPC   C2B 1918   2.024   3.229  16.746  0.1391 -0.2848  0.3619
  160DPPC   C3B 1919   1.719   3.228  17.153 -0.0258  0.1482  0.0025
  160DPPC   C4B 1920   1.496   2.987  17.535 -0.0987  0.0879  0.1459
  161DPPC   NC3 1921   5.321   1.993  16.029  0.0753  0.1682  0.2542
  161DPPC   PO4 1922   5.217   2.349  16.103  0.1615 -0.1771  0.2880
  161DPPC   GL1 1923   5.129   2.458  16.488 -0.0646  0.2630  0.0881
  161DPPC   GL2 1924   4.888   2.592  16.489  0.2353  0.0912 -0.2163
  161DPPC   C1A 1925   5.356   2.528  16.733  0.4035  0.0939  0.1895
  161DPPC   C2A 1926   5.598   2.263  16.976 -0.1400  0.3249  0.0143
  161DPPC   C3A 1927   5.645   1.938  17.336 -0.3693 -0.1051 -0.1358
  161DPPC   C4A 1928   5.641   1.496  17.571 -0.2773 -0.1485  0.0058
  161DPPC   C1B 1929   4.653   2.523  16.724  0.0587 -0.2039  0.0219
  161DPPC   C2B 1930   4.439   2.514  17.092 -0.0239  0.1165 -0.0536
  161DPPC   C3B 1931   4.246   2.541  17.504 -0.0517  0.0782  0.1310
  161DPPC   C4B 1932   3.943   2.563  17.934  0.0858 -0.4531  0.1084
  162DPPC   NC3 1933   2.655   5.673  15.419 -0.1441 -0.1467  0.1842
  162DPPC   PO4 1934   2.594   5.453  15.760  0.0451 -0.0063 -0.2611
  162DPPC   GL1 1935   2.573   5.695  16.113  0.2908  0.2714  0.0639
  162DPPC   GL2 1936   2.881   5.593  16.113  0.0102 -0.3007 -0.0812
  162DPPC   C1A 1937   2.580   5.657  16.468 -0.2356 -0.1023 -0.0441
  162DPPC   C2A 1938   2.854   5.830  16.740 -0.2919 -0.1228  0.2793
  162DPPC   C3A 1939   3.021   6.246  16.883 -0.1334 -0.0597  0.0106
  162DPPC   C4A 1940   3.208   6.644  17.118  0.1925  0.1421  0.1309
  162DPPC   C1B 1941   2.943   5.413  16.460 -0.0284 -0.2143 -0.3624
  162DPPC   C2B 1942   2.802   5.335  16.886 -0.3488  0.1173 -0.1221
  162DPPC   C3B 1943   2.515   5.185  17.150  0.1453  0.4502 -0.3352
  162DPPC   C4B 1944   2.177   5.029  17.460  0.1329  0.0974  0.0080
  163DPPC   NC3 1945   4.972   5.417  16.876 -0.2865  0.0475  0.0275
  163DPPC   PO4 1946   5.168   5.147  16.702  0.1300  0.0694  0.3989
  163DPPC   GL1 1947   5.123   4.722  16.741  0.2167  0.2080 -0.0618
  163DPPC   GL2 1948   4.908   4.807  16.650  0.4512  0.3208  0.0818
  163DPPC   C1A 1949   5.209   4.579  17.081 -0.0143  0.1274  0.3039
  163DPPC   C2A 1950   5.465   4.458  17.406  0.2918  0.0922  0.0247
  163DPPC   C3A 1951   5.775   4.429  17.711  0.0922 -0.1188  0.0948
  163DPPC   C4A 1952   6.086   4.736  17.917 -0.1023  0.1251 -0.2104
  163DPPC   C1B 1953   4.633   4.774  16.882  0.3375  0.3056 -0.1673
  163DPPC   C2B 1954   4.501   4.700  17.222  0.1670  0.1865 -0.2303
  163DPPC   C3B 1955   4.263   4.624  17.672 -0.0427  0.0742  0.0238
  163DPPC   C4B 1956   3.994   4.558  18.046 -0.0217  0.0986  0.2232
  164DPPC   NC3 1957   3.484   1.990  15.845 -0.0199  0.0402 -0.0011
  164DPPC   PO4 1958   3.623   2.170  15.556  0.1930 -0.3054  0.1166
  164DPPC   GL1 1959   3.558   2.508  15.789  0.4029 -0.2685 -0.4148
  164DPPC   GL2 1960   3.335   2.425  15.862  0.3345 -0.0979 -0.3713
  164DPPC   C1A 1961   3.514   2.797  16.045  0.1266  0.3134  0.2959
  164DPPC   C2A 1962   3.424   3.078  16.294  0.1390  0.1700 -0.4888
  164DPPC   C3A 1963   3.150   3.153  16.675 -0.2829  0.0072  0.0049
  164DPPC   C4A 1964   2.733   3.255  16.729 -0.2453 -0.1220 -0.2206
  164DPPC   C1B 1965   3.305   2.389  16.189 -0.3569  0.0647  0.0545
  164DPPC   C2B 1966   3.157   2.558  16.485  0.1695  0.2979  0.0817
  164DPPC   C3B 1967   2.882   2.735  16.841  0.0026  0.1777 -0.1319
  164DPPC   C4B 1968   2.521   2.851  17.189  0.0553 -0.2741 -0.0671
  165DPPC   NC3 1969   7.951   2.460  17.345  0.2277 -0.1685  0.1629
  165DPPC   PO4 1970   7.846   2.112  17.209 -0.3284 -0.1490  0.1602
  165DPPC   GL1 1971   7.643   2.026  17.527 -0.1885 -0.0297 -0.4708
  165DPPC   GL2 1972   7.540   1.749  17.425 -0.0040 -0.0716 -0.3965
  165DPPC   C1A 1973   7.564   2.053  17.855  0.1475  0.0371  0.0075
  165DPPC   C2A 1974   7.356   2.043  18.159  0.2966 -0.2861 -0.1912
  165DPPC   C3A 1975   7.117   2.066  18.558  0.0611 -0.2465 -0.0893
  165DPPC   C4A 1976   6.820   2.058  18.951 -0.3456  0.0327  0.3313
  165DPPC   C1B 1977   7.344   1.692  17.702 -0.0164  0.0664 -0.3841
  165DPPC   C2B 1978   7.069   1.632  18.037  0.0223 -0.0235  0.3913
  165DPPC   C3B 1979   6.752   1.644  18.438  0.0174 -0.0480  0.2544
  165DPPC   C4B 1980   6.488   1.697  18.821 -0.0054 -0.0722 -0.0269
  166DPPC   NC3 1981   1.593   4.693  15.876  0.0219  0.0275 -0.0304
  166DPPC   PO4 1982   1.597   5.039  16.075  0.0506 -0.0907  0.1394
  166DPPC   GL1 1983   1.676   5.288  16.407 -0.2470  0.1315 -0.3962
  166DPPC   GL2 1984   1.944   5.218  16.469  0.1488  0.2576 -0.1841
  166DPPC   C1A 1985   1.517   5.519  16.620 -0.1480  0.1378 -0.2625
  166DPPC   C2A 1986   1.617   5.913  16.794 -0.1703 -0.0326 -0.0951
  166DPPC   C3A 1987   1.581   6.335  17.015  0.2593  0.3137 -0.1567
  166DPPC   C4A 1988   1.455   6.802  16.965  0.4779  0.2841  0.1017
  166DPPC   C1B 1989   2.106   4.881  16.439 -0.0765 -0.1918 -0.1392
  166DPPC   C2B 1990   2.182   4.541  16.669  0.0758 -0.1868 -0.1450
  166DPPC   C3B 1991   2.193   4.264  17.072  0.0913 -0.1147  0.2195
  166DPPC   C4B 1992   1.994   3.824  17.121  0.0169  0.2920  0.0014
  167DPPC   NC3 1993   7.800   3.664  16.612  0.0694 -0.2331  0.0422
  167DPPC   PO4 1994   7.477   3.747  16.787 -0.1790 -0.0022 -0.1587
  167DPPC   GL1 1995   7.197   3.536  16.919 -0.0719 -0.1084  0.1141
  167DPPC   GL2 1996   7.326   3.397  17.178 -0.2112  0.1907 -0.0094
  167DPPC   C1A 1997   6.853   3.601  16.873  0.3942 -0.2915 -0.2791
  167DPPC   C2A 1998   6.457   3.598  16.969 -0.1024  0.2395 -0.0929
  167DPPC   C3A 1999   6.045   3.735  17.069 -0.1571  0.0622 -0.1100
  167DPPC   C4A 2000   5.671   4.021  17.338  0.0893  0.0195 -0.1626
  167DPPC   C1B 2001   7.165   3.299  17.457 -0.2144 -0.2050 -0.1490
  167DPPC   C2B 2002   6.954   3.335  17.819  0.0025  0.3507  0.2487
  167DPPC   C3B 2003   6.652   3.444  18.172  0.2147 -0.3888 -0.1452
  167DPPC   C4B 2004   6.418   3.397  18.650 -0.2141 -0.2196  0.1131
  168DPPC   NC3 2005   8.995   3.991  18.477 -0.0273  0.1073 -0.1197
  168DPPC   PO4 2006   8.879   3.730  18.210 -0.1898 -0.1226 -0.1664
  168DPPC   GL1 2007   8.565   3.654  18.504  0.0216 -0.1310 -0.1130
  168DPPC   GL2 2008   8.541   3.406  18.480  0.2660 -0.0004 -0.2432
  168DPPC   C1A 2009   8.349   3.798  18.690 -0.3832 -0.2125 -0.0437
  168DPPC   C2A 2010   8.178   3.972  19.030 -0.1777  0.3488  0.0525
  168DPPC   C3A 2011   7.780   4.049  19.383 -0.0718 -0.1158 -0.0477
  168DPPC   C4A 2012   7.543   3.979  19.826  0.2250 -0.0497  0.4132
  168DPPC   C1B 2013   8.298   3.349  18.713 -0.3497 -0.3722  0.1068
  168DPPC   C2B 2014   7.926   3.301  18.904 -0.0757 -0.1756  0.2103
  168DPPC   C3B 2015   7.618   3.237  19.319 -0.0548  0.1048  0.0442
  168DPPC   C4B 2016   7.416   3.267  19.774 -0.1097  0.0317  0.1018
  169DPPC   NC3 2017   7.699   0.672  16.723  0.2597 -0.0463 -0.0971
  169DPPC   PO4 2018   7.534   0.771  17.063 -0.1051  0.0254 -0.1624
  169DPPC   GL1 2019   7.288   0.753  17.333 -0.1832 -0.2137  0.0773
  169DPPC   GL2 2020   7.195   0.498  17.297  0.0838  0.2329 -0.0236
  169DPPC   C1A 2021   7.252   0.813  17.736 -0.2598 -0.0363 -0.0282
  169DPPC   C2A 2022   7.222   0.814  18.106  0.2036 -0.0247 -0.2576
  169DPPC   C3A 2023   6.970   0.754  18.538  0.0875 -0.1604 -0.2033
  169DPPC   C4A 2024   6.728   0.777  19.013  0.1803  0.1774 -0.0398
  169DPPC   C1B 2025   7.050   0.318  17.552 -0.2005  0.4475 -0.0521
  169DPPC   C2B 2026   6.911   0.357  17.967 -0.2014  0.0809 -0.3264
  169DPPC   C3B 2027   6.679   0.372  18.429  0.1347  0.2387  0.0282
  169DPPC   C4B 2028   6.442   0.353  18.883 -0.2220 -0.0286  0.1547
  170DPPC   NC3 2029   1.780   3.671  16.162  0.2599 -0.1726  0.0391
  170DPPC   PO4 2030   1.447   3.456  16.277  0.2573  0.1127 -0.1748
  170DPPC   GL1 2031   1.408   3.391  16.628  0.1138  0.5744 -0.2584
  170DPPC   GL2 2032   1.048   3.291  16.694  0.0938 -0.0955 -0.1168
  170DPPC   C1A 2033   1.478   3.056  16.756  0.0688  0.1416 -0.3297
  170DPPC   C2A 2034   1.533   2.789  17.057  0.0498  0.0867 -0.0421
  170DPPC   C3A 2035   1.416   2.462  17.429 -0.1617 -0.1192  0.0941
  170DPPC   C4A 2036   1.493   2.231  17.838  0.1160  0.1993 -0.2010
  170DPPC   C1B 2037   0.989   3.551  16.944  0.2015  0.0326  0.0911
  170DPPC   C2B 2038   1.040   3.746  17.330 -0.0694  0.2962  0.1862
  170DPPC   C3B 2039   1.257   4.012  17.631 -0.1026 -0.0353  0.0419
  170DPPC   C4B 2040   1.649   4.149  17.908 -0.0920 -0.0408 -0.0738
  171DPPC   NC3 2041   1.402   0.932  16.004  0.3821  0.1391  0.1205
  171DPPC   PO4 2042   1.503   1.318  16.144 -0.1416  0.2024 -0.1785
  171DPPC   GL1 2043   1.674   1.395  16.601  0.3350  0.1816  0.1332
  171DPPC   GL2 2044   1.883   1.287  16.499  0.1574 -0.0644 -0.3903
  171DPPC   C1A 2045   1.867   1.416  16.932 -0.1767  0.0725 -0.0481
  171DPPC   C2A 2046   2.091   1.611  17.249  0.0495  0.1945  0.1567
  171DPPC   C3A 2047   2.369   1.655  17.611 -0.1827 -0.1013 -0.1072
  171DPPC   C4A 2048   2.509   1.740  18.063 -0.0381 -0.2465 -0.3643
  171DPPC   C1B 2049   2.085   1.095  16.746 -0.6640  0.1145 -0.0340
  171DPPC   C2B 2050   2.462   1.038  16.894 -0.2094 -0.2018 -0.0606
  171DPPC   C3B 2051   2.873   0.953  17.075  0.1990  0.1500 -0.1465
  171DPPC   C4B 2052   3.210   0.992  17.445  0.4049 -0.2199 -0.2826
  172DPPC   NC3 2053   1.796   1.588  15.706  0.3703  0.3065  0.1680
  172DPPC   PO4 2054   2.071   1.889  15.788 -0.1352  0.0768  0.0692
  172DPPC   GL1 2055   2.220   1.948  16.156 -0.2174 -0.2352  0.0473
  172DPPC   GL2 2056   2.244   2.181  16.203 -0.2153  0.1556  0.2093
  172DPPC   C1A 2057   2.258   1.697  16.402  0.2142 -0.3273 -0.2477
  172DPPC   C2A 2058   2.285   1.564  16.788 -0.0474  0.1431  0.2798
  172DPPC   C3A 2059   2.669   1.475  17.096 -0.0027 -0.2033  0.0183
  172DPPC   C4A 2060   2.942   1.525  17.496  0.0614 -0.0349  0.0943
  172DPPC   C1B 2061   2.210   2.166  16.583  0.0074  0.4664 -0.1494
  172DPPC   C2B 2062   2.076   2.098  16.994  0.0959  0.0117 -0.1629
  172DPPC   C3B 2063   2.004   2.051  17.518 -0.0179  0.1692 -0.2553
  172DPPC   C4B 2064   2.038   1.886  17.983 -0.1542 -0.1941 -0.0630
  173DPPC   NC3 2065   9.055   4.514  18.859  0.0079  0.2302  0.4592
  173DPPC   PO4 2066   9.110   4.134  18.918 -0.0213  0.0603 -0.1918
  173DPPC   GL1 2067   8.763   4.185  19.061 -0.1311  0.0051 -0.0276
  173DPPC   GL2 2068   8.759   4.415  19.252 -0.1460 -0.1757  0.0992
  173DPPC   C1A 2069   8.556   4.010  19.280 -0.0936  0.2491 -0.2260
  173DPPC   C2A 2070   8.283   4.020  19.582  0.1457 -0.0500  0.0796
  173DPPC   C3A 2071   8.018   3.990  19.985  0.1131  0.1290  0.1979
  173DPPC   C4A 2072   7.757   4.025  20.358  0.2677 -0.0073  0.2308
  173DPPC   C1B 2073   8.594   4.359  19.605  0.0414  0.2394 -0.1881
  173DPPC   C2B 2074   8.444   4.331  19.987  0.2141 -0.2423  0.1879
  173DPPC   C3B 2075   8.152   4.328  20.383 -0.1506 -0.1603 -0.1828
  173DPPC   C4B 2076   7.872   4.325  20.824  0.0154  0.1353 -0.2083
  174DPPC   NC3 2077   8.262   5.202  18.331 -0.0000 -0.2113 -0.0861
  174DPPC   PO4 2078   8.234   5.464  18.010  0.0971  0.0418 -0.1004
  174DPPC   GL1 2079   8.075   5.815  18.260  0.2994 -0.4578 -0.1140
  174DPPC   GL2 2080   7.919   5.543  18.247  0.0002 -0.0944  0.1213
  174DPPC   C1A 2081   8.027   5.792  18.617  0.0476 -0.1853 -0.0327
  174DPPC   C2A 2082   7.890   5.828  18.990 -0.0100 -0.1702 -0.1135
  174DPPC   C3A 2083   7.743   5.881  19.412 -0.1009  0.0521  0.2043
  174DPPC   C4A 2084   7.473   5.865  19.800 -0.0171  0.0581 -0.0290
  174DPPC   C1B 2085   7.800   5.419  18.566  0.1236  0.0416 -0.0708
  174DPPC   C2B 2086   7.570   5.457  18.821  0.0117 -0.1548  0.2232
  174DPPC   C3B 2087   7.238   5.509  19.233 -0.1295  0.3760 -0.0075
  174DPPC   C4B 2088   6.886   5.506  19.623  0.0750 -0.2816 -0.1278
  175DPPC   NC3 2089   7.416   4.829  16.429 -0.1454 -0.0166 -0.1541
  175DPPC   PO4 2090   7.058   4.958  16.559  0.2908  0.0099 -0.1732
  175DPPC   GL1 2091   7.191   4.893  17.017  0.1526  0.0690 -0.1541
  175DPPC   GL2 2092   7.034   4.634  16.960 -0.0527  0.2575 -0.1964
  175DPPC   C1A 2093   7.080   5.087  17.342  0.0477  0.0001 -0.5023
  175DPPC   C2A 2094   6.843   5.255  17.669 -0.3942 -0.1126  0.0389
  175DPPC   C3A 2095   6.610   5.282  18.105 -0.0025 -0.2206  0.0555
  175DPPC   C4A 2096   6.246   5.217  18.301 -0.0749 -0.0432 -0.2365
  175DPPC   C1B 2097   6.744   4.429  17.008  0.4693 -0.4620 -0.1915
  175DPPC   C2B 2098   6.435   4.307  17.233 -0.1564  0.0649 -0.1592
  175DPPC   C3B 2099   6.191   4.046  17.524  0.0158 -0.1665 -0.0816
  175DPPC   C4B 2100   5.908   3.881  17.902 -0.0330 -0.3193  0.0928
  176DPPC   NC3 2101   3.174   1.625  15.720  0.3509  0.2251  0.1565
  176DPPC   PO4 2102   2.978   1.379  15.924  0.1698  0.0598  0.1208
  176DPPC   GL1 2103   3.077   1.572  16.346 -0.2016  0.0400 -0.0265
  176DPPC   GL2 2104   3.240   1.769  16.217  0.2216  0.3613  0.0740
  176DPPC   C1A 2105   3.103   1.658  16.717  0.4117 -0.1881 -0.0317
  176DPPC   C2A 2106   3.050   1.809  17.063 -0.0565  0.2374 -0.1347
  176DPPC   C3A 2107   3.016   2.054  17.454  0.2386  0.0152  0.0137
  176DPPC   C4A 2108   2.939   1.884  17.946  0.1997 -0.1622 -0.1194
  176DPPC   C1B 2109   3.137   2.075  16.432 -0.0618 -0.0294 -0.2037
  176DPPC   C2B 2110   3.005   2.235  16.825  0.2437  0.1292  0.0138
  176DPPC   C3B 2111   2.877   2.441  17.201 -0.0328 -0.0467  0.2306
  176DPPC   C4B 2112   3.067   2.780  17.500  0.0685 -0.1853  0.2027
  177DPPC   NC3 2113   9.537   0.619  18.687 -0.0282 -0.2188 -0.3061
  177DPPC   PO4 2114   9.365   0.584  19.063  0.1309 -0.1274 -0.2533
  177DPPC   GL1 2115   9.142   0.643  19.367  0.2497 -0.1859 -0.0403
  177DPPC   GL2 2116   9.238   0.705  19.562 -0.2512  0.0026 -0.3151
  177DPPC   C1A 2117   8.773   0.679  19.485 -0.3789  0.1414  0.2035
  177DPPC   C2A 2118   8.516   0.912  19.675  0.0758  0.3311 -0.0359
  177DPPC   C3A 2119   8.171   0.920  20.062  0.0448  0.0701  0.1581
  177DPPC   C4A 2120   7.887   0.916  20.464  0.3637 -0.1157 -0.2528
  177DPPC   C1B 2121   9.037   0.660  19.858  0.4075 -0.0670  0.1956
  177DPPC   C2B 2122   8.748   0.816  20.142 -0.1823  0.1227  0.2651
  177DPPC   C3B 2123   8.542   0.819  20.572 -0.0782 -0.1471  0.3035
  177DPPC   C4B 2124   8.187   0.790  20.932  0.1693  0.0258 -0.1432
  178DPPC   NC3 2125   4.784   3.855  15.921  0.2090  0.1385  0.2388
  178DPPC   PO4 2126   4.668   4.141  16.168 -0.4260 -0.1908  0.1675
  178DPPC   GL1 2127   4.469   4.229  16.463  0.3470  0.0921  0.0010
  178DPPC   GL2 2128   4.567   4.338  16.606 -0.1181  0.1603 -0.0308
  178DPPC   C1A 2129   4.151   4.371  16.536  0.1670  0.0541 -0.1321
  178DPPC   C2A 2130   3.842   4.344  16.757  0.0557 -0.2495  0.0397
  178DPPC   C3A 2131   3.520   4.371  17.111 -0.0569  0.1263  0.1511
  178DPPC   C4A 2132   3.303   4.347  17.532  0.5279  0.1532  0.0998
  178DPPC   C1B 2133   4.315   4.365  16.921 -0.0916  0.2160 -0.1154
  178DPPC   C2B 2134   4.049   4.303  17.252 -0.2407 -0.3390 -0.1730
  178DPPC   C3B 2135   3.846   4.221  17.643 -0.0749 -0.0921 -0.1991
  178DPPC   C4B 2136   3.665   4.207  18.086  0.0240 -0.1968 -0.3378
  179DPPC   NC3 2137  20.997   5.652  16.960 -0.1060 -0.3271 -0.1249
  179DPPC   PO4 2138  20.919   5.279  17.080 -0.1579 -0.0905 -0.0334
  179DPPC   GL1 2139  21.324   5.077  17.366  0.0393  0.2130  0.0183
  179DPPC   GL2 2140  21.318   5.312  17.450  0.0745 -0.2462  0.0079
  179DPPC   C1A 2141  21.451   4.776  17.515 -0.4565  0.2168  0.2550
  179DPPC   C2A 2142  21.676   4.755  17.870  0.0530  0.2066  0.0770
  179DPPC   C3A 2143  22.008   4.749  18.205  0.0916  0.2327 -0.0846
  179DPPC   C4A 2144  22.294   4.728  18.530  0.0190  0.5610 -0.3247
  179DPPC   C1B 2145  21.445   5.250  17.759 -0.2317 -0.1557  0.2481
  179DPPC   C2B 2146  21.659   5.197  18.107 -0.0133  0.0232 -0.1090
  179DPPC   C3B 2147  21.944   5.183  18.499 -0.1042  0.3595  0.2669
  179DPPC   C4B 2148  22.213   5.131  18.921 -0.3909  0.2252  0.3136
  180DPPC   NC3 2149   7.040   2.722  16.242  0.1776  0.0761 -0.0271
  180DPPC   PO4 2150   7.240   2.627  16.584 -0.3732  0.2828 -0.2943
  180DPPC   GL1 2151   7.223   2.729  17.030 -0.2547 -0.0961 -0.1467
  180DPPC   GL2 2152   7.111   2.397  17.092 -0.1102  0.2828 -0.1397
  180DPPC   C1A 2153   7.002   2.768  17.346  0.0471 -0.0426 -0.1165
  180DPPC   C2A 2154   6.769   2.751  17.702 -0.1323 -0.1123  0.2544
  180DPPC   C3A 2155   6.648   2.541  18.146 -0.1390 -0.0816 -0.0701
  180DPPC   C4A 2156   6.366   2.584  18.527  0.0848  0.1965 -0.0046
  180DPPC   C1B 2157   6.812   2.326  17.324  0.1662 -0.1259  0.3768
  180DPPC   C2B 2158   6.581   2.136  17.648  0.0932  0.0531  0.2550
  180DPPC   C3B 2159   6.335   2.090  18.073  0.1704  0.1041 -0.3827
  180DPPC   C4B 2160   5.998   2.151  18.461  0.0933  0.1843 -0.1468
  181DPPC   NC3 2161   9.116   1.737  19.390  0.1892  0.2840  0.1804
  181DPPC   PO4 2162   8.881   1.547  19.124  0.2922 -0.3590 -0.2543
  181DPPC   GL1 2163   8.616   1.729  19.192 -0.2505 -0.0105  0.3388
  181DPPC   GL2 2164   8.473   1.850  18.967  0.0437 -0.0979 -0.1264
  181DPPC   C1A 2165   8.410   1.866  19.430  0.1310  0.3299 -0.0282
  181DPPC   C2A 2166   8.107   1.856  19.731 -0.0654  0.2060  0.2353
  181DPPC   C3A 2167   7.770   1.854  20.058  0.0991  0.1599 -0.0980
  181DPPC   C4A 2168   7.450   1.890  20.403  0.2162  0.2105  0.0765
  181DPPC   C1B 2169   8.338   2.161  19.113  0.0946  0.2802  0.1675
  181DPPC   C2B 2170   8.114   2.279  19.409  0.3074  0.2527 -0.2193
  181DPPC   C3B 2171   7.813   2.304  19.739  0.1505 -0.2094  0.0394
  181DPPC   C4B 2172   7.494   2.296  20.097 -0.3738  0.0210  0.1173
  182DPPC   NC3 2173   4.369   4.840  15.907  0.2713 -0.1403  0.2251
  182DPPC   PO4 2174   4.577   5.128  16.084 -0.0291 -0.1454 -0.0381
  182DPPC   GL1 2175   4.675   5.126  16.510 -0.0867 -0.3229 -0.0416
  182DPPC   GL2 2176   4.789   5.366  16.460  0.0975  0.1341  0.0425
  182DPPC   C1A 2177   4.500   5.179  16.848  0.1665 -0.0172  0.3824
  182DPPC   C2A 2178   4.276   5.196  17.210 -0.1164  0.0162 -0.2072
  182DPPC   C3A 2179   4.044   5.112  17.711 -0.2612  0.0934  0.3645
  182DPPC   C4A 2180   3.828   5.019  18.119 -0.1607  0.1555 -0.2414
  182DPPC   C1B 2181   4.605   5.569  16.702  0.0719 -0.3114  0.1124
  182DPPC   C2B 2182   4.230   5.774  16.778 -0.1171  0.1190 -0.0148
  182DPPC   C3B 2183   3.883   6.000  17.032 -0.5772 -0.0501  0.0784
  182DPPC   C4B 2184   3.421   6.149  17.212 -0.0780 -0.1574 -0.0031
  183DPPC   NC3 2185   6.333   3.808  16.156  0.1146  0.1433  0.0344
  183DPPC   PO4 2186   6.629   4.054  16.329  0.0450 -0.0708  0.1778
  183DPPC   GL1 2187   6.648   4.109  16.736 -0.0748  0.1388 -0.0662
  183DPPC   GL2 2188   6.359   4.041  16.689 -0.0725 -0.1643 -0.0693
  183DPPC   C1A 2189   6.802   3.991  17.080  0.0948  0.2650 -0.2023
  183DPPC   C2A 2190   6.898   3.643  17.335 -0.1962 -0.0137  0.1775
  183DPPC   C3A 2191   6.809   3.120  17.203  0.0657 -0.1604  0.3196
  183DPPC   C4A 2192   6.718   2.638  16.992 -0.2018  0.0313  0.1979
  183DPPC   C1B 2193   6.138   4.180  16.928  0.0497  0.0014 -0.1227
  183DPPC   C2B 2194   5.941   4.395  17.226  0.1537  0.1663  0.0264
  183DPPC   C3B 2195   6.195   4.669  17.464  0.1688  0.0320  0.2133
  183DPPC   C4B 2196   6.418   5.028  17.725  0.0804  0.0614  0.1740
  184DPPC   NC3 2197   3.653   5.807  15.761 -0.0230 -0.2110  0.0507
  184DPPC   PO4 2198   4.029   5.767  15.917  0.1184 -0.0994  0.1705
  184DPPC   GL1 2199   4.094   5.763  16.302  0.0297  0.0057 -0.1657
  184DPPC   GL2 2200   4.317   5.930  16.375 -0.2552  0.2801 -0.1333
  184DPPC   C1A 2201   3.848   5.950  16.543  0.0746 -0.0889  0.0929
  184DPPC   C2A 2202   3.652   6.260  16.668 -0.0464  0.0109  0.0992
  184DPPC   C3A 2203   3.576   6.760  16.778  0.0293 -0.0526 -0.0800
  184DPPC   C4A 2204   3.556   7.031  17.124 -0.0613  0.0496 -0.0871
  184DPPC   C1B 2205   4.208   6.206  16.580  0.1175 -0.1841  0.1750
  184DPPC   C2B 2206   4.031   6.472  16.843 -0.0369 -0.2070  0.0170
  184DPPC   C3B 2207   3.831   6.601  17.181 -0.1647 -0.1451 -0.0246
  184DPPC   C4B 2208   3.482   6.532  17.524 -0.3729  0.1951  0.3267
  185DPPC   NC3 2209   2.788   5.122  16.032 -0.0718 -0.0889  0.0207
  185DPPC   PO4 2210   3.129   4.980  16.021  0.1410  0.1353 -0.0957
  185DPPC   GL1 2211   3.509   5.072  16.200  0.4694 -0.1182 -0.0990
  185DPPC   GL2 2212   3.506   4.831  16.309  0.1009  0.2195 -0.2072
  185DPPC   C1A 2213   3.526   5.191  16.556  0.0882  0.1707  0.0357
  185DPPC   C2A 2214   3.354   5.261  16.874  0.0264 -0.2159 -0.1011
  185DPPC   C3A 2215   3.064   5.233  17.269 -0.0587 -0.1156  0.1290
  185DPPC   C4A 2216   2.695   5.496  17.480 -0.1865 -0.3195 -0.1977
  185DPPC   C1B 2217   3.233   4.853  16.577 -0.0739 -0.2811 -0.0228
  185DPPC   C2B 2218   2.890   4.865  16.774  0.2882 -0.3508 -0.1581
  185DPPC   C3B 2219   2.500   4.675  17.048 -0.2178 -0.1828 -0.3435
  185DPPC   C4B 2220   2.302   4.510  17.465  0.2907 -0.0996  0.0823
  186DPPC   NC3 2221   4.543   5.642  16.115 -0.0487 -0.1621  0.1369
  186DPPC   PO4 2222   4.803   5.913  16.211 -0.0423 -0.1241  0.0859
  186DPPC   GL1 2223   4.749   5.983  16.634  0.0817  0.1388  0.1055
  186DPPC   GL2 2224   4.879   6.194  16.659 -0.1990  0.0693 -0.0052
  186DPPC   C1A 2225   4.656   5.987  16.959 -0.0196  0.0148  0.1635
  186DPPC   C2A 2226   4.456   6.034  17.314  0.4111 -0.0901  0.0461
  186DPPC   C3A 2227   4.137   6.026  17.713 -0.3652 -0.1103  0.0436
  186DPPC   C4A 2228   3.844   5.963  18.125  0.1915  0.0101 -0.1795
  186DPPC   C1B 2229   4.899   6.335  16.979 -0.0363  0.2992 -0.0366
  186DPPC   C2B 2230   4.785   6.400  17.418 -0.0764 -0.3002  0.1842
  186DPPC   C3B 2231   4.503   6.384  17.797 -0.2044 -0.0621 -0.0379
  186DPPC   C4B 2232   4.236   6.346  18.228 -0.0487  0.2270  0.2387
  187DPPC   NC3 2233   5.694   0.299  15.759 -0.0476  0.0126  0.0697
  187DPPC   PO4 2234   5.381   0.131  15.954  0.2044 -0.4828 -0.0982
  187DPPC   GL1 2235   5.302   0.076  16.335  0.0767 -0.2464 -0.0036
  187DPPC   GL2 2236   4.992   0.097  16.317 -0.2566  0.1991 -0.1259
  187DPPC   C1A 2237   5.613  -0.031  16.524  0.0808 -0.1681 -0.0467
  187DPPC   C2A 2238   5.884   0.100  16.841 -0.1321 -0.1536  0.3922
  187DPPC   C3A 2239   5.799   0.055  17.322  0.1258  0.2080  0.2856
  187DPPC   C4A 2240   5.631  -0.031  17.763 -0.1088  0.1281  0.0836
  187DPPC   C1B 2241   4.809   0.026  16.618 -0.0195 -0.1855  0.0284
  187DPPC   C2B 2242   4.526  -0.044  16.938  0.0696  0.0124 -0.0489
  187DPPC   C3B 2243   4.259  -0.118  17.333 -0.2670  0.0330  0.1323
  187DPPC   C4B 2244   3.980  -0.119  17.760 -0.2455 -0.1886 -0.2609
  188DPPC   NC3 2245   7.220   0.023  17.214 -0.1483  0.0613  0.2323
  188DPPC   PO4 2246   7.576  -0.175  17.291 -0.1330 -0.2024 -0.1026
  188DPPC   GL1 2247   7.364  -0.247  17.582  0.1142  0.2431  0.3253
  188DPPC   GL2 2248   7.118  -0.075  17.668 -0.1259  0.0781  0.0144
  188DPPC   C1A 2249   7.364  -0.572  17.789 -0.2689  0.0518  0.0582
  188DPPC   C2A 2250   7.225  -0.548  18.169 -0.2000 -0.2099 -0.0160
  188DPPC   C3A 2251   6.947  -0.597  18.536  0.1054 -0.0096 -0.1978
  188DPPC   C4A 2252   6.669  -0.548  18.929 -0.2185  0.0209 -0.4150
  188DPPC   C1B 2253   7.039  -0.133  17.966  0.0140 -0.4496  0.0692
  188DPPC   C2B 2254   6.886  -0.115  18.343 -0.1127  0.2541 -0.0510
  188DPPC   C3B 2255   6.692  -0.063  18.736  0.0239 -0.1613 -0.0194
  188DPPC   C4B 2256   6.422  -0.130  19.187  0.1827 -0.0596 -0.2440
  189DPPC   NC3 2257   7.780   1.637  16.443  0.0743  0.0988 -0.1745
  189DPPC   PO4 2258   7.636   1.922  16.686 -0.1430 -0.2363  0.0517
  189DPPC   GL1 2259   7.442   1.940  17.040 -0.3767  0.4352  0.0106
  189DPPC   GL2 2260   7.361   1.649  17.035  0.2590 -0.0913 -0.0608
  189DPPC   C1A 2261   7.242   2.063  17.367 -0.4658 -0.1674  0.2590
  189DPPC   C2A 2262   7.150   2.249  17.736 -0.2203 -0.2259 -0.0305
  189DPPC   C3A 2263   6.832   2.059  18.063  0.0182 -0.1738 -0.0835
  189DPPC   C4A 2264   6.583   2.104  18.526 -0.1943 -0.1445  0.0234
  189DPPC   C1B 2265   7.142   1.622  17.287  0.2592 -0.2826 -0.0735
  189DPPC   C2B 2266   6.839   1.711  17.613 -0.0506 -0.0031 -0.1446
  189DPPC   C3B 2267   6.532   1.638  18.022  0.1941  0.1938 -0.0529
  189DPPC   C4B 2268   6.233   1.701  18.412 -0.1293  0.1663  0.2098
  190DPPC   NC3 2269   7.604   3.166  16.792 -0.1176  0.1577  0.0026
  190DPPC   PO4 2270   7.809   3.251  17.172  0.2485 -0.1546 -0.0662
  190DPPC   GL1 2271   7.612   3.386  17.584  0.0837  0.0764 -0.4193
  190DPPC   GL2 2272   7.536   3.654  17.501  0.3684  0.0679 -0.0916
  190DPPC   C1A 2273   7.536   3.366  17.905 -0.1913  0.0851  0.0084
  190DPPC   C2A 2274   7.299   3.334  18.218  0.0533  0.3267  0.0972
  190DPPC   C3A 2275   6.940   3.369  18.592  0.1010 -0.2001 -0.0135
  190DPPC   C4A 2276   6.707   3.396  19.034 -0.4056 -0.2951 -0.0996
  190DPPC   C1B 2277   7.374   3.786  17.813  0.0614  0.0557 -0.1967
  190DPPC   C2B 2278   7.069   3.822  18.091  0.0061  0.1618  0.1319
  190DPPC   C3B 2279   6.849   3.850  18.478  0.1805  0.2878  0.0478
  190DPPC   C4B 2280   6.561   3.859  18.882  0.0097 -0.0671  0.2259
  191DPPC   NC3 2281   5.045   3.409  16.507 -0.2775 -0.0413 -0.1812
  191DPPC   PO4 2282   4.955   3.731  16.360 -0.0159 -0.0712  0.1456
  191DPPC   GL1 2283   4.865   3.996  16.620  0.1483 -0.0821 -0.1899
  191DPPC   GL2 2284   5.122   4.018  16.834  0.0010  0.0247  0.2286
  191DPPC   C1A 2285   4.571   3.937  16.825 -0.1942  0.1276  0.0172
  191DPPC   C2A 2286   4.412   3.814  17.205 -0.1674  0.0719  0.1565
  191DPPC   C3A 2287   4.163   3.803  17.599 -0.0232  0.0857  0.1177
  191DPPC   C4A 2288   3.924   3.793  18.020  0.3422  0.1139  0.0546
  191DPPC   C1B 2289   5.270   3.985  17.152  0.3735 -0.0928 -0.0783
  191DPPC   C2B 2290   5.059   4.142  17.479 -0.0140 -0.2365 -0.0531
  191DPPC   C3B 2291   4.859   4.117  17.895 -0.1023  0.2050 -0.0102
  191DPPC   C4B 2292   4.687   4.147  18.319 -0.0451 -0.1030  0.1748
  192DPPC   NC3 2293   8.354   6.463  17.293  0.1204  0.0631 -0.0433
  192DPPC   PO4 2294   8.040   6.177  17.407  0.3554  0.0175  0.1701
  192DPPC   GL1 2295   7.843   6.168  17.724  0.4061  0.0821 -0.0778
  192DPPC   GL2 2296   7.899   5.921  17.854  0.2070  0.2651 -0.0488
  192DPPC   C1A 2297   7.625   6.392  17.928  0.2265  0.1247  0.4795
  192DPPC   C2A 2298   7.513   6.402  18.294 -0.0325 -0.0978  0.0039
  192DPPC   C3A 2299   7.236   6.405  18.686  0.2702 -0.1262  0.0841
  192DPPC   C4A 2300   7.005   6.405  19.111  0.1455 -0.0519 -0.1036
  192DPPC   C1B 2301   7.654   5.932  18.202 -0.1590 -0.2092  0.2504
  192DPPC   C2B 2302   7.514   5.944  18.627  0.1370 -0.0260  0.0800
  192DPPC   C3B 2303   7.260   5.962  19.086  0.2746  0.0638 -0.1687
  192DPPC   C4B 2304   7.049   5.924  19.479 -0.0169  0.0360  0.3501
  193DPPC   NC3 2305   7.551   2.427  16.934 -0.0608  0.2359  0.0845
  193DPPC   PO4 2306   7.693   2.759  17.105 -0.0247  0.1273  0.2752
  193DPPC   GL1 2307   7.749   2.920  17.528 -0.1505 -0.2130 -0.0317
  193DPPC   GL2 2308   7.443   2.946  17.427  0.1500 -0.2695  0.1214
  193DPPC   C1A 2309   7.765   2.903  17.845  0.2441  0.0713  0.1336
  193DPPC   C2A 2310   7.568   2.915  18.229 -0.1141  0.1193  0.3522
  193DPPC   C3A 2311   7.271   2.904  18.539 -0.0960  0.2714 -0.1248
  193DPPC   C4A 2312   7.021   2.948  18.956  0.2525 -0.1126 -0.0927
  193DPPC   C1B 2313   7.233   2.919  17.688 -0.1436  0.1477 -0.0315
  193DPPC   C2B 2314   7.026   2.913  18.094  0.0755 -0.2475  0.0454
  193DPPC   C3B 2315   6.727   2.935  18.437 -0.3325 -0.1521  0.1974
  193DPPC   C4B 2316   6.489   2.970  18.899 -0.0518  0.2079  0.0550
  194DPPC   NC3 2317   6.009   1.463  16.497 -0.1862 -0.0235  0.0544
  194DPPC   PO4 2318   5.750   1.736  16.352  0.0707 -0.0199  0.2228
  194DPPC   GL1 2319   5.845   1.882  16.759 -0.0913 -0.2662 -0.1068
  194DPPC   GL2 2320   5.940   2.145  16.585 -0.2294  0.4388 -0.0014
  194DPPC   C1A 2321   6.031   1.946  17.086 -0.0417 -0.2554  0.3145
  194DPPC   C2A 2322   6.239   2.207  17.328 -0.0214 -0.2067  0.0456
  194DPPC   C3A 2323   6.222   2.560  17.671  0.2092  0.2815  0.1837
  194DPPC   C4A 2324   6.442   2.968  17.961 -0.1370  0.0188 -0.1475
  194DPPC   C1B 2325   6.021   2.477  16.750  0.0597  0.1189 -0.0797
  194DPPC   C2B 2326   6.141   2.782  17.010 -0.3602  0.0234 -0.1585
  194DPPC   C3B 2327   6.309   3.129  17.240  0.0222  0.2032  0.0922
  194DPPC   C4B 2328   6.447   3.379  17.613  0.0651  0.1212  0.2591
  195DPPC   NC3 2329   7.888   1.099  17.167  0.2200 -0.1865 -0.0365
  195DPPC   PO4 2330   7.677   1.341  17.451  0.0878 -0.1777  0.0075
  195DPPC   GL1 2331   7.700   1.101  17.783  0.2398 -0.1562 -0.0510
  195DPPC   GL2 2332   7.488   1.172  17.787 -0.2129 -0.1453 -0.0177
  195DPPC   C1A 2333   7.711   0.832  17.986  0.0580  0.1561  0.2626
  195DPPC   C2A 2334   7.659   0.619  18.321 -0.0349  0.0697 -0.1895
  195DPPC   C3A 2335   7.435   0.623  18.750 -0.1463 -0.3714 -0.3113
  195DPPC   C4A 2336   7.184   0.647  19.173 -0.2366 -0.0073 -0.0077
  195DPPC   C1B 2337   7.276   1.262  18.109 -0.0618  0.0205  0.1229
  195DPPC   C2B 2338   7.033   1.198  18.389  0.1502 -0.0365  0.0089
  195DPPC   C3B 2339   6.744   1.246  18.780 -0.0412 -0.1127 -0.0402
  195DPPC   C4B 2340   6.453   1.164  19.235  0.0406 -0.1445  0.0090
  196DPPC   NC3 2341   3.925   2.284  15.959  0.1650  0.1259  0.0706
  196DPPC   PO4 2342   3.963   1.859  15.904  0.1128 -0.1071  0.0707
  196DPPC   GL1 2343   3.632   1.777  16.248 -0.2783  0.1958 -0.1883
  196DPPC   GL2 2344   3.564   2.062  16.276 -0.1603  0.0605  0.1427
  196DPPC   C1A 2345   3.518   1.609  16.566 -0.0724 -0.0843 -0.4615
  196DPPC   C2A 2346   3.433   1.399  16.902 -0.3292  0.1814  0.0607
  196DPPC   C3A 2347   3.421   0.918  16.956 -0.2571  0.0996  0.1853
  196DPPC   C4A 2348   3.727   0.593  16.686 -0.0569 -0.2187 -0.1833
  196DPPC   C1B 2349   3.592   2.184  16.635 -0.1497 -0.1487  0.0253
  196DPPC   C2B 2350   3.540   2.227  17.026 -0.1927  0.2367  0.4297
  196DPPC   C3B 2351   3.381   2.383  17.497 -0.2252  0.2221  0.1055
  196DPPC   C4B 2352   3.059   2.417  17.873  0.1336  0.0078 -0.0883
  197DPPC   NC3 2353   9.570   6.261  19.406  0.2613 -0.0895 -0.0424
  197DPPC   PO4 2354   9.147   6.242  19.353  0.1239 -0.1557  0.1298
  197DPPC   GL1 2355   8.944   6.537  19.323  0.2584  0.0525 -0.0171
  197DPPC   GL2 2356   8.863   6.687  19.031  0.0149  0.2228  0.3200
  197DPPC   C1A 2357   8.751   6.582  19.650  0.2610  0.0628 -0.1166
  197DPPC   C2A 2358   8.590   6.597  20.055  0.0427 -0.1487  0.0713
  197DPPC   C3A 2359   8.309   6.626  20.453  0.0216  0.2333  0.0164
  197DPPC   C4A 2360   8.012   6.601  20.819  0.1427  0.1879 -0.2041
  197DPPC   C1B 2361   8.659   6.863  19.211 -0.1182  0.1713  0.4021
  197DPPC   C2B 2362   8.316   7.129  19.286 -0.6071  0.1657 -0.0667
  197DPPC   C3B 2363   8.136   7.154  19.685  0.0073  0.2992 -0.1427
  197DPPC   C4B 2364   7.810   7.210  20.035 -0.1529  0.0415 -0.0021
  198DPPC   NC3 2365   8.215   4.535  17.561  0.1098 -0.0300 -0.2494
  198DPPC   PO4 2366   8.280   4.406  17.960  0.0058 -0.0697 -0.1625
  198DPPC   GL1 2367   8.007   4.678  18.126 -0.0210  0.0060  0.1158
  198DPPC   GL2 2368   7.847   4.440  18.158 -0.3686 -0.2331 -0.0658
  198DPPC   C1A 2369   7.912   4.887  18.415 -0.3169 -0.1180  0.1005
  198DPPC   C2A 2370   7.813   5.011  18.788 -0.2286 -0.0435 -0.0647
  198DPPC   C3A 2371   7.549   5.009  19.222  0.0265 -0.0120  0.0208
  198DPPC   C4A 2372   7.189   5.012  19.540 -0.1842  0.0636  0.2528
  198DPPC   C1B 2373   7.695   4.496  18.460  0.0514  0.1541  0.0969
  198DPPC   C2B 2374   7.463   4.661  18.790  0.1801 -0.1408 -0.0778
  198DPPC   C3B 2375   7.143   4.686  19.136 -0.0091 -0.3825 -0.2007
  198DPPC   C4B 2376   6.660   4.640  19.184  0.1346 -0.1555 -0.3797
  199DPPC   NC3 2377   8.808   3.271  18.167 -0.0319  0.0389 -0.3051
  199DPPC   PO4 2378   8.822   3.021  18.456  0.0920 -0.0284 -0.1676
  199DPPC   GL1 2379   8.477   2.947  18.688  0.2212  0.1654 -0.2641
  199DPPC   GL2 2380   8.395   2.927  18.430 -0.0138  0.0367 -0.1367
  199DPPC   C1A 2381   8.214   2.846  18.887 -0.5002  0.0982  0.2029
  199DPPC   C2A 2382   8.061   2.756  19.229  0.2555  0.1390  0.0798
  199DPPC   C3A 2383   7.745   2.795  19.596 -0.0658  0.2810 -0.0020
  199DPPC   C4A 2384   7.427   2.805  19.985  0.0720 -0.0158 -0.2211
  199DPPC   C1B 2385   8.044   2.881  18.495  0.3062 -0.0270  0.0633
  199DPPC   C2B 2386   7.750   2.878  18.755  0.0940  0.2727 -0.0576
  199DPPC   C3B 2387   7.468   2.840  19.116  0.4624 -0.0734  0.3299
  199DPPC   C4B 2388   7.144   2.902  19.530 -0.2184  0.1910 -0.1548
  200DPPC   NC3 2389  20.810   1.778  17.087  0.1156 -0.0226 -0.3382
  200DPPC   PO4 2390  20.982   2.149  17.009 -0.0273 -0.1135 -0.1693
  200DPPC   GL1 2391  21.087   2.376  17.398 -0.2466 -0.0071  0.2722
  200DPPC   GL2 2392  21.053   2.121  17.575  0.0805  0.1607  0.1279
  200DPPC   C1A 2393  21.245   2.450  17.719 -0.0248 -0.0333  0.5145
  200DPPC   C2A 2394  21.488   2.483  18.071 -0.0984  0.0751  0.4180
  200DPPC   C3A 2395  21.821   2.514  18.415  0.3152 -0.0769 -0.1833
  200DPPC   C4A 2396  22.196   2.443  18.851  0.0747 -0.1838 -0.0578
  200DPPC   C1B 2397  21.329   1.981  17.757 -0.0014  0.0634  0.0478
  200DPPC   C2B 2398  21.546   1.983  18.057 -0.1859  0.2379 -0.0834
  200DPPC   C3B 2399  21.919   2.022  18.297 -0.0680  0.2601  0.0162
  200DPPC   C4B 2400  22.244   1.918  18.641  0.0932 -0.0286  0.0869
  201W        W 2401  10.476   1.668   7.373  0.0901  0.2844  0.0312
  202W        W 2402   8.706   4.824  18.207  0.2310 -0.0900  0.1079
  203W        W 2403   0.559   2.938  36.414 -0.2265  0.0103 -0.0711
  204W        W 2404  17.843   0.361  16.592 -0.1202 -0.0995  0.1399
  205W        W 2405   7.745   2.603   1.013  0.1284  0.1896  0.0336
  206W        W 2406   2.881   2.793  21.322  0.3886  0.2422  0.1685
  207W        W 2407   7.386   3.287  44.515 -0.1016  0.2237  0.1240
  208W        W 2408  10.454   1.932  18.016 -0.1018  0.0447 -0.1304
  209W        W 2409   6.732   3.216   9.311  0.0768  0.2152 -0.0581
  210W        W 2410   9.474   0.661   3.504  0.2441  0.0296  0.0801
  211W        W 2411  11.420   4.534  20.695 -0.3782 -0.1442 -0.1583
  212W        W 2412   6.834   1.934  34.947  0.2969 -0.0477 -0.1164
  213W        W 2413  15.524   3.652   6.210 -0.1804  0.0340  0.1386
  214W        W 2414  17.435   0.453   1.190  0.0457  0.0918 -0.2062
  215W        W 2415   3.233   0.106  26.364 -0.0617 -0.0459  0.0502
  216W        W 2416   3.293   1.898  35.653 -0.2256 -0.0231 -0.1400
  217W        W 2417  13.089   1.734   0.655 -0.2137 -0.3053  0.2363
  218W        W 2418   1.541   3.013  14.013  0.1436 -0.0542  0.3280
  219W        W 2419  14.135   0.264  39.250  0.3021 -0.0863 -0.0519
  220W        W 2420   9.099   1.718  35.953  0.0070 -0.1390 -0.0510
  221W        W 2421  18.701   2.682  18.283  0.0355  0.1921 -0.0545
  222W        W 2422  11.065   2.157   2.171  0.1319 -0.1901 -0.1518
  223W        W 2423   7.301   3.513  31.236  0.0256  0.0257 -0.0665
  224W        W 2424   1.209   0.679  36.184  0.0638  0.1195 -0.0925
  225W        W 2425   2.534   0.675   6.486  0.2507 -0.0713 -0.0401
  226W        W 2426   2.113   0.844  38.601 -0.1585  0.2666  0.1871
  227W        W 2427  12.473   3.680  22.523 -0.0328  0.0965 -0.1848
  228W        W 2428  14.012   4.772   5.987 -0.2228  0.2908 -0.0694
  229W        W 2429   5.178   1.697  39.455  0.2467  0.0498  0.0811
  230W        W 2430  12.397   0.076  39.149 -0.0362  0.0230 -0.1181
  231W        W 2431   1.653   5.682  15.287 -0.1513  0.1689 -0.1110
  232W        W 2432  13.376   2.234  30.530 -0.2677  0.0997  0.1023
  233W        W 2433   2.558   1.293  36.065  0.1716 -0.1099  0.0435
  234W        W 2434  15.649   6.253  33.514 -0.3484 -0.1400 -0.2517
  235W        W 2435   6.772   5.351  28.867  0.0594 -0.3359  0.1533
  236W        W 2436  10.947   0.177   8.616 -0.1111  0.0972 -0.1407
  237W        W 2437  11.605   1.121   4.692 -0.2074 -0.0985  0.2368
  238W        W 2438   3.192   3.690  20.409  0.0870 -0.1710  0.0750
  239W        W 2439   6.629   4.873  28.984 -0.2001 -0.1695 -0.2355
  240W        W 2440   8.617   1.874  29.882 -0.1416 -0.2420 -0.0303
  241W        W 2441   7.940   1.277  44.300  0.1660  0.4978 -0.4360
  242W        W 2442   2.780   5.583   2.090 -0.1008 -0.1933  0.1270
  243W        W 2443  11.835   1.195  30.058 -0.1589  0.3458  0.4197
  244W        W 2444   0.170   4.337  36.948 -0.2118 -0.1776 -0.0891
  245W        W 2445  13.403   2.875  16.256  0.1362  0.2126  0.4490
  246W        W 2446  17.202   2.192  30.709 -0.1136  0.1250 -0.3367
  247W        W 2447   0.252   2.931  35.218  0.0057 -0.1214  0.0855
  248W        W 2448   0.312   0.702   1.018  0.1952 -0.2939 -0.1464
  249W        W 2449  13.819   2.753  30.343 -0.2118  0.1591  0.0928
  250W        W 2450  12.209   5.783  20.773 -0.2806 -0.2521  0.0040
  251W        W 2451   4.895   0.027  44.421  0.1049  0.1143  0.2656
  252W        W 2452  20.335   5.046  11.315  0.0927 -0.0612 -0.1773
  253W        W 2453   2.062   2.852   8.857  0.4634  0.1257 -0.0743
  254W        W 2454   4.869   0.486  41.796  0.0759 -0.1726  0.1798
  255W        W 2455   3.842   4.912  43.813 -0.3743 -0.0545  0.0234
  256W        W 2456  13.109   6.107  28.539 -0.6588 -0.0770  0.0758
  257W        W 2457   1.042   3.227  32.805 -0.2428 -0.1404  0.2312
  258W        W 2458   8.991   0.841  36.337 -0.3098  0.0140  0.1853
  259W        W 2459   0.326   4.127  35.974  0.1313 -0.0399  0.0794
  260W        W 2460   4.711   6.295   4.977 -0.2689  0.0477 -0.2849
  261W        W 2461  14.649   4.625   7.878 -0.0481 -0.1234  0.0378
  262W        W 2462  12.603   3.188  12.111 -0.5435 -0.2656 -0.2905
  263W        W 2463  18.972   5.826   6.658  0.1302  0.1669 -0.0697
  264W        W 2464   6.358   2.140  13.811  0.1512 -0.3108 -0.0063
  265W        W 2465   7.083   4.707   9.944 -0.2803  0.2281 -0.1379
  266W        W 2466   5.923   4.590  25.279  0.0179 -0.2905 -0.0522
  267W        W 2467  15.385   3.671  32.484 -0.1287  0.0465  0.1693
  268W        W 2468   6.131   3.676  31.211 -0.1589  0.2324  0.0770
  269W        W 2469  18.331   3.811  29.940 -0.0358 -0.0303  0.1006
  270W        W 2470   5.434   2.644  38.242  0.4079 -0.1998 -0.1321
  271W        W 2471  19.949   4.941  37.794 -0.0962 -0.1965  0.0912
  272W        W 2472  18.447   4.329  19.030 -0.0352  0.1278  0.1010
  273W        W 2473   8.517   0.326   5.862  0.0256  0.4196  0.2269
  274W        W 2474  15.184   4.090   3.302  0.2564 -0.0093 -0.2456
  275W        W 2475   2.827   2.373  32.392 -0.2744  0.0308 -0.1141
  276W        W 2476  17.013   1.441  40.362  0.0841 -0.0215  0.2868
  277W        W 2477  18.657   5.289   6.215  0.0432 -0.0932  0.1008
  278W        W 2478  14.254   4.788  36.813  0.1759  0.1040  0.0703
  279W        W 2479  20.443   0.195   5.626  0.0038 -0.1225  0.3659
  280W        W 2480  11.628   5.370   6.756 -0.0418  0.2403 -0.0922
  281W        W 2481  13.219   6.500   4.318  0.1732 -0.5199  0.3560
  282W        W 2482   2.430   1.783  10.444  0.2963  0.0945  0.0719
  283W        W 2483  10.290   3.671   7.374  0.1681  0.0453  0.3719
  284W        W 2484   8.929   0.334  40.280  0.3317  0.0679  0.0956
  285W        W 2485  15.022   4.306   0.868 -0.0274  0.1250  0.0506
  286W        W 2486   2.620   0.379  13.215 -0.0412  0.0863 -0.1481
  287W        W 2487  11.853   5.584  31.980 -0.1228  0.0399  0.2860
  288W        W 2488  17.839   4.852   4.473 -0.0960 -0.0426  0.0347
  289W        W 2489  13.794   5.559  20.987  0.1194 -0.1258 -0.0538
  290W        W 2490   7.856   6.099  31.053  0.2526  0.0465 -0.1801
  291W        W 2491   5.978   6.279  14.091 -0.0633  0.0351 -0.0006
  292W        W 2492   8.221   4.713  39.987  0.0451 -0.1473  0.0760
  293W        W 2493   7.152   3.968   7.666  0.3657  0.1346 -0.3419
  294W        W 2494  16.396   5.585  21.780 -0.1731 -0.3048  0.1439
  295W        W 2495   3.969   4.055  26.936 -0.2194 -0.0928 -0.0519
  296W        W 2496  19.604   3.613  27.915 -0.0487  0.0411  0.0763
  297W        W 2497  12.361   6.335  19.084 -0.0670 -0.2086 -0.1267
  298W        W 2498  12.712   3.749   0.812 -0.0990  0.0907 -0.2750
  299W        W 2499  13.436   5.836   2.841  0.1035  0.1795  0.3341
  300W        W 2500   9.031   2.156   6.498 -0.0714 -0.0509 -0.0777
  301W        W 2501   1.054   5.116   1.053  0.0536  0.2090 -0.0860
  302W        W 2502   5.879   5.989   7.178  0.1091  0.1327  0.2795
  303W        W 2503   5.132   2.804  12.908  0.0104 -0.0513  0.0954
  304W        W 2504  15.820   2.140  36.609 -0.0051  0.0618 -0.0844
  305W        W 2505   5.965   4.264   5.446  0.0669  0.3195 -0.0311
  306W        W 2506   6.700   0.141  29.164  0.1560 -0.0110 -0.3811
  307W        W 2507  20.178   2.129  44.194  0.2030 -0.1003 -0.0906
  308W        W 2508  15.772   1.645   0.380 -0.1438 -0.1263 -0.0649
  309W        W 2509  19.982   0.169  10.553 -0.0562  0.0401 -0.1110
  310W        W 2510   4.704   2.828  14.719  0.1252  0.2580 -0.2801
  311W        W 2511   5.643   4.292  30.733  0.1529 -0.1789 -0.1701
  312W        W 2512   4.501   0.485  12.059  0.2496  0.1950  0.1918
  313W        W 2513  16.388   4.941  34.239 -0.2918 -0.2070 -0.0795
  314W        W 2514  13.775   5.837  18.245  0.1824  0.0239  0.0334
  315W        W 2515  16.138   1.909  17.655 -0.0761  0.0028 -0.0933
  316W        W 2516   7.928   1.277  30.158 -0.0469 -0.2116 -0.0738
  317W        W 2517   1.369   3.531  41.099  0.0490 -0.2944  0.2663
  318W        W 2518   9.115   2.051   7.325 -0.1258 -0.0484 -0.1796
  319W        W 2519   6.552   3.900  42.520  0.1702  0.0438  0.2698
  320W        W 2520  15.679   1.209  35.505 -0.0791 -0.1153 -0.0554
  321W        W 2521   5.010   2.313  40.546 -0.1153  0.1855 -0.0536
  322W        W 2522   0.961   5.999  13.581 -0.3605 -0.1021 -0.1146
  323W        W 2523   6.161   1.640   0.251  0.2654 -0.0100  0.1971
  324W        W 2524  13.058   5.777   9.555 -0.2180 -0.0025  0.1803
  325W        W 2525   9.026   5.172   2.426  0.1822  0.2077  0.3661
  326W        W 2526   5.620   5.369   8.922  0.2051 -0.3797  0.0476
  327W        W 2527  11.172   6.573  31.836 -0.0323 -0.2364 -0.1624
  328W        W 2528   7.726   2.767  33.265 -0.1063 -0.0222  0.0542
  329W        W 2529   6.499   2.983  24.393 -0.1300 -0.0210  0.2115
  330W        W 2530  15.491   2.059  42.262  0.2215 -0.0173 -0.0485
  331W        W 2531  12.327   3.656  14.354  0.2142  0.1860 -0.0276
  332W        W 2532   4.389   5.911  11.898  0.0755 -0.0116  0.3219
  333W        W 2533   3.614   3.363  22.863  0.2960 -0.2063  0.1553
  334W        W 2534  19.126   3.797  15.761 -0.1132  0.3891 -0.2775
  335W        W 2535  12.374   0.890   4.055 -0.1472 -0.0878  0.3624
  336W        W 2536  10.852   0.060   2.910 -0.2626  0.0136  0.2044
  337W        W 2537   9.469   0.944   9.412 -0.1993 -0.1449 -0.0692
  338W        W 2538  13.458   5.608  13.994 -0.0119  0.3351  0.0035
  339W        W 2539   0.123   2.039  12.432 -0.1057 -0.0524  0.1372
  340W        W 2540  14.134   6.164   3.039  0.0727  0.1770 -0.0797
  341W        W 2541  11.067   0.261   5.564 -0.0493  0.1069  0.1919
  342W        W 2542  13.761   0.942  38.591 -0.0131  0.1708  0.1758
  343W        W 2543  20.324   5.244  31.336 -0.3291  0.0421  0.0239
  344W        W 2544  14.251   6.391   6.741  0.0057 -0.0071 -0.0402
  345W        W 2545   7.607   0.794   9.738 -0.0589 -0.0556  0.0092
  346W        W 2546   1.106   3.434  40.615  0.0219  0.3205  0.0810
  347W        W 2547   6.735   4.657  14.106 -0.0811 -0.1419  0.5792
  348W        W 2548  20.472   4.206  44.153 -0.1886 -0.0678  0.0937
  349W        W 2549  12.830   4.621  19.661 -0.1120 -0.0338  0.2216
  350W        W 2550  20.942   0.338  25.784  0.1089  0.2383  0.0724
  351W        W 2551   1.519   4.156   1.917 -0.1168 -0.1273 -0.1854
  352W        W 2552   9.450   3.975   0.065  0.2718 -0.2275  0.4057
  353W        W 2553   4.301   0.703   1.638  0.0850  0.2226 -0.1890
  354W        W 2554  15.664   0.281  19.864 -0.0464  0.2289  0.1125
  355W        W 2555  20.410   3.586  40.229  0.0018 -0.0680 -0.1302
  356W        W 2556   9.412   3.684  28.803 -0.2232  0.2442  0.0825
  357W        W 2557   6.757   4.726  12.811  0.0149  0.2167 -0.3065
  358W        W 2558   4.668   5.135  40.665  0.0387  0.0936 -0.1360
  359W        W 2559   0.590   4.774   4.526 -0.0958 -0.0226 -0.1541
  360W        W 2560   5.437   5.686  10.462 -0.1174  0.0965 -0.2700
  361W        W 2561  14.334   5.757  16.231 -0.1205  0.2567 -0.2268
  362W        W 2562  17.835   5.609  29.225  0.1007  0.0597  0.0970
  363W        W 2563   4.524   4.407  38.298 -0.2430 -0.1464 -0.0612
  364W        W 2564   4.663   0.421  44.562  0.1633  0.1993  0.0945
  365W        W 2565   3.094   5.343  29.253 -0.1974 -0.3335  0.0264
  366W        W 2566   9.965   4.152  19.172  0.1008  0.1545  0.1901
  367W        W 2567  12.948   3.407  18.137 -0.0241 -0.0918 -0.0959
  368W        W 2568  19.847   4.686  28.761  0.0578 -0.2550 -0.0064
  369W        W 2569  12.192   5.783  19.659 -0.0356 -0.2348 -0.1700
  370W        W 2570   8.257   5.110  35.122  0.1381  0.2229 -0.0047
  371W        W 2571   7.422   6.567  42.445  0.2706  0.1289 -0.1921
  372W        W 2572   0.359   5.548  25.611  0.0221  0.0855 -0.1165
  373W        W 2573   0.742   5.782  14.865  0.1027  0.1452  0.1117
  374W        W 2574   6.395   2.188  16.794  0.2015  0.2003 -0.0327
  375W        W 2575  13.002   3.711  35.758  0.0362 -0.4164  0.0256
  376W        W 2576   6.100   1.689   3.995 -0.1972 -0.0130 -0.0642
  377W        W 2577   4.417   3.848  10.081  0.0247  0.1316 -0.1843
  378W        W 2578  14.651   0.956   7.231  0.3022 -0.0187  0.0042
  379W        W 2579  13.621   1.950  30.830  0.0149 -0.0384 -0.0998
  380W        W 2580   4.100   4.389  27.492 -0.0642  0.1916 -0.2210
  381W        W 2581  13.797   4.611  32.911  0.1657  0.2270  0.0110
  382W        W 2582  14.825   2.559  39.065 -0.1650  0.1592  0.1297
  383W        W 2583   6.896   0.238  35.310 -0.0939  0.1655 -0.0892
  384W        W 2584   6.496   0.292   8.810  0.2364  0.1027  0.2704
  385W        W 2585  13.755   3.536   7.884  0.2073 -0.2073 -0.2797
  386W        W 2586  11.316   5.157  12.460 -0.1352  0.3130  0.0271
  387W        W 2587  10.258   1.764   8.972  0.1557 -0.3750  0.1591
  388W        W 2588   3.261   5.742   6.086 -0.0775 -0.1927  0.1232
  389W        W 2589   6.307   5.194  37.814  0.0535  0.0817 -0.0527
  390W        W 2590  12.802   3.360  22.885 -0.0064 -0.2584 -0.1473
  391W        W 2591   0.567   4.637  37.225 -0.0242 -0.1260 -0.0504
  392W        W 2592  19.493   0.605  27.625  0.2282  0.2682  0.0353
  393W        W 2593  14.787   1.556  33.199  0.0180  0.0250 -0.2331
  394W        W 2594   1.341   0.008  33.466  0.1052  0.0068  0.1509
  395W        W 2595   0.085   5.724  27.845 -0.5927  0.1337  0.0919
  396W        W 2596   7.088   1.009  41.814 -0.0102  0.3400 -0.4336
  397W        W 2597   2.963   2.584  38.709  0.0624  0.1752  0.4745
  398W        W 2598   5.957   5.449  24.759 -0.2246  0.0326 -0.1068
  399W        W 2599  13.225   5.904  36.891 -0.1673  0.0304  0.0263
  400W        W 2600  19.739   2.746  35.125  0.0186 -0.2172  0.2017
  401W        W 2601  11.041   2.310  44.597 -0.2945  0.0020 -0.0880
  402W        W 2602  19.221   2.753  41.376 -0.1462 -0.0696  0.1583
  403W        W 2603  19.877   5.902  26.915 -0.0400 -0.2566  0.0120
  404W        W 2604   7.548   5.301  12.711  0.2947  0.0200 -0.1935
  405W        W 2605   9.190   4.067   4.174 -0.0198  0.0867 -0.1402
  406W        W 2606  13.177   0.381  23.487  0.1569  0.2795 -0.3188
  407W        W 2607   8.675   3.322  27.675 -0.2000  0.0665  0.1665
  408W        W 2608  21.163   5.279  28.422 -0.0114  0.0297  0.0878
  409W        W 2609   0.529   3.336  32.842  0.2479  0.0356 -0.2865
  410W        W 2610   0.554   4.079  30.794  0.1535 -0.3844 -0.0849
  411W        W 2611   7.221   5.123  27.235  0.1936  0.1506  0.1279
  412W        W 2612  17.314   5.405  13.297 -0.0620  0.2710 -0.1081
  413W        W 2613   3.188   1.984  12.722  0.1853 -0.1082 -0.1843
  414W        W 2614  10.503   0.879   7.767 -0.1776  0.2726 -0.2522
  415W        W 2615   5.680   4.839   9.749  0.0361 -0.0810  0.2056
  416W        W 2616  11.798   4.203  12.288  0.4091  0.4361 -0.1551
  417W        W 2617   7.964   2.011  10.239 -0.1417  0.0176  0.1148
  418W        W 2618  20.271   2.424  40.450 -0.1942  0.0524  0.3834
  419W        W 2619   0.029   4.239   7.696  0.2197 -0.1486  0.0198
  420W        W 2620  20.454   4.577  11.169  0.2401  0.0079  0.1816
  421W        W 2621   7.387   0.227  16.329  0.0985 -0.0550  0.0834
  422W        W 2622  19.977   6.070  36.269 -0.0690 -0.0353  0.0654
  423W        W 2623   7.117   3.389  32.755 -0.0017 -0.4212  0.0775
  424W        W 2624  13.929   3.512  33.423 -0.0608  0.0469  0.0727
  425W        W 2625   1.792   2.350  32.023  0.1658 -0.1032 -0.1961
  426W        W 2626   4.384   5.688  35.837  0.1154  0.1304  0.1080
  427W        W 2627   9.562   3.022   6.259 -0.2804 -0.0741 -0.0353
  428W        W 2628  10.259   2.160  37.358  0.1018  0.0078  0.1825
  429W        W 2629  17.366   1.088  14.269  0.2500 -0.1343 -0.1444
  430W        W 2630  18.557   6.449  28.628 -0.1832 -0.1001  0.1505
  431W        W 2631   8.619   5.514  17.748 -0.3483 -0.2261 -0.2338
  432W        W 2632  14.830   3.451  16.486 -0.2933 -0.0250  0.1730
  433W        W 2633  12.439   0.334  38.109 -0.3493 -0.0502  0.1064
  434W        W 2634  13.134   3.608  12.229 -0.2015  0.0951 -0.0682
  435W        W 2635  19.050   5.623  32.785 -0.1824  0.0442  0.2547
  436W        W 2636   4.203   2.397   5.093  0.1627  0.0352 -0.1099
  437W        W 2637   3.220   6.473  28.238 -0.0994  0.1048 -0.3798
  438W        W 2638   3.685   1.644   9.455  0.1034  0.0724 -0.0431
  439W        W 2639   3.583   4.122  36.918  0.1635  0.4044  0.0645
  440W        W 2640  15.199   1.739   2.524 -0.0267 -0.1809 -0.1045
  441W        W 2641  15.189   6.074   3.253  0.2734 -0.1795  0.0972
  442W        W 2642  11.781   0.553   9.376  0.0636  0.0191 -0.1254
  443W        W 2643   9.149   5.252  17.848  0.0965 -0.1019 -0.1210
  444W        W 2644  12.207   2.300  10.971  0.0279 -0.1024 -0.0178
  445W        W 2645   1.172   1.845  23.990 -0.1624 -0.2063 -0.2501
  446W        W 2646   3.306   1.270  28.939 -0.0680 -0.0977  0.3090
  447W        W 2647   6.688   1.662  10.193  0.0434  0.0260 -0.0657
  448W        W 2648  10.090   3.611  10.121  0.2754  0.0190  0.2647
  449W        W 2649   8.692   5.972  33.496 -0.0158  0.1904 -0.0566
  450W        W 2650  16.770   3.783   0.027  0.1013  0.1430 -0.1954
  451W        W 2651  17.284   2.471   3.558 -0.1880  0.1426 -0.1643
  452W        W 2652   0.179   4.452  12.677  0.0839 -0.1602 -0.0269
  453W        W 2653   3.446   6.078  10.977 -0.0363  0.0260 -0.5682
  454W        W 2654  17.853   5.104  40.666  0.0415 -0.1223  0.0187
  455W        W 2655   3.786   0.363  27.027  0.0273  0.1055 -0.0964
  456W        W 2656  11.481   3.547   6.399 -0.2867 -0.0164 -0.0964
  457W        W 2657  20.662   0.388  38.846  0.1084 -0.1464  0.1490
  458W        W 2658   1.970   4.529  10.834 -0.0533  0.0642  0.1756
  459W        W 2659   1.514   3.956  11.439  0.0223  0.2273 -0.0255
  460W        W 2660   8.186   4.656  31.379  0.0731 -0.1287 -0.0335
  461W        W 2661  15.862   2.616  36.616  0.0931  0.0871  0.1299
  462W        W 2662   9.392   1.443   4.091  0.0581  0.1124 -0.1042
  463W        W 2663   3.744   4.709   0.421 -0.1484 -0.2400  0.1858
  464W        W 2664   5.109   4.177  29.945 -0.0786 -0.0081 -0.1321
  465W        W 2665  12.753   6.246  16.401  0.1093 -0.2636  0.0715
  466W        W 2666  15.683   0.345  38.767 -0.0116 -0.0206  0.3191
  467W        W 2667  19.714   2.661  34.143 -0.0026 -0.0129 -0.0301
  468W        W 2668  11.549   6.061   4.686  0.0540 -0.1483  0.0944
  469W        W 2669   0.267   3.508  29.321  0.2061 -0.0015  0.0714
  470W        W 2670   2.685   2.564  31.842 -0.1504 -0.1105  0.1615
  471W        W 2671   6.511   3.993  37.846  0.2176  0.0771 -0.0712
  472W        W 2672   2.213   2.347   6.865 -0.1124  0.6245 -0.0743
  473W        W 2673  16.151   0.788  43.995 -0.1898 -0.4650  0.1862
  474W        W 2674   2.748   4.071  21.489  0.1678  0.0573 -0.1029
  475W        W 2675  15.745   1.282  31.730 -0.3589  0.2057 -0.0583
  476W        W 2676  15.011   0.442  16.588 -0.1364 -0.2754 -0.1269
  477W        W 2677  19.267   4.777  31.384  0.2340  0.1467  0.1419
  478W        W 2678   2.776   0.139   4.824  0.2564  0.3662  0.0118
  479W        W 2679  10.794   3.301  38.719  0.1000 -0.3124 -0.1694
  480W        W 2680  14.398   4.408   3.101 -0.0594  0.1745 -0.1412
  481W        W 2681  12.267   1.811  35.684 -0.0377 -0.1515  0.0206
  482W        W 2682   3.664   4.333  35.642 -0.3837  0.5395 -0.2902
  483W        W 2683   0.277   4.999  25.744 -0.1303  0.1284  0.0399
  484W        W 2684  17.447   1.982   8.747 -0.1731  0.1610 -0.1143
  485W        W 2685   4.254   3.208  34.261 -0.1061  0.1991  0.0477
  486W        W 2686  15.520   5.393  45.118  0.1367  0.1321  0.2292
  487W        W 2687   8.312   5.293  25.883 -0.0054 -0.0390 -0.5163
  488W        W 2688  12.408   6.071  22.327 -0.1281 -0.2114 -0.0606
  489W        W 2689  11.077   1.136  44.655  0.0165  0.4865 -0.2764
  490W        W 2690  16.246   6.210   1.829 -0.3437  0.3960 -0.1111
  491W        W 2691  13.642   1.926   7.287 -0.2061 -0.1601  0.1581
  492W        W 2692   0.497   3.548   3.631  0.0970  0.0771  0.0296
  493W        W 2693  17.099   2.563  36.103  0.1356 -0.1525  0.0403
  494W        W 2694  18.408   1.322  30.137  0.2691 -0.0990  0.1273
  495W        W 2695  14.839   0.347  38.608 -0.0154 -0.3674 -0.2039
  496W        W 2696   1.576   0.180  10.476 -0.3119 -0.0606 -0.0089
  497W        W 2697  17.228   5.367  41.085  0.2386  0.1043 -0.3386
  498W        W 2698   3.036   4.095  14.358 -0.0648  0.0825 -0.1583
  499W        W 2699   2.214   1.580  13.886 -0.0917 -0.1051  0.0205
  500W        W 2700   2.381   1.285  44.069  0.0835 -0.0577 -0.0821
  501W        W 2701   4.267   5.643  28.767 -0.1561 -0.0549  0.2373
  502W        W 2702   4.997   5.572  41.177 -0.2541  0.0937 -0.1186
  503W        W 2703  10.156   3.606  18.166  0.0559 -0.0079 -0.2865
  504W        W 2704  16.411   5.687  33.245 -0.2430  0.0207  0.0068
  505W        W 2705   2.271   2.046  38.559  0.4011  0.1085 -0.3471
  506W        W 2706  12.866   1.373   2.845 -0.1764  0.1561  0.0573
  507W        W 2707   4.299   4.423   9.467  0.1292  0.2789 -0.1105
  508W        W 2708  18.118   1.920  29.410  0.2428  0.1425 -0.2767
  509W        W 2709   1.969   4.487   8.284  0.0726  0.0999 -0.5054
  510W        W 2710   3.838   3.430  14.130 -0.0415  0.3551  0.3590
  511W        W 2711  11.411   6.554  16.173 -0.1004 -0.2050  0.4268
  512W        W 2712  14.070   2.652   7.993 -0.2602 -0.1493 -0.1269
  513W        W 2713   9.090   4.366  40.789 -0.0630  0.0411  0.0401
  514W        W 2714   2.052   1.902   8.577  0.1310 -0.4165 -0.0118
  515W        W 2715   8.192   6.141  29.028 -0.0911  0.1053  0.0810
  516W        W 2716   5.937   2.788  11.688 -0.0657 -0.0118 -0.2975
  517W        W 2717   4.974   3.031  21.361  0.3070  0.2208 -0.0936
  518W        W 2718   0.880   3.144   2.754 -0.0180  0.2837 -0.0288
  519W        W 2719  15.281   1.762  14.073  0.0829  0.4513  0.1005
  520W        W 2720  11.663   0.649   2.676  0.1569  0.2815  0.1156
  521W        W 2721   6.353   3.533  42.872 -0.2277 -0.1781 -0.1547
  522W        W 2722   6.660   1.032  38.066  0.3886  0.0903  0.1320
  523W        W 2723  13.109   0.151  39.883 -0.0443 -0.3325  0.2307
  524W        W 2724   6.053   2.865   7.356  0.1909  0.1507 -0.1141
  525W        W 2725   2.241   4.940   9.039 -0.0112 -0.0946  0.1079
  526W        W 2726   9.071   1.437  12.906 -0.1497 -0.1925  0.0998
  527W        W 2727  13.707   5.533  38.814  0.1248 -0.1391 -0.0247
  528W        W 2728   9.526   1.895  37.960 -0.1273 -0.0692  0.0351
  529W        W 2729  19.351   4.946  43.753 -0.3053 -0.1549 -0.3542
  530W        W 2730  14.495   0.678  12.310  0.1028  0.0664 -0.2034
  531W        W 2731  13.622   4.142  36.827 -0.1170  0.2508  0.1652
  532W        W 2732   2.018   0.711  29.074  0.0923 -0.3547  0.1993
  533W        W 2733  12.984   2.030  15.907  0.5995 -0.1606  0.0676
  534W        W 2734   8.601   0.131   1.418  0.0056 -0.0717 -0.1559
  535W        W 2735  14.627   3.737  31.635 -0.0652  0.2301 -0.1006
  536W        W 2736   9.097   0.053  28.434  0.1440 -0.0810  0.1388
  537W        W 2737   4.672   1.596  44.285 -0.2826 -0.2361 -0.0350
  538W        W 2738   7.203   4.507  12.622  0.2041 -0.3641 -0.2790
  539W        W 2739  19.726   2.490   8.708 -0.0275 -0.2610  0.1752
  540W        W 2740  11.443   4.994   8.673 -0.1953  0.1933 -0.1079
  541W        W 2741   7.392   3.446  24.424  0.1241  0.1775  0.3862
  542W        W 2742  12.714   0.642  44.115 -0.0253 -0.2442  0.3516
  543W        W 2743  14.927   4.269  15.571  0.0201 -0.1575 -0.1362
  544W        W 2744  16.497   1.837  16.394 -0.0382 -0.3695  0.0167
  545W        W 2745  18.223   4.796   2.680 -0.0333  0.0030 -0.0034
  546W        W 2746   5.196   4.026  25.842 -0.0446  0.1949 -0.2272
  547W        W 2747  13.325   5.829  38.785  0.0640 -0.1115 -0.3186
  548W        W 2748  19.200   5.406  33.639 -0.0270 -0.0347 -0.2201
  549W        W 2749  20.206   2.495  44.879 -0.3219  0.1785  0.0917
  550W        W 2750   2.892   4.041  32.006  0.4441 -0.0456 -0.1349
  551W        W 2751   5.014   1.362  22.524  0.1366 -0.1410  0.0056
  552W        W 2752   1.003   5.147   7.563  0.1474  0.1565  0.0128
  553W        W 2753  16.457   4.503   2.825 -0.0412  0.3177 -0.4130
  554W        W 2754  12.752   1.422  20.839  0.0059 -0.1831  0.0725
  555W        W 2755   9.440   1.157   0.324 -0.1572  0.2070  0.1646
  556W        W 2756   4.597   6.308  44.194 -0.1571 -0.0305 -0.0772
  557W        W 2757   2.835   4.641  32.039 -0.0021 -0.1935 -0.1167
  558W        W 2758   5.432   3.986  37.112 -0.3882  0.0853 -0.0418
  559W        W 2759   4.247   0.110  23.322 -0.0569  0.2590  0.4925
  560W        W 2760   6.042   3.317  44.751 -0.0849 -0.0673  0.0154
  561W        W 2761  15.334   1.053  22.108  0.1216  0.0422  0.0241
  562W        W 2762   5.452   3.169   5.440 -0.4213 -0.1108 -0.1678
  563W        W 2763  20.253   1.271   5.014  0.0265  0.0381 -0.1323
  564W        W 2764   5.660   0.913  24.291 -0.0616  0.0743 -0.0454
  565W        W 2765   4.266   4.607   4.183 -0.2012  0.1428  0.2312
  566W        W 2766  10.819   1.080   1.433  0.1264 -0.0174  0.3446
  567W        W 2767   2.984   2.652  26.741  0.0996  0.2196 -0.0336
  568W        W 2768   9.790   0.983  36.632  0.1137  0.0840 -0.1525
  569W        W 2769  13.335   0.446   1.030  0.1526  0.0758  0.0288
  570W        W 2770  15.998   3.378  30.634  0.2229  0.3672 -0.1268
  571W        W 2771  19.005   3.150  15.900 -0.6333  0.1866  0.1761
  572W        W 2772  12.784   5.305   1.792  0.3636 -0.0547 -0.1584
  573W        W 2773  20.724   3.967   3.981 -0.4250  0.0063  0.3055
  574W        W 2774   4.498   5.800  12.961 -0.0217  0.2927  0.2103
  575W        W 2775  12.043   0.722  34.963  0.0434 -0.0754  0.2210
  576W        W 2776  11.526   4.516  12.656 -0.4351  0.1981 -0.0263
  577W        W 2777   6.385   4.687   1.621  0.2715 -0.2452 -0.0422
  578W        W 2778   9.100   4.136   0.707  0.0710 -0.1876  0.3084
  579W        W 2779  12.060   0.372  17.736 -0.2721 -0.0700  0.0936
  580W        W 2780  18.980   1.335  36.671 -0.0846  0.2397  0.0095
  581W        W 2781  13.468   5.888  21.628 -0.0171 -0.0567 -0.1738
  582W        W 2782   1.851   2.144   0.514  0.0727 -0.2910  0.1053
  583W        W 2783  15.266   4.973  36.956  0.0517 -0.0866 -0.2284
  584W        W 2784  18.534   2.259   3.936 -0.0230 -0.0707  0.0758
  585W        W 2785  18.829   4.005  41.668 -0.3083  0.1934  0.1725
  586W        W 2786   7.689   1.326  35.568 -0.0952  0.2263 -0.3620
  587W        W 2787   8.870   4.239  35.483 -0.0077  0.1156  0.0274
  588W        W 2788  11.592   0.509   0.692  0.1274  0.0439  0.3558
  589W        W 2789   7.133   6.604   3.995 -0.2526 -0.0495  0.2659
  590W        W 2790  12.394   6.222  29.127  0.0525  0.0890  0.3316
  591W        W 2791   6.962   1.556  12.702  0.3321  0.2181  0.1296
  592W        W 2792   0.318   0.176   6.910  0.0238  0.4761  0.2854
  593W        W 2793  15.054   0.813   0.774 -0.0600 -0.0996 -0.0638
  594W        W 2794  21.030   4.764  14.878  0.1808 -0.1330 -0.0622
  595W        W 2795  20.797   1.200  31.299  0.0049 -0.0811 -0.2008
  596W        W 2796  17.875   0.012  42.001 -0.0059  0.1785  0.3673
  597W        W 2797   4.950   5.617  22.305  0.2309  0.0740  0.1014
  598W        W 2798  15.885   5.906  31.586 -0.2843  0.2688 -0.1046
  599W        W 2799  16.821   1.794  17.067  0.1887  0.1578  0.0319
  600W        W 2800  11.442   5.605  12.283 -0.0347  0.5153 -0.1334
  601W        W 2801  14.744   6.436   8.556  0.4156  0.1722  0.1030
  602W        W 2802   1.722   3.458  35.120  0.1644 -0.1554 -0.0000
  603W        W 2803  14.989   1.433   7.224 -0.0321 -0.2300  0.0324
  604W        W 2804  11.068   3.180  37.988 -0.0654  0.0493 -0.0645
  605W        W 2805  20.345   3.557   1.699 -0.0968  0.0870 -0.0655
  606W        W 2806  11.691   4.010  17.005  0.1709  0.1366  0.2376
  607W        W 2807   6.194   6.414  24.921 -0.2288  0.0057  0.4311
  608W        W 2808   8.405   4.353  35.744  0.2741  0.0032 -0.1335
  609W        W 2809   0.868   4.315  14.314 -0.1913  0.0130 -0.2769
  610W        W 2810   6.443   4.003   6.277  0.0451  0.2661  0.0863
  611W        W 2811   2.582   1.671  26.706 -0.0629 -0.2819  0.1214
  612W        W 2812  19.565   2.998   7.392 -0.0567  0.0491  0.1121
  613W        W 2813  13.972   0.691  24.050 -0.1068 -0.0452 -0.2199
  614W        W 2814  10.914   1.979  29.137 -0.2267  0.2351 -0.0878
  615W        W 2815   9.560   5.890  41.737 -0.0741 -0.0708 -0.1811
  616W        W 2816  11.566   0.123   6.307 -0.1023  0.1474 -0.1883
  617W        W 2817  12.332   6.067  38.490  0.0733 -0.0928  0.0967
  618W        W 2818   2.924   2.628  41.914 -0.2756  0.0568 -0.2958
  619W        W 2819  12.432   0.400  22.646  0.2215  0.1046  0.0844
  620W        W 2820   3.173   1.070   9.721 -0.2541  0.0629 -0.2582
  621W        W 2821  10.448   5.433   4.257  0.0324 -0.0592 -0.1693
  622W        W 2822  12.951   2.073  40.250  0.0502 -0.1801 -0.5539
  623W        W 2823  11.866   6.478  11.408 -0.1208  0.4902  0.3344
  624W        W 2824  14.260   0.451  42.819 -0.2025 -0.1439  0.1695
  625W        W 2825   7.929   0.078  40.251 -0.2003  0.3073 -0.0995
  626W        W 2826   9.653   3.507   5.303 -0.1745  0.3272 -0.1295
  627W        W 2827   3.578   4.941  14.264 -0.0141  0.2526 -0.0497
  628W        W 2828   1.426   0.775  30.329 -0.1749  0.0930 -0.1256
  629W        W 2829  21.115   6.363   7.922  0.1228 -0.0337 -0.1134
  630W        W 2830   5.689   0.638  24.990 -0.3202 -0.0026 -0.0891
  631W        W 2831  13.089   2.279  38.469  0.4510 -0.1548  0.1442
  632W        W 2832   9.160   1.341   9.125  0.0730  0.3440  0.2671
  633W        W 2833   3.180   1.921  13.651  0.1495 -0.0541  0.0954
  634W        W 2834   8.160   0.564  38.045  0.0548  0.0727 -0.1951
  635W        W 2835   6.982   1.924   6.858 -0.0020 -0.1299  0.0477
  636W        W 2836  17.713   3.635  19.827  0.0067  0.1069 -0.0325
  637W        W 2837   4.025   5.724  32.051  0.1404 -0.1603 -0.1936
  638W        W 2838   0.081   3.404  16.674  0.1541 -0.2005 -0.0466
  639W        W 2839   4.823   0.001   2.815 -0.1173  0.0763 -0.3129
  640W        W 2840  13.998   2.341  13.360 -0.1679  0.1010 -0.0518
  641W        W 2841   2.374   4.862  22.140  0.1576  0.0305 -0.0586
  642W        W 2842  11.078   0.777   8.098  0.0289 -0.2342  0.1607
  643W        W 2843  18.187   1.454  14.834 -0.0242  0.0957  0.1305
  644W        W 2844  13.436   4.792  19.032  0.2394  0.0432 -0.1754
  645W        W 2845   7.012   6.583  42.152 -0.0854  0.0035 -0.0027
  646W        W 2846  15.212   2.304  21.654  0.3241 -0.0966 -0.0198
  647W        W 2847   9.026   3.556   0.881  0.0098 -0.4065 -0.1173
  648W        W 2848   3.579   1.063  30.884 -0.3975 -0.3042 -0.1040
  649W        W 2849   9.593   2.178   4.818  0.3368  0.4359  0.0867
  650W        W 2850   3.632   5.250  35.513  0.2468  0.1723  0.2332
  651W        W 2851   8.854   3.353  17.196  0.2101  0.1576  0.1071
  652W        W 2852   6.630   2.192   7.396 -0.1004 -0.1027 -0.0533
  653W        W 2853  17.683   3.581  41.613  0.0338 -0.0118  0.1042
  654W        W 2854  10.709   5.890  18.816  0.3165 -0.1984 -0.2825
  655W        W 2855   9.306   1.347  14.474  0.1455 -0.0289  0.1807
  656W        W 2856  11.626   1.321  28.152 -0.0842  0.0258 -0.0986
  657W        W 2857   8.883   2.678  11.853 -0.0233 -0.1076  0.1130
  658W        W 2858  19.276   4.645  17.782 -0.3135 -0.0107 -0.1540
  659W        W 2859  13.031   1.510   7.793  0.1352  0.1651 -0.1879
  660W        W 2860  11.596   6.092   3.715 -0.1211 -0.0251  0.0673
  661W        W 2861   1.009   4.513  24.793  0.2561  0.0214 -0.0731
  662W        W 2862  11.047   3.891   1.024  0.1451  0.3627 -0.0278
  663W        W 2863  10.269   3.931  41.222  0.0006  0.2135  0.0775
  664W        W 2864  15.503   1.741  31.002 -0.5178 -0.1932 -0.0760
  665W        W 2865  21.096   5.467   6.844  0.3007 -0.1985  0.0214
  666W        W 2866   9.239   5.210   3.399  0.1262 -0.4147 -0.1452
  667W        W 2867   4.408   4.447  25.990 -0.1873  0.0163 -0.1189
  668W        W 2868   4.578   4.469  12.512 -0.0933  0.3199  0.0271
  669W        W 2869   1.229   1.173  38.015  0.1281  0.1302  0.0223
  670W        W 2870  10.292   3.540  27.145  0.0689 -0.0910 -0.0377
  671W        W 2871  13.938   5.637   0.698 -0.0840 -0.5364 -0.0466
  672W        W 2872  10.998   6.355  30.900  0.4035  0.3048  0.2034
  673W        W 2873   8.144   1.720  32.073  0.1196  0.3349 -0.0585
  674W        W 2874  18.775   4.405  17.916 -0.1261 -0.0101  0.1951
  675W        W 2875  13.590   2.587  21.261 -0.1623  0.2909  0.0013
  676W        W 2876   2.223   1.490   8.277 -0.3535 -0.0633  0.0826
  677W        W 2877   0.055   4.852  39.542  0.1669  0.1179  0.0825
  678W        W 2878  11.892   4.611  44.941  0.1490  0.1413 -0.4305
  679W        W 2879   2.156   6.248  42.481  0.1427  0.1052 -0.2282
  680W        W 2880  11.550   6.516  31.119 -0.1015 -0.1657  0.3179
  681W        W 2881  16.399   3.498  32.564 -0.2044  0.0584  0.0357
  682W        W 2882  19.368   3.017  12.515  0.1093  0.0356 -0.2642
  683W        W 2883  18.096   4.501  44.037  0.2338 -0.2107 -0.1092
  684W        W 2884  12.181   4.962  37.827  0.1158 -0.4367  0.2043
  685W        W 2885  19.229   4.177  32.114 -0.2576 -0.3064 -0.2310
  686W        W 2886   6.659   3.761  38.990 -0.0508  0.0065  0.3492
  687W        W 2887  12.709   1.073  11.452  0.0197 -0.1636  0.0713
  688W        W 2888  16.573   1.894  39.701 -0.2064  0.1697 -0.1503
  689W        W 2889   5.705   3.011  22.701  0.2615  0.0313  0.0342
  690W        W 2890   8.486   2.583  13.264 -0.1837 -0.3270  0.1896
  691W        W 2891  20.799   0.138   9.408  0.0714  0.1906  0.2779
  692W        W 2892   7.714   5.019  28.693 -0.2291 -0.0385  0.1340
  693W        W 2893  18.065   5.880   7.697 -0.1227 -0.2757  0.0494
  694W        W 2894   2.237   0.116   9.541 -0.3255  0.0156  0.2498
  695W        W 2895  15.721   4.750  32.143  0.3933 -0.2957 -0.0541
  696W        W 2896  12.205   4.459  37.870  0.1436 -0.0961 -0.1185
  697W        W 2897   4.785   4.669  28.521  0.2613  0.2697 -0.2629
  698W        W 2898   5.984   3.321  41.499  0.1848  0.0752  0.1566
  699W        W 2899   2.154   2.816   4.612  0.2891  0.3276 -0.0947
  700W        W 2900   2.858   0.006  40.487 -0.5645 -0.1800 -0.4874
  701W        W 2901  18.586   4.564  15.763  0.0187  0.0760 -0.2056
  702W        W 2902  10.680   5.311  42.590  0.2096 -0.1619  0.2143
  703W        W 2903   0.358   0.030   4.077 -0.1793  0.2652  0.0919
  704W        W 2904  13.732   1.879  41.105  0.1814 -0.1008  0.3549
  705W        W 2905  12.808   3.382  17.683  0.1015  0.2287  0.2132
  706W        W 2906  13.895   1.101  40.536  0.0206  0.1498  0.1526
  707W        W 2907  16.110   6.245  32.840  0.0033  0.1105  0.2362
  708W        W 2908   6.760   1.292  40.133 -0.2394  0.2452 -0.0667
  709W        W 2909   1.398   6.104  30.356  0.1577 -0.0704  0.2320
  710W        W 2910  13.155   3.690  44.191 -0.0147 -0.0665  0.1604
  711W        W 2911  15.426   0.268  21.322 -0.1262  0.1068  0.2494
  712W        W 2912   9.745   1.761   9.873  0.0452 -0.1525 -0.1138
  713W        W 2913   2.398   4.491  23.607 -0.0100 -0.0383  0.2989
  714W        W 2914  10.249   0.646  40.190  0.1139  0.0756 -0.0240
  715W        W 2915   5.803   2.767  23.779 -0.3865 -0.0281  0.1044
  716W        W 2916   0.350   4.741  26.610  0.1941 -0.1419 -0.1593
  717W        W 2917   4.838   0.578  33.289  0.0268 -0.3222 -0.0401
  718W        W 2918  18.426   4.798  31.559  0.0232 -0.2035  0.2089
  719W        W 2919  12.900   3.970  37.475 -0.0358  0.1843 -0.2445
  720W        W 2920  14.506   3.678   0.476  0.1107 -0.1286 -0.2424
  721W        W 2921   6.919   0.155   5.252 -0.1216 -0.0492  0.0484
  722W        W 2922  13.866   1.554  22.896  0.1703  0.3556  0.1782
  723W        W 2923  11.456   5.873   8.351 -0.0811 -0.0385  0.1107
  724W        W 2924  10.294   4.324  29.747  0.0500 -0.2745 -0.3136
  725W        W 2925   7.521   2.687   0.153  0.0597  0.1109 -0.0311
  726W        W 2926  19.433   0.691   1.074 -0.1490  0.4285  0.1053
  727W        W 2927  19.743   4.949  31.275  0.1147  0.3736 -0.2724
  728W        W 2928  14.619   5.594  31.942  0.0181 -0.1121  0.0325
  729W        W 2929  14.825   2.840  40.134  0.1152  0.1665 -0.0361
  730W        W 2930   9.434   3.558  42.253  0.1013  0.1710  0.2244
  731W        W 2931  19.202   3.416  12.966  0.2227 -0.1656  0.2993
  732W        W 2932  12.466   5.567  22.041  0.0864 -0.2436 -0.2066
  733W        W 2933  13.337   5.167  32.281  0.1179  0.0334  0.0896
  734W        W 2934  10.943   5.493   4.403 -0.1066  0.0037  0.0377
  735W        W 2935   4.725   5.316  25.351  0.0789  0.1057 -0.1232
  736W        W 2936  11.848   6.146  36.100  0.0246  0.0571  0.0271
  737W        W 2937  12.428   0.409   5.008 -0.0558  0.0750 -0.0251
  738W        W 2938  10.066   2.682  29.493 -0.1673  0.2855  0.0587
  739W        W 2939  18.174   0.177   9.328  0.0524  0.0364 -0.2216
  740W        W 2940  12.820   3.940  20.870 -0.0728  0.2546 -0.3051
  741W        W 2941  18.654   0.311  18.344 -0.1930 -0.3633  0.0418
  742W        W 2942  11.182   4.581  38.952 -0.2505 -0.2909  0.0719
  743W        W 2943   3.742   4.326  27.785 -0.1341  0.0681  0.0255
  744W        W 2944  17.921   2.621  35.175  0.0644 -0.1896  0.2134
  745W        W 2945   0.165   3.409   7.637 -0.0682 -0.0872  0.0619
  746W        W 2946   5.648   0.084   6.097 -0.2596  0.1014 -0.0217
  747W        W 2947   0.857   1.951  42.303  0.1727  0.3214  0.1423
  748W        W 2948  17.502   1.358  29.843  0.0887 -0.0841 -0.2298
  749W        W 2949   0.908   5.291  14.770 -0.2944 -0.1426 -0.0808
  750W        W 2950  15.078   4.359  44.138  0.0139  0.2323 -0.0993
  751W        W 2951   2.533   3.454   3.025  0.0055 -0.2652  0.2156
  752W        W 2952  11.012   0.661  12.653 -0.0161 -0.1487 -0.1425
  753W        W 2953  13.430   3.977  12.661 -0.1470  0.0010  0.0179
  754W        W 2954  17.748   5.973  32.720  0.1932  0.3364 -0.1962
  755W        W 2955  13.981   1.860  19.828 -0.1848 -0.1691  0.1713
  756W        W 2956  19.660   3.918  39.634 -0.1304 -0.0331 -0.0410
  757W        W 2957   7.074   4.185  16.134 -0.0411 -0.3324  0.0143
  758W        W 2958   9.209   5.630  13.227  0.1833 -0.1747 -0.1114
  759W        W 2959   4.350   4.170  12.829  0.0312 -0.3033 -0.0048
  760W        W 2960  17.283   0.864  42.806 -0.0292 -0.1348  0.0212
  761W        W 2961   2.870   2.819  25.542 -0.0077  0.1202 -0.0450
  762W        W 2962  16.445   5.491   3.634 -0.0417  0.2182 -0.1976
  763W        W 2963   2.883   0.553  26.992  0.2312  0.2917 -0.1115
  764W        W 2964   7.918   5.615  27.543  0.2326 -0.2150  0.3066
  765W        W 2965   2.809   0.066  34.777 -0.0604 -0.0027 -0.0024
  766W        W 2966  19.320   2.852  18.591 -0.3193 -0.0495 -0.2399
  767W        W 2967  18.985   2.647   5.305 -0.1222 -0.2600 -0.0323
  768W        W 2968   8.655   5.447   1.508  0.2323  0.1724 -0.1881
  769W        W 2969   0.403   4.001   2.879 -0.5033  0.3099  0.0379
  770W        W 2970  18.849   2.826  13.722 -0.0365 -0.0111  0.0725
  771W        W 2971   7.517   3.420   9.909  0.0352  0.0917  0.1023
  772W        W 2972   9.232   3.438   6.433 -0.0198  0.1251  0.0238
  773W        W 2973  10.484   2.201  38.407 -0.1023 -0.1325  0.1200
  774W        W 2974  12.769   1.280  44.946 -0.2941 -0.1511 -0.1098
  775W        W 2975  19.204   4.922  42.591  0.1122  0.3355  0.0921
  776W        W 2976  20.062   3.269  42.543  0.0337  0.0136 -0.1303
  777W        W 2977  14.830   5.114  38.648 -0.1903  0.1704 -0.0072
  778W        W 2978   5.560   2.622  37.110  0.0841  0.0390  0.2019
  779W        W 2979  11.598   6.230  39.261  0.1962  0.2095 -0.0277
  780W        W 2980   0.691   5.358   6.240  0.0038 -0.0329  0.0452
  781W        W 2981   1.794   0.949   2.336 -0.0221  0.1971 -0.2179
  782W        W 2982   5.855   3.177  25.668 -0.1299 -0.3152  0.0744
  783W        W 2983   3.940   1.946  19.236 -0.0031 -0.1262 -0.1612
  784W        W 2984  15.512   2.017   9.171  0.0499 -0.0927 -0.1987
  785W        W 2985  18.253   3.792   3.847 -0.1179  0.2751 -0.1870
  786W        W 2986  20.061   6.358  43.907 -0.1821 -0.0961 -0.2471
  787W        W 2987   3.468   1.978  39.812  0.2148 -0.0908  0.1882
  788W        W 2988   6.028   6.030  34.283 -0.0507 -0.1063  0.0515
  789W        W 2989  13.923   4.889   3.226  0.1100  0.2316  0.0261
  790W        W 2990   1.934   4.815   5.894 -0.0155  0.1366  0.0482
  791W        W 2991  10.532   2.290  40.356  0.1177  0.0030  0.2743
  792W        W 2992  18.416   0.005   6.852  0.2569 -0.2570  0.1300
  793W        W 2993   2.220   1.690  26.321 -0.0207  0.1317 -0.0280
  794W        W 2994   9.319   1.397  39.062  0.0616 -0.1884 -0.2937
  795W        W 2995   0.018   0.917  15.332 -0.2501 -0.1571  0.0897
  796W        W 2996   2.942   4.635  34.509  0.0353 -0.1026 -0.2211
  797W        W 2997  10.158   5.586  16.314 -0.0335  0.1073  0.0424
  798W        W 2998  18.337   3.921  31.163  0.1792 -0.2819 -0.0479
  799W        W 2999  10.776   5.039  29.604  0.0916  0.2353 -0.0070
  800W        W 3000   7.942   1.235   3.606  0.0156 -0.0150  0.0590
  801W        W 3001   9.591   1.663  31.170  0.0573 -0.0988  0.1732
  802W        W 3002   5.439   1.377   4.711 -0.1308 -0.2731  0.2540
  803W        W 3003   9.988   0.168  17.282  0.0566  0.1617  0.1369
  804W        W 3004   1.984   3.895   3.624 -0.0054  0.1777 -0.0484
  805W        W 3005   9.984   4.034  34.893  0.1707 -0.1679 -0.1618
  806W        W 3006   5.070   4.014   8.087  0.0225  0.1576  0.0102
  807W        W 3007  16.197   2.600   0.911 -0.1383  0.0142 -0.1283
  808W        W 3008   5.909   1.437  34.086 -0.2406 -0.0644 -0.3813
  809W        W 3009  11.953   3.083  10.452  0.0859  0.1149  0.0070
  810W        W 3010  10.635   4.274   5.778 -0.0289 -0.0153  0.0239
  811W        W 3011  15.020   6.220  32.348  0.2581  0.2017 -0.1343
  812W        W 3012  20.517   1.895  27.718 -0.2677  0.2565 -0.1946
  813W        W 3013   4.093   5.376  36.739 -0.0161 -0.0331  0.0330
  814W        W 3014   7.993   5.677  29.799  0.3040 -0.0561 -0.3701
  815W        W 3015   5.172   2.233  12.228 -0.1379 -0.2904 -0.0743
  816W        W 3016  11.260   4.588  13.541  0.0446 -0.3183  0.1357
  817W        W 3017   7.682   2.901  39.759 -0.1231  0.2137  0.0655
  818W        W 3018   7.991   6.152  27.825 -0.1716 -0.2340  0.1427
  819W        W 3019  17.660   6.296  44.832  0.0072 -0.0204 -0.2380
  820W        W 3020  16.698   5.151   5.285  0.1340 -0.1965 -0.1684
  821W        W 3021   7.862   5.468  35.424  0.3934  0.0786  0.1163
  822W        W 3022   9.316   5.954   8.797 -0.0313  0.1164  0.0159
  823W        W 3023   2.794   5.599  44.059  0.1462  0.0764  0.1094
  824W        W 3024  15.297   4.603   9.215  0.0624  0.2056 -0.0813
  825W        W 3025   1.085   6.081  31.278 -0.1173  0.1677 -0.0470
  826W        W 3026  10.917   0.108  40.582  0.2651 -0.0110  0.0151
  827W        W 3027  13.031   0.217  34.928  0.0999 -0.1580 -0.0094
  828W        W 3028   5.208   0.507  32.841 -0.1657 -0.3125 -0.4560
  829W        W 3029   5.122   4.561  26.388 -0.0826  0.1215 -0.0241
  830W        W 3030   2.136   1.195  23.838  0.1730 -0.2421  0.4438
  831W        W 3031   4.915   0.366  25.806  0.3588 -0.2763 -0.0807
  832W        W 3032  12.067   1.121   6.618  0.0113  0.0413 -0.0906
  833W        W 3033  18.742   0.242  34.480  0.2047 -0.1857 -0.1650
  834W        W 3034  20.741   2.945  33.058  0.2039 -0.0809 -0.1251
  835W        W 3035  16.087   5.343  38.137  0.2250 -0.0421  0.2307
  836W        W 3036  15.077   3.281  21.210  0.1472  0.4785  0.3879
  837W        W 3037   3.420   0.642  36.962  0.0326  0.0877  0.2028
  838W        W 3038   9.404   6.429   2.699  0.0498  0.1862 -0.0668
  839W        W 3039  14.352   2.180  20.782 -0.1010 -0.4064 -0.2954
  840W        W 3040  20.681   2.406  35.007  0.0150  0.2188 -0.0498
  841W        W 3041  21.107   2.710   4.341 -0.1038  0.2388 -0.0894
  842W        W 3042   8.421   2.225  43.314  0.0640  0.1021 -0.3160
  843W        W 3043  14.522   6.586   1.072  0.0262  0.0263  0.2657
  844W        W 3044   7.505   0.775  11.949  0.1256 -0.0870 -0.0758
  845W        W 3045  13.379   2.585  17.570 -0.2288 -0.1733 -0.2551
  846W        W 3046   6.356   1.116  27.633 -0.1935  0.2641  0.1722
  847W        W 3047  18.691   4.103  42.316 -0.0778 -0.0527  0.1028
  848W        W 3048   7.042   6.478  30.520  0.0385  0.1278  0.3427
  849W        W 3049   8.223   0.506  35.750 -0.1562 -0.2671  0.0128
  850W        W 3050   3.314   3.515   4.915  0.1801  0.1059  0.0203
  851W        W 3051   1.478   2.425   6.216 -0.0017 -0.1549 -0.0184
  852W        W 3052  20.555   5.909  27.702 -0.2997  0.0934 -0.1342
  853W        W 3053  13.022   1.301  13.168 -0.1619  0.2408  0.1185
  854W        W 3054   6.540   0.870   4.556 -0.2463  0.1366  0.1689
  855W        W 3055  16.595   0.571   3.306  0.1767 -0.0850 -0.0137
  856W        W 3056   9.142   1.103  26.870 -0.0233  0.1166 -0.2245
  857W        W 3057   6.220   5.075  39.656 -0.0130 -0.1150 -0.3775
  858W        W 3058  11.163   4.785  19.895  0.0906 -0.0271  0.2359
  859W        W 3059  16.259   5.655  12.966 -0.0634 -0.0536 -0.1828
  860W        W 3060   1.282   5.012  25.297  0.0639 -0.2781 -0.1916
  861W        W 3061  12.049   6.252  14.356  0.0972 -0.4153  0.0230
  862W        W 3062  17.575   6.436  37.117  0.1115  0.0341 -0.3482
  863W        W 3063   5.504   1.371  24.037 -0.0853 -0.2149 -0.0177
  864W        W 3064  17.499   2.379  17.981  0.2137  0.0889 -0.1332
  865W        W 3065  14.276   6.355  31.266 -0.1791 -0.2455  0.4214
  866W        W 3066   6.355   3.713  30.732 -0.1366  0.1811  0.0156
  867W        W 3067   0.601   1.221  39.165  0.1260  0.0671  0.5204
  868W        W 3068  15.749   3.348   7.916 -0.0546 -0.0641 -0.1939
  869W        W 3069   3.519   6.203  23.218  0.0374 -0.2774  0.1194
  870W        W 3070   9.495   2.452  30.065 -0.0165 -0.0687  0.0383
  871W        W 3071   1.446   0.838  11.085  0.0103 -0.0503 -0.1001
  872W        W 3072  15.839   0.960   9.420  0.2715  0.2820 -0.0311
  873W        W 3073   5.221   4.479   7.344 -0.1800  0.0094 -0.2588
  874W        W 3074  11.944   0.148  44.221 -0.1441 -0.2804  0.0315
  875W        W 3075   7.804   6.080  38.962  0.2953  0.0689 -0.2937
  876W        W 3076  11.792   2.321  40.393  0.0547  0.1876 -0.2331
  877W        W 3077   8.168   1.221  11.337  0.1634  0.1162 -0.0264
  878W        W 3078   6.843   4.069   8.790  0.0546 -0.0192 -0.0192
  879W        W 3079   3.690   4.964  22.648 -0.2411  0.1588  0.0273
  880W        W 3080   5.351   6.464  44.630  0.0539 -0.0064 -0.0099
  881W        W 3081  16.101   3.775   7.941  0.0027  0.1572 -0.2787
  882W        W 3082   5.034   4.270   4.927  0.0419  0.1538  0.0055
  883W        W 3083  10.687   5.156   2.957 -0.1880 -0.1176 -0.0209
  884W        W 3084  16.341   4.129   7.431 -0.0523 -0.0245 -0.1497
  885W        W 3085  10.420   1.168  41.893  0.1913 -0.0007 -0.0674
  886W        W 3086  10.236   0.925   4.005  0.0225 -0.0521  0.1162
  887W        W 3087  14.670   3.543  36.505  0.0399 -0.1458  0.1485
  888W        W 3088   3.135   5.964  41.122 -0.0376 -0.0574 -0.0960
  889W        W 3089   6.277   0.517  14.074  0.0548  0.0091 -0.2448
  890W        W 3090  14.593   3.085  19.936  0.1733  0.3963  0.0133
  891W        W 3091   6.444   4.354   0.271  0.0222  0.0470 -0.0086
  892W        W 3092  13.928   6.501  32.777 -0.0366  0.1326  0.0274
  893W        W 3093  14.606   4.932  29.763 -0.2139  0.0468 -0.1715
  894W        W 3094  19.887   2.419  43.831  0.1607 -0.0873  0.0574
  895W        W 3095  17.936   0.604  37.150 -0.3131  0.0706 -0.1411
  896W        W 3096   8.842   2.613   3.950  0.0582 -0.0565 -0.1201
  897W        W 3097  19.799   5.555  17.014 -0.1780 -0.0179  0.0980
  898W        W 3098   2.505   2.784  16.061 -0.1895  0.1793  0.1234
  899W        W 3099   8.780   2.751  13.989 -0.0788  0.1222  0.0426
  900W        W 3100   1.636   4.778  25.569  0.1228 -0.0418  0.0108
  901W        W 3101   5.022   1.458  34.912 -0.0935  0.1940 -0.2050
  902W        W 3102  12.429   5.927  44.703  0.0768  0.0196 -0.3501
  903W        W 3103   1.383   4.660  24.462 -0.0203  0.0089  0.1497
  904W        W 3104  17.737   5.412  20.657 -0.1232 -0.0245  0.3144
  905W        W 3105  11.676   5.209  38.273 -0.1207 -0.0824 -0.2259
  906W        W 3106  10.957   3.746  39.998  0.0007  0.1670 -0.1051
  907W        W 3107   5.398   6.501  31.965  0.6489 -0.4067 -0.1841
  908W        W 3108   2.629   5.750  38.506 -0.1098  0.2509 -0.2347
  909W        W 3109  18.416   0.618  39.287 -0.3508  0.2844  0.0348
  910W        W 3110  12.994   3.493  31.829  0.1820 -0.0619 -0.1320
  911W        W 3111  15.220   4.005  30.689  0.2792  0.0685  0.0104
  912W        W 3112   0.775   2.078  13.173  0.0645  0.0480 -0.0295
  913W        W 3113   7.838   3.716  10.089  0.0542  0.2442  0.0590
  914W        W 3114   3.879   6.591  25.143  0.2118  0.0557 -0.2281
  915W        W 3115   2.502   4.575  36.063 -0.2352  0.1407  0.2066
  916W        W 3116   8.989   6.050  10.760  0.0794 -0.0081  0.1284
  917W        W 3117  13.614   3.593  36.892  0.0433 -0.1847 -0.2775
  918W        W 3118   8.764   3.760  16.318 -0.0082 -0.0205  0.1698
  919W        W 3119   8.499   3.204  35.327 -0.1646  0.1550 -0.2972
  920W        W 3120   2.665   2.639  34.303 -0.3307 -0.1749 -0.2425
  921W        W 3121  12.465   5.579   6.387 -0.4002 -0.2717  0.1922
  922W        W 3122   7.031   4.170   6.327  0.1950  0.0388  0.3331
  923W        W 3123  11.016   5.249  44.085 -0.0049 -0.0135 -0.0206
  924W        W 3124  20.064   4.220  18.192  0.0790  0.1185  0.2143
  925W        W 3125   2.040   6.355  38.719 -0.1250 -0.0545 -0.3434
  926W        W 3126  18.936   2.176   6.147 -0.0353 -0.2368 -0.1026
  927W        W 3127   2.840   1.706  42.734  0.1918  0.0134 -0.1084
  928W        W 3128  13.525   3.295  23.000 -0.1738 -0.0115 -0.0113
  929W        W 3129  16.538   0.838  29.011  0.3514 -0.0325 -0.0967
  930W        W 3130  13.241   4.710  22.616 -0.1949 -0.0853  0.0825
  931W        W 3131  13.983   4.439  22.481  0.2415  0.0622 -0.1132
  932W        W 3132   6.357   1.026  34.055  0.1117 -0.0513  0.1604
  933W        W 3133   1.567   4.754  10.945  0.0282 -0.1391 -0.0710
  934W        W 3134   1.114   0.142  40.989  0.2793 -0.0940  0.0788
  935W        W 3135  18.460   2.961   2.732  0.1580  0.1633  0.0626
  936W        W 3136   5.296   1.687  31.103  0.0256  0.2325 -0.0930
  937W        W 3137  12.599   4.527  33.732 -0.1450  0.0088 -0.1996
  938W        W 3138   4.223   1.800  42.129 -0.2713  0.1469 -0.0869
  939W        W 3139   9.404   4.987  36.893  0.2868  0.1149 -0.0014
  940W        W 3140  17.611   0.888  28.839 -0.0805  0.0337  0.1013
  941W        W 3141  13.568   4.268   6.982  0.2541 -0.0246 -0.2625
  942W        W 3142  15.881   2.349  33.651 -0.2388 -0.0437  0.0519
  943W        W 3143  17.678   3.306  44.839  0.3711 -0.0823 -0.2107
  944W        W 3144   5.985   2.555  40.277  0.2514 -0.3339  0.4384
  945W        W 3145  15.053   5.755  12.367  0.1075 -0.0775 -0.0618
  946W        W 3146  10.961   0.898  34.416  0.3993 -0.0295 -0.0684
  947W        W 3147   2.942   5.779   6.490  0.0442  0.0112  0.1877
  948W        W 3148  20.553   2.082  13.215  0.1266  0.1287  0.4971
  949W        W 3149  21.122   5.722  31.419 -0.2654  0.1785 -0.3521
  950W        W 3150   1.882   1.393  32.232 -0.0198 -0.0334  0.0430
  951W        W 3151  16.767   2.680  40.083  0.3603 -0.0914 -0.2317
  952W        W 3152   8.779   3.095   5.645 -0.1959  0.0405  0.1092
  953W        W 3153   9.347   5.638   9.858 -0.0904 -0.1581 -0.2327
  954W        W 3154  11.874   2.208  11.361 -0.1371  0.2820 -0.0512
  955W        W 3155  11.953   0.256   8.516  0.1979 -0.1436 -0.0515
  956W        W 3156   5.721   0.760  35.923 -0.0869 -0.0596 -0.1530
  957W        W 3157  20.519   4.423  38.638 -0.2092 -0.3169 -0.2241
  958W        W 3158  17.508   0.231  33.890 -0.0579  0.1092 -0.0699
  959W        W 3159   8.691   4.161  44.690 -0.0873  0.4149 -0.3044
  960W        W 3160   4.434   6.138  21.275 -0.1055  0.0326 -0.0599
  961W        W 3161  15.454   0.578  23.547  0.1472  0.3045 -0.0672
  962W        W 3162   4.250   5.386  25.662 -0.0327 -0.0854 -0.1107
  963W        W 3163  10.108   1.041  10.994 -0.0244  0.3271  0.2891
  964W        W 3164  19.393   1.545   0.479  0.0995  0.3035  0.1188
  965W        W 3165  12.948   3.393  11.816  0.3154 -0.0759  0.2311
  966W        W 3166  14.775   3.777  30.574  0.0191  0.1253 -0.0060
  967W        W 3167   8.639   5.082  43.027 -0.0423 -0.0652 -0.1585
  968W        W 3168   2.135   0.714  30.029  0.0611  0.0173 -0.2614
  969W        W 3169  17.122   1.462  15.491  0.1379 -0.1147 -0.1867
  970W        W 3170  12.636   3.971  35.458  0.1560  0.1047 -0.0246
  971W        W 3171   8.262   0.081  37.224  0.2596 -0.0271  0.4518
  972W        W 3172   6.558   4.266  11.916 -0.1694  0.1777  0.1246
  973W        W 3173  14.707   0.033  20.602 -0.0341  0.2342 -0.2006
  974W        W 3174  10.673   4.332  28.019 -0.0180 -0.0544 -0.0054
  975W        W 3175  13.129   5.456  29.133 -0.1485  0.0206 -0.0278
  976W        W 3176  10.000   0.925  19.571  0.0436  0.0863  0.2307
  977W        W 3177   0.947   5.438  11.230  0.2853  0.1900  0.1248
  978W        W 3178  12.340   3.987  15.680 -0.1212 -0.0040 -0.0470
  979W        W 3179  12.777   1.878  45.058  0.1741 -0.0037  0.2433
  980W        W 3180  14.533   5.858  23.143  0.2679 -0.0470  0.1927
  981W        W 3181   0.634   4.557   2.732  0.2210 -0.1085 -0.0881
  982W        W 3182  13.744   6.597   7.772  0.2205  0.1697 -0.1494
  983W        W 3183   7.106   2.488  43.321 -0.2114 -0.0708  0.1827
  984W        W 3184   1.354   3.375   1.573  0.1166  0.2703 -0.1786
  985W        W 3185   3.700   3.179  26.997 -0.0030 -0.2466 -0.0723
  986W        W 3186   5.074   1.642  44.674 -0.2134  0.2748  0.0218
  987W        W 3187  10.948   2.305  30.187 -0.0690  0.1193  0.0160
  988W        W 3188  12.848   4.269  39.293  0.2750 -0.1662 -0.0422
  989W        W 3189  20.887   4.075   0.670 -0.1095  0.0416  0.0257
  990W        W 3190  19.375   3.159  30.344 -0.1462 -0.3000 -0.3114
  991W        W 3191  16.688   0.606   5.002  0.0248 -0.0046  0.4460
  992W        W 3192  19.679   5.203  12.041  0.0096 -0.0203  0.2099
  993W        W 3193   2.280   4.739  44.821  0.0213  0.0732  0.1199
  994W        W 3194   8.714   0.171  28.119 -0.0552 -0.0325 -0.2029
  995W        W 3195  10.874   1.945  38.035  0.0933  0.0916 -0.0059
  996W        W 3196   9.405   3.207  13.046  0.2623  0.2074  0.1391
  997W        W 3197   1.545   3.081   3.466 -0.2533 -0.0204  0.1301
  998W        W 3198   4.082   4.252  25.126  0.2888 -0.1418  0.1303
  999W        W 3199   5.352   3.468  37.266  0.0234  0.1485  0.0321
 1000W        W 3200  17.904   0.345  19.914 -0.1578 -0.1210  0.1468
 1001W        W 3201  14.659   5.468  12.504  0.0313  0.0012  0.0468
 1002W        W 3202  18.018   0.490   4.335  0.1185 -0.1842  0.1765
 1003W        W 3203  13.574   3.217  41.130  0.1644  0.0978 -0.2463
 1004W        W 3204   0.915   5.764  11.644 -0.3601 -0.0259  0.0787
 1005W        W 3205   4.824   4.555  33.947 -0.1915 -0.2189  0.1359
 1006W        W 3206  19.406   4.628  14.346  0.1595 -0.1290  0.3906
 1007W        W 3207  10.983   1.106  16.032 -0.0087  0.1351  0.0192
 1008W        W 3208  16.832   4.466  41.943  0.2304 -0.0244  0.4230
 1009W        W 3209   5.750   5.542  42.149 -0.2534 -0.0099  0.0023
 1010W        W 3210   1.297   5.133  14.558 -0.4022  0.2083 -0.2478
 1011W        W 3211  16.934   6.376   1.318 -0.0118 -0.1409  0.0246
 1012W        W 3212   8.729   0.010   6.321 -0.0152 -0.0130 -0.0869
 1013W        W 3213   6.403   2.014   1.657 -0.1549  0.0969  0.0880
 1014W        W 3214  21.139   4.445  43.303  0.1615 -0.0272  0.4141
 1015W        W 3215   9.075   2.268   5.491  0.2639  0.1182  0.0833
 1016W        W 3216   1.142   4.234   9.021 -0.1280  0.1456  0.1568
 1017W        W 3217   5.356   6.529  29.334  0.2252  0.0802  0.0809
 1018W        W 3218   8.219   3.261  42.347 -0.0043 -0.0194  0.0663
 1019W        W 3219  20.497   3.206  40.996 -0.1272 -0.4543 -0.0251
 1020W        W 3220   5.032   1.867  38.365  0.0079 -0.1725  0.3665
 1021W        W 3221  13.854   1.325   1.019 -0.0163  0.0528  0.2816
 1022W        W 3222  16.752   5.405  31.538 -0.2986  0.1705 -0.0702
 1023W        W 3223  20.792   5.421  42.177 -0.1021 -0.0421 -0.2696
 1024W        W 3224  11.196   0.025  32.328  0.2584 -0.0997 -0.0179
 1025W        W 3225   3.107   2.950  12.760  0.1097  0.1483  0.1077
 1026W        W 3226   9.816   2.006  29.617  0.4381 -0.1564  0.0251
 1027W        W 3227   1.300   1.593  34.819 -0.1520 -0.3183 -0.3682
 1028W        W 3228  19.340   2.427   3.838  0.1107  0.1902  0.0820
 1029W        W 3229   8.530   1.038   2.912  0.2494 -0.0082  0.0946
 1030W        W 3230   2.153   1.545  14.792 -0.0559  0.1643  0.0250
 1031W        W 3231   4.724   4.680  35.098  0.0345  0.0500  0.2243
 1032W        W 3232  20.431   4.382  17.264  0.0638 -0.1390  0.1747
 1033W        W 3233   0.633   1.207  27.581 -0.1711 -0.3421  0.1057
 1034W        W 3234  14.779   0.022  31.244  0.1704  0.0452 -0.0507
 1035W        W 3235  12.851   6.512  29.026  0.1236  0.1171 -0.1212
 1036W        W 3236   0.520   2.984  41.038  0.2295 -0.1095 -0.2892
 1037W        W 3237  12.009   1.491   8.287  0.0810  0.1273  0.0609
 1038W        W 3238  13.283   2.774   1.521  0.1043  0.1880 -0.1626
 1039W        W 3239  11.482   3.768  34.864  0.0811 -0.1272  0.2820
 1040W        W 3240   3.497   6.166   0.095  0.0889 -0.0113 -0.2885
 1041W        W 3241  20.494   3.898  37.009  0.0964 -0.0879  0.0434
 1042W        W 3242  15.426   6.512  29.652  0.2156  0.1055  0.2602
 1043W        W 3243   8.983   1.005  30.156  0.1555 -0.2631 -0.1824
 1044W        W 3244  20.585   0.436   3.442  0.2635  0.0084  0.2321
 1045W        W 3245  12.240   2.516   8.323  0.1160  0.0234  0.1231
 1046W        W 3246  13.369   3.603  41.821  0.1298 -0.0545 -0.0234
 1047W        W 3247   5.114   5.938  27.891 -0.1728 -0.0355  0.2241
 1048W        W 3248   1.792   2.727  29.725  0.1010 -0.1230 -0.3449
 1049W        W 3249   8.732   0.810  16.254  0.2140  0.1662 -0.1114
 1050W        W 3250   0.168   2.391  35.045 -0.1358  0.0238  0.0553
 1051W        W 3251   9.886   4.415   1.781 -0.1800 -0.2509 -0.1829
 1052W        W 3252   5.917   4.059   4.964  0.0545 -0.4969 -0.1515
 1053W        W 3253  19.778   2.038  27.078 -0.0044  0.0758  0.4873
 1054W        W 3254  11.163   1.855  32.909 -0.0333 -0.0040 -0.2207
 1055W        W 3255   4.716   4.802  15.009  0.0494  0.0272 -0.0754
 1056W        W 3256  20.391   1.047  36.255 -0.1833  0.1943  0.0119
 1057W        W 3257   3.800   1.825  42.358  0.0235 -0.1526 -0.0302
 1058W        W 3258   1.762   4.445   3.001 -0.3375 -0.0290 -0.3148
 1059W        W 3259   9.203   0.767   6.989 -0.2002  0.2471  0.1247
 1060W        W 3260   0.875   2.149  14.431  0.1654 -0.1148 -0.0146
 1061W        W 3261   5.131   2.510  41.079 -0.2183 -0.0224 -0.0957
 1062W        W 3262   0.515   5.680  10.555 -0.1662 -0.0490 -0.1662
 1063W        W 3263   9.293   2.974  38.839 -0.2428  0.0619  0.0265
 1064W        W 3264  10.067   3.226   5.226 -0.0350  0.0336 -0.1533
 1065W        W 3265  20.241   0.763  10.566 -0.2476  0.0439 -0.0202
 1066W        W 3266   9.228   4.686  12.212  0.2757 -0.3188 -0.1367
 1067W        W 3267   1.020   5.619   8.893 -0.2483  0.1406 -0.0438
 1068W        W 3268  15.667   1.395  43.608  0.1910  0.0637 -0.0482
 1069W        W 3269  11.025   4.844  15.643  0.1819  0.0303  0.0527
 1070W        W 3270   2.039   3.709  37.675 -0.3883 -0.1955 -0.2195
 1071W        W 3271   7.224   6.460  31.387  0.0845 -0.3011  0.2705
 1072W        W 3272   2.112   4.010  29.433 -0.3989  0.1042  0.2165
 1073W        W 3273   0.435   4.276  24.239  0.1979  0.0850 -0.0435
 1074W        W 3274   8.768   3.777  44.344 -0.0306  0.0435  0.0836
 1075W        W 3275  17.509   4.745  32.705 -0.1569 -0.2765  0.0436
 1076W        W 3276  12.322   4.582   0.062 -0.2340  0.0074 -0.4938
 1077W        W 3277  20.614   0.848  14.745 -0.0373 -0.0106 -0.0745
 1078W        W 3278  13.393   0.959   6.710  0.0465 -0.0472  0.0141
 1079W        W 3279  15.029   4.939   0.323  0.0306  0.1799 -0.1444
 1080W        W 3280   2.202   5.028  24.439  0.0183  0.1589 -0.2410
 1081W        W 3281  18.426   1.462  28.402  0.1705 -0.0343  0.1078
 1082W        W 3282   2.425   3.766  10.527  0.1015 -0.2142  0.1611
 1083W        W 3283   6.974   5.975  31.972  0.2772 -0.0819  0.2939
 1084W        W 3284   5.859   4.049   3.653  0.1656 -0.1371  0.0046
 1085W        W 3285  10.009   1.137   9.543 -0.1780  0.1286 -0.0544
 1086W        W 3286   0.621   4.704  42.211  0.0089  0.0825  0.2358
 1087W        W 3287   1.614   3.068  36.582 -0.1389  0.0196 -0.1001
 1088W        W 3288  18.535   3.998  16.899 -0.0894 -0.0458  0.1520
 1089W        W 3289   2.364   6.385  33.924  0.0086 -0.0982  0.1919
 1090W        W 3290   1.109   2.334  39.099  0.0222  0.1032  0.2264
 1091W        W 3291  10.715   2.110  44.344  0.0207  0.0062  0.2410
 1092W        W 3292  17.138   0.364  10.446 -0.0342 -0.0088 -0.1589
 1093W        W 3293   1.114   1.940  41.399 -0.1698  0.1845  0.3673
 1094W        W 3294   2.653   4.897  38.492  0.0598  0.0897  0.3412
 1095W        W 3295  10.137   0.753  43.229 -0.0431 -0.2325  0.4119
 1096W        W 3296  11.591   4.214   1.439  0.0508  0.0878 -0.0441
 1097W        W 3297   9.285   5.939   3.935  0.0444 -0.0425  0.0994
 1098W        W 3298  10.707   2.509   2.540 -0.2447  0.0146  0.3068
 1099W        W 3299  13.363   3.797   5.522  0.0948  0.0132  0.1638
 1100W        W 3300  10.349   4.602  44.005 -0.0435  0.1858 -0.0309
 1101W        W 3301   1.321   4.829  12.716  0.2044 -0.0777 -0.1157
 1102W        W 3302   2.638   6.182   1.529 -0.0865  0.1549  0.2727
 1103W        W 3303   0.775   4.929  42.679 -0.1788 -0.0798 -0.2227
 1104W        W 3304  15.059   3.975   7.995  0.0173 -0.2225 -0.1521
 1105W        W 3305  16.860   1.638   1.869 -0.2011  0.1140  0.2549
 1106W        W 3306   5.629   3.902   7.453 -0.0964  0.2206  0.4168
 1107W        W 3307  19.623   5.858   2.546 -0.0934  0.0060 -0.0476
 1108W        W 3308  19.913   4.341  26.535 -0.2063 -0.0442 -0.2363
 1109W        W 3309  10.457   1.432   7.866  0.0710 -0.0283 -0.1999
 1110W        W 3310  19.896   1.364   7.009  0.1675  0.2259  0.2890
 1111W        W 3311   7.126   0.201   9.448  0.1905  0.0780 -0.0522
 1112W        W 3312   4.822   2.798  25.117 -0.1565 -0.2535 -0.0780
 1113W        W 3313  16.205   2.573  11.551 -0.1606  0.0120  0.1212
 1114W        W 3314  13.943   4.656  11.473 -0.0469  0.2116 -0.1308
 1115W        W 3315   5.007   0.880  35.704 -0.0024 -0.1977 -0.1598
 1116W        W 3316  12.262   3.077   3.392 -0.0266 -0.0002 -0.0159
 1117W        W 3317   7.326   2.762  15.413  0.0921 -0.0351 -0.0674
 1118W        W 3318  13.092   4.557  30.555 -0.3357 -0.2113 -0.4087
 1119W        W 3319  20.697   2.524  16.663  0.0180 -0.2627 -0.2937
 1120W        W 3320   8.192   3.308  27.531  0.1851  0.0850  0.1453
 1121W        W 3321   9.664   4.992  19.068  0.0377  0.1523  0.2192
 1122W        W 3322  19.232   5.862  42.739 -0.2569 -0.2444 -0.0876
 1123W        W 3323  10.138   0.083  32.645 -0.0851 -0.0503  0.0034
 1124W        W 3324   4.494   0.092  34.582 -0.0543  0.2491 -0.3096
 1125W        W 3325   1.032   1.882  43.308  0.0697 -0.2376  0.0099
 1126W        W 3326  15.916   3.738  41.671  0.2348 -0.0462 -0.0863
 1127W        W 3327   9.669   3.500  14.476 -0.1707 -0.0526 -0.2747
 1128W        W 3328  17.911   3.168  43.560  0.1829 -0.0005 -0.1000
 1129W        W 3329   0.483   0.084  26.168 -0.0935  0.3558 -0.0745
 1130W        W 3330   6.144   1.883   4.417  0.2223  0.2863  0.1470
 1131W        W 3331  16.270   2.851   7.860  0.0067  0.0444  0.1536
 1132W        W 3332  17.108   2.478   2.091 -0.0108  0.0723  0.3930
 1133W        W 3333  11.728   2.210  13.656 -0.0200 -0.0843 -0.1344
 1134W        W 3334  20.867   0.307  36.868  0.0518  0.1574  0.1198
 1135W        W 3335  12.685   1.298  34.493  0.2466 -0.2170  0.0761
 1136W        W 3336   5.688   4.683  34.104  0.0505  0.0706  0.1642
 1137W        W 3337   0.005   4.375  14.591 -0.0631 -0.0292  0.1579
 1138W        W 3338  15.518   1.225  11.758 -0.0182 -0.2467 -0.1282
 1139W        W 3339  14.921   2.577  41.933  0.1525 -0.0975  0.0650
 1140W        W 3340   9.484   3.330  27.340 -0.1817  0.0790 -0.2904
 1141W        W 3341   6.435   4.898  43.593  0.2790 -0.0992  0.0899
 1142W        W 3342   1.646   0.375  44.877  0.4392  0.0637 -0.1327
 1143W        W 3343   3.670   6.155  30.313  0.1371  0.1691 -0.0114
 1144W        W 3344   8.667   6.397  14.422 -0.0561 -0.0152  0.2727
 1145W        W 3345   5.723   5.293   1.489  0.0666  0.2087 -0.1701
 1146W        W 3346   3.901   3.148   6.225  0.1230  0.0068  0.0976
 1147W        W 3347  20.061   4.267   0.791 -0.1176  0.0620  0.2892
 1148W        W 3348   4.080   3.564  26.817  0.1839 -0.1707  0.0775
 1149W        W 3349   6.956   1.427   9.758  0.0941 -0.0248 -0.1305
 1150W        W 3350   1.857   2.618   0.783 -0.0369  0.0859  0.2241
 1151W        W 3351   9.546   1.200   1.284  0.1941 -0.0848  0.2405
 1152W        W 3352   7.508   3.426  12.271  0.0702 -0.2094  0.4008
 1153W        W 3353   2.271   6.461  13.252 -0.0660 -0.3252 -0.2031
 1154W        W 3354  13.430   1.319  19.244 -0.2887 -0.2569 -0.0669
 1155W        W 3355   7.108   2.699   3.799  0.0731  0.1671 -0.0515
 1156W        W 3356   0.916   1.671  29.437 -0.2224 -0.2532 -0.1591
 1157W        W 3357   4.188   2.387  24.463 -0.1417 -0.0449 -0.3446
 1158W        W 3358   9.041   2.844  41.975 -0.1142 -0.1252 -0.0389
 1159W        W 3359   4.347   0.906  40.853 -0.0391  0.0227  0.1186
 1160W        W 3360   5.041   2.763  27.257  0.3285 -0.1530  0.0492
 1161W        W 3361   7.019   3.279  24.849 -0.2983  0.1923  0.0321
 1162W        W 3362  13.081   1.621  44.127  0.1032  0.1049  0.0131
 1163W        W 3363   3.933   1.431   0.642 -0.0006 -0.0016  0.0889
 1164W        W 3364   1.323   3.518  29.396 -0.1786 -0.3330 -0.2891
 1165W        W 3365   3.065   6.555  12.374 -0.1859 -0.0824 -0.0621
 1166W        W 3366  14.199   2.926  34.836  0.0720  0.2087  0.0051
 1167W        W 3367   9.261   4.248   9.954  0.0465  0.1839 -0.1269
 1168W        W 3368   8.416   4.017  34.315  0.0610  0.0911  0.3091
 1169W        W 3369   0.106   6.418  27.721 -0.4221 -0.1903  0.0830
 1170W        W 3370  16.582   5.790  36.196  0.3046 -0.0923 -0.2970
 1171W        W 3371   5.943   4.344  11.985 -0.2143 -0.3443  0.4944
 1172W        W 3372  18.695   0.617  11.506 -0.0473  0.0029  0.1626
 1173W        W 3373   0.275   2.810  36.810  0.2552  0.1241 -0.0836
 1174W        W 3374  18.094   1.386  18.281  0.0836 -0.3278  0.3017
 1175W        W 3375   0.511   3.510   6.190 -0.1899 -0.2959  0.0770
 1176W        W 3376   3.641   6.149  13.543 -0.1571 -0.0708 -0.0416
 1177W        W 3377  20.218   4.349  31.865 -0.1894 -0.1304 -0.0852
 1178W        W 3378   6.676   2.784  31.439 -0.0068  0.2432 -0.3034
 1179W        W 3379   4.629   0.400  31.714  0.2498 -0.1498  0.0378
 1180W        W 3380  12.269   2.263  42.283  0.0816  0.3411  0.0564
 1181W        W 3381  14.842   4.064   6.510  0.0461 -0.1245  0.2232
 1182W        W 3382   0.739   2.426  24.625  0.1677 -0.0057  0.1096
 1183W        W 3383   5.652   4.932  42.148 -0.0287 -0.5885 -0.3019
 1184W        W 3384   6.335   4.319  15.506  0.0457  0.1593  0.1535
 1185W        W 3385   8.509   3.643  26.612  0.3078  0.2779 -0.1928
 1186W        W 3386   4.976   2.896   5.237  0.1206  0.3154  0.1947
 1187W        W 3387   4.702   1.721  10.954  0.2212  0.1130 -0.1184
 1188W        W 3388   6.346   0.995  40.194  0.0786 -0.1367 -0.3734
 1189W        W 3389  17.522   1.567  35.392 -0.1495 -0.1776 -0.2032
 1190W        W 3390   4.603   5.201   0.047 -0.1492 -0.0524 -0.0280
 1191W        W 3391   7.274   5.798  11.032 -0.0692 -0.1177 -0.2216
 1192W        W 3392   5.986   3.030  24.521  0.1029  0.1794  0.1423
 1193W        W 3393  18.187   4.076  34.322 -0.3485 -0.0574 -0.4523
 1194W        W 3394  12.513   0.887   5.152 -0.0139 -0.0211  0.3353
 1195W        W 3395   6.923   4.554  34.766  0.1850 -0.4401 -0.2619
 1196W        W 3396  16.453   2.244  42.034 -0.0016 -0.0649 -0.1399
 1197W        W 3397   8.222   3.082   1.840 -0.2974 -0.0153 -0.1269
 1198W        W 3398  19.330   5.634  44.151 -0.2725  0.2294 -0.0054
 1199W        W 3399  13.574   5.300  10.805 -0.2735  0.3184 -0.3023
 1200W        W 3400  10.749   5.431  37.925 -0.0552 -0.1013  0.2971
 1201W        W 3401   8.227   1.500   6.391  0.1711  0.1782  0.1483
 1202W        W 3402  12.346   4.718  16.179 -0.0426  0.1310  0.1301
 1203W        W 3403  12.486   2.043  20.134 -0.0647  0.1693 -0.0150
 1204W        W 3404   1.887   3.066  44.513  0.0693 -0.1761  0.0424
 1205W        W 3405  12.450   2.905  13.508 -0.0002  0.2260  0.0869
 1206W        W 3406  10.460   2.348  35.949 -0.1498  0.0174  0.1229
 1207W        W 3407   0.683   5.880  29.582 -0.0325 -0.0555 -0.2121
 1208W        W 3408   0.939   4.400   4.348 -0.0352  0.2367  0.2637
 1209W        W 3409   5.570   3.758   6.700 -0.0076 -0.1553  0.4097
 1210W        W 3410  15.768   1.543  37.879  0.2187  0.0169 -0.2839
 1211W        W 3411   3.202   5.347  33.313  0.2532  0.0964  0.2019
 1212W        W 3412   3.324   5.636  43.964 -0.1534 -0.0340  0.3455
 1213W        W 3413  16.175   1.823   0.816  0.0100 -0.2977 -0.1390
 1214W        W 3414  14.027   4.998  24.804 -0.0010 -0.0962  0.0107
 1215W        W 3415  13.823   3.885   0.049  0.2885  0.2749  0.0792
 1216W        W 3416  17.661   5.874  36.797 -0.3271 -0.1549  0.0978
 1217W        W 3417   0.028   4.386  24.579 -0.2163 -0.0087 -0.0184
 1218W        W 3418   2.111   1.211  13.523  0.3074 -0.0854  0.0518
 1219W        W 3419  17.508   2.176  40.140  0.2085  0.0606  0.0110
 1220W        W 3420  19.022   3.387  35.156 -0.1784  0.1325  0.2589
 1221W        W 3421   8.124   6.498  35.297  0.2357 -0.2590 -0.0972
 1222W        W 3422   1.981   0.335  13.926 -0.0262 -0.0707  0.0640
 1223W        W 3423   0.761   4.028  11.510 -0.0391  0.1324 -0.0481
 1224W        W 3424  12.955   2.080   9.575  0.0880  0.0031  0.1902
 1225W        W 3425   5.377   6.423  27.369 -0.0099  0.1754  0.0758
 1226W        W 3426  18.826   5.528   1.131  0.2401  0.0929  0.1206
 1227W        W 3427  13.135   2.846  35.487 -0.2737 -0.1869  0.0728
 1228W        W 3428   5.374   2.782  44.252 -0.0592 -0.2280 -0.0940
 1229W        W 3429   3.617   4.695  34.258 -0.1235  0.2140  0.0805
 1230W        W 3430  15.370   1.090  38.519  0.3124 -0.2857  0.0201
 1231W        W 3431   1.943   2.418  42.242  0.0245 -0.0537  0.0739
 1232W        W 3432  15.518   5.659  32.601 -0.0544 -0.1134 -0.0491
 1233W        W 3433   5.796   0.480  30.745 -0.2309  0.1664  0.2124
 1234W        W 3434  17.729   0.332   9.653  0.0756 -0.0479  0.1224
 1235W        W 3435   8.519   5.825   4.179 -0.0608  0.1397 -0.0953
 1236W        W 3436  10.242   0.664  31.028 -0.0273 -0.2570  0.3559
 1237W        W 3437   4.446   0.444  34.025  0.3712  0.4934  0.1031
 1238W        W 3438   4.938   5.734   7.254 -0.4125 -0.1196  0.0226
 1239W        W 3439  11.525   6.177  29.296  0.1360 -0.1016  0.1368
 1240W        W 3440   5.510   5.275   4.891 -0.1765 -0.1629  0.0648
 1241W        W 3441   8.097   0.296   2.155 -0.3528  0.2105  0.0874
 1242W        W 3442   6.621   0.923  15.312 -0.2512  0.1181 -0.0852
 1243W        W 3443  15.271   4.956  36.376 -0.0673  0.2194  0.0747
 1244W        W 3444   5.717   5.891   4.211  0.3181 -0.1527 -0.0154
 1245W        W 3445  18.528   5.464  31.040  0.0817 -0.1091 -0.2083
 1246W        W 3446  11.347   4.747  14.745  0.1370  0.0341 -0.0296
 1247W        W 3447   5.034   0.004  26.272 -0.0038 -0.1742  0.4277
 1248W        W 3448  14.050   0.865  35.106  0.0334 -0.2580 -0.1359
 1249W        W 3449  16.663   2.681   7.497  0.3096 -0.0762  0.0221
 1250W        W 3450   0.993   4.442  42.507 -0.0595  0.0268  0.1412
 1251W        W 3451  14.836   0.249  37.220  0.0885 -0.2190  0.1936
 1252W        W 3452   5.233   4.257  25.361  0.0664 -0.0841  0.2354
 1253W        W 3453  16.711   4.009   4.394 -0.1896  0.0271  0.3638
 1254W        W 3454   4.960   1.770  27.411 -0.1051 -0.0583 -0.0420
 1255W        W 3455   4.249   2.108   6.977 -0.1358 -0.2577 -0.1383
 1256W        W 3456  20.760   1.412  29.368 -0.0753 -0.0935  0.1046
 1257W        W 3457   6.964   5.027  34.575  0.0311  0.1212  0.1589
 1258W        W 3458  15.742   1.415  15.565 -0.1500  0.0883 -0.0579
 1259W        W 3459  13.212   2.821  11.003 -0.1011 -0.0105  0.2058
 1260W        W 3460  11.810   4.644  42.760 -0.1713 -0.0591  0.1739
 1261W        W 3461  10.432   0.223  30.218 -0.1259  0.1715  0.0738
 1262W        W 3462   0.617   3.156  31.469 -0.1564 -0.1394  0.0330
 1263W        W 3463   0.141   5.078  29.719 -0.1862  0.1470 -0.1519
 1264W        W 3464   9.508   4.017  28.412 -0.1026 -0.0114 -0.0696
 1265W        W 3465   6.482   3.598   9.542 -0.1610  0.2704  0.0796
 1266W        W 3466   2.348   1.407   4.922  0.4050  0.1341 -0.0984
 1267W        W 3467   4.271   4.410  35.170 -0.1487 -0.2261 -0.0242
 1268W        W 3468   1.179   0.082  16.166 -0.2137  0.0500 -0.1493
 1269W        W 3469  10.242   2.287  39.971 -0.1989 -0.0475 -0.1050
 1270W        W 3470  19.797   6.209  30.963  0.0808 -0.0370 -0.0473
 1271W        W 3471  20.265   6.453  37.311 -0.1665 -0.0734  0.0413
 1272W        W 3472   4.885   5.784  35.728 -0.0722 -0.2016 -0.0724
 1273W        W 3473   7.397   3.762   2.555  0.4342 -0.0856 -0.0674
 1274W        W 3474  15.310   5.520  37.928 -0.2634  0.0734 -0.0571
 1275W        W 3475   8.404   0.477   0.528  0.0834  0.1641  0.1346
 1276W        W 3476   6.452   1.022  38.842  0.1811 -0.2065  0.2091
 1277W        W 3477   4.346   6.020  40.713  0.0654 -0.0604  0.2408
 1278W        W 3478  11.926   0.368   3.024  0.1272  0.6030 -0.0502
 1279W        W 3479  20.069   2.444  39.946 -0.0706 -0.2605  0.1149
 1280W        W 3480   6.921   4.910   3.918  0.0092 -0.0550 -0.1082
 1281W        W 3481   4.563   1.406   8.497  0.2198 -0.0480  0.1824
 1282W        W 3482  17.248   6.570  39.448  0.0689  0.1960  0.1763
 1283W        W 3483  14.033   1.719  16.365 -0.2601  0.2247  0.0613
 1284W        W 3484  10.282   5.668  40.203 -0.2500  0.1726 -0.1989
 1285W        W 3485  18.041   4.622  31.803 -0.1185  0.2317  0.0099
 1286W        W 3486   8.364   5.928   4.688  0.0412 -0.0817 -0.1432
 1287W        W 3487  13.594   5.050  24.381  0.0088  0.1760  0.0214
 1288W        W 3488   2.388   0.313  31.730 -0.1661  0.0868 -0.1077
 1289W        W 3489  14.901   1.294   9.589 -0.0165 -0.1286  0.0336
 1290W        W 3490   3.073   3.771   0.194  0.0005 -0.0651 -0.0281
 1291W        W 3491  15.507   4.959  29.891 -0.1161 -0.4490  0.1424
 1292W        W 3492   4.822   4.133   7.307  0.0086  0.2314  0.0018
 1293W        W 3493  13.363   1.029   7.678 -0.2899 -0.0889  0.0009
 1294W        W 3494  19.112   2.691   1.547 -0.1362 -0.2475  0.0916
 1295W        W 3495  14.130   2.920  17.611  0.3136 -0.0185 -0.0213
 1296W        W 3496   8.683   6.491  16.954 -0.0741 -0.2267 -0.1583
 1297W        W 3497   6.116   0.035   2.435  0.1109 -0.0544  0.0682
 1298W        W 3498  15.121   2.742  24.283 -0.1654  0.3509  0.2531
 1299W        W 3499   3.337   5.555   0.870 -0.0082  0.1100 -0.2993
 1300W        W 3500   5.969   5.908   0.984  0.2991  0.2378 -0.1326
 1301W        W 3501  19.824   3.903  33.394 -0.0868 -0.2538  0.2475
 1302W        W 3502  12.990   2.732   2.115  0.3045  0.0160 -0.1511
 1303W        W 3503   3.284   6.234  23.615  0.1416 -0.0607  0.1325
 1304W        W 3504   3.905   2.211   2.887  0.0990 -0.0446 -0.2297
 1305W        W 3505   3.996   2.107  24.814 -0.1003  0.1066 -0.3528
 1306W        W 3506  13.411   4.624  36.020  0.0609  0.2565  0.3269
 1307W        W 3507   5.273   1.737  30.245 -0.0152 -0.1726 -0.2349
 1308W        W 3508   1.066   5.465  25.526  0.0124  0.0053  0.3254
 1309W        W 3509  14.286   0.902  37.348  0.3849  0.3286 -0.3075
 1310W        W 3510   8.318   0.528  25.815  0.0373  0.0601 -0.2035
 1311W        W 3511  17.441   3.342  39.670  0.0890 -0.3670  0.2732
 1312W        W 3512   2.033   6.559  22.764 -0.0783 -0.0235 -0.1258
 1313W        W 3513   2.050   0.802  37.124 -0.2507  0.1047 -0.2412
 1314W        W 3514   1.177   3.818  16.072  0.0751 -0.2599  0.0209
 1315W        W 3515  10.764   0.859  32.663 -0.1724 -0.0089  0.0370
 1316W        W 3516   2.620   6.445  32.555  0.1961 -0.0246  0.2923
 1317W        W 3517  12.600   6.315   0.197  0.2332 -0.4632 -0.5218
 1318W        W 3518   1.948   6.526  11.049 -0.3540  0.0514 -0.2407
 1319W        W 3519  17.509   3.516  14.351  0.1745  0.0189 -0.0447
 1320W        W 3520  16.435   3.348  16.523  0.0166  0.2576  0.2326
 1321W        W 3521  19.784   1.679   7.403 -0.0469  0.2581 -0.1925
 1322W        W 3522   3.860   1.132  24.447 -0.0073  0.0764 -0.2743
 1323W        W 3523   4.943   0.864  13.221  0.2607 -0.1532  0.0766
 1324W        W 3524   2.510   1.998  23.382 -0.0188 -0.2202 -0.0197
 1325W        W 3525   2.373   1.746  37.443  0.0605  0.0905 -0.1543
 1326W        W 3526  13.130   1.639  38.237 -0.2955 -0.1746 -0.1510
 1327W        W 3527   2.086   0.646  31.503  0.0941 -0.1253 -0.1735
 1328W        W 3528   3.473   2.448  41.836  0.1232 -0.1049  0.1320
 1329W        W 3529   4.340   6.276   5.639  0.1158 -0.0726 -0.2355
 1330W        W 3530   5.651   1.279  29.190 -0.0351 -0.4077 -0.0909
 1331W        W 3531   8.266   5.588   3.285 -0.2940  0.1058  0.0883
 1332W        W 3532   0.811   5.937   2.125  0.1477  0.0036 -0.0426
 1333W        W 3533   4.709   3.497   6.158  0.0578  0.1534  0.0498
 1334W        W 3534   5.416   3.707  32.338  0.2154  0.0298  0.0273
 1335W        W 3535  15.548   5.648  12.348  0.1379 -0.1014 -0.4200
 1336W        W 3536   7.322   3.215   0.213  0.0080 -0.0455  0.8487
 1337W        W 3537  19.450   6.142  44.026 -0.1618  0.1304  0.1655
 1338W        W 3538   1.578   4.085   5.680 -0.0762 -0.1144  0.0563
 1339W        W 3539  12.225   5.777  33.175 -0.2525 -0.2675  0.0395
 1340W        W 3540   9.227   2.945  29.463  0.1405 -0.1536  0.0954
 1341W        W 3541  10.184   5.125   3.046 -0.1560  0.0267  0.0653
 1342W        W 3542  13.623   3.729   3.986  0.0980 -0.0437  0.2971
 1343W        W 3543  17.823   1.895  34.402 -0.0049  0.1967  0.0138
 1344W        W 3544   1.494   5.891  14.801  0.1867  0.1504 -0.0125
 1345W        W 3545  21.135   6.377  13.278  0.1300  0.0335 -0.2945
 1346W        W 3546   1.388   2.727  36.247  0.2468 -0.1903  0.1597
 1347W        W 3547   1.821   2.197  13.926  0.4737  0.1672  0.1919
 1348W        W 3548  12.792   0.561   9.033 -0.0599  0.0954  0.0583
 1349W        W 3549  11.755   5.336  32.380 -0.0944 -0.4525 -0.2945
 1350W        W 3550  16.248   6.121  42.081  0.1572 -0.0008 -0.0185
 1351W        W 3551   8.724   2.494  30.446 -0.0548  0.1226  0.3559
 1352W        W 3552   5.820   0.701  14.287  0.0908  0.0603  0.1532
 1353W        W 3553  11.591   4.999   4.407 -0.0572  0.0633  0.0757
 1354W        W 3554   5.503   2.734  36.454  0.0069 -0.3483  0.3637
 1355W        W 3555   7.280   3.279   2.707 -0.2511 -0.1865  0.0490
 1356W        W 3556  17.416   4.694  18.130 -0.0551 -0.0137 -0.2302
 1357W        W 3557  18.841   5.242  12.413 -0.1621 -0.3482 -0.0728
 1358W        W 3558  16.772   0.723  29.474 -0.2221 -0.0200 -0.0204
 1359W        W 3559  14.138   3.112  30.447  0.1766  0.2065  0.0024
 1360W        W 3560  10.282   5.264  15.851  0.1577 -0.0837  0.0184
 1361W        W 3561   2.990   4.578  39.192  0.0306 -0.3730 -0.1433
 1362W        W 3562   3.537   5.599  14.871  0.3588  0.1365  0.0540
 1363W        W 3563  10.977   4.341  14.572 -0.0686 -0.0518  0.1873
 1364W        W 3564   2.602   2.624  22.222 -0.0276  0.1049 -0.1646
 1365W        W 3565  14.362   1.996  17.757  0.1576 -0.0506  0.1596
 1366W        W 3566   9.832   5.619  37.410 -0.0814 -0.1368  0.0625
 1367W        W 3567  19.129   3.382  15.234  0.2929 -0.3666 -0.0620
 1368W        W 3568  19.202   0.365  31.614 -0.1172 -0.2212  0.2511
 1369W        W 3569  15.714   3.002  32.499  0.0643 -0.0005  0.0940
 1370W        W 3570   5.265   4.776  35.309 -0.3916 -0.0667  0.0718
 1371W        W 3571  10.189   0.711   9.773  0.2520 -0.0292 -0.0943
 1372W        W 3572  13.376   1.175  40.665  0.2896  0.0335  0.0409
 1373W        W 3573  20.602   0.164   4.477 -0.1513  0.0022 -0.2349
 1374W        W 3574  12.323   4.903  34.555  0.2058  0.2727 -0.1276
 1375W        W 3575  13.788   2.309   8.724 -0.2077  0.2571 -0.4685
 1376W        W 3576   1.452   6.504   9.460  0.2878  0.5322 -0.3189
 1377W        W 3577  19.197   0.773  43.507 -0.0124  0.2566 -0.0362
 1378W        W 3578   6.543   5.733   0.700 -0.3114 -0.1478  0.0930
 1379W        W 3579  16.109   1.644  12.841  0.1006  0.2297 -0.1118
 1380W        W 3580  18.165   1.122  12.220 -0.0636 -0.0484 -0.2925
 1381W        W 3581  21.062   3.508  42.829 -0.0508  0.0998  0.1221
 1382W        W 3582   2.855   2.156  24.100 -0.0435 -0.2449  0.0083
 1383W        W 3583   9.528   4.922  36.358  0.0072 -0.1635 -0.3124
 1384W        W 3584   0.340   5.806  39.870 -0.0570 -0.4744 -0.0302
 1385W        W 3585   5.971   1.283  37.142 -0.3541 -0.0780 -0.0842
 1386W        W 3586  10.161   3.053  18.407 -0.1343 -0.0496 -0.0250
 1387W        W 3587   5.665   3.285  13.306 -0.1982  0.2087  0.2630
 1388W        W 3588  12.953   6.526  33.095  0.1603  0.1643 -0.4017
 1389W        W 3589   3.465   4.762  35.494  0.0182  0.0339 -0.4291
 1390W        W 3590   6.049   3.252  38.023 -0.3486  0.0590 -0.0769
 1391W        W 3591   2.806   3.433  10.670 -0.2075  0.0887  0.3397
 1392W        W 3592  14.012   0.932  41.789 -0.1524  0.3347 -0.1519
 1393W        W 3593  11.035   4.767  12.136  0.1286 -0.1736 -0.0895
 1394W        W 3594  13.849   1.917  41.579  0.0597 -0.0668  0.4723
 1395W        W 3595  18.223   1.900  11.305 -0.0689  0.0577  0.0456
 1396W        W 3596  10.549   1.819   8.524 -0.0245 -0.2040 -0.1848
 1397W        W 3597   9.675   6.197   7.122 -0.0001 -0.5064  0.1225
 1398W        W 3598   6.032   5.440  16.946 -0.1992 -0.1433 -0.0906
 1399W        W 3599  15.050   4.873  44.256  0.1323 -0.0638 -0.4858
 1400W        W 3600   8.154   3.963  29.667 -0.1765  0.2069  0.0641
 1401W        W 3601  12.906   2.419   4.227 -0.1965 -0.0574  0.2591
 1402W        W 3602  18.522   0.822  45.023 -0.2461  0.3770 -0.0538
 1403W        W 3603  14.565   4.605  31.159  0.1046  0.0753 -0.3453
 1404W        W 3604  10.164   5.198  42.856 -0.0613 -0.0443  0.1171
 1405W        W 3605  15.701   3.041   6.337  0.1587 -0.2673  0.0908
 1406W        W 3606   6.175   4.493   7.678 -0.2326  0.4617 -0.0418
 1407W        W 3607  11.420   0.392  40.852  0.1669 -0.0672  0.1145
 1408W        W 3608   5.845   4.507  15.720 -0.1492  0.1760  0.1995
 1409W        W 3609   5.924   0.279  27.265 -0.1745 -0.1186 -0.0198
 1410W        W 3610  15.095   6.041  22.088  0.1881  0.1601 -0.0017
 1411W        W 3611  10.817   4.149  27.589  0.0543  0.0101 -0.2389
 1412W        W 3612  17.944   4.462   6.944 -0.1926 -0.2640 -0.1625
 1413W        W 3613   5.495   4.270  16.859 -0.0596  0.1660 -0.0934
 1414W        W 3614  18.059   0.968  31.354 -0.2363 -0.0307 -0.1216
 1415W        W 3615   6.744   2.885  23.919 -0.1565 -0.0582  0.0622
 1416W        W 3616  14.260   2.292   4.563 -0.1566  0.0788  0.0084
 1417W        W 3617  19.676   5.792  35.308  0.0700 -0.0610 -0.1805
 1418W        W 3618  15.297   3.179  43.133  0.1766 -0.0227 -0.2247
 1419W        W 3619   2.159   0.854  44.373 -0.1861 -0.0610 -0.1992
 1420W        W 3620  13.904   5.485   2.260 -0.0624 -0.2523 -0.2075
 1421W        W 3621  15.843   5.660  37.844 -0.1623  0.1083  0.1148
 1422W        W 3622  16.008   3.344  34.933  0.0515  0.0046 -0.2350
 1423W        W 3623  15.701   0.834  11.569 -0.0538  0.1408  0.0613
 1424W        W 3624  11.813   1.658  21.639 -0.3337 -0.3685  0.0553
 1425W        W 3625  18.846   3.744  39.323  0.0562 -0.0627 -0.4529
 1426W        W 3626  20.564   0.447  45.011  0.0861  0.0323 -0.1406
 1427W        W 3627   6.131   6.391  23.149  0.1353 -0.0347 -0.0313
 1428W        W 3628  12.909   6.062  18.062  0.1038 -0.2627  0.0058
 1429W        W 3629   0.588   0.098  17.178 -0.1636 -0.0953 -0.0220
 1430W        W 3630  15.769   1.886   7.010  0.1531  0.1151 -0.0407
 1431W        W 3631  20.467   0.833  25.820 -0.2456  0.1424 -0.2024
 1432W        W 3632   8.777   1.525  28.117  0.0845  0.3071  0.0642
 1433W        W 3633   5.525   3.775  10.561  0.0876  0.0944 -0.0885
 1434W        W 3634  13.625   3.872  24.275  0.3189  0.1632  0.3220
 1435W        W 3635  14.034   3.791   1.856 -0.0138  0.0241  0.0197
 1436W        W 3636  10.719   5.927  43.992 -0.0265  0.0815  0.2503
 1437W        W 3637   3.543   2.441  10.612 -0.0096  0.0643 -0.1460
 1438W        W 3638  16.073   5.198  32.462  0.3257  0.0776  0.1741
 1439W        W 3639  10.596   6.170  34.654 -0.2289 -0.2939 -0.0143
 1440W        W 3640  10.559   4.886  32.255 -0.0084 -0.1317  0.2883
 1441W        W 3641   4.879   1.882  36.199 -0.0836 -0.0883  0.3738
 1442W        W 3642  17.177   1.826  13.689 -0.1962 -0.0033  0.0612
 1443W        W 3643   4.743   4.311  28.975  0.1744  0.2970 -0.0465
 1444W        W 3644   2.274   4.607  32.120  0.0361 -0.0527  0.1650
 1445W        W 3645   9.694   2.790  32.380 -0.3736  0.3102  0.1055
 1446W        W 3646   9.764   0.994  40.701  0.0931  0.2073 -0.1100
 1447W        W 3647  10.340   6.165   7.768  0.2616 -0.0902  0.0340
 1448W        W 3648  13.046   1.219  22.199  0.1888 -0.0566  0.2198
 1449W        W 3649  15.900   6.111  37.553  0.3224 -0.0601  0.5973
 1450W        W 3650  15.643   5.114  33.219 -0.1169 -0.2401  0.4081
 1451W        W 3651   4.640   6.438  14.514 -0.0057  0.0648  0.2894
 1452W        W 3652  16.566   2.516   4.762 -0.0214 -0.1147  0.3832
 1453W        W 3653  17.564   5.884  15.477  0.1287 -0.1779  0.0196
 1454W        W 3654   3.643   3.852  33.922 -0.0389  0.1996  0.3231
 1455W        W 3655  14.135   2.620  11.197  0.2189  0.0497  0.1808
 1456W        W 3656  17.524   4.873  16.115 -0.4067 -0.3832  0.0713
 1457W        W 3657   5.956   2.389  10.073 -0.3463 -0.0026  0.2257
 1458W        W 3658   3.653   2.798  13.839 -0.1100  0.0644  0.1660
 1459W        W 3659  15.890   3.266  40.974  0.1241 -0.0931 -0.0766
 1460W        W 3660   9.615   4.835   0.803  0.1303  0.0850  0.2363
 1461W        W 3661  20.925   2.217   7.030 -0.3219 -0.0775  0.1340
 1462W        W 3662  11.992   0.920  29.246 -0.1104  0.0756 -0.2786
 1463W        W 3663  10.671   4.978   9.451  0.1828 -0.0642 -0.2596
 1464W        W 3664  14.089   6.152  22.923 -0.0156 -0.0518  0.3399
 1465W        W 3665   3.766   3.050   1.719  0.1129  0.3384 -0.1227
 1466W        W 3666   0.343   4.263  37.578  0.0076 -0.1956 -0.1550
 1467W        W 3667   1.766   2.437  12.932  0.1953 -0.0818 -0.2240
 1468W        W 3668  12.076   2.516  21.953  0.0562 -0.0868  0.0861
 1469W        W 3669  11.718   4.101  44.522  0.0132  0.0781  0.1031
 1470W        W 3670   6.118   1.403  28.456  0.0779  0.0344  0.3209
 1471W        W 3671   1.354   0.206   2.283 -0.0174  0.0400 -0.0089
 1472W        W 3672  19.901   4.012   4.573 -0.0582 -0.1909  0.0190
 1473W        W 3673   8.599   6.243  37.259 -0.2429 -0.0432 -0.2161
 1474W        W 3674  13.699   6.378   6.275  0.1723 -0.2164  0.3043
 1475W        W 3675   4.191   3.463  20.580  0.2675  0.1046 -0.1406
 1476W        W 3676   9.408   3.139  39.263  0.0141  0.2524  0.1857
 1477W        W 3677   1.930   1.927  39.443  0.1795  0.1511  0.1013
 1478W        W 3678   7.231   1.079  11.679  0.0315 -0.1689 -0.3948
 1479W        W 3679  12.331   4.961   8.096 -0.3355 -0.1147 -0.0760
 1480W        W 3680   0.094   0.968  14.839 -0.3553  0.0761 -0.0002
 1481W        W 3681  20.400   2.922   9.173  0.2241 -0.3009  0.0523
 1482W        W 3682  17.304   0.163   2.200 -0.2889 -0.4919 -0.0274
 1483W        W 3683   2.953   0.589  37.239 -0.3633 -0.1028 -0.3356
 1484W        W 3684   2.638   4.119  27.308  0.0363  0.0143 -0.0418
 1485W        W 3685   5.163   1.105  33.770 -0.0731  0.1948  0.0697
 1486W        W 3686  13.313   5.088  33.125 -0.1674  0.0239 -0.2274
 1487W        W 3687  16.261   2.933  43.400  0.0660  0.3056 -0.0186
 1488W        W 3688  12.651   2.856  22.830 -0.3993  0.1174 -0.2940
 1489W        W 3689   5.597   0.253   6.591  0.0265  0.3514  0.2249
 1490W        W 3690  16.369   0.224  14.343  0.0857  0.1285  0.2669
 1491W        W 3691   8.838   3.833   5.089  0.1726  0.3038  0.0878
 1492W        W 3692  17.979   6.128  15.697  0.1774  0.1168  0.0215
 1493W        W 3693  14.527   2.810  42.206  0.1986  0.1202  0.2472
 1494W        W 3694  10.374   6.490  10.083 -0.1835 -0.2823 -0.1898
 1495W        W 3695  17.452   1.620  10.109 -0.1009 -0.0208  0.1945
 1496W        W 3696   5.119   4.541  10.713 -0.0594  0.0429  0.1018
 1497W        W 3697  14.310   4.603  33.048  0.0446  0.2750 -0.1473
 1498W        W 3698   2.047   4.225  34.325 -0.0018 -0.1398 -0.0268
 1499W        W 3699   7.675   1.833  36.942 -0.1037  0.0840 -0.0328
 1500W        W 3700  15.679   2.833  43.266 -0.0083  0.1530  0.1996
 1501W        W 3701   4.292   6.040  36.349  0.2840 -0.0129  0.2513
 1502W        W 3702   4.383   0.867  26.883 -0.4901  0.0449  0.1694
 1503W        W 3703  20.886   2.337   6.507 -0.1445  0.3628  0.2733
 1504W        W 3704  14.817   3.462   7.129  0.0188  0.1286  0.1682
 1505W        W 3705   9.988   5.158  27.219 -0.1511  0.1750  0.1645
 1506W        W 3706  11.258   1.226   5.092  0.4701  0.1768 -0.4366
 1507W        W 3707  11.092   3.730  32.189  0.0093  0.1447  0.3818
 1508W        W 3708  13.188   1.917  10.479 -0.1538 -0.1538 -0.0242
 1509W        W 3709  13.124   1.787  19.042 -0.1044 -0.1104  0.1577
 1510W        W 3710   4.145   4.024  14.592  0.1459 -0.0464 -0.1983
 1511W        W 3711  20.574   3.322   7.394  0.1473  0.0894 -0.2848
 1512W        W 3712  13.658   3.552  12.215 -0.0012  0.1726  0.0072
 1513W        W 3713   3.266   0.610  25.381  0.1638  0.0867 -0.3510
 1514W        W 3714   0.565   3.910  29.640 -0.0849  0.0874 -0.0606
 1515W        W 3715  10.152   2.053   9.846 -0.1952  0.0208 -0.0037
 1516W        W 3716   9.644   1.636  17.433 -0.0860 -0.0372 -0.1878
 1517W        W 3717  11.799   4.440  36.553  0.0264  0.1492 -0.0584
 1518W        W 3718  18.950   5.187  35.527  0.0129  0.2457  0.1352
 1519W        W 3719  18.884   4.425  28.905  0.0824  0.1573 -0.0945
 1520W        W 3720  16.261   0.095  22.337 -0.0076 -0.0201  0.0951
 1521W        W 3721   8.225   3.931  43.477  0.5029  0.0110 -0.2080
 1522W        W 3722  16.183   5.874  10.493  0.0965  0.2038  0.0197
 1523W        W 3723  18.118   1.951   5.938 -0.1383 -0.1307  0.2105
 1524W        W 3724  14.613   1.652  22.875 -0.2948  0.3032  0.0686
 1525W        W 3725  14.852   0.081   3.294 -0.0325 -0.3031 -0.0962
 1526W        W 3726   6.469   5.713  37.546 -0.1600  0.0374  0.2586
 1527W        W 3727   3.013   6.085   7.413  0.0375  0.0656 -0.1991
 1528W        W 3728   5.400   3.228   0.174 -0.0581 -0.1680 -0.0601
 1529W        W 3729  13.248   0.137   7.796  0.2736  0.0696 -0.0699
 1530W        W 3730  15.782   0.896   6.998 -0.0993  0.2029  0.1297
 1531W        W 3731  17.010   2.707  10.131  0.0029 -0.2238  0.0082
 1532W        W 3732  13.808   2.414  35.855  0.4626 -0.2380 -0.0807
 1533W        W 3733   6.934   1.855   5.856 -0.2162 -0.0822 -0.0382
 1534W        W 3734   1.281   0.771  33.346 -0.0635  0.3010  0.5012
 1535W        W 3735  16.962   1.594  10.271 -0.2022 -0.3054  0.0753
 1536W        W 3736  16.129   1.728  39.473  0.0157 -0.0291  0.0740
 1537W        W 3737   8.781   5.522  11.289  0.0120 -0.0887 -0.0770
 1538W        W 3738  16.729   1.285  33.460 -0.0235  0.0622 -0.0256
 1539W        W 3739  14.246   0.312  36.012 -0.1340 -0.1091 -0.1089
 1540W        W 3740  18.176   1.866  19.779  0.0608  0.0994 -0.0877
 1541W        W 3741  17.017   2.622  16.844 -0.0201 -0.0933 -0.0959
 1542W        W 3742   8.271   2.876   5.703 -0.0484 -0.1681  0.3436
 1543W        W 3743   1.172   6.463  31.607  0.4226  0.0463 -0.1583
 1544W        W 3744   3.306   5.668  37.828 -0.0912 -0.1016  0.1551
 1545W        W 3745   9.148   0.772  33.480 -0.1153 -0.0488  0.0418
 1546W        W 3746  11.514   5.592   3.579  0.0592 -0.0206  0.2781
 1547W        W 3747  20.517   1.618  40.832  0.1399  0.2053  0.2623
 1548W        W 3748  12.182   1.889  29.966 -0.1045  0.0617  0.2480
 1549W        W 3749  17.743   3.404  12.082 -0.0846 -0.4016  0.1948
 1550W        W 3750  15.785   2.541  44.248  0.0153  0.1492  0.0455
 1551W        W 3751  14.581   5.497   2.790  0.1235 -0.4261 -0.0116
 1552W        W 3752  20.954   1.172   1.984 -0.0798  0.1913 -0.2121
 1553W        W 3753  19.731   6.150  28.908 -0.1443 -0.0451 -0.0713
 1554W        W 3754  12.254   4.618  22.472  0.1550 -0.0235  0.0789
 1555W        W 3755  11.701   6.551  45.106 -0.1434 -0.1351  0.2599
 1556W        W 3756  18.136   4.395  12.069 -0.0910 -0.0322 -0.0703
 1557W        W 3757   2.904   0.807  32.588 -0.0681  0.2328  0.2246
 1558W        W 3758  10.768   3.355  20.244  0.2459 -0.0440 -0.1284
 1559W        W 3759  14.897   5.048   7.117  0.1710  0.1273 -0.1248
 1560W        W 3760  18.479   5.226  35.035  0.0491  0.0800 -0.1517
 1561W        W 3761  20.719   6.418  39.397  0.0475 -0.2134  0.1278
 1562W        W 3762   7.147   2.813  43.731 -0.0652 -0.0360  0.0965
 1563W        W 3763  20.609   0.940  29.364  0.1754 -0.1231 -0.1117
 1564W        W 3764   5.295   1.234   2.248  0.1086 -0.1420  0.1637
 1565W        W 3765   0.468   6.086   9.473 -0.0310  0.1511 -0.0490
 1566W        W 3766  14.773   2.392  44.952 -0.0094 -0.0863  0.3472
 1567W        W 3767   4.351   4.824  42.065  0.0820 -0.1401 -0.0713
 1568W        W 3768   5.559   6.397  36.025  0.1307  0.0150  0.0997
 1569W        W 3769  18.907   4.677  31.707  0.1627 -0.3219 -0.0891
 1570W        W 3770  12.866   5.731  20.791  0.2188  0.0709  0.1526
 1571W        W 3771  17.391   6.031  34.692  0.0145  0.0102 -0.2725
 1572W        W 3772  13.909   0.015  31.464  0.2062  0.0266  0.1870
 1573W        W 3773   8.666   0.041   8.961  0.0908 -0.1124 -0.2910
 1574W        W 3774  16.374   3.718  29.766 -0.0426  0.2468  0.1606
 1575W        W 3775  10.258   1.016   1.745  0.2042 -0.1826  0.0180
 1576W        W 3776   9.702   2.335  13.476  0.2737 -0.2014  0.0092
 1577W        W 3777   8.969   3.600   7.278  0.0512  0.0617 -0.1215
 1578W        W 3778  12.185   1.075  42.702 -0.0490 -0.1458 -0.0471
 1579W        W 3779   7.313   3.074  29.577 -0.0429  0.2051 -0.2791
 1580W        W 3780  18.902   1.318  28.050  0.1977 -0.1327 -0.0286
 1581W        W 3781   2.027   2.958   5.991  0.0026  0.0405 -0.1774
 1582W        W 3782  11.541   3.038  14.236  0.1571 -0.2533 -0.1242
 1583W        W 3783  12.470   6.185  34.373 -0.0329 -0.0746  0.1620
 1584W        W 3784   5.013   6.136  31.793  0.1353 -0.0378 -0.2844
 1585W        W 3785   7.470   6.313   2.482  0.1001  0.0823 -0.0349
 1586W        W 3786  16.384   2.351   7.800  0.1798 -0.0427 -0.1565
 1587W        W 3787  19.641   1.565   9.803  0.2667  0.0623  0.0159
 1588W        W 3788   9.118   1.110   7.403 -0.0023 -0.1045 -0.2936
 1589W        W 3789  11.381   4.775  11.643 -0.0915  0.1920  0.0650
 1590W        W 3790   2.060   5.867   7.443  0.3217 -0.1602  0.2390
 1591W        W 3791  14.455   4.476   2.542  0.1758 -0.0276  0.0740
 1592W        W 3792   7.897   6.464  29.259 -0.1730 -0.0546 -0.1376
 1593W        W 3793   5.920   1.538  14.101 -0.0116 -0.0755  0.2999
 1594W        W 3794  16.360   0.940  20.690 -0.0727 -0.2180 -0.0278
 1595W        W 3795   5.296   4.848  36.707  0.1172  0.1174  0.2915
 1596W        W 3796  16.163   3.227   5.399  0.1463 -0.1984 -0.2057
 1597W        W 3797  17.083   3.730   0.872  0.0172  0.0036 -0.4161
 1598W        W 3798  17.034   0.217  35.711 -0.0724  0.3207 -0.0107
 1599W        W 3799  10.831   2.486  29.329  0.3508 -0.1288  0.0400
 1600W        W 3800  17.299   3.113   9.968 -0.1079  0.1535 -0.3816
 1601W        W 3801   1.943   2.514   4.934  0.1269  0.1467 -0.0573
 1602W        W 3802  18.374   1.196  37.635 -0.1375  0.1404  0.0437
 1603W        W 3803  15.495   6.602  34.333 -0.2236  0.2275  0.0312
 1604W        W 3804   9.361   1.447  13.713 -0.0614 -0.2036  0.0314
 1605W        W 3805  19.862   4.386  32.921 -0.0113 -0.0015 -0.0118
 1606W        W 3806   2.224   4.536  41.468 -0.0173  0.0672  0.0742
 1607W        W 3807  18.231   3.066  17.090  0.1674  0.1947  0.0998
 1608W        W 3808  20.551   1.392  31.722  0.1065  0.0538  0.0117
 1609W        W 3809  16.878   4.695   2.478  0.1034  0.0856 -0.2319
 1610W        W 3810  11.245   3.623  20.407  0.0178 -0.2130 -0.2658
 1611W        W 3811  15.817   3.505   1.954  0.1475 -0.1138 -0.0563
 1612W        W 3812   0.041   2.575  12.814  0.0675  0.2300 -0.2590
 1613W        W 3813   6.701   5.771  40.263  0.0541 -0.0768  0.1483
 1614W        W 3814  11.282   3.522  14.028 -0.1750  0.0598 -0.0625
 1615W        W 3815   8.436   0.677   7.666  0.2771  0.0873  0.2184
 1616W        W 3816  14.908   2.230  14.647  0.0982  0.0189 -0.1417
 1617W        W 3817  17.040   3.852  38.575  0.0229 -0.2192  0.2078
 1618W        W 3818  11.807   3.870  21.799  0.0073 -0.0553  0.1774
 1619W        W 3819   9.997   2.040  43.470  0.3857  0.2629  0.3689
 1620W        W 3820  17.649   6.218   0.183  0.1124 -0.0654  0.1618
 1621W        W 3821   5.724   5.706  29.062 -0.3973  0.1190 -0.2178
 1622W        W 3822  12.441   4.922  41.232 -0.0531 -0.0268 -0.1301
 1623W        W 3823  20.771   5.767   3.758 -0.4633 -0.3157 -0.0424
 1624W        W 3824  21.084   2.478  43.154 -0.2054 -0.0064 -0.1726
 1625W        W 3825   9.291   6.129  32.300 -0.0045 -0.2780 -0.1385
 1626W        W 3826  19.323   0.556  39.298  0.2090 -0.1474  0.1444
 1627W        W 3827  14.796   3.660   0.040 -0.1780 -0.2929 -0.1539
 1628W        W 3828  11.890   2.065  12.030  0.1502  0.1297  0.0071
 1629W        W 3829   3.878   6.326  21.961  0.0851 -0.0803 -0.2755
 1630W        W 3830  18.977   0.318  11.881  0.1075  0.0063 -0.0822
 1631W        W 3831   7.470   3.838   3.807 -0.0831  0.2516  0.0233
 1632W        W 3832   7.840   3.278  44.343  0.1785  0.0121  0.0290
 1633W        W 3833   9.802   5.153  18.649  0.0020 -0.0274  0.0262
 1634W        W 3834   3.342   3.460  37.905  0.2145  0.0427  0.1326
 1635W        W 3835  13.002   5.547   2.749  0.0857  0.0469 -0.1342
 1636W        W 3836   7.251   0.156  41.316  0.5209  0.2611  0.2473
 1637W        W 3837  12.075   0.739   8.310  0.0171 -0.1578  0.1342
 1638W        W 3838  17.106   3.790  13.979 -0.0628  0.1509  0.0088
 1639W        W 3839  11.405   6.605   0.577  0.6032 -0.0419  0.2777
 1640W        W 3840  18.557   4.211  32.986 -0.3872  0.1184  0.0761
 1641W        W 3841  10.996   1.748  43.750 -0.0629  0.0686 -0.2877
 1642W        W 3842   3.911   2.322  34.988 -0.0506  0.0603  0.1898
 1643W        W 3843  14.088   1.052  29.894 -0.1806 -0.1229 -0.0845
 1644W        W 3844   0.779   1.354  10.915  0.0655  0.0874 -0.0227
 1645W        W 3845   8.830   6.417  42.072  0.2403 -0.0212 -0.2224
 1646W        W 3846  21.077   6.052  10.095  0.2294 -0.2076 -0.0638
 1647W        W 3847  10.046   1.198  16.286 -0.0233 -0.2910  0.0010
 1648W        W 3848  10.992   4.586  16.870  0.2605  0.2733  0.0943
 1649W        W 3849   1.816   4.357  38.336  0.2042  0.0392  0.1766
 1650W        W 3850   3.606   6.160  32.089 -0.0062  0.0070  0.1889
 1651W        W 3851  10.053   2.681  16.536 -0.0448  0.1063  0.1192
 1652W        W 3852  18.011   4.375  17.430  0.3141  0.2327  0.1898
 1653W        W 3853   7.410   0.213  40.426 -0.0943 -0.1230 -0.0164
 1654W        W 3854  20.481   2.113  32.357 -0.1300  0.1278 -0.1782
 1655W        W 3855  18.324   0.264  13.493  0.3338 -0.1258  0.0067
 1656W        W 3856  13.178   3.018  17.830  0.0382 -0.0313 -0.0008
 1657W        W 3857   8.047   3.854   4.567 -0.0573 -0.0065 -0.1653
 1658W        W 3858  13.086   5.891  41.011 -0.1382 -0.2171  0.0594
 1659W        W 3859   1.103   0.048  11.254  0.0854  0.2769 -0.2150
 1660W        W 3860   5.220   2.892  30.619  0.1572 -0.4740 -0.0677
 1661W        W 3861   0.555   4.459  29.176  0.0860  0.1625  0.1472
 1662W        W 3862   9.593   6.091  27.342  0.0026 -0.1611  0.0822
 1663W        W 3863   6.601   0.193   3.967  0.3452 -0.0951 -0.2546
 1664W        W 3864  13.200   3.288  16.186 -0.0639  0.1103  0.0973
 1665W        W 3865   3.549   1.966  28.394  0.0579  0.0811 -0.2260
 1666W        W 3866  14.520   0.996  30.460 -0.0543  0.0507 -0.1627
 1667W        W 3867   3.749   1.425  37.892  0.2250 -0.0825 -0.0646
 1668W        W 3868   9.904   4.333  30.511 -0.0597 -0.2646 -0.2159
 1669W        W 3869  20.505   2.067  26.267  0.0053  0.0384 -0.1912
 1670W        W 3870   6.647   6.272   4.029  0.1372  0.0975  0.3494
 1671W        W 3871  18.217   6.491  44.207  0.1264 -0.0989 -0.3531
 1672W        W 3872  19.502   3.523   3.662  0.0099  0.1893 -0.2027
 1673W        W 3873  12.192   0.531  19.602 -0.1356 -0.0448  0.0620
 1674W        W 3874  11.550   0.217  19.235  0.1215  0.2173 -0.5609
 1675W        W 3875   8.011   2.835  32.849 -0.0439 -0.0391 -0.0697
 1676W        W 3876  20.199   1.588  14.674 -0.1026 -0.0079 -0.0856
 1677W        W 3877  21.166   3.168   4.167  0.0053  0.2578  0.0325
 1678W        W 3878   9.374   3.860   9.625  0.0867  0.0527  0.1608
 1679W        W 3879   1.327   4.934  40.920  0.3263 -0.1650  0.0157
 1680W        W 3880  11.474   2.220  34.989 -0.2371  0.0631 -0.1367
 1681W        W 3881   4.230   6.388  38.259 -0.1060 -0.1255 -0.1145
 1682W        W 3882  20.642   3.317  14.025  0.0865 -0.3636  0.3246
 1683W        W 3883  17.413   3.124  42.308 -0.0037  0.1457  0.1364
 1684W        W 3884   2.027   2.134  38.968  0.2208  0.2470  0.1173
 1685W        W 3885   0.600   2.085   0.675  0.0507  0.2411 -0.1003
 1686W        W 3886   2.221   3.554   0.173  0.1565  0.1977 -0.0144
 1687W        W 3887  15.423   3.103   4.883  0.0877  0.1032 -0.3516
 1688W        W 3888  15.386   1.793  20.142  0.0371 -0.1759  0.0300
 1689W        W 3889  16.275   5.023  42.393 -0.2248 -0.0176  0.1298
 1690W        W 3890   7.192   1.953   2.616 -0.1674 -0.0753  0.1145
 1691W        W 3891  20.964   6.584  34.440 -0.1936  0.4602 -0.1807
 1692W        W 3892  15.735   3.795  18.453  0.0893 -0.1944 -0.2619
 1693W        W 3893   1.047   1.291  32.890  0.0636 -0.2921 -0.0628
 1694W        W 3894  15.422   3.800  14.999 -0.1138  0.1255 -0.0049
 1695W        W 3895   8.295   0.954  44.466  0.2491  0.0540  0.1121
 1696W        W 3896  19.724   1.575   3.567 -0.2305  0.0486  0.2010
 1697W        W 3897  12.319   0.980   1.659  0.1338  0.1976 -0.0147
 1698W        W 3898   5.050   3.842  39.603 -0.0743 -0.0329 -0.1478
 1699W        W 3899  15.463   4.735  38.770 -0.2402 -0.1180 -0.0591
 1700W        W 3900   5.920   0.115  32.338  0.1770 -0.1659  0.0265
 1701W        W 3901   2.447   1.909  23.911 -0.1049 -0.1526  0.0435
 1702W        W 3902   3.025   2.572   2.321 -0.0304 -0.1457 -0.0595
 1703W        W 3903  10.558   2.211  33.526  0.0388 -0.0861 -0.3596
 1704W        W 3904   6.477   3.782  11.936 -0.1305 -0.2043  0.3029
 1705W        W 3905   4.189   6.554   6.250  0.0843 -0.0497  0.0787
 1706W        W 3906  13.172   2.053   3.415 -0.0721 -0.1511  0.0967
 1707W        W 3907  10.060   1.285  11.727 -0.1910  0.1510  0.0964
 1708W        W 3908  17.172   1.490  20.374  0.0753 -0.2665 -0.1162
 1709W        W 3909   0.043   5.136   9.825  0.0167 -0.1221 -0.0181
 1710W        W 3910   0.331   4.372  25.310  0.2068  0.3217  0.0628
 1711W        W 3911  18.609   2.736   8.604 -0.0022  0.1224 -0.2948
 1712W        W 3912  11.219   4.852   5.733 -0.2426  0.1508  0.0074
 1713W        W 3913  18.397   6.049  44.260  0.1034  0.1225  0.1519
 1714W        W 3914   4.371   3.928  41.609  0.1127 -0.3082  0.0439
 1715W        W 3915  20.164   4.785   3.940  0.1202  0.0233  0.0962
 1716W        W 3916   7.224   5.885  13.596 -0.2651  0.0228  0.1500
 1717W        W 3917   7.120   2.088  10.796 -0.0336  0.0328  0.0854
 1718W        W 3918  10.769   1.644  34.983  0.1773 -0.0747 -0.0845
 1719W        W 3919  16.448   0.657   8.326 -0.3373 -0.4645  0.0010
 1720W        W 3920   5.484   4.353  22.306  0.0565 -0.2771 -0.0703
 1721W        W 3921   0.466   2.137   3.781 -0.1409  0.0258 -0.0882
 1722W        W 3922  13.049   4.098   8.586  0.0256  0.3330  0.1617
 1723W        W 3923  19.451   5.168   2.684 -0.0275  0.0021 -0.0118
 1724W        W 3924  15.380   0.565  32.411  0.0115  0.1876  0.0900
 1725W        W 3925   4.743   4.195  13.711  0.2488  0.0911  0.2612
 1726W        W 3926   5.907   2.139   3.895 -0.0285 -0.2456 -0.1032
 1727W        W 3927  10.388   2.575  17.037 -0.0960 -0.1635  0.0802
 1728W        W 3928  10.771   4.102  15.698 -0.2018  0.1818 -0.0402
 1729W        W 3929   7.447   1.515  44.262 -0.0720  0.0500 -0.1373
 1730W        W 3930   6.013   6.021  35.844  0.2334  0.1729 -0.0506
 1731W        W 3931  16.009   4.003   9.138 -0.1092 -0.1695 -0.3944
 1732W        W 3932  17.005   2.570   4.039 -0.0269 -0.1758  0.1230
 1733W        W 3933  14.406   4.909   1.356 -0.0637  0.0789  0.1274
 1734W        W 3934  17.745   2.521  39.106  0.0685 -0.1245  0.5191
 1735W        W 3935   2.718   4.117  24.803  0.2973  0.1204 -0.0479
 1736W        W 3936   5.717   3.928  42.332  0.0811 -0.1537 -0.1930
 1737W        W 3937   3.916   4.273  13.946  0.2297 -0.1787  0.2337
 1738W        W 3938  19.265   4.425   8.263 -0.1403  0.1514 -0.2966
 1739W        W 3939  20.581   3.466  27.639 -0.1019  0.2105 -0.1868
 1740W        W 3940  10.822   3.575  36.612 -0.0331  0.3288  0.1283
 1741W        W 3941   4.728   4.132  10.405 -0.1894  0.1989 -0.1650
 1742W        W 3942   0.883   1.119  31.891  0.1922 -0.0907 -0.1817
 1743W        W 3943   4.592   2.000  27.659 -0.1459  0.3283 -0.2759
 1744W        W 3944   4.870   2.890  32.289 -0.2150 -0.0797  0.2707
 1745W        W 3945   9.275   0.790   4.030  0.0951  0.0547  0.1600
 1746W        W 3946   1.928   0.806   3.810  0.0775 -0.0144 -0.1128
 1747W        W 3947   8.819   2.082  35.359 -0.2774 -0.0199 -0.1256
 1748W        W 3948   9.697   2.223  36.555  0.1146 -0.0084 -0.0144
 1749W        W 3949  17.277   3.880  15.173  0.3092  0.0633  0.0443
 1750W        W 3950   2.571   4.222  32.349  0.1041  0.0932 -0.1748
 1751W        W 3951   5.476   2.642  22.963 -0.0906 -0.0234  0.1141
 1752W        W 3952   3.038   2.164   9.742  0.4839  0.0676 -0.2434
 1753W        W 3953  13.836   3.261   6.859 -0.1024  0.2410 -0.2431
 1754W        W 3954  16.903   4.272   0.112 -0.0168 -0.0750 -0.2875
 1755W        W 3955  10.346   3.275   0.678 -0.0925 -0.0154 -0.0283
 1756W        W 3956  13.372   5.015  13.994 -0.2307 -0.0088  0.2028
 1757W        W 3957   6.902   6.187  34.281  0.0408  0.0494  0.0551
 1758W        W 3958   6.120   5.352  13.395 -0.1778  0.0302 -0.0010
 1759W        W 3959   7.395   0.593  30.280  0.0313  0.2139  0.1248
 1760W        W 3960  13.892   1.868  15.928  0.2600 -0.1437 -0.2308
 1761W        W 3961  14.339   2.679  30.842  0.2056 -0.0826 -0.2539
 1762W        W 3962  11.931   4.803  11.497 -0.3953  0.2106  0.4134
 1763W        W 3963  20.225   1.093   4.122  0.1850 -0.0611  0.1558
 1764W        W 3964  12.529   1.027  32.785 -0.0095  0.0200 -0.0478
 1765W        W 3965  16.156   0.938  16.248  0.3537 -0.0631  0.0074
 1766W        W 3966   9.333   1.431  45.042  0.2319  0.0655  0.3755
 1767W        W 3967  20.760   2.415  38.039 -0.1987  0.0320 -0.1251
 1768W        W 3968  14.102   6.314   7.700 -0.1940 -0.2053  0.2723
 1769W        W 3969   7.680   4.597  44.049  0.0395  0.3329 -0.3233
 1770W        W 3970  19.993   1.904  13.719  0.1543 -0.3772 -0.1737
 1771W        W 3971  13.601   6.212   9.321 -0.0632  0.1956 -0.3803
 1772W        W 3972  19.022   2.198  14.533  0.1549  0.1721  0.1234
 1773W        W 3973  10.223   6.176  31.944 -0.0937 -0.2269 -0.3590
 1774W        W 3974  15.039   0.895  19.892  0.0952  0.0268  0.0422
 1775W        W 3975  20.936   3.527  42.181  0.2636  0.2721 -0.0677
 1776W        W 3976   2.018   2.429  36.950 -0.3521  0.1437 -0.0309
 1777W        W 3977  13.417   4.815  16.313 -0.1058  0.0486  0.0835
 1778W        W 3978   3.447   1.255   3.542 -0.1056  0.1556 -0.1901
 1779W        W 3979   9.959   3.600   3.417 -0.1017  0.0970 -0.0143
 1780W        W 3980   6.501   2.404  12.869 -0.1553  0.0015  0.0573
 1781W        W 3981   9.990   3.867  37.272  0.2541 -0.1822 -0.0557
 1782W        W 3982  11.502   5.812  16.718  0.2753 -0.2970 -0.0228
 1783W        W 3983  10.311   0.647  14.822  0.1692 -0.0066 -0.1510
 1784W        W 3984   5.036   2.459  26.548 -0.0496  0.0458  0.0096
 1785W        W 3985  17.844   5.139  38.928  0.0657 -0.1173 -0.0459
 1786W        W 3986  19.447   3.397  26.463  0.0566 -0.0342 -0.0476
 1787W        W 3987  17.776   4.906  15.694  0.1270 -0.2747 -0.0518
 1788W        W 3988   4.213   1.440  13.590  0.0554 -0.0747  0.0288
 1789W        W 3989   6.451   0.532  37.156  0.1700 -0.0805  0.2099
 1790W        W 3990  10.407   2.170  28.586 -0.0443 -0.0748 -0.1273
 1791W        W 3991  14.498   1.795  35.999 -0.2644 -0.0576 -0.2117
 1792W        W 3992  13.896   3.895  43.023 -0.2556 -0.1759  0.2345
 1793W        W 3993  13.255   2.269   8.759 -0.2631  0.1629 -0.0606
 1794W        W 3994   9.108   0.208  45.120  0.1410 -0.0302 -0.1258
 1795W        W 3995  14.993   1.316  14.443  0.1576  0.3840  0.1080
 1796W        W 3996   7.054   4.523   4.241 -0.0311 -0.1416  0.3455
 1797W        W 3997  12.884   0.609  11.507 -0.0868  0.0025  0.1572
 1798W        W 3998  14.307   0.424  24.894  0.0222  0.0671 -0.1134
 1799W        W 3999   1.279   1.735  36.268 -0.2501  0.2464 -0.0753
 1800W        W 4000   9.834   5.626  36.495  0.0066 -0.0740 -0.1947
 1801W        W 4001   1.860   5.668  35.242 -0.1048 -0.0550 -0.0465
 1802W        W 4002   9.365   0.474   1.746  0.2463 -0.1973  0.1003
 1803W        W 4003  10.021   0.142  30.759 -0.1191 -0.1266  0.0572
 1804W        W 4004  10.801   1.816  40.592  0.0871 -0.1056 -0.0018
 1805W        W 4005  18.644   4.795   6.149  0.0676  0.0844 -0.5259
 1806W        W 4006   6.530   0.688  40.591 -0.1352 -0.0512 -0.0991
 1807W        W 4007  11.676   0.773  17.920  0.2873 -0.0807 -0.2664
 1808W        W 4008   7.764   5.126   2.030 -0.0287  0.1323 -0.2967
 1809W        W 4009   7.170   4.420  27.774  0.1869  0.1259  0.0620
 1810W        W 4010   7.752   6.299  10.025 -0.1474 -0.1593 -0.0391
 1811W        W 4011   1.925   2.879  15.544  0.0699  0.0951  0.2714
 1812W        W 4012   5.109   2.914  28.754 -0.2550  0.0224  0.0932
 1813W        W 4013  10.366   4.477  30.254 -0.2606  0.3945  0.1644
 1814W        W 4014  14.754   6.103  10.865  0.0199 -0.1420 -0.0174
 1815W        W 4015  19.183   2.469  12.789 -0.0516  0.3394  0.0458
 1816W        W 4016  20.341   2.629  44.409  0.0227 -0.1719  0.0903
 1817W        W 4017  16.098   1.727   9.782 -0.2221  0.0329  0.0556
 1818W        W 4018  20.687   5.396   5.830 -0.2327 -0.0642 -0.2562
 1819W        W 4019  11.936   6.266  42.451 -0.0222 -0.0076  0.1658
 1820W        W 4020   9.664   1.936  19.351 -0.0134  0.3964  0.1486
 1821W        W 4021  16.990   1.222  30.440  0.2079 -0.0395  0.1554
 1822W        W 4022   6.040   3.594  29.425  0.0575 -0.0138  0.0977
 1823W        W 4023   8.697   4.596  30.292  0.0157  0.2574 -0.3613
 1824W        W 4024   7.301   0.019  25.222 -0.1280  0.2051  0.1536
 1825W        W 4025  12.139   3.323   2.311 -0.0355  0.0018 -0.0310
 1826W        W 4026   6.846   3.143  16.115 -0.4565  0.0724 -0.3161
 1827W        W 4027  12.291   2.022  37.408  0.2770  0.4395 -0.3482
 1828W        W 4028   3.529   4.453  22.750 -0.2296 -0.0545 -0.0440
 1829W        W 4029   3.575   1.548   9.007 -0.0978  0.2010  0.0171
 1830W        W 4030   5.757   2.439   3.497  0.1324 -0.0321  0.0443
 1831W        W 4031   2.052   4.681  42.223 -0.1492 -0.2163  0.0487
 1832W        W 4032   4.832   4.558  14.019  0.0713 -0.1679 -0.3290
 1833W        W 4033   3.144   4.064  11.825  0.1056 -0.0282  0.0733
 1834W        W 4034  14.972   0.865  18.877 -0.1085  0.0021 -0.1397
 1835W        W 4035   7.183   6.156  17.085 -0.0913 -0.1132  0.0437
 1836W        W 4036  14.634   0.589  44.402 -0.1031  0.0647 -0.0121
 1837W        W 4037   0.717   5.895   3.093 -0.0583  0.1220 -0.4443
 1838W        W 4038  19.517   6.304  15.612  0.2570  0.0275 -0.2197
 1839W        W 4039   9.242   3.735  35.700 -0.3545  0.0064  0.0243
 1840W        W 4040  15.219   3.447   7.980 -0.1965  0.2927 -0.0738
 1841W        W 4041  20.382   5.993  12.874  0.0969  0.1096  0.0502
 1842W        W 4042  16.883   3.409  12.615 -0.2347  0.0431  0.0737
 1843W        W 4043   9.930   3.079   8.709 -0.4151 -0.0939 -0.0374
 1844W        W 4044   8.020   4.988   6.202  0.3567  0.0650  0.0716
 1845W        W 4045   8.699   5.703  16.729  0.1110  0.0162 -0.1787
 1846W        W 4046  14.415   2.184  30.641 -0.2716 -0.1950  0.0857
 1847W        W 4047   4.597   6.243   8.975  0.0317 -0.1997 -0.3687
 1848W        W 4048  17.864   3.171  31.290  0.1552  0.0055 -0.3322
 1849W        W 4049  15.916   5.121  11.538 -0.0401  0.0417  0.0269
 1850W        W 4050   1.409   4.316   1.250 -0.3232 -0.0404  0.1963
 1851W        W 4051   3.377   6.324   8.651 -0.2621 -0.0584 -0.2929
 1852W        W 4052  12.355   2.779  45.047  0.2028 -0.1438  0.0076
 1853W        W 4053  13.757   2.031   4.258 -0.0736 -0.1504 -0.2318
 1854W        W 4054  13.385   0.175   1.719 -0.0410 -0.0569  0.3025
 1855W        W 4055   9.345   2.219   8.741  0.0427 -0.0565 -0.0717
 1856W        W 4056  11.382   2.672   6.089 -0.0849  0.0236  0.4444
 1857W        W 4057   6.824   2.163  12.505 -0.0535  0.1362  0.2358
 1858W        W 4058  18.223   1.303  45.067  0.2580  0.1085  0.3644
 1859W        W 4059  20.462   5.430  14.903  0.2587 -0.2379 -0.3319
 1860W        W 4060   5.122   4.847  39.440 -0.0637  0.0882 -0.0466
 1861W        W 4061   9.714   6.491  16.379 -0.2779  0.0985  0.5227
 1862W        W 4062  12.835   6.065  29.971 -0.0255  0.1898 -0.3598
 1863W        W 4063  20.535   0.864   7.413  0.4385  0.4125 -0.1310
 1864W        W 4064   7.820   3.324  29.465  0.0865 -0.2019 -0.0416
 1865W        W 4065  11.125   2.085  19.439 -0.0879 -0.1490  0.2619
 1866W        W 4066  15.956   6.152   6.421 -0.5266  0.1793  0.3976
 1867W        W 4067   3.893   5.766  14.074  0.0063 -0.1185 -0.0874
 1868W        W 4068   6.814   1.572  39.344  0.1541  0.1757  0.1451
 1869W        W 4069   0.688   5.247  26.021 -0.0304  0.4815 -0.0732
 1870W        W 4070  14.418   2.906  40.903 -0.0176  0.2592  0.2205
 1871W        W 4071   7.141   2.756  32.944 -0.1722 -0.1692  0.0804
 1872W        W 4072   6.473   5.122  41.134 -0.2511 -0.0332 -0.2262
 1873W        W 4073   5.464   3.314  41.933 -0.1740  0.0771 -0.0741
 1874W        W 4074  12.860   2.242  43.409  0.2221  0.1993 -0.1171
 1875W        W 4075   5.112   3.109  11.839  0.0408 -0.0277 -0.3457
 1876W        W 4076  13.801   4.703  39.331  0.1233 -0.2002  0.0556
 1877W        W 4077   6.348   4.598  44.095  0.1247  0.1584  0.3054
 1878W        W 4078  15.342   4.028  44.434  0.1464  0.0137  0.1939
 1879W        W 4079  11.588   3.752  36.160 -0.1705 -0.4012  0.1397
 1880W        W 4080  19.643   5.300  33.778  0.0193  0.1146 -0.0387
 1881W        W 4081   4.220   2.005  42.639  0.1980 -0.4047 -0.1888
 1882W        W 4082  19.859   5.488  35.806  0.0363 -0.0800 -0.2087
 1883W        W 4083   5.754   6.283  12.353 -0.2390  0.1681 -0.0736
 1884W        W 4084  18.320   0.400  39.788 -0.3181  0.0527  0.0580
 1885W        W 4085  20.733   1.131  11.376  0.1981  0.0575 -0.0711
 1886W        W 4086   4.004   4.970  30.317  0.0214  0.2412  0.1547
 1887W        W 4087  15.682   1.884  43.503  0.1182  0.2798  0.2233
 1888W        W 4088   9.431   3.897   2.795 -0.0329  0.1885  0.0718
 1889W        W 4089  12.933   1.029   4.329 -0.0127  0.1193 -0.0334
 1890W        W 4090   6.066   5.125  30.221  0.2391 -0.3252 -0.3535
 1891W        W 4091  21.056   1.625   7.719 -0.0097 -0.1354 -0.0796
 1892W        W 4092   3.352   0.774  32.178  0.0473 -0.2981 -0.2567
 1893W        W 4093  15.289   0.683  40.736  0.0030 -0.2591  0.0582
 1894W        W 4094  20.976   1.573  10.657 -0.1756  0.0186  0.0775
 1895W        W 4095   3.504   2.396  30.615  0.0582 -0.1032 -0.0692
 1896W        W 4096   6.095   4.762   8.262  0.2949  0.1171  0.2059
 1897W        W 4097   7.194   6.186  34.906 -0.0032  0.0409 -0.1815
 1898W        W 4098  18.919   5.205   9.983  0.0410 -0.4469 -0.1739
 1899W        W 4099   9.926   3.694   2.941  0.4228  0.1174 -0.1955
 1900W        W 4100   7.488   6.557  36.382 -0.1377 -0.0575  0.0155
 1901W        W 4101   1.969   6.545   8.742 -0.3339 -0.0035 -0.0979
 1902W        W 4102  19.156   4.821   5.438 -0.1161  0.0165  0.2946
 1903W        W 4103   9.007   5.748  30.445 -0.0589 -0.3269  0.0412
 1904W        W 4104  15.219   2.755  43.743  0.0032  0.1482 -0.2674
 1905W        W 4105  10.035   6.416   9.409  0.3982 -0.0883  0.1047
 1906W        W 4106   3.338   6.228  30.748  0.0303 -0.1608 -0.2022
 1907W        W 4107   9.897   5.243   5.143 -0.0043 -0.0504 -0.0001
 1908W        W 4108   1.523   2.198  41.037 -0.2931  0.2032 -0.0432
 1909W        W 4109   9.283   3.433  29.204 -0.0079 -0.1151  0.1092
 1910W        W 4110  15.881   4.648  44.619  0.2082  0.2512 -0.1362
 1911W        W 4111  12.021   1.696  32.563 -0.1848  0.1132  0.1241
 1912W        W 4112   0.871   3.819  14.360 -0.1317  0.2177  0.0427
 1913W        W 4113  12.716   2.315  42.560  0.3660  0.1983  0.1152
 1914W        W 4114  19.264   0.506  44.541 -0.1096 -0.2912 -0.0368
 1915W        W 4115  16.114   3.585  15.497 -0.1776  0.0505 -0.1791
 1916W        W 4116   9.990   5.777  34.945 -0.1028  0.1513  0.2118
 1917W        W 4117  19.391   5.700  14.156 -0.2496 -0.1519 -0.2059
 1918W        W 4118  17.429   5.048  35.365 -0.3616 -0.1330 -0.3536
 1919W        W 4119   9.419   4.307  14.913 -0.1692 -0.2627 -0.0792
 1920W        W 4120  10.159   6.408  33.589 -0.3155  0.0317 -0.0513
 1921W        W 4121   8.917   4.526  39.521 -0.2341 -0.4244  0.0367
 1922W        W 4122  13.787   0.291  12.414 -0.2063  0.0210 -0.0312
 1923W        W 4123  19.871   4.182   1.834 -0.1634  0.0585  0.0445
 1924W        W 4124   1.208   2.758  34.190  0.0057  0.2992  0.2022
 1925W        W 4125   4.613   5.315   6.091 -0.0004  0.2809 -0.0501
 1926W        W 4126   3.955   6.352   1.314  0.0523  0.1347 -0.4843
 1927W        W 4127   5.950   2.602  22.642 -0.3250  0.0227  0.1268
 1928W        W 4128   6.459   3.101   6.903  0.0809 -0.0152 -0.1261
 1929W        W 4129  16.464   3.054  42.908  0.1020  0.0205 -0.2201
 1930W        W 4130  14.307   5.400   4.617  0.1873 -0.1780  0.1216
 1931W        W 4131  16.993   6.537  37.153  0.1076  0.0175 -0.1791
 1932W        W 4132   2.821   1.923   5.899 -0.0297  0.1262 -0.2873
 1933W        W 4133  13.675   0.550   9.601  0.0358  0.1443  0.0501
 1934W        W 4134   5.686   0.103   3.172 -0.0494 -0.2015  0.2444
 1935W        W 4135   3.395   1.954  25.671  0.0444 -0.2130 -0.1229
 1936W        W 4136   4.737   3.029   4.768  0.5533 -0.2230  0.1899
 1937W        W 4137  19.406   3.472  17.166 -0.2382 -0.1782 -0.1570
 1938W        W 4138  21.035   5.186  12.699  0.1231  0.2120 -0.1377
 1939W        W 4139  13.411   2.225   1.503  0.2364 -0.2773 -0.0315
 1940W        W 4140   2.356   2.187  22.934  0.0215  0.2303 -0.1913
 1941W        W 4141   3.248   3.727  25.937  0.2322  0.2041  0.1781
 1942W        W 4142  14.744   4.097  21.933 -0.1644 -0.2071 -0.0490
 1943W        W 4143   6.462   4.899  33.143 -0.1668  0.0886  0.2385
 1944W        W 4144   4.314   4.477  21.328 -0.0630  0.1809 -0.0866
 1945W        W 4145  18.379   1.260   2.863 -0.0422 -0.0972 -0.1315
 1946W        W 4146   1.349   1.727  35.291  0.2603 -0.2124  0.0036
 1947W        W 4147   0.479   4.908   9.632  0.3086  0.1829  0.0545
 1948W        W 4148  12.695   1.216  17.532  0.4238 -0.1110  0.0984
 1949W        W 4149   9.624   5.638  44.281  0.1538  0.0560 -0.1875
 1950W        W 4150  18.056   5.632  33.701  0.3962 -0.1317  0.0426
 1951W        W 4151  20.842   5.063  35.198  0.1352  0.0720  0.1441
 1952W        W 4152   3.602   0.026   8.334 -0.0279  0.0513  0.2433
 1953W        W 4153  18.006   1.047   2.537  0.0770  0.3799 -0.2399
 1954W        W 4154   2.950   2.867  29.582 -0.1048 -0.2086  0.2021
 1955W        W 4155  11.360   0.305   0.109  0.3267  0.1231  0.1503
 1956W        W 4156   6.291   1.066  30.821  0.1463 -0.1726  0.1879
 1957W        W 4157   1.794   2.263  43.199  0.0568  0.1225  0.0281
 1958W        W 4158   8.852   3.699  39.580  0.0725 -0.1593 -0.0379
 1959W        W 4159   8.580   2.845  28.299  0.0608  0.1482  0.0063
 1960W        W 4160  14.765   6.334  35.423  0.1633  0.3277  0.1066
 1961W        W 4161   3.540   2.924  44.567 -0.1751 -0.2275  0.3876
 1962W        W 4162  19.328   6.102  36.322  0.0490  0.0445  0.0548
 1963W        W 4163  12.561   3.801   6.375 -0.0358  0.0598  0.0899
 1964W        W 4164  19.330   2.156  13.136  0.0935 -0.0369  0.0683
 1965W        W 4165   4.691   2.352   9.072  0.0801  0.0561 -0.0725
 1966W        W 4166   4.122   1.046   8.256  0.1264 -0.2088  0.2181
 1967W        W 4167  13.884   3.823  17.838  0.2690  0.1569 -0.0519
 1968W        W 4168  21.087   1.510  27.251 -0.1759 -0.2541  0.5405
 1969W        W 4169   4.984   1.167  26.107 -0.0609 -0.0237 -0.1431
 1970W        W 4170  19.689   3.598   3.157  0.0973  0.1618  0.1073
 1971W        W 4171   9.372   6.051  35.256 -0.1968  0.1486  0.1360
 1972W        W 4172  16.260   1.475  13.709 -0.2583 -0.1768 -0.0576
 1973W        W 4173  15.737   4.730  11.329 -0.1859 -0.2932 -0.0282
 1974W        W 4174  19.873   1.518   4.072  0.0952  0.1180  0.0645
 1975W        W 4175   8.419   3.937   7.806  0.1200  0.2569 -0.0633
 1976W        W 4176  12.813   6.024  34.660 -0.2321 -0.1213 -0.0446
 1977W        W 4177  15.521   1.042  41.027  0.0879 -0.0553 -0.3260
 1978W        W 4178   6.833   0.869  11.058 -0.0846  0.1036 -0.2509
 1979W        W 4179  11.710   3.335  30.131  0.3073 -0.0040  0.1458
 1980W        W 4180   8.787   2.193  30.799 -0.0733 -0.1753  0.0672
 1981W        W 4181   9.798   3.893   1.907 -0.0473 -0.4577  0.0455
 1982W        W 4182   2.912   0.263   7.343 -0.1703 -0.1460  0.0292
 1983W        W 4183   0.587   0.746   7.607  0.2337 -0.1374 -0.2313
 1984W        W 4184   3.606   4.716  11.708 -0.4222 -0.0539  0.0524
 1985W        W 4185   0.643   0.239  14.628 -0.0700 -0.0308 -0.1139
 1986W        W 4186  14.041   4.722  21.138 -0.0628  0.2158 -0.0183
 1987W        W 4187  11.330   3.196  42.170  0.0714  0.1301  0.1481
 1988W        W 4188  20.576   6.267   5.374  0.0729  0.0360 -0.3206
 1989W        W 4189  17.149   2.376  10.610  0.3078 -0.0256  0.1608
 1990W        W 4190  17.060   1.752  37.764  0.0281  0.0429 -0.0097
 1991W        W 4191  21.155   2.803  33.320 -0.2005 -0.0350  0.0361
 1992W        W 4192   3.642   3.321  41.349 -0.1249  0.0962 -0.0501
 1993W        W 4193  12.253   1.376  35.325  0.2250 -0.2667  0.0682
 1994W        W 4194   3.961   3.786   8.881 -0.0557 -0.1896  0.3314
 1995W        W 4195  13.724   5.553  22.890 -0.0175 -0.1336 -0.0504
 1996W        W 4196   4.877   1.463   4.863  0.1550  0.2911  0.2838
 1997W        W 4197  18.093   3.615  35.575  0.0621 -0.0063 -0.0964
 1998W        W 4198   7.874   0.826  40.661  0.1551  0.2675 -0.2059
 1999W        W 4199   0.810   2.068  34.662 -0.1147  0.1862 -0.2391
 2000W        W 4200   5.180   5.266  12.881 -0.1398  0.0547  0.0057
 2001W        W 4201  16.944   5.328   9.079  0.0667  0.2104 -0.2180
 2002W        W 4202   0.967   0.432  14.009 -0.0693 -0.1091 -0.0591
 2003W        W 4203  14.273   4.953  41.699 -0.0080  0.1859  0.0286
 2004W        W 4204  10.539   5.155   2.424  0.0121  0.2281  0.1611
 2005W        W 4205   8.222   3.457   4.202  0.3449  0.0505  0.0591
 2006W        W 4206  15.915   4.536  15.331  0.0893 -0.1572 -0.0552
 2007W        W 4207  10.634   2.561   9.269 -0.0643 -0.2678  0.4049
 2008W        W 4208   2.458   4.944  42.329  0.1221 -0.0049  0.0680
 2009W        W 4209  10.276   2.057  12.089  0.1299 -0.1151  0.3325
 2010W        W 4210   4.912   2.834  25.577  0.1956  0.0070 -0.0424
 2011W        W 4211  16.390   1.930  19.966 -0.0893  0.0941  0.2143
 2012W        W 4212   8.136   5.040  39.344 -0.2135 -0.0223 -0.2026
 2013W        W 4213  19.944   4.614   2.059  0.1809 -0.0655 -0.0127
 2014W        W 4214   3.797   1.254  12.894  0.1156 -0.4708  0.1577
 2015W        W 4215  14.970   6.356  37.252 -0.2409  0.1445  0.0384
 2016W        W 4216  15.900   2.281  22.214 -0.1470 -0.1759 -0.2355
 2017W        W 4217  18.020   0.668  13.285 -0.0834  0.0271 -0.0350
 2018W        W 4218  13.839   0.623  30.722  0.0957 -0.2677 -0.0153
 2019W        W 4219  13.131   3.092  12.335  0.1961 -0.4976  0.1223
 2020W        W 4220  17.678   0.233  10.150  0.3615 -0.1973  0.0577
 2021W        W 4221  15.146   0.833   1.560  0.0068  0.2462 -0.0292
 2022W        W 4222  20.444   3.140  28.890  0.0946 -0.1696 -0.0054
 2023W        W 4223   1.847   6.076  41.473  0.0707  0.0931  0.1393
 2024W        W 4224   4.583   3.166  21.774 -0.0960 -0.0662 -0.1389
 2025W        W 4225  19.328   6.394  39.781 -0.2818 -0.0735  0.0101
 2026W        W 4226   6.239   1.343  25.164 -0.1701  0.3145  0.0645
 2027W        W 4227  14.160   3.613  43.345 -0.1651 -0.3977 -0.2043
 2028W        W 4228  15.088   0.422  21.736  0.3173 -0.1465 -0.2031
 2029W        W 4229   1.592   2.071  24.145 -0.0421 -0.1401 -0.1796
 2030W        W 4230  11.457   1.393  13.695 -0.0426 -0.1231  0.0492
 2031W        W 4231  16.860   4.403  41.252 -0.1632  0.1627  0.1185
 2032W        W 4232   7.405   0.775  44.283 -0.0677 -0.1975  0.0005
 2033W        W 4233  17.561   6.201  20.112 -0.4571 -0.1743 -0.1800
 2034W        W 4234   3.360   6.556  40.586  0.0984  0.0038  0.2724
 2035W        W 4235  20.371   6.150   0.447 -0.0628  0.0335 -0.2904
 2036W        W 4236  19.500   1.192   8.971 -0.1155 -0.0905  0.0813
 2037W        W 4237  15.576   5.104   0.859 -0.1837  0.0844 -0.0940
 2038W        W 4238  11.685   5.131  42.775  0.2496  0.0946 -0.2340
 2039W        W 4239   8.625   2.128  29.302  0.0483  0.0575 -0.1132
 2040W        W 4240   0.249   4.631  40.696  0.0406  0.1932 -0.0436
 2041W        W 4241  12.030   5.688   8.325 -0.2185 -0.3920 -0.0089
 2042W        W 4242   1.553   3.036  42.825  0.0939  0.0170  0.0682
 2043W        W 4243  17.523   2.371   2.982  0.1534 -0.2154  0.2357
 2044W        W 4244  19.978   0.701   4.949 -0.1172 -0.2456 -0.2793
 2045W        W 4245  10.670   2.699  37.094  0.1129  0.1161 -0.1697
 2046W        W 4246   5.955   1.646  29.941 -0.0562 -0.0682 -0.1732
 2047W        W 4247   3.930   5.164  11.506  0.0475 -0.1486 -0.1677
 2048W        W 4248   2.981   0.418  26.063 -0.2149 -0.1536 -0.0147
 2049W        W 4249   4.605   2.488  35.060  0.0751 -0.1274 -0.0406
 2050W        W 4250   7.298   6.423  26.942 -0.1997 -0.0934 -0.0601
 2051W        W 4251  11.163   2.623  37.290 -0.1632  0.0420  0.0645
 2052W        W 4252  11.525   6.583  41.292 -0.0247 -0.2038 -0.0717
 2053W        W 4253  12.169   5.374  29.147  0.0076 -0.1032 -0.0139
 2054W        W 4254   4.159   2.042  32.449  0.1481  0.1977  0.0928
 2055W        W 4255  12.355   2.275  18.759 -0.0586  0.2590 -0.0737
 2056W        W 4256  14.670   3.095  32.230 -0.0373  0.1417  0.0292
 2057W        W 4257   2.155   6.155  32.072 -0.1897 -0.3097 -0.2256
 2058W        W 4258   7.228   0.673  38.677  0.0896 -0.0903  0.1390
 2059W        W 4259   2.747   1.207   5.148 -0.0049  0.0149  0.1117
 2060W        W 4260   3.129   4.057  38.574 -0.1821  0.0392 -0.2378
 2061W        W 4261  11.139   6.517  17.617 -0.1697 -0.1048 -0.1435
 2062W        W 4262   0.673   3.974   1.597  0.1883 -0.1444 -0.0711
 2063W        W 4263   7.463   2.021  27.309  0.0809  0.0848 -0.0037
 2064W        W 4264  15.660   2.969  18.303 -0.0124  0.0156 -0.3018
 2065W        W 4265   3.084   0.216   8.541 -0.3077  0.0814 -0.5409
 2066W        W 4266  11.068   4.420  19.409  0.1286  0.2300 -0.0333
 2067W        W 4267   7.581   3.825  31.475  0.4770  0.0229 -0.1333
 2068W        W 4268   9.479   6.188   3.496  0.1014 -0.2328 -0.1469
 2069W        W 4269   3.248   2.201   0.662  0.0830  0.1160 -0.2859
 2070W        W 4270  11.951   4.262  22.227 -0.1840 -0.2893 -0.0135
 2071W        W 4271  10.396   3.257  40.647 -0.1183 -0.1116  0.0652
 2072W        W 4272  19.072   4.857  10.900 -0.2598  0.0945  0.2027
 2073W        W 4273   6.093   2.421   9.196 -0.0984 -0.0063  0.3250
 2074W        W 4274   8.382   3.954  15.763 -0.0527 -0.0297 -0.4637
 2075W        W 4275   1.589   6.417  44.926 -0.1332 -0.0628  0.0465
 2076W        W 4276  21.061   5.659  27.108  0.0768 -0.1350  0.1610
 2077W        W 4277   6.226   2.734  27.102  0.2010 -0.1459 -0.2599
 2078W        W 4278  16.865   0.793  44.600 -0.3969 -0.2959  0.2126
 2079W        W 4279   9.934   1.076  13.039  0.0082  0.1945 -0.0537
 2080W        W 4280   1.780   6.056  30.781 -0.1239  0.1184  0.0376
 2081W        W 4281   0.459   1.698  24.408 -0.2495 -0.1340  0.0899
 2082W        W 4282   3.957   1.488   4.425 -0.0643 -0.1679 -0.0336
 2083W        W 4283   7.057   3.673  33.912 -0.2355  0.0826 -0.0993
 2084W        W 4284  20.198   0.279  14.090 -0.0436 -0.2536 -0.1718
 2085W        W 4285   0.121   6.349  27.227 -0.1404  0.1911 -0.0993
 2086W        W 4286  19.928   4.985   4.804  0.1200 -0.2735 -0.1769
 2087W        W 4287  18.766   2.220  36.663 -0.2752  0.0520  0.0330
 2088W        W 4288  16.916   3.013  29.672  0.1516 -0.0980  0.0461
 2089W        W 4289  12.627   6.526   1.165  0.1239  0.1444  0.2814
 2090W        W 4290   0.815   2.852  13.069 -0.0919  0.1303 -0.1244
 2091W        W 4291   9.378   0.351  29.198 -0.0318  0.0107 -0.0777
 2092W        W 4292  10.930   0.565  38.520  0.0310 -0.0375  0.2983
 2093W        W 4293   5.295   5.400  10.896 -0.0936  0.2064 -0.0534
 2094W        W 4294  16.059   2.145   8.475 -0.2611  0.1252  0.0386
 2095W        W 4295   4.215   5.034  12.989  0.0429  0.2470 -0.1604
 2096W        W 4296  16.633   2.378   3.009 -0.1141  0.2655 -0.0105
 2097W        W 4297  10.336   4.280  38.753  0.0307  0.0730  0.1435
 2098W        W 4298   0.496   1.567   6.990 -0.0657  0.1787 -0.0654
 2099W        W 4299   7.683   5.190   1.533 -0.0081 -0.1109 -0.0727
 2100W        W 4300  15.321   5.605  40.746 -0.2049  0.0616  0.0612
 2101W        W 4301   7.382   3.593  29.467 -0.0354 -0.2793  0.0421
 2102W        W 4302  11.661   0.629   7.952  0.0575  0.1781 -0.0208
 2103W        W 4303  11.121   1.111  31.130 -0.0870 -0.2090  0.0746
 2104W        W 4304   6.673   4.561  13.437  0.2443 -0.1200  0.0513
 2105W        W 4305   8.153   1.990   2.617 -0.0687 -0.1201 -0.0251
 2106W        W 4306   1.048   3.831   4.371  0.0621  0.0067  0.0539
 2107W        W 4307  18.587   1.892   1.326 -0.1587 -0.0222  0.2297
 2108W        W 4308   5.594   5.324  12.574 -0.0237  0.1519 -0.3817
 2109W        W 4309  16.522   4.752  21.208 -0.0295  0.0659  0.0556
 2110W        W 4310  15.161   4.403  21.856 -0.0458  0.0069  0.1442
 2111W        W 4311   1.125   5.542  32.864  0.1084 -0.1876 -0.1200
 2112W        W 4312  13.329   2.168  36.326 -0.0641 -0.2956 -0.0871
 2113W        W 4313   8.288   3.883  13.002 -0.2550 -0.0260  0.3110
 2114W        W 4314  12.047   3.149   6.779 -0.1189 -0.1607 -0.2233
 2115W        W 4315  13.438   2.036  10.881 -0.2763  0.2168 -0.5125
 2116W        W 4316   0.459   1.488  38.610  0.0733 -0.3026 -0.0721
 2117W        W 4317   8.078   5.346   0.516  0.1543 -0.1249  0.0974
 2118W        W 4318  20.789   2.280   3.701 -0.0654 -0.5563  0.0715
 2119W        W 4319  18.651   5.280  30.610 -0.1139 -0.2194 -0.2127
 2120W        W 4320   6.101   0.617  41.438 -0.2835  0.1545  0.1859
 2121W        W 4321   3.418   5.763  44.940 -0.1091 -0.2088 -0.0704
 2122W        W 4322   9.297   6.511   6.288  0.0382  0.0484 -0.0237
 2123W        W 4323  13.329   4.503  41.938 -0.1572 -0.1787  0.0076
 2124W        W 4324  12.345   1.959  40.231  0.1484  0.0458  0.0635
 2125W        W 4325   3.129   5.151  35.514 -0.0832 -0.2092 -0.2062
 2126W        W 4326   8.426   6.365  27.938  0.0019 -0.1043 -0.0197
 2127W        W 4327  17.102   2.986  34.765  0.0868 -0.0946 -0.0828
 2128W        W 4328   0.599   2.430  26.634  0.2421 -0.2417 -0.0893
 2129W        W 4329  13.688   4.264  21.137  0.0662 -0.1411  0.0016
 2130W        W 4330  15.556   4.556   7.504  0.0526  0.2369  0.0178
 2131W        W 4331   4.150   0.766   8.714 -0.1279  0.0285 -0.0475
 2132W        W 4332  13.695   3.681  41.340  0.1760 -0.0124  0.0412
 2133W        W 4333  14.147   5.080   0.865 -0.0977  0.3864  0.3893
 2134W        W 4334   7.638   0.613  24.708 -0.3700 -0.2266  0.2107
 2135W        W 4335   3.721   6.393  11.769  0.0975 -0.3491  0.1066
 2136W        W 4336   0.025   6.526  36.246 -0.0807 -0.1788  0.0938
 2137W        W 4337   3.560   0.762  40.723 -0.0639  0.1286  0.1143
 2138W        W 4338  12.738   4.828   3.540 -0.0882  0.0149  0.0664
 2139W        W 4339  10.074   5.701   5.075  0.2773 -0.0612  0.0880
 2140W        W 4340   6.132   1.100  43.425  0.0214 -0.0506  0.0576
 2141W        W 4341   5.512   4.365  16.197 -0.1173  0.2450  0.0385
 2142W        W 4342   7.196   3.693  35.552  0.1313  0.2843 -0.3024
 2143W        W 4343  20.844   2.932  30.501 -0.0290 -0.1972  0.0905
 2144W        W 4344   0.664   0.054  12.805  0.0364  0.0937 -0.0563
 2145W        W 4345  17.857   2.213  30.264 -0.1292  0.1078 -0.3632
 2146W        W 4346   8.943   5.229  12.978  0.2212 -0.0435  0.1102
 2147W        W 4347   1.335   4.252   7.823  0.2330 -0.1313 -0.0790
 2148W        W 4348   9.391   5.200   0.352  0.2121  0.1492  0.0217
 2149W        W 4349  15.776   3.458  11.771  0.2101 -0.1876 -0.1882
 2150W        W 4350  10.625   2.798  18.327  0.3231 -0.3257 -0.0528
 2151W        W 4351   9.120   0.252  15.909 -0.1869  0.0568 -0.0307
 2152W        W 4352  14.077   6.596   0.871 -0.0576  0.1594 -0.0735
 2153W        W 4353   9.974   3.850  38.958 -0.0413 -0.1288 -0.1074
 2154W        W 4354   2.436   1.274  12.169 -0.2918  0.1748  0.0118
 2155W        W 4355   0.547   0.806  15.753 -0.3566 -0.2088 -0.1710
 2156W        W 4356  19.012   2.039  42.584 -0.0682 -0.1430  0.1469
 2157W        W 4357   9.911   5.040  44.129 -0.1035  0.0673 -0.1427
 2158W        W 4358  14.326   2.589   5.249  0.0554  0.0724 -0.1895
 2159W        W 4359  12.451   1.428   5.839 -0.2444 -0.0058 -0.3133
 2160W        W 4360  18.164   2.498   9.884  0.1246  0.0200  0.3219
 2161W        W 4361  16.299   1.821   2.032 -0.0366  0.0878 -0.1893
 2162W        W 4362  19.997   4.914  40.538  0.1371  0.2128 -0.1676
 2163W        W 4363   7.446   2.992   9.134  0.3341  0.0046  0.0499
 2164W        W 4364   7.577   1.538  41.111  0.1242  0.1112 -0.2058
 2165W        W 4365  21.074   2.980  42.888 -0.0648 -0.1449 -0.2384
 2166W        W 4366  10.777   4.310  17.254 -0.0655  0.1925 -0.2038
 2167W        W 4367   1.528   2.375   3.027  0.1069  0.0196 -0.0598
 2168W        W 4368  15.146   1.769   1.199 -0.2048  0.0731  0.0132
 2169W        W 4369  14.830   3.440  23.793 -0.0729  0.1141 -0.2662
 2170W        W 4370   5.457   1.202  34.730  0.0522 -0.2437  0.0182
 2171W        W 4371  19.146   4.426  28.112  0.0768 -0.2425 -0.1595
 2172W        W 4372   6.073   1.607  33.098 -0.2954  0.1759 -0.0978
 2173W        W 4373  14.444   3.801  35.161  0.3487 -0.1288  0.2163
 2174W        W 4374  14.660   1.292  29.425  0.0526  0.1817  0.0266
 2175W        W 4375  17.546   2.887  39.500  0.0240  0.1845  0.0207
 2176W        W 4376  20.814   4.135  42.993 -0.1928 -0.2420  0.0907
 2177W        W 4377   1.599   1.548  14.631  0.0599  0.2315  0.1200
 2178W        W 4378  18.352   2.017   2.242  0.0246 -0.0598 -0.0312
 2179W        W 4379  10.629   0.941  30.188 -0.1635  0.0223 -0.1398
 2180W        W 4380   7.761   0.886   3.304 -0.0374  0.1287  0.0524
 2181W        W 4381  16.471   1.123  41.238 -0.0852 -0.1844  0.0683
 2182W        W 4382   3.545   6.454  32.940  0.0794  0.2912 -0.0388
 2183W        W 4383   9.606   6.426  41.466  0.0175  0.0777  0.0380
 2184W        W 4384  16.250   5.851  19.176 -0.1757  0.0603  0.4362
 2185W        W 4385   3.011   4.152  11.345  0.0968  0.0198 -0.1607
 2186W        W 4386   6.606   1.428  15.093  0.0609  0.0163 -0.1462
 2187W        W 4387  11.315   3.977  33.254  0.1601 -0.0294  0.1604
 2188W        W 4388  15.429   1.339  45.105 -0.0703  0.1104 -0.0933
 2189W        W 4389  19.409   6.156  30.616  0.3496 -0.1087 -0.0120
 2190W        W 4390  10.135   3.537  30.220 -0.1128  0.1378  0.0457
 2191W        W 4391  15.903   2.150  15.851 -0.2661  0.0111 -0.1901
 2192W        W 4392   1.333   3.697  34.959 -0.0324 -0.0301  0.0219
 2193W        W 4393  18.122   4.654  15.998 -0.0057 -0.0273 -0.1280
 2194W        W 4394   7.747   2.848   4.564 -0.0111  0.3110 -0.0638
 2195W        W 4395   8.379   4.168  35.295 -0.1248  0.0156 -0.0221
 2196W        W 4396  21.015   5.604   7.416  0.0307  0.1730  0.0751
 2197W        W 4397   8.253   2.343  41.490  0.0038 -0.0301 -0.0979
 2198W        W 4398   3.928   4.348  23.071  0.0400  0.1307  0.1381
 2199W        W 4399   1.718   3.482   9.782  0.1526  0.0612  0.2010
 2200W        W 4400  11.639   5.785  36.831 -0.1829 -0.0880 -0.0523
 2201W        W 4401   1.069   1.764  40.917  0.0733  0.0160  0.1574
 2202W        W 4402   5.216   3.063  39.182  0.1957  0.2427 -0.2353
 2203W        W 4403  20.951   1.941  16.190  0.1134  0.0407  0.2201
 2204W        W 4404  15.388   3.287   5.832  0.0682  0.1019 -0.2164
 2205W        W 4405  17.116   3.388   3.798 -0.0649  0.2704  0.0771
 2206W        W 4406  15.734   6.502  38.333  0.0016 -0.1927  0.2544
 2207W        W 4407   1.602   6.441   5.326 -0.0743 -0.1463 -0.0909
 2208W        W 4408  21.139   0.571  28.305 -0.1501  0.1333 -0.0945
 2209W        W 4409  18.746   3.894  40.762 -0.1748  0.0523  0.3323
 2210W        W 4410   0.962   1.637   6.604  0.0831 -0.0969  0.0782
 2211W        W 4411  16.860   4.039  16.601 -0.3417 -0.1571  0.1365
 2212W        W 4412  13.715   0.489  15.363  0.1138  0.0435  0.0625
 2213W        W 4413  20.599   2.440  12.856 -0.2510 -0.1341  0.0107
 2214W        W 4414   7.422   6.202   4.525 -0.0769  0.1191 -0.0331
 2215W        W 4415  17.204   2.792  20.070  0.2667 -0.0625 -0.0824
 2216W        W 4416   0.987   5.321  36.025  0.0241 -0.2610 -0.0219
 2217W        W 4417   2.095   4.952   0.082  0.1255 -0.0748  0.0856
 2218W        W 4418  13.729   4.703  18.577 -0.2240 -0.2103 -0.0763
 2219W        W 4419   2.281   2.611  33.008  0.0507  0.1760  0.0392
 2220W        W 4420   8.726   1.633  11.979  0.1088  0.0641  0.3410
 2221W        W 4421  11.827   0.878  10.990  0.2252 -0.2513 -0.1122
 2222W        W 4422   7.780   1.855  28.140  0.2120  0.2693  0.1977
 2223W        W 4423   9.552   0.464   7.190  0.1502 -0.3640 -0.0417
 2224W        W 4424   9.723   4.918  42.769 -0.1215  0.2208 -0.0498
 2225W        W 4425   1.283   0.629   3.769  0.2766  0.0452  0.1163
 2226W        W 4426  16.161   3.048  35.823  0.3474  0.2886  0.1872
 2227W        W 4427  10.810   4.841  10.408 -0.1291  0.1928 -0.0360
 2228W        W 4428  12.315   3.160  22.587  0.0875  0.1561  0.1302
 2229W        W 4429  15.963   4.889   1.125 -0.0842  0.1807  0.0572
 2230W        W 4430  12.551   2.858  41.904 -0.1925  0.3027 -0.0389
 2231W        W 4431   5.134   4.187   2.984  0.0127  0.2750  0.0582
 2232W        W 4432  11.737   2.957  31.157 -0.2053 -0.2985 -0.1104
 2233W        W 4433   5.221   3.721  31.030  0.0841  0.0587  0.0411
 2234W        W 4434   3.806   4.125   8.025 -0.0383 -0.0363  0.0240
 2235W        W 4435  15.568   2.227  30.807 -0.0943 -0.0601 -0.0629
 2236W        W 4436   6.281   0.470  16.781 -0.3326  0.0575 -0.0991
 2237W        W 4437   3.508   0.352  10.507 -0.1326 -0.0252 -0.0470
 2238W        W 4438  12.505   3.576  42.600 -0.1598 -0.2279  0.3098
 2239W        W 4439  15.399   5.894  13.753  0.4370  0.2312  0.0280
 2240W        W 4440  17.019   3.868  12.497  0.1388  0.1590 -0.0383
 2241W        W 4441   9.487   6.377  42.634  0.1148  0.1350 -0.1897
 2242W        W 4442   5.156   1.255  10.125  0.0731  0.0386  0.1139
 2243W        W 4443   0.818   2.916  29.411  0.1708  0.1061 -0.2669
 2244W        W 4444  18.187   4.573   4.031 -0.1034  0.0393 -0.3642
 2245W        W 4445  19.530   6.539  31.275 -0.2909  0.4149  0.1382
 2246W        W 4446   7.049   2.870  31.852  0.1038 -0.0066 -0.0736
 2247W        W 4447   4.844   6.551  31.490 -0.2546  0.0166  0.2257
 2248W        W 4448   8.932   5.467  16.316  0.4413 -0.0903 -0.0110
 2249W        W 4449   1.456   5.502   6.922 -0.0920 -0.0195 -0.0890
 2250W        W 4450   5.433   2.055  32.398  0.2798  0.0193  0.1767
 2251W        W 4451  14.474   6.193  32.085 -0.0941 -0.2956  0.1064
 2252W        W 4452   9.675   0.669   6.748  0.0740 -0.0160 -0.1197
 2253W        W 4453   4.954   4.836  25.330  0.2825  0.0907  0.3057
 2254W        W 4454  20.388   0.386  40.132  0.2146 -0.1875  0.0525
 2255W        W 4455   7.539   0.247  26.345  0.1026 -0.0870 -0.0918
 2256W        W 4456   4.851   4.401   6.341 -0.1589  0.0115  0.1368
 2257W        W 4457  19.164   6.475   9.007  0.0963 -0.0437 -0.2256
 2258W        W 4458  17.440   0.980  12.858 -0.0626 -0.2555  0.1275
 2259W        W 4459  16.323   1.451  34.726 -0.0167  0.2764 -0.2495
 2260W        W 4460  10.259   1.197  41.010  0.1840 -0.1058 -0.0001
 2261W        W 4461  13.308   1.176  33.907 -0.2853 -0.0671  0.0713
 2262W        W 4462  10.086   3.485  37.798  0.1176  0.1155  0.1900
 2263W        W 4463  17.229   2.387  20.624  0.2195  0.0442  0.1668
 2264W        W 4464   1.369   2.545  30.718 -0.0441  0.1506 -0.1237
 2265W        W 4465  13.194   3.052  38.829 -0.1126  0.2032 -0.0796
 2266W        W 4466   4.226   3.606  30.664  0.2603 -0.1073  0.2321
 2267W        W 4467  11.311   3.066   2.433  0.0787  0.0857 -0.0273
 2268W        W 4468   1.263   6.176   0.110  0.2948  0.3060  0.3800
 2269W        W 4469   5.987   5.224  35.523  0.1001  0.2817 -0.2261
 2270W        W 4470  17.412   4.261  37.205 -0.1244  0.0403 -0.1190
 2271W        W 4471  19.747   5.556  27.315 -0.0777 -0.0311 -0.0862
 2272W        W 4472  12.728   1.232  28.811 -0.0339  0.1230 -0.1010
 2273W        W 4473   3.637   3.364  40.470  0.2579 -0.2484  0.0698
 2274W        W 4474  17.219   1.628  38.593  0.0967  0.1492 -0.1859
 2275W        W 4475  18.544   6.201  17.826  0.0462  0.2843  0.0616
 2276W        W 4476  17.105   4.832  41.173 -0.1544  0.0625 -0.0693
 2277W        W 4477  17.647   3.786   9.036 -0.1120  0.1598  0.0435
 2278W        W 4478   8.822   2.727  40.717 -0.2033 -0.3126 -0.0936
 2279W        W 4479  19.961   1.489  35.483 -0.1164  0.1302 -0.0144
 2280W        W 4480  16.857   2.713  13.174 -0.1143  0.1249 -0.1074
 2281W        W 4481  16.507   3.331  19.950 -0.1039 -0.2427 -0.1838
 2282W        W 4482  20.386   2.671   1.702 -0.1696 -0.0134  0.0387
 2283W        W 4483  20.871   2.860  13.144  0.0407  0.0048  0.2326
 2284W        W 4484   4.809   5.058  22.472  0.1789 -0.0905 -0.1921
 2285W        W 4485   9.601   2.892  16.700 -0.2857  0.1906  0.1747
 2286W        W 4486  11.350   2.432  30.986  0.1729  0.2236 -0.1156
 2287W        W 4487   6.727   0.612  25.920 -0.2445 -0.1653 -0.1224
 2288W        W 4488  16.616   3.145  36.018  0.0968 -0.2478 -0.2731
 2289W        W 4489  13.377   5.852  21.071  0.0494 -0.1315  0.2005
 2290W        W 4490   5.558   2.179  35.780 -0.0653 -0.3860 -0.2770
 2291W        W 4491  14.927   1.103  20.331 -0.0307  0.1197 -0.1063
 2292W        W 4492  12.244   1.417  21.443  0.0476 -0.0140  0.3390
 2293W        W 4493  18.834   6.191   7.164 -0.0234 -0.0221  0.1295
 2294W        W 4494  13.976   5.879  37.633 -0.3903  0.2336 -0.2514
 2295W        W 4495   7.297   4.351  44.293 -0.0587 -0.0540  0.1482
 2296W        W 4496  13.340   3.339  35.562 -0.2800  0.1898  0.1045
 2297W        W 4497  14.105   6.529  20.088  0.1998  0.1665 -0.3537
 2298W        W 4498  13.463   4.604  35.429  0.0303 -0.0668 -0.0967
 2299W        W 4499   5.186   3.084  33.663 -0.0414 -0.0422 -0.0934
 2300W        W 4500   1.860   3.307  35.896  0.0564  0.1074 -0.0518
 2301W        W 4501  15.466   5.728  22.121 -0.0842 -0.0751  0.1093
 2302W        W 4502   3.005   0.215  25.556  0.0909  0.2543  0.1537
 2303W        W 4503   7.617   4.341  41.583 -0.0291 -0.2166 -0.0092
 2304W        W 4504  13.901   4.536   4.946  0.2628  0.0122 -0.0080
 2305W        W 4505   5.346   0.199   7.447  0.4927 -0.2730  0.2825
 2306W        W 4506   1.510   3.307  11.344  0.1921 -0.3982  0.0487
 2307W        W 4507   2.453   0.146  26.871  0.1407  0.1181  0.0161
 2308W        W 4508  13.860   4.170  31.543  0.0692 -0.1947  0.0640
 2309W        W 4509   2.251   5.071  39.833 -0.2029  0.1205 -0.1376
 2310W        W 4510  16.848   3.664  32.306 -0.1107 -0.0164 -0.0067
 2311W        W 4511  15.284   0.385   4.652  0.0661 -0.0052 -0.0089
 2312W        W 4512   8.931   3.831   6.774  0.2776 -0.0645  0.1793
 2313W        W 4513  18.962   1.463  44.067  0.0167  0.0751 -0.2505
 2314W        W 4514  17.314   1.101  30.819 -0.1601 -0.1405 -0.1433
 2315W        W 4515   8.125   2.995  26.319  0.0499 -0.0459 -0.0853
 2316W        W 4516   9.364   5.876  37.599 -0.0935  0.2855 -0.2913
 2317W        W 4517   0.023   3.086  28.148  0.0866 -0.0637 -0.1140
 2318W        W 4518  13.632   2.734  37.061 -0.2422 -0.2219 -0.0168
 2319W        W 4519  20.060   0.192  44.711 -0.1214  0.2010  0.0187
 2320W        W 4520  15.449   3.539  38.873  0.4184 -0.0680  0.0873
 2321W        W 4521   2.877   5.904  22.407  0.2776  0.1635 -0.3490
 2322W        W 4522   6.798   5.963   1.531  0.0094  0.1370  0.0570
 2323W        W 4523   4.854   5.423   3.538 -0.3918 -0.0095  0.0432
 2324W        W 4524  19.544   0.832  33.821  0.1278  0.0154 -0.0725
 2325W        W 4525   3.270   3.223  19.253  0.3274  0.2573  0.0811
 2326W        W 4526   3.172   4.898  27.640 -0.0518  0.3255 -0.0484
 2327W        W 4527  14.944   3.033  18.834  0.0060 -0.1672 -0.0764
 2328W        W 4528   8.464   0.330  42.778 -0.0868  0.0720  0.1873
 2329W        W 4529   0.438   0.653  10.397 -0.1848 -0.2747 -0.1371
 2330W        W 4530  13.650   2.703   3.717  0.5048  0.0569 -0.0687
 2331W        W 4531  18.411   2.955  32.148 -0.4387 -0.2027  0.5062
 2332W        W 4532   7.168   5.413  14.534  0.1307 -0.0738  0.0656
 2333W        W 4533  19.902   2.831  40.440 -0.0989  0.0680  0.1934
 2334W        W 4534   4.357   0.398   7.365 -0.1884 -0.1804 -0.2299
 2335W        W 4535  12.658   2.387  16.393 -0.1115  0.1031  0.0898
 2336W        W 4536  13.990   2.218  16.370 -0.0400 -0.1621 -0.0029
 2337W        W 4537  14.019   0.969  31.906 -0.4245  0.0155  0.1689
 2338W        W 4538  14.328   0.559  11.833  0.0788  0.1385 -0.3803
 2339W        W 4539   5.744   3.533  22.207  0.0796  0.1089  0.1377
 2340W        W 4540   2.053   2.635  25.169  0.4123  0.2335  0.2341
 2341W        W 4541   0.516   2.134  10.712 -0.2422  0.0734 -0.1232
 2342W        W 4542  20.552   5.244   3.729 -0.0677 -0.0650  0.1486
 2343W        W 4543  14.150   6.531   2.723  0.2573 -0.0518  0.1841
 2344W        W 4544   5.720   0.223  44.347  0.0419  0.2773 -0.2433
 2345W        W 4545  18.761   0.413   3.203 -0.1113  0.1239  0.4351
 2346W        W 4546   0.639   3.675   7.978 -0.0153  0.4454  0.0143
 2347W        W 4547  20.435   1.948   0.797 -0.0169  0.1103 -0.1753
 2348W        W 4548  10.440   0.330  40.617 -0.0087 -0.2333  0.3268
 2349W        W 4549  20.434   3.169   3.771 -0.1836 -0.4517  0.1672
 2350W        W 4550   2.072   4.062  23.881  0.3829  0.2947 -0.0539
 2351W        W 4551  15.256   1.119  34.626  0.0082 -0.2604  0.1601
 2352W        W 4552  20.803   4.127   6.950  0.0431 -0.0547 -0.1034
 2353W        W 4553   3.206   6.404  33.346 -0.0124 -0.0862  0.1797
 2354W        W 4554  14.822   2.953  33.816 -0.0424  0.1330  0.1932
 2355W        W 4555  12.794   1.943   2.101  0.1587  0.0917 -0.1143
 2356W        W 4556   5.601   0.365  13.979 -0.0036  0.0138 -0.0435
 2357W        W 4557  16.060   5.774   3.661 -0.2758 -0.1043 -0.2253
 2358W        W 4558  16.283   5.555   6.917  0.0211 -0.0905  0.0217
 2359W        W 4559  15.916   2.373  12.476 -0.1290 -0.2480  0.1963
 2360W        W 4560   1.173   6.254  37.029  0.0531  0.1265  0.0387
 2361W        W 4561  13.922   0.133  24.991  0.0037  0.6349  0.1124
 2362W        W 4562   1.842   1.548  27.209  0.0040  0.1751 -0.0786
 2363W        W 4563   4.709   3.353  34.603  0.0424 -0.0865 -0.0727
 2364W        W 4564   5.943   4.673   0.120  0.0797  0.1479 -0.0760
 2365W        W 4565  11.613   3.844  43.723 -0.1827  0.0229 -0.0705
 2366W        W 4566   3.554   5.982  21.670  0.0317 -0.0145  0.5286
 2367W        W 4567  19.178   3.218  43.999 -0.1856  0.1745  0.0356
 2368W        W 4568  20.245   5.624   2.697 -0.0591  0.0021 -0.0588
 2369W        W 4569   4.838   5.246  39.119 -0.0615 -0.1739 -0.1417
 2370W        W 4570   6.525   1.258  28.168 -0.0370  0.1091 -0.2107
 2371W        W 4571  10.499   2.350  32.749 -0.2446  0.2812 -0.1503
 2372W        W 4572   7.677   4.428  14.850  0.1029 -0.0462 -0.0792
 2373W        W 4573   8.736   6.338  28.353  0.3775  0.1456 -0.3586
 2374W        W 4574  15.673   0.812  42.717  0.0997 -0.0874  0.0935
 2375W        W 4575   2.218   3.809  36.652 -0.1670  0.1088  0.1601
 2376W        W 4576  19.997   4.699  10.760  0.4252  0.0632 -0.0840
 2377W        W 4577  12.260   0.801  13.642  0.2236 -0.1599 -0.0781
 2378W        W 4578  18.252   2.957  34.972 -0.1241 -0.0274  0.1385
 2379W        W 4579  13.286   4.863  44.795 -0.3540  0.1715 -0.0211
 2380W        W 4580  14.404   0.676  42.169  0.0659  0.2481  0.2262
 2381W        W 4581   0.359   5.372  33.525  0.1429  0.2533  0.0623
 2382W        W 4582  18.712   2.827  17.622  0.3102  0.2200 -0.1356
 2383W        W 4583  10.200   0.599  35.490 -0.0440  0.3234  0.2857
 2384W        W 4584  10.587   5.660  12.571  0.1340 -0.0417  0.0072
 2385W        W 4585  15.841   0.845  22.292  0.0030 -0.0259 -0.0153
 2386W        W 4586  20.848   3.596  31.668  0.1021  0.0513  0.2709
 2387W        W 4587   5.029   5.413   0.230  0.0630  0.2803  0.1528
 2388W        W 4588   1.243   1.161  42.937 -0.2566  0.2551  0.0764
 2389W        W 4589  12.056   3.097  30.521  0.3924  0.2509  0.1674
 2390W        W 4590   8.698   0.543  11.623  0.1565 -0.0301 -0.0472
 2391W        W 4591  19.936   2.572  42.533 -0.1675 -0.0373 -0.1751
 2392W        W 4592  14.633   3.550  14.041 -0.2416  0.0050 -0.1594
 2393W        W 4593   3.722   2.088  29.240 -0.1422  0.0227  0.0987
 2394W        W 4594  15.263   3.819  17.053 -0.0472  0.4351  0.1731
 2395W        W 4595   2.894   5.271  28.006 -0.0473  0.0901 -0.0941
 2396W        W 4596  12.247   2.711   5.507  0.1611  0.1002 -0.2445
 2397W        W 4597  13.281   5.312   6.252  0.1388  0.2243 -0.3389
 2398W        W 4598   4.218   4.003   1.038 -0.2345  0.2631  0.0116
 2399W        W 4599  11.314   1.282  10.281 -0.0931 -0.0670  0.1736
 2400W        W 4600  12.558   0.336  29.090 -0.1053  0.0260  0.0554
 2401W        W 4601  12.180   3.674   6.674 -0.1650 -0.1707  0.1792
 2402W        W 4602   1.020   2.883   4.652 -0.2029  0.1366 -0.1685
 2403W        W 4603  10.325   5.263  12.659  0.0590  0.1417  0.0226
 2404W        W 4604  15.324   0.866  35.220 -0.0065  0.2743  0.1513
 2405W        W 4605   3.283   4.313  35.947 -0.0401  0.4537 -0.1355
 2406W        W 4606   4.402   1.799  12.592 -0.2507 -0.1086  0.2536
 2407W        W 4607   3.921   6.252  40.547 -0.2979  0.2635  0.1204
 2408W        W 4608   7.481   0.038   0.355 -0.5575  0.5864  0.1884
 2409W        W 4609   8.427   1.913  26.803  0.1179 -0.0872  0.0906
 2410W        W 4610  10.577   2.779  29.637  0.2925  0.0858 -0.1691
 2411W        W 4611  16.818   6.284  35.899 -0.2123  0.0220  0.2669
 2412W        W 4612   1.154   2.703  43.840  0.1349  0.0992 -0.0993
 2413W        W 4613  10.456   2.146  40.803 -0.0622 -0.0213  0.1459
 2414W        W 4614   9.132   1.663   2.575 -0.0116 -0.1283  0.3100
 2415W        W 4615   4.861   4.881  37.069  0.3121 -0.1893  0.2371
 2416W        W 4616  13.751   5.068   1.971 -0.4227  0.1373 -0.1156
 2417W        W 4617  20.001   0.090  36.681 -0.2131 -0.0615 -0.0921
 2418W        W 4618   3.870   2.459   7.196  0.0827  0.0325  0.0299
 2419W        W 4619  19.600   2.090  26.595 -0.1905  0.3321  0.4129
 2420W        W 4620   2.954   5.326  35.996  0.2670 -0.0442  0.1054
 2421W        W 4621  20.262   6.184  40.689  0.4661  0.0479  0.1210
 2422W        W 4622  10.374   3.608  20.105 -0.1317 -0.0379 -0.3195
 2423W        W 4623  15.522   0.997   0.913 -0.0283  0.0569  0.2728
 2424W        W 4624  10.399   4.677   0.649  0.2933  0.4005 -0.2497
 2425W        W 4625   4.540   3.636  25.452 -0.0023  0.1736 -0.2722
 2426W        W 4626   4.983   1.771   9.665  0.0165 -0.2583  0.4224
 2427W        W 4627   7.008   3.229   1.354  0.2719  0.1831 -0.2500
 2428W        W 4628   2.470   5.101  36.858  0.0596 -0.1935 -0.2526
 2429W        W 4629  16.904   0.325   3.608  0.1389 -0.0838 -0.3242
 2430W        W 4630  13.384   0.840   9.930 -0.0232  0.3429  0.0899
 2431W        W 4631  10.476   3.931  11.917 -0.0322  0.0789  0.0693
 2432W        W 4632  18.962   3.157  35.623  0.2410  0.1735  0.2106
 2433W        W 4633   4.696   5.989  38.237 -0.0455 -0.0082 -0.1035
 2434W        W 4634   2.589   0.877  37.439 -0.2784 -0.0754 -0.1351
 2435W        W 4635  13.687   3.228  31.272 -0.0690 -0.1538  0.1079
 2436W        W 4636   7.394   0.226   5.452 -0.2470 -0.2248 -0.0453
 2437W        W 4637  20.897   6.131  14.992 -0.0042 -0.0301  0.0118
 2438W        W 4638   1.360   0.276  38.425 -0.0921 -0.0591  0.2389
 2439W        W 4639  16.049   1.873  30.123 -0.0515  0.0666 -0.0297
 2440W        W 4640  12.815   2.065  38.095 -0.0052 -0.1658 -0.2265
 2441W        W 4641  10.376   5.988  28.506  0.1176 -0.0343  0.0992
 2442W        W 4642   7.718   2.320  36.103  0.0291  0.1971  0.1420
 2443W        W 4643   1.606   0.184  35.017 -0.1906  0.0097  0.1481
 2444W        W 4644   4.837   0.003  11.948 -0.1148 -0.2271 -0.3632
 2445W        W 4645   7.691   1.127  16.454  0.0285 -0.3861  0.2003
 2446W        W 4646   6.025   5.978  32.490 -0.4251 -0.1263  0.0139
 2447W        W 4647   2.506   0.643  36.984  0.0255  0.0293 -0.0468
 2448W        W 4648  16.870   3.578  36.860  0.0648 -0.0880  0.2022
 2449W        W 4649   9.630   4.049   0.483  0.1119  0.0853  0.1717
 2450W        W 4650  18.516   0.372  15.868  0.1590  0.0787  0.2994
 2451W        W 4651  16.347   5.075  18.170 -0.1009 -0.2399  0.2331
 2452W        W 4652  16.474   4.772   7.889  0.0451  0.1165  0.1597
 2453W        W 4653  18.643   1.653   3.073 -0.2583 -0.2845  0.0684
 2454W        W 4654   5.389   6.492  34.806  0.0981  0.0120 -0.2256
 2455W        W 4655  11.701   2.695  41.057 -0.1640  0.0126  0.3904
 2456W        W 4656   3.781   1.163  15.591 -0.0302  0.1834 -0.0372
 2457W        W 4657   5.850   0.268   4.511  0.2275  0.1655 -0.1195
 2458W        W 4658   2.687   3.088   4.498 -0.0525 -0.0755  0.0373
 2459W        W 4659  19.399   5.302   3.172 -0.0508  0.1297  0.0789
 2460W        W 4660   5.303   5.544   1.108 -0.0095 -0.2089 -0.1655
 2461W        W 4661  15.553   5.297  36.624 -0.1689  0.2199 -0.2814
 2462W        W 4662  19.691   0.780  34.916 -0.1311  0.3717 -0.2289
 2463W        W 4663  14.893   6.101  38.946 -0.0212  0.0494  0.2513
 2464W        W 4664  10.508   3.174  18.877  0.1094  0.2382 -0.1043
 2465W        W 4665   6.017   0.381  43.026 -0.0257 -0.0780 -0.2906
 2466W        W 4666   9.933   2.484  42.412  0.1166 -0.1007  0.2466
 2467W        W 4667  20.046   6.500  30.506 -0.0128 -0.1847  0.0986
 2468W        W 4668  11.231   4.270  11.381 -0.1342 -0.1745  0.3787
 2469W        W 4669  11.907   3.980  31.663 -0.1303  0.0655 -0.2640
 2470W        W 4670  13.565   3.890  39.555 -0.2974  0.2916 -0.2328
 2471W        W 4671  16.732   0.037  41.751 -0.2412 -0.1102 -0.1223
 2472W        W 4672   9.558   2.604  38.604  0.0853  0.2154 -0.2332
 2473W        W 4673   7.080   2.020   9.219  0.1059 -0.0875 -0.1263
 2474W        W 4674  19.064   5.731  12.368 -0.0987 -0.0933  0.4301
 2475W        W 4675   1.647   6.359  34.640  0.0159 -0.0898 -0.1012
 2476W        W 4676   5.254   1.044  39.830  0.1773 -0.3011 -0.4669
 2477W        W 4677  18.221   4.646  37.496 -0.0263 -0.0059 -0.0531
 2478W        W 4678  10.508   2.339   8.622  0.0254 -0.3738 -0.0770
 2479W        W 4679   5.046   2.710   4.457 -0.1945  0.0680 -0.0218
 2480W        W 4680   2.664   2.062  40.241 -0.2461 -0.0419 -0.1053
 2481W        W 4681  10.282   0.831  32.414  0.0569 -0.0687 -0.1050
 2482W        W 4682  13.293   0.747  21.162  0.2013  0.1309 -0.0640
 2483W        W 4683   3.967   1.801  44.907  0.4714  0.5567 -0.2277
 2484W        W 4684  11.619   4.040  17.500  0.0124  0.0903 -0.2212
 2485W        W 4685   0.129   3.884  28.172  0.2668  0.3859  0.2222
 2486W        W 4686   5.453   3.619   9.229  0.0187  0.3046 -0.4284
 2487W        W 4687   7.695   5.308   5.043  0.0150  0.1674 -0.1903
 2488W        W 4688   5.541   2.975   7.178 -0.1053 -0.2693  0.0236
 2489W        W 4689   8.672   2.586  42.845 -0.2184 -0.2208 -0.0167
 2490W        W 4690   0.371   0.298   1.753 -0.1557 -0.1392  0.0796
 2491W        W 4691   0.281   4.816   2.459  0.0254  0.0360 -0.1372
 2492W        W 4692  20.053   6.083   2.821  0.2267  0.0116  0.1659
 2493W        W 4693  19.448   0.760   9.270  0.1875  0.0515  0.3576
 2494W        W 4694   1.558   1.578   4.542  0.4222  0.4032  0.1752
 2495W        W 4695   1.076   1.947  44.258 -0.0662  0.1550  0.0578
 2496W        W 4696   5.271   3.889  14.334 -0.0849  0.2011 -0.2999
 2497W        W 4697   9.310   5.454  30.712 -0.1498 -0.2212 -0.3454
 2498W        W 4698  18.601   6.267  15.079 -0.1729  0.2057  0.1805
 2499W        W 4699   0.481   5.886  30.059  0.1470 -0.3053  0.0684
 2500W        W 4700  14.111   0.788   0.454 -0.0346 -0.1454 -0.0038
 2501W        W 4701   3.111   3.404  35.188 -0.0854 -0.0151 -0.0296
 2502W        W 4702   9.510   5.747  33.657 -0.2570  0.2996 -0.0145
 2503W        W 4703  20.133   0.318  39.707  0.0252  0.1820 -0.0502
 2504W        W 4704   1.203   5.024  35.580  0.2006  0.3791  0.0691
 2505W        W 4705   7.095   0.734  28.068 -0.2159  0.4038 -0.0949
 2506W        W 4706   4.629   4.299  33.423 -0.0710  0.1128  0.1158
 2507W        W 4707   1.177   5.039  24.802  0.1277  0.2266 -0.0144
 2508W        W 4708  16.654   0.802   7.893  0.2226 -0.1075  0.3232
 2509W        W 4709   4.650   0.539  27.112 -0.0833  0.0375  0.0434
 2510W        W 4710  20.776   6.591  35.536 -0.0544 -0.0603  0.1916
 2511W        W 4711   4.299   2.703  31.160  0.1626 -0.0011 -0.0924
 2512W        W 4712  21.053   1.894  29.219  0.4748  0.0658  0.0085
 2513W        W 4713  11.754   0.056  14.755 -0.3199  0.2037  0.1212
 2514W        W 4714  18.366   0.070   2.306  0.3652  0.1996  0.2480
 2515W        W 4715  11.980   3.781  18.308 -0.0820  0.1852  0.2428
 2516W        W 4716  19.543   1.261  15.766 -0.1409 -0.1218  0.0644
 2517W        W 4717   4.206   1.617  38.038  0.0121  0.2214 -0.0039
 2518W        W 4718   6.896   0.087  10.830 -0.0056  0.4066  0.0106
 2519W        W 4719  10.036   0.318   3.287 -0.1248  0.0921  0.0843
 2520W        W 4720  14.033   2.726   0.542 -0.0097 -0.2378  0.1111
 2521W        W 4721   3.037   6.121  23.148 -0.3541 -0.1407 -0.0378
 2522W        W 4722   9.266   3.906  27.990 -0.0350  0.3023 -0.0076
 2523W        W 4723   8.162   4.177   8.781 -0.1900  0.0791 -0.3048
 2524W        W 4724  14.477   0.265  41.941 -0.0940  0.2218  0.0871
 2525W        W 4725  16.857   1.583  36.866 -0.0417  0.0799  0.2309
 2526W        W 4726   2.534   5.805  13.959  0.0787 -0.0868 -0.1717
 2527W        W 4727  10.459   2.108   4.870  0.0182 -0.0195 -0.1661
 2528W        W 4728  10.556   1.782  32.493 -0.2909  0.0276 -0.2286
 2529W        W 4729  10.335   5.392   1.650 -0.1184  0.1128 -0.1238
 2530W        W 4730   4.087   6.594   6.753 -0.2087  0.3525  0.1397
 2531W        W 4731  16.554   1.789  14.110  0.0678 -0.2513  0.4525
 2532W        W 4732   3.705   0.122   3.498 -0.1581 -0.0074  0.1527
 2533W        W 4733   5.260   3.693   5.466  0.0771  0.2573 -0.0105
 2534W        W 4734   7.546   4.567   9.492 -0.0129 -0.1569  0.2823
 2535W        W 4735   3.329   0.853  39.341  0.0605  0.0288  0.1130
 2536W        W 4736  14.258   0.295   2.290 -0.0651 -0.0998  0.1917
 2537W        W 4737   4.593   5.709  36.634  0.2193 -0.0709  0.0652
 2538W        W 4738  15.308   1.035  42.353 -0.2181 -0.0832  0.1349
 2539W        W 4739   1.303   4.028  27.175  0.1430 -0.1500 -0.0435
 2540W        W 4740  14.775   4.090   2.714 -0.2636  0.1737 -0.1989
 2541W        W 4741  11.907   2.452  15.188 -0.1062  0.1790  0.2507
 2542W        W 4742   5.135   1.929   6.997 -0.1729  0.0428 -0.1882
 2543W        W 4743  18.891   2.848  19.065 -0.0275  0.2202  0.0598
 2544W        W 4744   0.403   2.690  33.582  0.0254  0.2667 -0.0055
 2545W        W 4745   1.520   5.812  22.331 -0.1168  0.2760 -0.2598
 2546W        W 4746   6.534   6.034  14.338 -0.2453 -0.0420  0.1941
 2547W        W 4747  10.282   5.987  35.824 -0.1837 -0.2852  0.3524
 2548W        W 4748   0.122   0.641   7.811  0.0692 -0.0075 -0.2206
 2549W        W 4749   8.727   2.168  33.447  0.1690 -0.1682  0.1130
 2550W        W 4750   1.994   5.955  13.992 -0.2527  0.1638 -0.0689
 2551W        W 4751  13.624   4.798  40.551  0.0334  0.0772  0.0743
 2552W        W 4752   0.557   0.535  12.970  0.0103 -0.4739 -0.1494
 2553W        W 4753   4.046   2.996  39.471  0.3363 -0.2721 -0.3256
 2554W        W 4754  16.318   4.727  22.405 -0.0785  0.2029  0.1040
 2555W        W 4755   2.578   1.651  25.958 -0.4282 -0.0129  0.0008
 2556W        W 4756   9.079   0.347  37.813  0.2020  0.0086 -0.3182
 2557W        W 4757   9.919   4.460  42.749  0.1760 -0.2897  0.3336
 2558W        W 4758   5.384   0.860  15.150 -0.2131  0.3040 -0.0904
 2559W        W 4759  13.284   6.187  20.673  0.1091  0.0691  0.0806
 2560W        W 4760  14.235   6.019  35.068 -0.1532  0.1571 -0.1141
 2561W        W 4761  11.695   1.908  30.364  0.1771 -0.0345 -0.2519
 2562W        W 4762   6.120   2.903  10.280  0.2634  0.0871 -0.0089
 2563W        W 4763   1.370   2.629   7.114 -0.0138 -0.0377  0.1603
 2564W        W 4764   3.733   0.672  41.157 -0.0561 -0.0883 -0.0972
 2565W        W 4765   4.433   3.089  30.822 -0.0286  0.1653 -0.0807
 2566W        W 4766   3.332   3.189  29.879 -0.0575 -0.1196  0.0118
 2567W        W 4767  13.310   5.532  20.621 -0.0129 -0.0625  0.1454
 2568W        W 4768  19.625   0.033   6.392 -0.0692 -0.1236  0.2577
 2569W        W 4769   9.233   2.707  32.290  0.1883 -0.0992  0.0504
 2570W        W 4770   0.305   6.082  31.548 -0.1498 -0.1259 -0.2355
 2571W        W 4771   8.607   5.097  29.120  0.0404  0.1225 -0.4008
 2572W        W 4772  16.317   3.362   4.552  0.1034 -0.2532  0.0756
 2573W        W 4773   0.671   3.142  30.176  0.2302 -0.2835  0.3054
 2574W        W 4774  19.428   0.628  14.676 -0.1369 -0.0517 -0.1626
 2575W        W 4775  19.053   3.540   9.168  0.0889  0.2606  0.1319
 2576W        W 4776   6.217   5.465  44.286 -0.2447  0.2499 -0.1403
 2577W        W 4777   6.739   1.313  26.298  0.0778  0.1219  0.1241
 2578W        W 4778  17.972   2.584   8.772 -0.0140  0.2017 -0.0504
 2579W        W 4779   9.094   5.172  31.073 -0.0925 -0.2941  0.0907
 2580W        W 4780  13.399   0.411  18.744 -0.3618 -0.2644  0.0673
 2581W        W 4781  19.208   0.278  31.084  0.1245 -0.0523 -0.0443
 2582W        W 4782  18.209   1.003  42.080  0.3954 -0.0898 -0.0449
 2583W        W 4783  14.632   6.137  29.534 -0.3842  0.0353  0.1269
 2584W        W 4784  20.170   0.144  17.261  0.3086  0.2195  0.1524
 2585W        W 4785   8.149   4.980  37.988  0.3723  0.0383  0.0166
 2586W        W 4786  18.673   5.383  16.756 -0.1266  0.1944 -0.0577
 2587W        W 4787   5.567   3.200   7.620 -0.2606  0.0817 -0.1929
 2588W        W 4788   0.476   1.153  42.669  0.2561  0.2342  0.2580
 2589W        W 4789   5.673   1.909   7.230 -0.2952 -0.1875  0.2144
 2590W        W 4790   9.196   4.796  27.872  0.0725  0.1011  0.2108
 2591W        W 4791   5.933   6.541  43.205  0.1281 -0.1448 -0.0302
 2592W        W 4792  17.764   1.154   1.624  0.1034  0.1586  0.3549
 2593W        W 4793  17.577   6.306  33.185  0.1060  0.0620 -0.1409
 2594W        W 4794   0.105   5.920   6.578  0.0704 -0.0784 -0.2991
 2595W        W 4795  11.306   0.396  12.035 -0.1195 -0.0578  0.1116
 2596W        W 4796   1.026   3.652   1.348  0.0494 -0.2098  0.1820
 2597W        W 4797   1.126   3.148  44.839  0.1568  0.1701 -0.1331
 2598W        W 4798   7.722   2.640  10.275 -0.0899 -0.1972 -0.3458
 2599W        W 4799  15.876   3.058  13.663 -0.0974 -0.1064  0.0285
 2600W        W 4800   5.237   1.278   9.571 -0.1479 -0.2371 -0.0139
 2601W        W 4801   2.550   0.792  44.713  0.4323  0.0696  0.3339
 2602W        W 4802  20.958   0.756  42.776  0.2171 -0.4592  0.0104
 2603W        W 4803   1.845   5.780  10.376  0.0024 -0.0448 -0.1312
 2604W        W 4804   2.265   6.206   7.128  0.0758 -0.1157  0.0758
 2605W        W 4805   7.437   5.595  44.612 -0.1331  0.2185  0.1997
 2606W        W 4806   2.282   6.084  38.371  0.2745  0.1728 -0.2548
 2607W        W 4807  10.902   5.470  38.806  0.2944  0.0368 -0.1910
 2608W        W 4808  11.442   4.253  40.458 -0.3212  0.0909  0.0097
 2609W        W 4809  15.199   5.726  13.291 -0.0996 -0.2244 -0.2188
 2610W        W 4810  19.044   3.693   3.862 -0.0797  0.4730  0.1051
 2611W        W 4811  13.410   2.995  14.616 -0.1961  0.1068 -0.1303
 2612W        W 4812  13.148   3.338  21.524  0.1259 -0.2288 -0.0549
 2613W        W 4813  18.259   4.547  10.176 -0.1270 -0.1650  0.2183
 2614W        W 4814  20.720   1.386  42.393 -0.1403  0.0625  0.2452
 2615W        W 4815   4.044   1.699  38.514  0.1962  0.1502  0.0328
 2616W        W 4816   3.400   4.585   0.074 -0.1472 -0.2791 -0.2134
 2617W        W 4817  13.979   2.335   7.370 -0.1658  0.0731  0.1523
 2618W        W 4818  11.332   4.815   8.113 -0.0371 -0.1362 -0.0073
 2619W        W 4819  20.590   2.733   3.490  0.1317  0.0798 -0.0305
 2620W        W 4820   8.185   0.446  34.245  0.0734 -0.2827 -0.0341
 2621W        W 4821   0.811   4.166  23.883  0.0429  0.0044  0.0697
 2622W        W 4822  17.660   5.172   8.069 -0.0152 -0.2353 -0.2065
 2623W        W 4823  15.148   1.091  37.511  0.0332  0.1560 -0.0241
 2624W        W 4824   1.572   2.654  25.017 -0.0721  0.0584 -0.1919
 2625W        W 4825  15.728   2.611  39.795  0.1952  0.0547 -0.0612
 2626W        W 4826  18.007   6.476  34.724 -0.1419 -0.0121  0.1419
 2627W        W 4827   3.190   3.833  44.387  0.1533 -0.2257  0.1590
 2628W        W 4828   9.435   5.338  42.546 -0.0976  0.0498  0.3677
 2629W        W 4829   6.527   6.166  24.224  0.1915 -0.0558 -0.1346
 2630W        W 4830   5.582   3.142  11.010  0.0057 -0.2050 -0.1436
 2631W        W 4831  13.425   1.750   1.336 -0.1137 -0.2686 -0.0407
 2632W        W 4832   4.997   1.072  13.759  0.2434 -0.1722 -0.1148
 2633W        W 4833   8.997   0.500  36.889  0.0203  0.1068 -0.2205
 2634W        W 4834   2.496   4.514  14.783 -0.2821 -0.2680  0.0123
 2635W        W 4835   8.300   4.018  26.468  0.0887  0.0674 -0.0450
 2636W        W 4836   3.033   0.926  42.151 -0.2270  0.0977 -0.0602
 2637W        W 4837  17.588   5.634  13.655 -0.1686 -0.1872 -0.0719
 2638W        W 4838   3.909   1.688  40.768 -0.0820 -0.1553 -0.0714
 2639W        W 4839   7.332   5.845   0.797  0.0893  0.4083  0.1007
 2640W        W 4840  20.078   1.253  40.754 -0.1233  0.0236 -0.0181
 2641W        W 4841   5.977   4.254  29.570 -0.1752  0.1478  0.0160
 2642W        W 4842  19.202   1.105  19.119 -0.1755  0.1812 -0.0262
 2643W        W 4843   5.242   0.399  33.594  0.4250  0.0481 -0.0434
 2644W        W 4844  14.730   3.757  43.473 -0.0084  0.0586 -0.1031
 2645W        W 4845   6.827   5.055  41.746  0.0840  0.2638 -0.0444
 2646W        W 4846   3.182   4.181  28.955 -0.0830 -0.3306 -0.2760
 2647W        W 4847  10.526   4.697  37.480 -0.0746 -0.3039  0.1676
 2648W        W 4848  14.177   5.929   6.819 -0.1697 -0.0983  0.3175
 2649W        W 4849   2.526   0.726  36.501  0.1475  0.1968  0.0026
 2650W        W 4850  15.520   3.885   2.037 -0.2455 -0.1120 -0.3031
 2651W        W 4851   7.025   5.519  27.657  0.0499  0.0820 -0.0426
 2652W        W 4852  19.267   5.903  14.674  0.1787 -0.1625  0.6691
 2653W        W 4853   8.707   4.567  35.078  0.3523 -0.0302 -0.1015
 2654W        W 4854   6.008   0.406  13.711 -0.1765 -0.0258  0.0101
 2655W        W 4855   4.708   0.330  32.723 -0.1225 -0.2018  0.0786
 2656W        W 4856   2.789   1.519  27.643 -0.0390  0.0438  0.1355
 2657W        W 4857   6.823   3.902  23.017  0.1477  0.0314  0.1274
 2658W        W 4858   7.516   1.081  45.096  0.1335  0.0139 -0.1797
 2659W        W 4859  15.828   4.761  16.976  0.0767 -0.1169  0.0141
 2660W        W 4860  12.194   6.133   2.480 -0.4008 -0.1371 -0.0595
 2661W        W 4861  16.239   6.461  39.202  0.1884  0.2518 -0.0872
 2662W        W 4862   4.845   5.767  31.557  0.1716  0.0489 -0.0802
 2663W        W 4863   8.539   4.651   4.231  0.0040  0.2048 -0.2590
 2664W        W 4864   9.918   4.845  30.363  0.1336 -0.2855  0.2146
 2665W        W 4865  17.318   5.212  16.375  0.1236  0.0841  0.1701
 2666W        W 4866   7.951   2.280   2.981 -0.1123 -0.0670  0.0107
 2667W        W 4867  14.734   2.999  39.561 -0.2815 -0.3054  0.0581
 2668W        W 4868  18.753   5.879  15.858  0.2050  0.4453 -0.1391
 2669W        W 4869  11.119   6.366  39.272  0.0525 -0.0686  0.2338
 2670W        W 4870   6.604   2.792   2.027 -0.1704 -0.2882  0.1637
 2671W        W 4871   7.455   4.566  32.196 -0.0627  0.0625 -0.3770
 2672W        W 4872  15.433   0.632   7.769 -0.0882  0.0796 -0.1433
 2673W        W 4873  19.360   2.667  36.314 -0.0919 -0.1923  0.1620
 2674W        W 4874  18.935   4.135  43.601  0.1063  0.1437 -0.3504
 2675W        W 4875  13.096   1.606  44.644 -0.0258  0.0245 -0.0302
 2676W        W 4876  14.735   5.462   8.506 -0.1985 -0.2495 -0.2289
 2677W        W 4877  11.073   2.599   6.496 -0.1887  0.3495 -0.1616
 2678W        W 4878  16.246   4.996  31.413 -0.1731  0.0285  0.1947
 2679W        W 4879   8.986   0.911  28.594  0.1193  0.3278 -0.1214
 2680W        W 4880  15.541   4.403   2.379 -0.1636  0.0408  0.2713
 2681W        W 4881   9.808   0.303  35.413 -0.1413  0.0830 -0.0619
 2682W        W 4882  20.618   6.012  12.353  0.0890  0.2611  0.2314
 2683W        W 4883  14.387   4.003  16.019  0.2270  0.1284 -0.0668
 2684W        W 4884   7.277   0.365  38.241 -0.0713 -0.0941  0.0082
 2685W        W 4885  17.847   0.941  30.397  0.3528 -0.1303  0.1640
 2686W        W 4886  14.322   1.258  29.003  0.0025  0.0718 -0.1616
 2687W        W 4887   6.993   5.821   1.993  0.0243  0.0743  0.1188
 2688W        W 4888  12.201   3.564   0.853  0.3550  0.0620 -0.2241
 2689W        W 4889  20.604   6.593  32.573  0.0560  0.1469  0.2594
 2690W        W 4890  15.511   0.660  44.282 -0.0158 -0.1521  0.1291
 2691W        W 4891   4.017   6.012   0.178 -0.0068  0.0833 -0.2015
 2692W        W 4892   0.110   5.047   6.195  0.0139 -0.1230  0.1930
 2693W        W 4893   9.576   6.586  29.585 -0.2386 -0.2285  0.2100
 2694W        W 4894  16.261   3.369  11.785 -0.0597 -0.1121  0.0151
 2695W        W 4895  16.458   5.067   8.413 -0.1500 -0.0737  0.1374
 2696W        W 4896   7.761   6.325   5.675  0.0571 -0.0733 -0.0423
 2697W        W 4897  10.464   3.951  44.724  0.0297 -0.1886 -0.0175
 2698W        W 4898  19.017   2.706  44.904 -0.0550 -0.3069  0.3054
 2699W        W 4899  10.524   4.165  40.184  0.0079  0.0740  0.2175
 2700W        W 4900  16.239   6.573  12.911  0.1365 -0.4119 -0.3864
 2701W        W 4901   2.081   5.878   2.319  0.1395  0.0583  0.0731
 2702W        W 4902   7.692   4.449  41.095  0.0178 -0.1276 -0.1595
 2703W        W 4903  19.477   2.488  36.758 -0.2037 -0.0396  0.0299
 2704W        W 4904   8.199   3.183  34.214 -0.0814 -0.0656  0.2580
 2705W        W 4905   1.415   1.757  27.009  0.1114  0.1362  0.0756
 2706W        W 4906   7.207   3.544   1.079 -0.2154  0.0544  0.1685
 2707W        W 4907  17.525   5.675  15.933  0.0927 -0.0331  0.1024
 2708W        W 4908   2.361   2.253  27.298  0.1122 -0.2018  0.1820
 2709W        W 4909   7.883   0.397  15.343  0.0419  0.1213 -0.0935
 2710W        W 4910   6.087   4.840   8.860 -0.2016 -0.0201  0.3082
 2711W        W 4911   3.240   6.372  34.615  0.2444  0.0747 -0.2751
 2712W        W 4912   7.022   3.213  34.737 -0.1021  0.2208 -0.1565
 2713W        W 4913  20.067   6.450  42.480 -0.3643 -0.1727  0.2446
 2714W        W 4914  13.336   0.581  30.896 -0.0904 -0.1567 -0.2143
 2715W        W 4915   8.157   5.500  11.316 -0.1713  0.0024  0.1745
 2716W        W 4916   9.561   5.191  33.625  0.2040 -0.0421  0.0410
 2717W        W 4917  13.081   1.134  29.209 -0.0220 -0.0740 -0.4103
 2718W        W 4918  16.815   1.958  34.009  0.2442  0.2339 -0.1009
 2719W        W 4919   2.152   0.379   3.715  0.0170 -0.0982  0.0605
 2720W        W 4920   3.745   1.827  26.188 -0.0229 -0.3668  0.0761
 2721W        W 4921  17.290   5.517  15.159 -0.0078  0.2473  0.2663
 2722W        W 4922  20.011   4.793  14.095 -0.0634  0.0131 -0.0710
 2723W        W 4923  19.993   1.770   0.190  0.0504  0.0602  0.2615
 2724W        W 4924  16.330   2.853  33.074  0.0431  0.0608  0.1683
 2725W        W 4925  14.434   0.087  10.408 -0.1772 -0.2775  0.0631
 2726W        W 4926  18.203   3.963  44.178  0.1603 -0.1629 -0.2649
 2727W        W 4927  14.772   5.815  36.987  0.0916 -0.1404 -0.0018
 2728W        W 4928   1.781   0.378  22.790 -0.2140  0.4143 -0.2559
 2729W        W 4929  18.859   3.245  38.829 -0.0664  0.2220  0.1155
 2730W        W 4930   6.773   6.174   7.062 -0.1187 -0.1509  0.1230
 2731W        W 4931  11.950   5.385  15.817 -0.1252  0.0653 -0.0644
 2732W        W 4932  12.996   0.351  31.318  0.3194 -0.0059 -0.0269
 2733W        W 4933  10.776   2.671  12.132  0.2274  0.0138 -0.1608
 2734W        W 4934   3.432   4.212  44.069  0.1028 -0.0365  0.1034
 2735W        W 4935   0.011   3.096  43.813  0.2295 -0.0685  0.1987
 2736W        W 4936  13.695   6.400  29.932  0.3199  0.2805 -0.0938
 2737W        W 4937  16.855   2.292  33.631 -0.0427  0.1604 -0.0888
 2738W        W 4938  15.596   6.487  37.859  0.2927 -0.1231  0.2404
 2739W        W 4939   2.735   5.711  26.889 -0.0965 -0.0609 -0.2700
 2740W        W 4940   8.024   0.985   1.455 -0.0048 -0.0522  0.0087
 2741W        W 4941   3.425   3.205  26.202 -0.0475  0.0996  0.0238
 2742W        W 4942  18.270   6.027  42.515  0.0164 -0.1700  0.0852
 2743W        W 4943   6.511   2.077  40.503  0.0726  0.2166  0.1048
 2744W        W 4944  13.202   2.880  37.629  0.1341  0.1080  0.3257
 2745W        W 4945   5.964   4.879  23.601 -0.0612  0.1672  0.2408
 2746W        W 4946   8.766   1.541   2.976  0.0546 -0.1653  0.2363
 2747W        W 4947   5.901   2.808  36.859 -0.0981  0.0037 -0.2297
 2748W        W 4948   4.342   0.416  39.513  0.0489 -0.3890  0.1826
 2749W        W 4949   8.599   1.091  11.666  0.1903  0.2417  0.1040
 2750W        W 4950  10.615   5.004  28.609  0.0964  0.1696 -0.2283
 2751W        W 4951  15.691   2.080  19.859  0.1570  0.1284  0.2272
 2752W        W 4952  14.300   2.545   3.737 -0.3772 -0.0677  0.1287
 2753W        W 4953   0.946   1.137  13.504  0.2880  0.2498 -0.1001
 2754W        W 4954  20.740   5.052  30.413 -0.0166 -0.0103 -0.0706
 2755W        W 4955   1.330   3.355  12.678  0.1324 -0.2833  0.0736
 2756W        W 4956  12.013   2.432  39.096 -0.0025  0.1222 -0.1454
 2757W        W 4957  17.349   0.667  44.179 -0.1083  0.1410  0.1677
 2758W        W 4958  14.113   6.417  17.573 -0.0336  0.3414 -0.2340
 2759W        W 4959  10.982   2.898   1.657 -0.1458 -0.2575 -0.2861
 2760W        W 4960  18.528   6.463   0.680  0.1188 -0.0708 -0.1790
 2761W        W 4961   5.853   5.065   9.300  0.1572  0.2829  0.3594
 2762W        W 4962  19.644   4.441   6.278  0.1326  0.0509  0.0625
 2763W        W 4963  20.688   3.293  40.505  0.0308 -0.1089  0.1423
 2764W        W 4964  16.108   5.137  33.303  0.0052  0.0292  0.2477
 2765W        W 4965   2.262   4.149  44.595  0.1031 -0.1426 -0.0987
 2766W        W 4966  13.935   2.855  16.828  0.1991  0.4000  0.2459
 2767W        W 4967  14.013   2.141  32.636 -0.1257 -0.2958  0.0311
 2768W        W 4968  13.817   5.657  43.888  0.0515  0.1428 -0.2012
 2769W        W 4969  11.556   0.863  36.781  0.3681 -0.0011  0.2219
 2770W        W 4970   3.149   0.895   4.904  0.0980  0.0171 -0.1977
 2771W        W 4971   5.306   4.324  44.036 -0.1916  0.1043  0.3945
 2772W        W 4972  18.875   2.886  44.220 -0.1431  0.2810  0.2172
 2773W        W 4973  15.481   5.906  17.514  0.1815 -0.0130  0.2692
 2774W        W 4974   4.537   1.916  37.363  0.0458  0.0094  0.2206
 2775W        W 4975   8.138   2.531  36.282 -0.0972  0.2120  0.2715
 2776W        W 4976   4.705   3.216  31.931 -0.0208 -0.2481 -0.1434
 2777W        W 4977  17.382   1.523  36.862 -0.0191  0.0269  0.2220
 2778W        W 4978  10.053   6.311  29.487 -0.0247 -0.2768  0.1586
 2779W        W 4979   0.110   3.741  30.930 -0.1003 -0.3294 -0.0230
 2780W        W 4980   7.624   3.624   7.354  0.0280 -0.0419  0.3282
 2781W        W 4981  12.765   1.894   8.071  0.2253 -0.0948  0.0784
 2782W        W 4982   5.264   5.099  38.938  0.0047  0.2331  0.0446
 2783W        W 4983   1.501   0.822  41.993  0.0173 -0.1045 -0.2257
 2784W        W 4984  19.550   1.198  31.392  0.0248  0.5284 -0.0251
 2785W        W 4985  12.134   3.666   7.488 -0.2834  0.3767 -0.1599
 2786W        W 4986  13.121   1.878  30.285  0.2256  0.2298 -0.0884
 2787W        W 4987  10.872   3.795  33.060  0.2943 -0.0264 -0.4078
 2788W        W 4988  12.811   1.393  14.463  0.1232  0.3754  0.0210
 2789W        W 4989   3.068   3.790  39.438  0.0186  0.0393 -0.0692
 2790W        W 4990  12.772   3.168  37.898 -0.0969 -0.0943  0.0909
 2791W        W 4991   2.801   2.209  13.029 -0.0181 -0.0348 -0.0149
 2792W        W 4992  19.551   1.328  43.997  0.2661  0.1764  0.1595
 2793W        W 4993   4.780   5.649  23.855 -0.1212 -0.0909  0.0079
 2794W        W 4994   4.183   3.332   0.864 -0.1062 -0.1125 -0.0687
 2795W        W 4995   9.539   5.213  39.358 -0.0158 -0.1486 -0.0095
 2796W        W 4996   0.325   2.197  27.871 -0.0633  0.2790 -0.0011
 2797W        W 4997   8.293   1.365  12.315 -0.1088 -0.2476  0.1831
 2798W        W 4998   3.280   1.166  15.576  0.3882 -0.0200  0.0811
 2799W        W 4999  12.989   6.374   7.242 -0.2279  0.1675 -0.1524
 2800W        W 5000   6.755   1.961   3.299 -0.0002 -0.0025  0.0345
 2801W        W 5001   0.006   6.107  28.173  0.1464 -0.1455  0.2872
 2802W        W 5002   8.169   5.966  35.369 -0.1151 -0.1756  0.3331
 2803W        W 5003   5.199   0.891  16.673 -0.0549 -0.1042  0.1493
 2804W        W 5004  20.807   6.102   7.553 -0.1294  0.2325  0.1318
 2805W        W 5005  19.424   2.320  39.685 -0.1437  0.0268  0.0020
 2806W        W 5006   0.011   5.757  28.474 -0.2167  0.0665  0.0765
 2807W        W 5007  10.942   3.298  41.829  0.1345 -0.1516  0.0575
 2808W        W 5008  16.236   3.550  29.165 -0.2835  0.1199 -0.1923
 2809W        W 5009   5.133   5.130  28.894 -0.0424  0.1390 -0.0037
 2810W        W 5010   2.838   1.916  38.285  0.1050 -0.0128  0.2870
 2811W        W 5011   6.101   2.005  40.921 -0.0566  0.0526  0.2297
 2812W        W 5012  14.877   4.085  10.052 -0.0828  0.1101 -0.0071
 2813W        W 5013  19.803   4.273   3.108 -0.3900  0.2667  0.0026
 2814W        W 5014  19.952   3.153  30.281 -0.0661  0.0252 -0.2940
 2815W        W 5015   6.786   3.224   2.885 -0.0557  0.2319 -0.1606
 2816W        W 5016   3.906   1.349  44.745  0.0914 -0.1704  0.2286
 2817W        W 5017   1.785   3.409  33.767  0.0543 -0.2460 -0.1378
 2818W        W 5018   2.438   0.520  29.236 -0.0932  0.0536 -0.2364
 2819W        W 5019   8.905   1.165   6.952  0.1740 -0.0018  0.1935
 2820W        W 5020   7.013   3.116  13.094  0.0739 -0.0488  0.2048
 2821W        W 5021  19.642   6.388   5.963  0.0797 -0.1484 -0.1221
 2822W        W 5022  14.326   6.052   5.818 -0.1787  0.1412 -0.2704
 2823W        W 5023   7.253   5.394  10.652 -0.1092  0.0990  0.0819
 2824W        W 5024  13.228   3.261  42.180  0.3266  0.0927  0.3582
 2825W        W 5025   2.254   0.013  29.181 -0.1248  0.0542 -0.0040
 2826W        W 5026  11.493   0.514  12.628 -0.0947 -0.0054  0.0621
 2827W        W 5027  11.264   2.458  44.162 -0.1601 -0.1730 -0.0621
 2828W        W 5028   3.586   0.699  14.809 -0.1237  0.0746  0.0948
 2829W        W 5029   5.222   3.330  31.474 -0.4073  0.2098 -0.0389
 2830W        W 5030   3.173   3.898  43.853  0.3097 -0.1088  0.1185
 2831W        W 5031  16.931   3.887  35.675  0.1319  0.0467 -0.2890
 2832W        W 5032  17.365   2.351  13.627 -0.0578  0.1450 -0.0560
 2833W        W 5033   3.244   4.398  10.316  0.0427 -0.0030  0.0664
 2834W        W 5034   7.210   0.174  39.587  0.1586 -0.0808 -0.0134
 2835W        W 5035  19.395   3.389  15.754  0.0507 -0.1286 -0.1428
 2836W        W 5036   2.544   1.209  22.790 -0.1509 -0.0896  0.0321
 2837W        W 5037  14.232   2.210  37.737 -0.0413 -0.4350  0.2091
 2838W        W 5038  19.382   1.356  32.872  0.2717 -0.0076 -0.1200
 2839W        W 5039  16.300   2.360   3.423 -0.1446 -0.0893 -0.1203
 2840W        W 5040  17.135   0.059  29.917 -0.0695 -0.1757  0.2189
 2841W        W 5041   4.364   0.874   4.280 -0.0288 -0.1349 -0.0545
 2842W        W 5042  14.235   2.433  14.654  0.1367 -0.1948 -0.1549
 2843W        W 5043   0.729   5.025   2.581  0.2057 -0.1536 -0.3522
 2844W        W 5044  14.241   0.154  22.155  0.0203  0.0162 -0.1584
 2845W        W 5045   2.833   4.714  21.459 -0.0003 -0.0373  0.2306
 2846W        W 5046  19.577   3.055  35.736  0.0439 -0.1962 -0.0534
 2847W        W 5047  16.022   1.499  39.966 -0.0008 -0.1580  0.1314
 2848W        W 5048   3.916   6.436  11.040  0.1113 -0.0153  0.0624
 2849W        W 5049  10.351   2.467  12.394 -0.1632  0.4406  0.0214
 2850W        W 5050  11.331   1.258   4.234 -0.0880 -0.0511  0.2841
 2851W        W 5051   4.588   3.004  27.402 -0.2634  0.1958  0.2275
 2852W        W 5052   5.243   2.098  41.402  0.3112  0.4391  0.4882
 2853W        W 5053   2.027   1.328  22.677  0.1304 -0.0167 -0.2200
 2854W        W 5054   6.125   0.479  12.314 -0.1113 -0.2042 -0.1181
 2855W        W 5055   5.326   2.294  43.468 -0.2803 -0.0086  0.2112
 2856W        W 5056  11.225   2.006   9.156 -0.2030 -0.2144  0.0734
 2857W        W 5057  19.490   2.294   1.417  0.2493  0.0117  0.0025
 2858W        W 5058   4.709   2.523   4.947 -0.0014 -0.3480  0.0710
 2859W        W 5059  20.936   2.849  26.837 -0.0570 -0.2131  0.2424
 2860W        W 5060  16.361   0.232   9.661  0.1308 -0.1160  0.2650
 2861W        W 5061   0.021   5.454  25.960  0.1171 -0.0325  0.0026
 2862W        W 5062  10.917   4.127  13.425  0.2159 -0.3420 -0.1583
 2863W        W 5063  16.744   2.442   2.459  0.1841  0.1442 -0.1588
 2864W        W 5064   5.970   5.946   4.790 -0.3667 -0.2341  0.0343
 2865W        W 5065  16.727   1.628  34.989 -0.0261 -0.1321  0.0544
 2866W        W 5066  16.538   1.789   1.553 -0.0350 -0.2142 -0.1185
 2867W        W 5067   1.966   5.044  15.707  0.0029 -0.2315  0.2012
 2868W        W 5068  12.657   2.349  31.532  0.2264  0.0836  0.1888
 2869W        W 5069   2.328   0.034   7.887  0.1896  0.1716  0.0467
 2870W        W 5070  11.851   0.961   9.696 -0.2358  0.0019 -0.0377
 2871W        W 5071   1.262   0.612  16.426 -0.0186 -0.1618 -0.1681
 2872W        W 5072  17.049   0.285   4.927 -0.4377 -0.0862 -0.2034
 2873W        W 5073  12.574   3.985  19.042 -0.0451  0.1504  0.1813
 2874W        W 5074  18.159   4.039   0.471  0.2014 -0.1029  0.0897
 2875W        W 5075  16.709   2.307   1.494 -0.2474 -0.0356 -0.0456
 2876W        W 5076   7.594   5.584  27.174  0.0572 -0.2234  0.2360
 2877W        W 5077   7.911   5.529  16.209 -0.0314  0.1071  0.0093
 2878W        W 5078   0.179   5.703  29.726 -0.0998  0.0347  0.1279
 2879W        W 5079   7.406   1.011  14.053  0.1171 -0.0199 -0.3286
 2880W        W 5080  18.978   1.901  27.365 -0.3861  0.0043 -0.1917
 2881W        W 5081  11.791   3.471  43.464  0.1227  0.0723 -0.1047
 2882W        W 5082   3.792   1.141  28.855 -0.0191  0.0094 -0.0475
 2883W        W 5083  17.808   6.114  17.866  0.0024  0.0866 -0.1234
 2884W        W 5084  17.805   3.477  13.460  0.0003  0.0636  0.0254
 2885W        W 5085  14.875   0.883  21.916  0.1888 -0.2220 -0.2033
 2886W        W 5086   7.542   4.626  33.138  0.0058  0.0337  0.1495
 2887W        W 5087  12.438   6.567  20.640 -0.3123 -0.2735 -0.1397
 2888W        W 5088   5.506   3.159  28.968  0.1064 -0.0964  0.0045
 2889W        W 5089   5.851   4.994  38.455  0.1104 -0.4088  0.0177
 2890W        W 5090   8.566   3.381   3.179 -0.1029 -0.1999 -0.1028
 2891W        W 5091   9.074   0.945  37.848  0.1310  0.0237 -0.1411
 2892W        W 5092   3.800   0.306  20.420  0.1538  0.0689  0.1261
 2893W        W 5093  20.967   6.378  42.422 -0.0295  0.2690  0.1120
 2894W        W 5094   9.707   4.242   7.632  0.0322 -0.1232  0.0730
 2895W        W 5095  18.035   0.885   7.650 -0.0048 -0.0965 -0.0641
 2896W        W 5096  15.239   0.341   2.473  0.2102  0.0363  0.1927
 2897W        W 5097  18.073   5.913  31.171  0.0254 -0.4450  0.3689
 2898W        W 5098   3.870   6.285  36.342 -0.1669  0.0879 -0.2727
 2899W        W 5099  11.001   2.709   7.871  0.0060  0.3051  0.1166
 2900W        W 5100   2.271   3.745  27.247 -0.0820  0.0794  0.1070
 2901W        W 5101   3.646   4.039   1.319 -0.0563  0.1642  0.2584
 2902W        W 5102  12.266   6.013  35.833  0.0423  0.1045 -0.2167
 2903W        W 5103  20.686   2.396  34.320  0.3822  0.0785  0.1172
 2904W        W 5104  20.034   0.288  44.032 -0.1193  0.0448  0.2532
 2905W        W 5105  12.695   3.761  44.073 -0.3893 -0.1004  0.2535
 2906W        W 5106   3.031   5.285   9.653 -0.2896 -0.0485  0.3455
 2907W        W 5107  17.657   1.213   8.423  0.0118  0.0140  0.1108
 2908W        W 5108  20.369   2.018   6.794 -0.0830  0.3474 -0.0308
 2909W        W 5109   0.427   6.578   7.380  0.1168  0.0596 -0.3368
 2910W        W 5110   8.886   5.917  34.343 -0.0190 -0.4722  0.0515
 2911W        W 5111  13.697   4.499   9.161  0.1440  0.3435  0.0658
 2912W        W 5112   4.485   6.336   1.123 -0.1589  0.0913  0.3928
 2913W        W 5113  18.618   6.433   8.942 -0.0492  0.0215  0.0050
 2914W        W 5114   2.168   5.742  42.276 -0.4515 -0.0508  0.3580
 2915W        W 5115  16.471   3.928  42.087 -0.0512 -0.1543 -0.0589
 2916W        W 5116  20.934   5.279   9.072  0.1934 -0.1540  0.0771
 2917W        W 5117   5.567   4.653  31.983 -0.3441 -0.4270  0.3670
 2918W        W 5118  14.987   5.368  20.441 -0.1328 -0.1201 -0.1755
 2919W        W 5119  19.374   5.686  18.279 -0.2726 -0.2190  0.2258
 2920W        W 5120  15.044   2.563  21.245 -0.2357  0.0239 -0.0240
 2921W        W 5121   2.818   0.511   3.586 -0.4158  0.1375  0.0527
 2922W        W 5122   9.606   4.413  18.001  0.0130  0.0361 -0.1951
 2923W        W 5123   5.025   1.315  25.676  0.0580 -0.4752  0.0776
 2924W        W 5124  13.592   0.315  43.638 -0.1123 -0.3098  0.2205
 2925W        W 5125  12.507   3.020  36.687 -0.0141 -0.5318  0.2845
 2926W        W 5126  12.425   1.785  15.297  0.1388 -0.0075  0.4071
 2927W        W 5127  14.088   5.852  10.093 -0.0654 -0.0081  0.0663
 2928W        W 5128   1.953   0.611  31.016  0.2207  0.0558 -0.1472
 2929W        W 5129  20.093   6.124  26.478 -0.0505  0.0838 -0.0313
 2930W        W 5130   0.305   6.470   5.200  0.0260  0.0276 -0.1833
 2931W        W 5131  16.684   5.091   9.546 -0.0420 -0.1104  0.2196
 2932W        W 5132  17.018   4.386   5.832  0.1663  0.2608  0.1261
 2933W        W 5133  16.837   0.628  15.511  0.3177  0.0724  0.0574
 2934W        W 5134  12.864   0.776   4.813 -0.3898 -0.0473 -0.2402
 2935W        W 5135  20.661   1.273   3.895  0.2070 -0.0318 -0.0251
 2936W        W 5136  12.639   3.216  34.319  0.0061  0.0406 -0.2490
 2937W        W 5137  20.142   5.568  33.289 -0.2997  0.1059 -0.1582
 2938W        W 5138   3.263   0.912  26.770 -0.2023 -0.2652  0.0028
 2939W        W 5139  20.749   2.819  43.769 -0.2112  0.2300  0.0128
 2940W        W 5140  10.599   3.586  41.059  0.2201 -0.1592  0.1324
 2941W        W 5141  13.761   2.323   4.686 -0.1225  0.0356  0.0862
 2942W        W 5142   6.880   1.578   2.526  0.3178 -0.1561  0.0332
 2943W        W 5143   9.917   4.064   6.276 -0.1853  0.2509  0.0470
 2944W        W 5144  20.511   3.390   1.090  0.0649 -0.0281  0.1898
 2945W        W 5145  11.160   4.225  34.075 -0.2258  0.3057 -0.2222
 2946W        W 5146   7.434   4.877  38.790 -0.0510 -0.1405 -0.1107
 2947W        W 5147   9.733   0.594  30.750 -0.1665 -0.0150 -0.0387
 2948W        W 5148  11.081   0.770   1.760 -0.1965  0.1312 -0.0710
 2949W        W 5149  14.372   3.586  42.891  0.0561 -0.3407 -0.4712
 2950W        W 5150   1.266   4.315  15.942 -0.0634 -0.1621  0.0869
 2951W        W 5151  16.579   2.133  41.487 -0.1641  0.2777 -0.0867
 2952W        W 5152  15.586   5.853   3.464 -0.1126 -0.2558 -0.1902
 2953W        W 5153  18.665   1.929   4.759  0.2877  0.2035 -0.0413
 2954W        W 5154   4.988   5.388   3.017 -0.0824 -0.2011 -0.1542
 2955W        W 5155  15.955   3.059  16.267 -0.2340  0.1839 -0.0443
 2956W        W 5156  10.103   1.703  37.770  0.2294  0.1748 -0.3083
 2957W        W 5157  11.748   1.888  34.619 -0.1043  0.0672 -0.0456
 2958W        W 5158   4.107   3.389  45.104  0.0613  0.0450 -0.0012
 2959W        W 5159   0.235   4.697  29.391  0.4088 -0.2263  0.3017
 2960W        W 5160  20.646   2.118  43.198  0.1527 -0.0238  0.0096
 2961W        W 5161  15.099   4.086  32.721  0.3696  0.1485  0.0435
 2962W        W 5162  14.837   2.272  35.857 -0.0419  0.0004  0.0357
 2963W        W 5163  18.805   4.710   9.286 -0.1617 -0.0202 -0.0625
 2964W        W 5164  15.386   5.211  15.198  0.0653  0.4157 -0.1384
 2965W        W 5165  10.071   4.198  43.810  0.1380 -0.0832  0.1670
 2966W        W 5166  15.732   2.890  30.124  0.1003 -0.1178 -0.0932
 2967W        W 5167   6.002   2.241  31.542 -0.1642  0.2040 -0.1470
 2968W        W 5168  15.104   3.147  39.958  0.1534 -0.1171  0.0170
 2969W        W 5169  12.454   1.014  39.047  0.0325  0.3763  0.1872
 2970W        W 5170   2.171   2.821  25.649 -0.0617 -0.2425  0.3366
 2971W        W 5171   5.993   5.996  14.509 -0.1382 -0.3451  0.0568
 2972W        W 5172  18.164   2.129  16.455 -0.0033  0.1278 -0.0308
 2973W        W 5173   9.457   4.426  42.106 -0.0439 -0.0097  0.0309
 2974W        W 5174  15.379   6.308  32.017  0.2885  0.1526  0.0133
 2975W        W 5175   1.360   4.365  44.278  0.2139 -0.4363  0.1533
 2976W        W 5176  17.240   1.552  44.571 -0.1824 -0.2371 -0.0587
 2977W        W 5177   2.411   3.495   7.427  0.0743  0.0354  0.0513
 2978W        W 5178  18.763   3.267  12.021  0.2726  0.1616  0.3405
 2979W        W 5179  18.479   4.898  30.944 -0.0764  0.1911 -0.0993
 2980W        W 5180   9.089   5.012  41.434 -0.1301  0.0952  0.0604
 2981W        W 5181  15.618   3.252  40.302  0.0271 -0.1117 -0.2557
 2982W        W 5182   8.804   5.385  15.057  0.1114 -0.0762  0.1140
 2983W        W 5183  11.263   2.343  31.773  0.1772  0.0409 -0.1115
 2984W        W 5184   6.418   2.580  28.886 -0.3344  0.0850  0.0335
 2985W        W 5185   7.905   4.692  27.664 -0.0525 -0.0735  0.1105
 2986W        W 5186  16.530   1.644  30.059 -0.2812  0.0994 -0.3802
 2987W        W 5187   5.839   1.794  30.984  0.2476 -0.4228 -0.0846
 2988W        W 5188  11.140   6.395  36.677  0.0113 -0.0268  0.0670
 2989W        W 5189  12.229   1.377  21.949  0.1420 -0.0205 -0.2164
 2990W        W 5190   4.027   5.071  10.847  0.1233 -0.0562  0.2549
 2991W        W 5191   7.792   3.379  36.032  0.2153  0.1471 -0.1068
 2992W        W 5192   5.700   1.135   7.601  0.0796  0.3546 -0.3742
 2993W        W 5193   2.815   3.975  44.721  0.0342  0.1131 -0.0453
 2994W        W 5194  14.893   6.196  12.571 -0.1506 -0.1466  0.1036
 2995W        W 5195  18.199   1.882   0.689 -0.0108 -0.3703 -0.2253
 2996W        W 5196  20.584   5.414  32.408 -0.2510 -0.0789  0.2458
 2997W        W 5197   6.980   1.819  25.349  0.0621  0.0497  0.2305
 2998W        W 5198  10.114   6.416  38.019  0.1055  0.2788  0.0832
 2999W        W 5199   6.559   5.169  13.001  0.0015  0.2217 -0.0328
 3000W        W 5200   6.414   6.257  26.858  0.2599  0.1395  0.2465
 3001W        W 5201   6.570   0.141  38.013 -0.1800 -0.2605  0.0882
 3002W        W 5202  10.162   3.871  16.050 -0.0940  0.2652 -0.2253
 3003W        W 5203   0.907   0.178   5.763  0.0454  0.0528 -0.0546
 3004W        W 5204  20.097   0.391  35.406 -0.0962  0.0424 -0.1343
 3005W        W 5205  15.144   0.158   5.097  0.1954 -0.1059 -0.1134
 3006W        W 5206  18.462   3.969  38.397  0.1361  0.2475  0.4335
 3007W        W 5207  13.853   1.282  38.139 -0.0055  0.0883 -0.1638
 3008W        W 5208   1.977   3.085  34.500 -0.1967 -0.1349  0.0126
 3009W        W 5209  16.320   6.331  31.074 -0.1212  0.1248 -0.0040
 3010W        W 5210  14.647   2.240   0.559 -0.2366 -0.1502  0.1304
 3011W        W 5211   0.863   1.255  14.193  0.0402  0.0935  0.1743
 3012W        W 5212  11.650   2.988   0.962 -0.0043  0.0067  0.1298
 3013W        W 5213  13.243   5.342  13.601 -0.3356  0.1087  0.2683
 3014W        W 5214  15.711   1.560  21.391  0.0858 -0.1339  0.1023
 3015W        W 5215  20.586   5.597  29.188  0.2668 -0.4598 -0.0869
 3016W        W 5216   4.184   4.932  28.144  0.0808  0.1897  0.1921
 3017W        W 5217  11.531   6.497   1.841 -0.1497 -0.2102  0.3224
 3018W        W 5218  12.021   0.703   5.971 -0.1287  0.1628 -0.0396
 3019W        W 5219  19.418   2.213  43.813 -0.0901  0.0769 -0.0004
 3020W        W 5220  21.151   2.291  28.875  0.3215  0.1511  0.1407
 3021W        W 5221   3.891   3.147  23.966  0.0750  0.0299  0.0885
 3022W        W 5222  12.355   1.857  32.130  0.2755 -0.0052  0.0835
 3023W        W 5223   5.950   5.408  24.011 -0.0048  0.3200  0.1786
 3024W        W 5224  13.507   1.889  35.929 -0.1592 -0.3515  0.0837
 3025W        W 5225   4.864   0.347  30.681  0.0206  0.0405  0.0344
 3026W        W 5226   4.282   4.687  36.336  0.1097  0.1985  0.0133
 3027W        W 5227   4.203   5.068  22.766 -0.0043  0.1119  0.0525
 3028W        W 5228  19.476   6.279   3.461  0.3708 -0.2716  0.0380
 3029W        W 5229   0.704   0.355   3.048  0.2261  0.2119 -0.1148
 3030W        W 5230   1.835   2.877  22.780 -0.0655 -0.1850  0.0947
 3031W        W 5231   9.979   1.228  33.045  0.2013  0.2002  0.0567
 3032W        W 5232  20.336   0.171  11.979  0.0475  0.2205  0.3069
 3033W        W 5233  20.747   3.451  44.750 -0.1814  0.2125  0.1687
 3034W        W 5234  15.034   5.840  37.447  0.2231  0.1339 -0.2002
 3035W        W 5235   2.269   4.685  31.233  0.2033  0.0970  0.0249
 3036W        W 5236  19.198   2.354  27.539  0.3162 -0.0649  0.2375
 3037W        W 5237  11.126   0.465  35.670 -0.0933 -0.0762  0.1766
 3038W        W 5238   9.318   4.610   9.130 -0.1329 -0.0449  0.1086
 3039W        W 5239   9.183   1.096  17.793 -0.1793  0.2311 -0.1369
 3040W        W 5240  13.235   3.047  41.656  0.0293  0.0707  0.1106
 3041W        W 5241  15.632   2.994  29.401 -0.1708  0.3640  0.0712
 3042W        W 5242  11.470   5.905  33.509  0.0445 -0.4442  0.1212
 3043W        W 5243   7.404   0.858  36.425 -0.3526 -0.1054 -0.0685
 3044W        W 5244  12.419   3.557  12.924  0.0706 -0.0575 -0.0273
 3045W        W 5245   9.188   3.812   5.986 -0.0008  0.5572 -0.2077
 3046W        W 5246   8.745   0.199  39.098 -0.1071  0.2341  0.2964
 3047W        W 5247   6.043   5.116  14.526  0.0498 -0.2085  0.3914
 3048W        W 5248  10.133   0.609  44.114 -0.1164  0.2944 -0.1606
 3049W        W 5249  16.389   3.914  38.950  0.0732  0.2351  0.0149
 3050W        W 5250   7.557   4.336   7.787  0.3267  0.2133  0.3412
 3051W        W 5251  12.677   2.380  15.827 -0.0116  0.1245 -0.0615
 3052W        W 5252   8.418   4.053  18.317  0.2154 -0.0135 -0.0092
 3053W        W 5253  20.082   6.161  16.394 -0.0211  0.0808 -0.3179
 3054W        W 5254   4.203   5.838  20.932 -0.1925  0.1492  0.1529
 3055W        W 5255  12.559   0.288  43.774 -0.2092  0.1873  0.4220
 3056W        W 5256  16.751   5.275  34.500 -0.0507 -0.0898 -0.0193
 3057W        W 5257   5.138   4.008   2.419  0.2068 -0.1565  0.0517
 3058W        W 5258   1.493   1.639  13.139 -0.1054  0.0085 -0.5303
 3059W        W 5259  14.228   0.715  32.898  0.1291  0.2508  0.0225
 3060W        W 5260  18.382   3.336   4.831 -0.2133  0.0490 -0.1422
 3061W        W 5261  18.115   0.757  12.634  0.1956  0.0459 -0.2480
 3062W        W 5262  10.994   4.282   2.795 -0.0698  0.1159 -0.0815
 3063W        W 5263  18.038   2.896  33.633  0.1395 -0.3248 -0.2833
 3064W        W 5264  13.887   4.938  38.007 -0.1542  0.1906  0.0504
 3065W        W 5265  15.807   1.067  32.446 -0.1854 -0.1189  0.0576
 3066W        W 5266  11.672   6.587  15.223 -0.0389  0.0792  0.0270
 3067W        W 5267  19.285   4.602  43.377 -0.1346  0.2243  0.2640
 3068W        W 5268   0.825   1.421  44.922 -0.1552 -0.1750 -0.2084
 3069W        W 5269  13.844   1.753  17.778  0.2432 -0.0037 -0.1849
 3070W        W 5270   1.152   5.941  12.997  0.0219  0.3811  0.1215
 3071W        W 5271  19.236   3.668  29.384 -0.0460  0.2715 -0.2452
 3072W        W 5272   2.934   0.073  14.375  0.0901 -0.0163  0.2267
 3073W        W 5273   6.033   6.347  12.756 -0.0482 -0.0896  0.0807
 3074W        W 5274   5.774   1.011  40.077 -0.0759 -0.0800  0.2627
 3075W        W 5275  16.713   4.482   4.234  0.0008 -0.2029 -0.1086
 3076W        W 5276   0.622   6.013  25.675 -0.1050 -0.1119  0.0172
 3077W        W 5277  13.789   0.979   8.032  0.0064 -0.1538  0.1027
 3078W        W 5278  14.004   1.291  30.306 -0.1250 -0.0639  0.3244
 3079W        W 5279  13.008   0.714   7.501 -0.0435 -0.0036  0.2152
 3080W        W 5280   5.467   0.732  43.182 -0.1522 -0.0951  0.1232
 3081W        W 5281   9.608   0.069  30.557  0.2553 -0.1950 -0.2191
 3082W        W 5282   3.659   6.287  39.157 -0.2190 -0.0650 -0.6095
 3083W        W 5283   9.587   5.986  42.915  0.1021 -0.0160 -0.1750
 3084W        W 5284  18.550   5.469  15.665  0.1330 -0.0672  0.0616
 3085W        W 5285   3.511   1.494  41.050  0.1678  0.2844  0.0395
 3086W        W 5286  13.315   4.744  18.238 -0.0768 -0.0464 -0.0388
 3087W        W 5287  20.548   5.350  34.920 -0.3529 -0.0177  0.1517
 3088W        W 5288  10.093   1.099   8.004 -0.0712  0.1767  0.0790
 3089W        W 5289   2.632   1.102  34.269  0.2228 -0.1229 -0.0050
 3090W        W 5290  11.337   0.266  33.058  0.2974  0.0431  0.2005
 3091W        W 5291  12.340   4.503   4.563  0.0163  0.1133 -0.0690
 3092W        W 5292   2.131   0.369  38.790 -0.3212 -0.0585 -0.1388
 3093W        W 5293   0.817   6.148  16.322 -0.3053  0.0729  0.1234
 3094W        W 5294   6.842   4.067  10.971 -0.0175 -0.0906  0.0797
 3095W        W 5295   9.789   5.309   6.755  0.0118  0.2811  0.0317
 3096W        W 5296   2.908   1.040  13.148  0.1208 -0.2953  0.3992
 3097W        W 5297   3.492   3.767  27.666  0.4524 -0.2623  0.2025
 3098W        W 5298  12.172   3.088  19.966 -0.1164 -0.0382 -0.0648
 3099W        W 5299   2.982   5.465  26.562  0.0454  0.3055  0.0852
 3100W        W 5300  17.558   5.257  30.173  0.2454  0.0512  0.0001
 3101W        W 5301   2.500   1.172   1.556  0.1298 -0.2311 -0.1137
 3102W        W 5302  10.445   0.744  10.517 -0.0877  0.1383  0.3369
 3103W        W 5303   7.352   1.555  31.544  0.0951  0.3484 -0.0668
 3104W        W 5304   1.731   5.260  41.740  0.1797  0.0250  0.0384
 3105W        W 5305   6.756   4.058   3.093  0.1416  0.0381 -0.0010
 3106W        W 5306  12.913   2.569  32.006 -0.1625  0.4346  0.0917
 3107W        W 5307   7.277   6.401  14.624  0.1830  0.0747  0.1392
 3108W        W 5308  13.379   0.933  35.897  0.2484 -0.0199  0.0883
 3109W        W 5309   2.221   5.567   1.835  0.2534 -0.0945  0.0864
 3110W        W 5310   2.108   2.002  13.594 -0.0264 -0.1807 -0.1674
 3111W        W 5311  13.459   4.033  42.085  0.0959 -0.1588  0.3043
 3112W        W 5312   7.244   4.285   8.614 -0.3395  0.2141 -0.0838
 3113W        W 5313  15.717   2.828  23.023 -0.1830  0.3344 -0.3810
 3114W        W 5314  11.332   1.631  18.350  0.3092 -0.1927  0.0675
 3115W        W 5315   3.575   6.449  38.577 -0.2622 -0.3604  0.1401
 3116W        W 5316  13.419   2.455   4.294 -0.2089  0.1113  0.2421
 3117W        W 5317   8.393   5.897  36.089  0.1285  0.2706  0.0659
 3118W        W 5318   2.945   4.080  20.623  0.2385 -0.3398  0.2864
 3119W        W 5319  12.366   2.773  16.336 -0.1149 -0.0380  0.1314
 3120W        W 5320   7.015   4.888  10.423  0.3660  0.1714 -0.3022
 3121W        W 5321   5.580   0.560   7.092 -0.0872 -0.2364 -0.1304
 3122W        W 5322  13.947   0.386  18.664 -0.4552  0.0490  0.0518
 3123W        W 5323  17.544   6.272  29.854  0.0822  0.2110 -0.2332
 3124W        W 5324   9.399   2.240  44.678 -0.3885 -0.3195  0.1822
 3125W        W 5325  18.316   5.588   2.938 -0.3028 -0.0501 -0.4348
 3126W        W 5326   7.160   2.274  16.124  0.1652 -0.0139  0.0599
 3127W        W 5327  18.880   5.771  43.168  0.1923  0.0496 -0.0336
 3128W        W 5328  13.692   4.668  20.269 -0.2236 -0.0055  0.1242
 3129W        W 5329  20.392   0.037   9.689 -0.0858 -0.1136 -0.0726
 3130W        W 5330  12.769   6.084  13.741 -0.0878 -0.0911 -0.0074
 3131W        W 5331  15.768   4.639  19.268  0.1479 -0.3157  0.1111
 3132W        W 5332   0.731   1.148  32.510 -0.0427  0.0073 -0.0624
 3133W        W 5333  20.054   1.054  38.765 -0.1416  0.0521  0.1310
 3134W        W 5334  13.996   0.598   7.695 -0.1618 -0.1283 -0.3367
 3135W        W 5335   4.220   4.315  44.633 -0.1079 -0.2344  0.2162
 3136W        W 5336   7.059   6.476  13.110 -0.3644  0.3867  0.1156
 3137W        W 5337  20.397   3.210  29.402 -0.0112 -0.2369 -0.0413
 3138W        W 5338   4.585   1.015  37.511  0.2321  0.2599 -0.3216
 3139W        W 5339   5.270   2.384  36.731  0.0292  0.3433  0.0448
 3140W        W 5340  13.972   1.310  24.959  0.0754  0.1876  0.2945
 3141W        W 5341  18.557   2.081  38.764  0.1095 -0.2534  0.2423
 3142W        W 5342  12.834   6.449  14.215  0.0923  0.1708 -0.2763
 3143W        W 5343   4.555   4.328  21.784  0.2888 -0.3034  0.1358
 3144W        W 5344   0.180   5.622  37.859 -0.0892  0.1232 -0.1328
 3145W        W 5345   8.151   6.385  26.222  0.3353 -0.1683  0.1474
 3146W        W 5346   8.322   5.406  37.805  0.0051  0.0766 -0.0259
 3147W        W 5347  19.219   4.602  14.906 -0.1549  0.1259  0.2126
 3148W        W 5348  10.586   5.958   5.772 -0.1331 -0.0748 -0.1673
 3149W        W 5349   0.840   5.258  22.986 -0.1305 -0.1656 -0.1218
 3150W        W 5350  15.936   2.188  18.008 -0.0303 -0.2319  0.0319
 3151W        W 5351  20.306   5.678   3.649  0.2314  0.2530  0.1271
 3152W        W 5352   5.680   4.589   9.318  0.0175  0.0048  0.0622
 3153W        W 5353   1.962   3.782  25.430  0.2006 -0.0123 -0.0885
 3154W        W 5354   5.399   6.324  14.937 -0.3351  0.3636 -0.1138
 3155W        W 5355   3.978   4.984   3.947 -0.1748 -0.0821 -0.0538
 3156W        W 5356   5.329   0.093  10.720 -0.0871  0.0465 -0.0635
 3157W        W 5357   8.741   6.213  35.895  0.1109 -0.0473 -0.0666
 3158W        W 5358  16.209   3.590  18.325 -0.1266  0.1618 -0.0674
 3159W        W 5359   2.433   0.660  42.834 -0.3632  0.1141 -0.2996
 3160W        W 5360  15.569   5.426   1.693 -0.2186 -0.0810 -0.2056
 3161W        W 5361  12.647   4.749  21.535 -0.0614  0.0679 -0.0468
 3162W        W 5362   8.684   6.181  14.834 -0.0533 -0.1846 -0.2961
 3163W        W 5363   3.748   4.730  15.139  0.0844 -0.2354 -0.0835
 3164W        W 5364  11.144   1.262  14.629 -0.0759 -0.0873  0.1446
 3165W        W 5365   5.237   0.852  43.813 -0.0390  0.0653 -0.0221
 3166W        W 5366  20.930   0.351  36.407  0.2298 -0.1361  0.3887
 3167W        W 5367  11.841   4.186  18.506 -0.0062  0.1325 -0.1275
 3168W        W 5368  18.597   4.822  10.795 -0.0659 -0.1533  0.4062
 3169W        W 5369   2.231   2.411  26.050  0.1249  0.0602  0.1388
 3170W        W 5370   2.259   3.608  33.845  0.0553 -0.0181 -0.0844
 3171W        W 5371   3.650   4.545   8.291 -0.0043 -0.1811 -0.0301
 3172W        W 5372  12.519   0.700  45.120  0.2088 -0.0310 -0.1411
 3173W        W 5373  20.660   1.822  39.881  0.0238  0.1716 -0.2758
 3174W        W 5374   0.164   4.995   6.666 -0.2258  0.2238 -0.1777
 3175W        W 5375   7.778   3.873   1.635  0.2282  0.5218  0.2647
 3176W        W 5376  10.833   6.016   0.057  0.0267  0.0722  0.1515
 3177W        W 5377  14.901   5.557  24.037  0.2222 -0.1712 -0.2032
 3178W        W 5378   4.584   5.739   3.210  0.0307 -0.1257  0.0757
 3179W        W 5379  13.646   4.373  39.604  0.0863 -0.0914  0.0019
 3180W        W 5380  17.280   5.826  37.781 -0.0427 -0.2645  0.0188
 3181W        W 5381  19.964   3.757   1.059 -0.1645 -0.3266 -0.0896
 3182W        W 5382   1.651   4.657  37.932 -0.1893 -0.1875 -0.4427
 3183W        W 5383   6.329   4.987  14.999 -0.2281 -0.1814  0.0210
 3184W        W 5384   7.079   5.343  13.052  0.0760  0.0201  0.0664
 3185W        W 5385  16.359   0.922  36.861 -0.1123 -0.0118 -0.0252
 3186W        W 5386  18.343   5.839   9.641 -0.1235  0.0724  0.3690
 3187W        W 5387   3.472   0.804  11.381  0.1451 -0.0158  0.0318
 3188W        W 5388  18.424   4.455  34.033 -0.0310  0.1540 -0.1775
 3189W        W 5389   9.281   3.708  30.809 -0.0740 -0.1013  0.4785
 3190W        W 5390  11.580   5.415  21.010  0.0034  0.1250 -0.4513
 3191W        W 5391  19.256   5.755  39.323 -0.0087  0.1633  0.2412
 3192W        W 5392  10.492   4.694  17.652  0.0600  0.0120 -0.1372
 3193W        W 5393  15.790   3.533  12.892 -0.1239 -0.2321  0.0865
 3194W        W 5394   0.466   4.566  42.750 -0.2325  0.1872 -0.1333
 3195W        W 5395   6.893   2.910  39.360  0.0472 -0.1562  0.1802
 3196W        W 5396  18.991   1.922   4.430 -0.1105 -0.0252 -0.0732
 3197W        W 5397   3.721   5.692   9.254 -0.0529 -0.0770  0.0981
 3198W        W 5398   1.834   2.671   1.856 -0.1385  0.1330  0.0928
 3199W        W 5399  20.032   3.857  15.393 -0.0398 -0.2604  0.0868
 3200W        W 5400  12.727   1.081  13.563 -0.0191 -0.0754  0.0892
 3201W        W 5401  14.480   0.084  12.958  0.1218  0.0015  0.1318
 3202W        W 5402   5.197   2.226  23.338  0.0042  0.0248  0.3804
 3203W        W 5403  14.006   2.396  37.167  0.1773 -0.1196  0.0054
 3204W        W 5404  10.198   5.844   4.103  0.0613  0.0659  0.0738
 3205W        W 5405  13.279   0.231   9.785 -0.3196  0.0724 -0.1852
 3206W        W 5406  17.793   2.658   2.637 -0.0689  0.0622  0.0773
 3207W        W 5407   0.440   2.602  29.473 -0.0281 -0.2245 -0.1119
 3208W        W 5408  16.897   3.255  19.174  0.0119 -0.1351  0.1889
 3209W        W 5409   5.657   0.753   0.792 -0.2941 -0.1782 -0.0498
 3210W        W 5410  18.163   2.588  41.464 -0.1722  0.1074  0.1175
 3211W        W 5411  14.672   1.059  39.081 -0.0580 -0.1295 -0.2199
 3212W        W 5412   0.263   2.843  29.876 -0.0895  0.0317 -0.0431
 3213W        W 5413   5.693   6.519  45.110  0.1933  0.0326 -0.0587
 3214W        W 5414   6.891   2.407   4.205  0.1501 -0.0960 -0.3757
 3215W        W 5415  18.293   3.853   9.454 -0.0231 -0.0890  0.5039
 3216W        W 5416  17.515   1.544  31.984  0.0878 -0.0042  0.1186
 3217W        W 5417  14.423   1.450  16.636 -0.1730 -0.0047 -0.2980
 3218W        W 5418  16.853   3.060   2.767 -0.4141  0.0331 -0.2421
 3219W        W 5419   5.340   4.422  22.768 -0.3732  0.0992  0.1871
 3220W        W 5420   4.082   3.966  30.063  0.0537  0.0977  0.2099
 3221W        W 5421   2.225   4.171   1.090  0.0085 -0.2212  0.3623
 3222W        W 5422  13.343   0.255  37.047 -0.1527 -0.0734  0.1021
 3223W        W 5423  14.782   4.636   1.170  0.0818  0.1446 -0.0225
 3224W        W 5424  16.989   3.389  15.180  0.0078 -0.0617  0.1300
 3225W        W 5425  20.829   3.788  13.381  0.0518  0.1470  0.1069
 3226W        W 5426   0.395   0.257  27.774  0.1976 -0.0276 -0.2311
 3227W        W 5427  16.674   1.841  37.242  0.1329 -0.1392 -0.0929
 3228W        W 5428  13.759   3.304  32.519  0.1153  0.2506 -0.2415
 3229W        W 5429  13.731   5.955  23.221 -0.0191 -0.0143  0.1227
 3230W        W 5430  11.435   1.865  18.848  0.2349 -0.1574 -0.1145
 3231W        W 5431  12.186   3.908  39.455  0.1749  0.1787 -0.0875
 3232W        W 5432   0.818   0.989   3.963 -0.0427  0.1154  0.0296
 3233W        W 5433   8.762   5.088   8.840  0.0729  0.0851  0.1450
 3234W        W 5434   8.385   1.806   8.390 -0.0485 -0.1125 -0.0440
 3235W        W 5435  13.412   3.918  37.784  0.1629  0.3317  0.3660
 3236W        W 5436  17.917   6.298  10.181  0.0511 -0.2952  0.1606
 3237W        W 5437  20.901   4.390  15.262  0.2697  0.0953  0.2641
 3238W        W 5438  20.812   1.264  26.063  0.0479  0.0060  0.0508
 3239W        W 5439  13.088   0.745   0.677 -0.0795 -0.0542  0.0293
 3240W        W 5440   6.607   5.593  36.040 -0.1522 -0.1514 -0.2143
 3241W        W 5441  18.687   5.552   7.897 -0.4963  0.0528 -0.2342
 3242W        W 5442  18.141   3.589   1.337  0.1410 -0.0618  0.0924
 3243W        W 5443   4.359   2.340  27.919 -0.1681  0.0388  0.1841
 3244W        W 5444   3.501   4.926   3.729 -0.3381  0.1722  0.2173
 3245W        W 5445  20.387   6.161   3.682 -0.1401 -0.0055 -0.1261
 3246W        W 5446   0.285   3.196  33.869  0.0367 -0.1503 -0.1744
 3247W        W 5447   0.656   5.169  25.479  0.0284  0.1254 -0.0001
 3248W        W 5448   6.318   5.797  26.637  0.0301  0.1336 -0.0891
 3249W        W 5449  11.342   0.986  39.204  0.1109  0.1451 -0.3833
 3250W        W 5450   2.700   0.462  41.296  0.1988  0.3396  0.2235
 3251W        W 5451  14.064   0.521  23.066  0.1197  0.2054 -0.1289
 3252W        W 5452   6.425   6.525  23.530 -0.2321 -0.1874 -0.0378
 3253W        W 5453  11.912   2.145   8.173 -0.0645  0.0728  0.1548
 3254W        W 5454   0.396   3.940  13.865  0.0006 -0.0289  0.2198
 3255W        W 5455  19.678   6.223  43.543  0.1866 -0.0231  0.1879
 3256W        W 5456  18.226   6.240  42.033  0.0854 -0.1461 -0.1380
 3257W        W 5457   4.836   2.379  14.945 -0.1370  0.0908  0.2597
 3258W        W 5458  13.044   0.618  19.885  0.0763 -0.1916 -0.2446
 3259W        W 5459  10.907   5.497  15.184  0.2163 -0.2451  0.1458
 3260W        W 5460   4.013   2.531  13.118  0.1516 -0.1094 -0.2663
 3261W        W 5461  20.178   0.830   2.106  0.1322  0.0890  0.1410
 3262W        W 5462  18.307   0.309  43.966 -0.0156  0.1353 -0.2294
 3263W        W 5463  14.055   5.471   9.646 -0.2284  0.1565 -0.2446
 3264W        W 5464   3.320   2.422   7.024 -0.4126 -0.0696 -0.2294
 3265W        W 5465  18.213   2.963  17.630 -0.0794 -0.0730  0.0614
 3266W        W 5466   7.184   1.444  15.784  0.0191  0.1408 -0.0644
 3267W        W 5467   4.468   2.138  29.327 -0.1312  0.0756 -0.0626
 3268W        W 5468  20.932   6.198   3.529  0.1985  0.0786  0.0497
 3269W        W 5469  12.708   4.214   9.598 -0.4202 -0.0491  0.2457
 3270W        W 5470   8.512   3.527  15.489 -0.1147  0.0529  0.0215
 3271W        W 5471   5.840   4.398  44.008 -0.1010  0.0304  0.1003
 3272W        W 5472   5.374   0.182   0.794  0.0779  0.0860 -0.0592
 3273W        W 5473   8.762   0.136   3.363 -0.0728  0.3543  0.0642
 3274W        W 5474  21.018   6.337  14.567  0.2676  0.1338 -0.1734
 3275W        W 5475  17.335   3.944  40.559 -0.0628 -0.2480  0.2921
 3276W        W 5476   5.450   4.844  13.297 -0.2911 -0.0670  0.0643
 3277W        W 5477  13.638   5.800  32.181  0.1279 -0.0314  0.1500
 3278W        W 5478  13.728   5.236  43.120  0.1603  0.0335  0.1560
 3279W        W 5479  13.524   3.156  20.352 -0.3624  0.2007 -0.0732
 3280W        W 5480   2.131   2.639  11.928 -0.3344 -0.0817  0.1367
 3281W        W 5481   5.509   5.339  26.473 -0.0280  0.2349  0.1851
 3282W        W 5482  15.883   5.836   4.216 -0.0294 -0.3095  0.0445
 3283W        W 5483   5.428   2.574  28.998  0.0544 -0.1431  0.1323
 3284W        W 5484   5.979   4.105  16.349  0.2050 -0.1408 -0.0848
 3285W        W 5485  12.991   0.674  42.401  0.1946  0.1761  0.1295
 3286W        W 5486  16.607   3.029  38.829 -0.2910  0.1626 -0.0603
 3287W        W 5487  18.240   3.115  34.441  0.1865 -0.2635 -0.0108
 3288W        W 5488  10.949   2.945   3.702 -0.1311 -0.0415  0.0906
 3289W        W 5489  13.800   1.607  31.854 -0.2434 -0.1081  0.1590
 3290W        W 5490  12.198   0.528  35.777  0.0362  0.0447  0.0233
 3291W        W 5491  11.627   5.716  29.795  0.1027  0.1947  0.2941
 3292W        W 5492  10.259   1.234  32.046 -0.0128  0.1285  0.0831
 3293W        W 5493   9.275   1.103  16.919  0.1498  0.2031  0.2124
 3294W        W 5494  18.779   0.853   7.671 -0.0403  0.1284 -0.0999
 3295W        W 5495   1.704   4.804  34.896 -0.1020 -0.1545 -0.0649
 3296W        W 5496  18.917   3.156  43.501 -0.0785 -0.2224 -0.0966
 3297W        W 5497   2.442   6.552  14.601  0.0444 -0.2226  0.0527
 3298W        W 5498  16.371   4.094   8.285  0.3401  0.0049  0.1712
 3299W        W 5499  10.099   2.352  15.951  0.0464  0.0167  0.0583
 3300W        W 5500  16.699   4.444  32.241  0.3793  0.0559 -0.1737
 3301W        W 5501  19.784   4.133  16.578  0.2044  0.0432 -0.3572
 3302W        W 5502  10.081   5.933  13.683  0.1382 -0.0716 -0.0306
 3303W        W 5503   8.834   1.915  38.667  0.2353 -0.0595 -0.3286
 3304W        W 5504   0.920   4.042   2.748  0.2028 -0.0924  0.0583
 3305W        W 5505  20.900   2.733   0.785  0.0073  0.0738  0.3487
 3306W        W 5506  17.547   4.353  35.936  0.0916 -0.0581 -0.0914
 3307W        W 5507  10.579   4.672   6.550  0.2154  0.3159  0.3608
 3308W        W 5508  19.204   4.681  11.434  0.0703 -0.1676 -0.0288
 3309W        W 5509   7.617   0.484  41.149  0.1567 -0.2155 -0.2515
 3310W        W 5510  13.425   2.611  42.873  0.1076  0.0700 -0.1302
 3311W        W 5511  10.338   5.133  31.878  0.0193 -0.0043  0.0310
 3312W        W 5512  18.045   0.164  35.169  0.0670 -0.0191 -0.0545
 3313W        W 5513  11.935   3.597  40.418 -0.4273 -0.0208  0.1848
 3314W        W 5514   3.165   1.318  41.349 -0.1029  0.1994  0.1756
 3315W        W 5515  20.992   4.191  44.886  0.2553 -0.1326 -0.2493
 3316W        W 5516  15.402   6.095  19.882 -0.2712 -0.0459  0.0095
 3317W        W 5517   7.709   5.911  40.548  0.1451 -0.0291  0.1264
 3318W        W 5518   6.418   6.116  38.745  0.0401 -0.0730  0.1448
 3319W        W 5519  10.045   2.762  35.293  0.3790 -0.0106 -0.0369
 3320W        W 5520  14.250   0.205  44.325  0.0282 -0.0926 -0.0054
 3321W        W 5521  10.988   6.365  38.662  0.3451  0.1763 -0.0907
 3322W        W 5522  12.000   1.291  39.914  0.0591 -0.0153 -0.3031
 3323W        W 5523  17.467   3.435  34.422  0.0191 -0.0873 -0.1077
 3324W        W 5524  18.622   3.096  35.286 -0.0993 -0.0407  0.0911
 3325W        W 5525  15.192   3.039  40.481 -0.1362  0.0171 -0.1430
 3326W        W 5526  10.096   5.408  37.029  0.0757 -0.1846  0.1497
 3327W        W 5527  10.275   5.708  16.870  0.0398 -0.0869  0.1111
 3328W        W 5528  12.932   4.026  37.992  0.2442 -0.0603  0.1774
 3329W        W 5529   8.752   5.438  26.419 -0.1201  0.4068  0.1620
 3330W        W 5530   9.428   3.960  14.473 -0.2744  0.1003 -0.3810
 3331W        W 5531   7.775   1.599   1.969  0.1686 -0.3823 -0.0585
 3332W        W 5532  18.956   5.953  38.960  0.2642  0.2138 -0.1541
 3333W        W 5533  13.488   3.093  36.221  0.0388  0.2597  0.0475
 3334W        W 5534  20.015   2.149   7.408  0.0383  0.0177  0.2268
 3335W        W 5535  15.907   2.338  40.372  0.1476 -0.2912  0.0041
 3336W        W 5536  16.302   6.592   7.516  0.7450  0.0813 -0.0994
 3337W        W 5537   2.271   5.281   3.508  0.1778  0.1914 -0.0761
 3338W        W 5538  19.007   4.982   4.898  0.2625 -0.0716  0.0288
 3339W        W 5539  17.875   0.164  13.166 -0.0825 -0.2842  0.3151
 3340W        W 5540  21.113   4.639  37.849 -0.1888  0.1714 -0.1074
 3341W        W 5541  18.518   1.074  31.614  0.1205  0.3632  0.0683
 3342W        W 5542  20.279   2.140  29.525 -0.2280 -0.3243 -0.0608
 3343W        W 5543  19.358   2.001  43.056  0.0437  0.1293  0.0059
 3344W        W 5544  18.763   1.481  13.299 -0.0553  0.1839 -0.1555
 3345W        W 5545  11.405   1.201  19.533  0.1681  0.2453  0.2548
 3346W        W 5546  13.370   5.246   0.196  0.0189  0.2133  0.0721
 3347W        W 5547   1.940   2.990  43.552  0.2903 -0.0108  0.1544
 3348W        W 5548   3.333   1.372  26.210 -0.2066  0.2219  0.0115
 3349W        W 5549  18.774   5.206   0.799 -0.0819 -0.0930 -0.0994
 3350W        W 5550   2.402   5.818   4.769  0.1383  0.0884  0.1510
 3351W        W 5551  15.367   0.467  20.749 -0.0026  0.2347  0.1499
 3352W        W 5552  20.862   2.576   2.279 -0.1080 -0.1505 -0.2467
 3353W        W 5553   4.932   0.727   9.556 -0.1988  0.0740  0.0727
 3354W        W 5554  15.130   5.279  12.264  0.0002 -0.1299  0.2111
 3355W        W 5555  17.068   0.450  41.842 -0.1227  0.2093 -0.0386
 3356W        W 5556   0.672   1.087  23.959 -0.2996 -0.2647  0.0837
 3357W        W 5557   4.949   4.584  39.044 -0.1129  0.1365 -0.0955
 3358W        W 5558  17.103   1.416  22.217 -0.0836 -0.2952  0.1218
 3359W        W 5559  19.668   2.007   6.503  0.1396  0.0839 -0.0899
 3360W        W 5560  12.014   1.084  16.424  0.2968  0.0434  0.3066
 3361W        W 5561   5.846   0.743  16.402  0.0520 -0.1398 -0.0791
 3362W        W 5562  16.560   6.305   7.205  0.6197 -0.1545  0.0089
 3363W        W 5563  11.330   2.811  20.277 -0.3433 -0.0546  0.0896
 3364W        W 5564   2.172   4.337  12.847  0.0204 -0.0090  0.1057
 3365W        W 5565   3.763   4.016  12.273 -0.1428  0.1228  0.0277
 3366W        W 5566   2.376   4.244  43.707  0.1158  0.1076  0.1727
 3367W        W 5567   6.040   6.116  27.880  0.0051  0.1762  0.1682
 3368W        W 5568  20.914   6.497  16.186  0.0616  0.0999 -0.0596
 3369W        W 5569  11.421   4.931   7.487 -0.2019  0.3066 -0.1908
 3370W        W 5570  16.304   2.145  33.807 -0.2238 -0.1233  0.1091
 3371W        W 5571   7.980   0.099  35.832 -0.1448 -0.0591 -0.2234
 3372W        W 5572  18.519   1.685  30.691 -0.2567  0.0268  0.3067
 3373W        W 5573  16.778   3.549   5.475  0.2710  0.0915  0.1464
 3374W        W 5574  11.578   0.253   8.882 -0.0475 -0.1496 -0.0274
 3375W        W 5575   9.755   4.752  38.559  0.0887  0.0694 -0.1555
 3376W        W 5576   5.078   5.939  34.765  0.5616 -0.2013  0.2775
 3377W        W 5577   5.538   2.188  37.494 -0.1287 -0.1507  0.2401
 3378W        W 5578   7.130   6.042  40.488 -0.2320 -0.0832 -0.1828
 3379W        W 5579   6.070   1.754   8.169  0.0897  0.0747 -0.1014
 3380W        W 5580  17.942   2.050  41.617 -0.0741 -0.1791 -0.0268
 3381W        W 5581   3.870   5.862  23.287  0.0533 -0.0710  0.3759
 3382W        W 5582  20.761   0.697  13.561 -0.1278 -0.0387 -0.0546
 3383W        W 5583   5.896   5.568  42.674 -0.2173 -0.2733 -0.0595
 3384W        W 5584   5.979   0.202  14.285 -0.2995 -0.0809 -0.0930
 3385W        W 5585   8.201   1.497   2.716  0.2508 -0.0112 -0.1197
 3386W        W 5586   5.270   1.106  32.716  0.1647  0.1017  0.4642
 3387W        W 5587  10.006   5.539  12.247  0.0287  0.1920  0.2409
 3388W        W 5588   7.574   3.227  33.408  0.1319  0.0772 -0.3497
 3389W        W 5589   7.202   4.593   6.053  0.2220 -0.3040 -0.1498
 3390W        W 5590   2.241   6.410  26.454  0.0973  0.0991 -0.3845
 3391W        W 5591  15.091   5.409  22.093 -0.1198 -0.3835  0.1026
 3392W        W 5592   6.207   3.842   0.047 -0.0583 -0.0748 -0.0161
 3393W        W 5593  11.669   2.181  43.970  0.1369  0.2145  0.1067
 3394W        W 5594  16.578   5.214  37.811  0.0994 -0.0357  0.0891
 3395W        W 5595  14.550   2.557  40.563 -0.2411 -0.0853 -0.0820
 3396W        W 5596  15.636   1.678  39.697 -0.0107  0.0621 -0.2556
 3397W        W 5597  13.128   4.139  21.326  0.2395 -0.0406  0.4259
 3398W        W 5598   1.185   3.453  24.006  0.0297 -0.1604  0.1589
 3399W        W 5599   2.993   4.734   3.563 -0.1674 -0.0623 -0.1244
 3400W        W 5600   5.706   3.998  12.246  0.3295 -0.1626  0.0688
 3401W        W 5601  15.297   1.500  18.268 -0.0500 -0.1830 -0.1381
 3402W        W 5602  16.163   3.132  10.308  0.1724  0.0736  0.0359
 3403W        W 5603   0.754   0.385   2.451 -0.0449  0.1395 -0.1782
 3404W        W 5604   5.640   0.692  33.451  0.1062  0.2286 -0.0199
 3405W        W 5605  10.755   4.152  37.048  0.0890 -0.2143 -0.1657
 3406W        W 5606   6.292   3.555  33.774  0.3253 -0.0049 -0.0743
 3407W        W 5607   2.562   2.875   1.093  0.2416 -0.0058  0.0331
 3408W        W 5608   6.618   6.239  41.502  0.0554  0.1270  0.0640
 3409W        W 5609  20.541   4.377   6.586 -0.0781  0.2100 -0.1479
 3410W        W 5610  17.691   1.303  16.650  0.2431 -0.1606 -0.0243
 3411W        W 5611  14.505   5.281  36.697 -0.1068 -0.0300 -0.0547
 3412W        W 5612  21.134   0.780  36.928  0.3012 -0.1375  0.1285
 3413W        W 5613   5.750   6.386  37.982  0.0540 -0.0107 -0.1695
 3414W        W 5614  19.705   3.550   6.573  0.0371 -0.0431 -0.0175
 3415W        W 5615   8.823   5.073  35.251 -0.0803  0.1862  0.0901
 3416W        W 5616  13.193   5.126   4.311 -0.0357 -0.2090  0.0886
 3417W        W 5617  18.551   0.443  19.224  0.0228  0.2480  0.1883
 3418W        W 5618   7.463   3.066   1.116 -0.1017  0.0917  0.3030
 3419W        W 5619   6.247   6.304  15.263  0.2128 -0.1095  0.0159
 3420W        W 5620   3.194   1.408   2.686 -0.1997 -0.3878 -0.1295
 3421W        W 5621   2.198   0.041   6.400  0.1993 -0.0957 -0.0442
 3422W        W 5622  16.243   6.455   9.290 -0.1609  0.1003 -0.0599
 3423W        W 5623   9.644   0.074  34.890  0.0305  0.0293  0.4179
 3424W        W 5624  13.106   3.848   7.816  0.0413 -0.1162  0.1321
 3425W        W 5625   2.408   1.670  22.605 -0.3200  0.2477  0.2174
 3426W        W 5626   0.953   1.262  33.393  0.1107 -0.1004 -0.0550
 3427W        W 5627  18.524   2.901  14.641 -0.1056 -0.0871  0.0176
 3428W        W 5628   2.698   3.962  14.724  0.0115  0.0254  0.0455
 3429W        W 5629   0.057   0.430  35.997 -0.1503 -0.0405 -0.3226
 3430W        W 5630  17.736   0.098  34.364  0.1330  0.1094  0.0138
 3431W        W 5631  19.578   2.246  32.915 -0.0131  0.1177  0.2786
 3432W        W 5632  14.809   1.431  18.037 -0.0654 -0.2353  0.3018
 3433W        W 5633   4.622   5.818  30.138 -0.1039 -0.0136  0.1891
 3434W        W 5634  11.727   6.495  43.498  0.1147  0.0288  0.0437
 3435W        W 5635  13.497   2.865  19.787  0.0271 -0.0799 -0.0611
 3436W        W 5636  20.644   0.780  32.848  0.0454 -0.1935  0.2388
 3437W        W 5637  18.952   2.212  37.948  0.1947  0.0869 -0.3078
 3438W        W 5638  18.351   4.875   4.405  0.0204  0.2426 -0.0383
 3439W        W 5639   2.296   3.850  22.465 -0.1058 -0.2735 -0.2058
 3440W        W 5640  19.062   3.697  14.282  0.3111  0.3864 -0.1724
 3441W        W 5641   7.128   4.264   6.877 -0.0712 -0.2592  0.1744
 3442W        W 5642   5.041   5.022  25.773  0.3140  0.3006 -0.2035
 3443W        W 5643   5.646   3.831  25.980  0.1495  0.0439  0.2297
 3444W        W 5644   2.733   3.565  10.155  0.0201  0.1598 -0.1942
 3445W        W 5645  15.227   1.073   5.181  0.2220 -0.1103 -0.1897
 3446W        W 5646  11.657   5.138  14.815 -0.1354 -0.3588 -0.3813
 3447W        W 5647  20.659   4.767  34.803  0.0028 -0.0061 -0.0127
 3448W        W 5648   6.791   1.843  36.905  0.1957 -0.0137 -0.1266
 3449W        W 5649   7.946   4.858   9.666  0.3034  0.0558  0.0023
 3450W        W 5650  17.150   2.130   6.022 -0.0601  0.0757 -0.1197
 3451W        W 5651   5.126   1.613  22.958  0.2027  0.0221  0.0928
 3452W        W 5652   9.059   5.770   6.830 -0.3349 -0.1234 -0.1906
 3453W        W 5653   9.153   4.125  44.884  0.3220  0.1188  0.2283
 3454W        W 5654  10.054   4.218   4.651 -0.0162 -0.0353 -0.0842
 3455W        W 5655   8.525   3.460  25.499 -0.0179 -0.0126  0.0396
 3456W        W 5656   4.183   5.175   8.295  0.1524 -0.0413  0.1040
 3457W        W 5657   3.905   0.198  38.514 -0.1730  0.0225 -0.0781
 3458W        W 5658  12.987   2.854   2.839 -0.2951 -0.0267 -0.1378
 3459W        W 5659  10.594   3.091   8.587 -0.3142 -0.0161 -0.0138
 3460W        W 5660   5.525   5.936   4.969 -0.0664  0.1669  0.2408
 3461W        W 5661   0.948   4.842  15.008  0.1088 -0.0818 -0.2749
 3462W        W 5662  17.048   0.594  16.521  0.1723  0.4560 -0.0654
 3463W        W 5663   9.331   1.767  34.578  0.1897 -0.0882 -0.1209
 3464W        W 5664  16.158   3.867  16.002 -0.0357  0.1786  0.0332
 3465W        W 5665   0.432   0.644  38.482 -0.0088 -0.2287 -0.4065
 3466W        W 5666   0.920   3.870  34.100  0.1859  0.0030  0.2067
 3467W        W 5667  15.102   4.167  22.384  0.0401 -0.0310 -0.0314
 3468W        W 5668   0.375   1.634  27.228 -0.0101  0.1398 -0.1732
 3469W        W 5669  15.095   1.629  35.266 -0.1228  0.0228 -0.2663
 3470W        W 5670  14.998   1.354  22.016  0.0751  0.1085 -0.1881
 3471W        W 5671  14.943   0.837  16.204 -0.0313  0.2554  0.0225
 3472W        W 5672  12.065   0.640   0.868  0.1043 -0.0684  0.2136
 3473W        W 5673  14.018   0.128  30.991  0.0322 -0.0460 -0.0373
 3474W        W 5674   6.364   3.112   3.412 -0.0854 -0.1000  0.2333
 3475W        W 5675   2.452   5.702   9.613  0.3724  0.2175 -0.2060
 3476W        W 5676  12.471   4.266  40.181 -0.1020 -0.1226 -0.0391
 3477W        W 5677  19.335   2.969   2.482 -0.1637  0.0932 -0.0793
 3478W        W 5678   6.868   1.318  35.768  0.0343  0.1288  0.0496
 3479W        W 5679   8.466   0.549  31.083  0.2941 -0.2961 -0.0668
 3480W        W 5680  10.481   1.321  32.588 -0.2046  0.1985 -0.1831
 3481W        W 5681   7.958   5.553  40.966 -0.0970  0.0405  0.2661
 3482W        W 5682  13.551   4.416   5.345 -0.1043  0.1369 -0.0538
 3483W        W 5683  14.837   2.076  10.920 -0.4343 -0.1086  0.0047
 3484W        W 5684   6.846   2.511  35.092  0.1895  0.2472 -0.2720
 3485W        W 5685  15.042   5.505  18.324  0.2148 -0.1047  0.1277
 3486W        W 5686   3.658   1.615  14.927 -0.1159  0.0873  0.1563
 3487W        W 5687   7.656   6.573  13.107  0.2171 -0.2820 -0.0760
 3488W        W 5688   9.293   3.872  11.856 -0.0002 -0.0258  0.0487
 3489W        W 5689   6.585   0.820   2.577  0.0581 -0.0844 -0.1608
 3490W        W 5690  20.481   2.445   0.626  0.2449 -0.1388 -0.1585
 3491W        W 5691  19.198   1.918  44.166  0.2267 -0.0392  0.1647
 3492W        W 5692   8.955   0.776  34.682 -0.3660 -0.0025  0.0590
 3493W        W 5693  14.601   5.530  39.767 -0.2020 -0.1115  0.0655
 3494W        W 5694   3.654   1.981  22.598  0.1885  0.0581 -0.1148
 3495W        W 5695   4.616   2.896  15.681  0.0464 -0.1909 -0.1786
 3496W        W 5696  16.846   1.374  21.143 -0.1784 -0.1479  0.1042
 3497W        W 5697  19.043   1.787  43.713  0.1509  0.0948  0.2531
 3498W        W 5698   0.234   2.516  35.623  0.1637  0.1198  0.2398
 3499W        W 5699  20.353   0.325  41.900 -0.2455 -0.1651 -0.0323
 3500W        W 5700  17.523   3.465   4.116  0.2592 -0.0361  0.1151
 3501W        W 5701  16.893   0.796  30.722  0.1944 -0.0902 -0.0325
 3502W        W 5702  15.634   0.243  17.789  0.4303 -0.2086 -0.5766
 3503W        W 5703  15.875   3.791  20.451 -0.1770  0.0475 -0.2036
 3504W        W 5704  10.698   6.356  11.401  0.1088 -0.0093 -0.0887
 3505W        W 5705  12.437   2.006  19.164  0.3627 -0.1597 -0.1462
 3506W        W 5706   0.115   3.441  39.459  0.2226 -0.0406  0.2414
 3507W        W 5707   3.369   4.445   3.738  0.2092  0.2006  0.3220
 3508W        W 5708  20.143   4.674  17.012  0.2134  0.2476  0.0436
 3509W        W 5709   5.687   3.463   1.658  0.1231  0.0180  0.0022
 3510W        W 5710  18.621   3.710   9.762  0.3247 -0.1484 -0.0200
 3511W        W 5711   1.706   5.687  43.824  0.0915 -0.0732  0.1558
 3512W        W 5712  17.884   0.410   2.860 -0.0569  0.0850 -0.1510
 3513W        W 5713  10.518   0.821  31.916  0.0476 -0.2992 -0.1303
 3514W        W 5714  14.471   2.481   6.090 -0.0907  0.0506  0.1335
 3515W        W 5715   9.795   4.468  41.230  0.1876  0.2552 -0.1764
 3516W        W 5716   3.648   5.968  14.479 -0.0102  0.1030  0.0043
 3517W        W 5717   2.166   2.584   2.778 -0.0605  0.1256  0.0389
 3518W        W 5718   5.288   1.124  30.983  0.0200 -0.0587  0.1466
 3519W        W 5719  17.156   6.225  10.232 -0.1836 -0.1896  0.2132
 3520W        W 5720   4.084   6.362  26.567 -0.1793 -0.1427  0.2381
 3521W        W 5721  10.117   0.814  18.089 -0.0455 -0.1663  0.0290
 3522W        W 5722  12.915   2.663  38.151 -0.2178  0.0692  0.0309
 3523W        W 5723   5.700   2.507   8.798  0.1811  0.3417  0.1307
 3524W        W 5724   6.494   0.640   3.715  0.3110  0.0589  0.0307
 3525W        W 5725  20.158   3.046  38.576  0.3420  0.4713 -0.2684
 3526W        W 5726  16.504   1.756   9.099  0.1363 -0.0053  0.1120
 3527W        W 5727  11.813   5.924  38.728  0.0774 -0.0516 -0.2222
 3528W        W 5728   2.137   2.403  42.810  0.0513  0.0837 -0.2905
 3529W        W 5729  20.484   1.535  36.776  0.1683 -0.2363 -0.0015
 3530W        W 5730   3.897   0.036  35.605 -0.1559 -0.1650 -0.2717
 3531W        W 5731  14.180   4.642  17.229  0.0748  0.0504 -0.0771
 3532W        W 5732  20.477   6.395  33.597 -0.0588 -0.1489  0.1622
 3533W        W 5733   0.457   1.514  37.797  0.0290  0.0673 -0.0153
 3534W        W 5734   2.963   3.307  41.939  0.0797  0.1151 -0.0253
 3535W        W 5735   0.432   2.394  36.528 -0.0956  0.4705  0.0448
 3536W        W 5736  14.041   4.477  40.759 -0.3997 -0.2075 -0.0369
 3537W        W 5737  17.324   5.505  18.044  0.4381  0.0624 -0.0736
 3538W        W 5738   7.766   4.805   7.739  0.0418  0.0108 -0.2177
 3539W        W 5739   6.986   2.311  30.243  0.1436  0.0513 -0.0658
 3540W        W 5740   1.718   0.661   6.093 -0.3743 -0.1494  0.0965
 3541W        W 5741  20.136   0.024   6.596  0.1061  0.1913 -0.0561
 3542W        W 5742   0.288   0.372  37.234  0.0699  0.2867 -0.1701
 3543W        W 5743  18.018   2.451   3.892 -0.1376 -0.0419 -0.2006
 3544W        W 5744   0.718   6.005   8.143 -0.3094  0.1137 -0.0379
 3545W        W 5745   1.410   4.743  30.763  0.0578 -0.1553 -0.2202
 3546W        W 5746   6.482   5.363   9.879  0.0789  0.0235  0.0314
 3547W        W 5747   2.313   1.022  13.097  0.1644  0.0363  0.0085
 3548W        W 5748  14.367   6.029  38.953  0.0952 -0.0615 -0.0713
 3549W        W 5749   0.618   1.925  31.844 -0.1894  0.4782  0.0109
 3550W        W 5750   2.504   5.413  24.589  0.0356 -0.1985 -0.4263
 3551W        W 5751  12.611   0.167  42.088  0.1407  0.3133  0.1447
 3552W        W 5752   3.376   5.065  42.738 -0.0380 -0.1054  0.2357
 3553W        W 5753   4.949   0.222   9.453 -0.0633  0.1427 -0.1288
 3554W        W 5754   9.546   4.788   5.271 -0.0388  0.1899 -0.1904
 3555W        W 5755   5.239   5.336  13.395  0.3136  0.1520  0.0548
 3556W        W 5756   3.186   0.395   4.829  0.0962  0.1466  0.1276
 3557W        W 5757  11.617   6.059  30.829 -0.0964 -0.1677 -0.0455
 3558W        W 5758  15.415   6.484  22.410  0.1613  0.0604 -0.1729
 3559W        W 5759   1.792   6.407  10.269 -0.0681  0.1011 -0.2123
 3560W        W 5760  20.098   1.549  33.240  0.1345 -0.2536 -0.0517
 3561W        W 5761  13.097   5.650  11.666  0.1018 -0.0938 -0.0656
 3562W        W 5762   7.706   0.637  45.074  0.2595 -0.3554  0.0714
 3563W        W 5763  13.424   5.856  28.837  0.2986  0.0826  0.0974
 3564W        W 5764   3.448   0.307  31.500 -0.1028  0.0079  0.1806
 3565W        W 5765   7.705   5.622  11.101 -0.0138  0.0438  0.1556
 3566W        W 5766  16.600   4.129   2.464 -0.0005 -0.0881  0.0345
 3567W        W 5767  12.592   3.962  36.646  0.2652 -0.0375 -0.1513
 3568W        W 5768  18.501   4.602  39.167 -0.0673  0.4079  0.0570
 3569W        W 5769   8.541   3.482  33.008 -0.0600 -0.1128  0.1117
 3570W        W 5770  10.832   5.884  28.274 -0.2238  0.0325  0.0553
 3571W        W 5771  10.383   3.524  39.097 -0.0974 -0.1932  0.0536
 3572W        W 5772   7.000   2.230  40.648 -0.3778 -0.0005  0.0296
 3573W        W 5773  18.098   3.852  38.868 -0.0945 -0.0280  0.0307
 3574W        W 5774  13.246   6.000   6.965  0.3708  0.1465  0.0510
 3575W        W 5775  12.467   0.358  18.772  0.0072 -0.3051 -0.2402
 3576W        W 5776   3.092   0.014  38.617 -0.0377 -0.2065  0.1481
 3577W        W 5777  12.685   5.682  18.238  0.1441 -0.0435  0.0388
 3578W        W 5778  20.947   5.867  30.032 -0.3318  0.0280  0.0485
 3579W        W 5779   8.295   1.354  30.506 -0.4479  0.0625  0.1873
 3580W        W 5780   9.913   5.425  33.297  0.1008 -0.1590 -0.2066
 3581W        W 5781  17.619   0.099  37.998  0.2930  0.3564  0.0566
 3582W        W 5782   5.429   1.229  22.783 -0.0920 -0.0226 -0.0535
 3583W        W 5783  18.631   4.274  30.921  0.1027  0.1304 -0.1761
 3584W        W 5784   9.892   3.306  34.422 -0.0010  0.1135  0.0551
 3585W        W 5785  12.697   4.510   5.355  0.1000 -0.0658 -0.2014
 3586W        W 5786   7.342   3.862  10.117 -0.2325 -0.0404 -0.1054
 3587W        W 5787  17.232   5.354   0.414  0.0121  0.0096 -0.3790
 3588W        W 5788  18.505   5.121  37.556  0.0162  0.0001  0.0135
 3589W        W 5789   8.443   0.703  40.041 -0.0890 -0.0360 -0.3719
 3590W        W 5790   1.773   3.694  34.705 -0.1109  0.3435 -0.1016
 3591W        W 5791  20.961   1.160  31.801  0.0642  0.0194 -0.1911
 3592W        W 5792  12.598   1.749  44.175 -0.3284  0.0158  0.2287
 3593W        W 5793  18.885   2.725   6.342 -0.2383 -0.0421 -0.3099
 3594W        W 5794   7.444   5.893  39.981  0.2021 -0.1199 -0.0298
 3595W        W 5795   1.578   0.222  16.379 -0.0085 -0.1658  0.1982
 3596W        W 5796   6.494   3.782  24.226 -0.0840 -0.4126  0.1807
 3597W        W 5797  15.205   0.713  11.721 -0.1019  0.2462 -0.0851
 3598W        W 5798  17.680   1.565  34.004  0.0006 -0.1845 -0.0609
 3599W        W 5799   8.603   3.259  43.468  0.2636  0.0819  0.2873
 3600W        W 5800  14.886   1.800  14.483  0.0202  0.1970  0.3525
 3601W        W 5801  11.280   1.026  11.415  0.3318  0.1769 -0.0006
 3602W        W 5802   4.999   3.937  11.424 -0.3138 -0.0716  0.0857
 3603W        W 5803   0.870   2.721  38.481  0.0494 -0.3322  0.0056
 3604W        W 5804  18.706   0.327  17.483  0.2374 -0.2323  0.1529
 3605W        W 5805   7.741   3.598  38.544  0.0345  0.0632 -0.0605
 3606W        W 5806  12.339   6.132   1.538  0.0541 -0.1588 -0.3842
 3607W        W 5807  20.309   4.670  41.652  0.0724  0.0434  0.2433
 3608W        W 5808   4.125   2.086  10.081  0.0098 -0.0046  0.0669
 3609W        W 5809   2.529   2.454   9.710  0.0482 -0.0919  0.1434
 3610W        W 5810   1.855   5.476   8.269  0.0444  0.0126  0.1031
 3611W        W 5811   7.324   2.540  11.997  0.0281  0.2270  0.0483
 3612W        W 5812   9.005   2.026  34.160  0.0283 -0.1805 -0.0562
 3613W        W 5813  12.172   2.037  17.429  0.0027  0.0651 -0.1349
 3614W        W 5814  11.041   2.955  10.405 -0.2007  0.1572 -0.2357
 3615W        W 5815  15.141   0.746  43.403  0.0373 -0.1456 -0.1068
 3616W        W 5816  19.501   0.105  36.779 -0.0015 -0.0597  0.1321
 3617W        W 5817   9.970   1.714   4.206 -0.0414 -0.2866 -0.1868
 3618W        W 5818  19.572   4.070  15.649  0.0317  0.0092  0.3976
 3619W        W 5819  12.221   0.010  38.564  0.1579  0.0522 -0.3504
 3620W        W 5820   4.062   2.664   6.310 -0.2679  0.0906  0.0962
 3621W        W 5821  13.275   2.542   7.357 -0.3291  0.2861 -0.0229
 3622W        W 5822   5.316   2.926  14.153  0.0437 -0.0835 -0.1034
 3623W        W 5823   2.797   2.209   7.913  0.0246  0.0113 -0.0719
 3624W        W 5824   4.338   5.769  44.953 -0.1522 -0.2852 -0.2023
 3625W        W 5825   3.012   2.707   8.041  0.0409  0.1116  0.1295
 3626W        W 5826  19.706   1.503  37.549  0.1310  0.0762  0.1442
 3627W        W 5827  19.266   3.049   3.184 -0.1236  0.3907  0.0040
 3628W        W 5828   2.264   3.394   8.424  0.0197 -0.0247  0.2194
 3629W        W 5829   4.747   3.222   8.486  0.1897 -0.3387 -0.3065
 3630W        W 5830  16.330   5.732  36.869 -0.1414  0.0565 -0.1202
 3631W        W 5831   2.279   3.345  28.220  0.2136 -0.1339  0.1527
 3632W        W 5832   3.264   4.219   4.169  0.2653  0.3840  0.4773
 3633W        W 5833   7.185   4.100  40.388 -0.0187 -0.2966  0.1390
 3634W        W 5834   2.137   2.572  41.510 -0.4368  0.1505  0.2170
 3635W        W 5835  20.890   6.476  33.871  0.0247 -0.2522  0.0747
 3636W        W 5836  19.282   6.005  37.750 -0.2736  0.0854  0.0664
 3637W        W 5837   4.101   0.751  20.965  0.2476  0.0903 -0.1773
 3638W        W 5838  12.774   5.961  36.489  0.1205 -0.0555  0.0393
 3639W        W 5839  20.300   2.411  10.544  0.3013 -0.2121  0.0887
 3640W        W 5840  18.587   3.021  12.433 -0.0857  0.0916  0.2433
 3641W        W 5841   8.236   3.175  28.485  0.0202  0.1954  0.3584
 3642W        W 5842  14.562   0.831  42.619  0.0785 -0.2726  0.1778
 3643W        W 5843  19.910   2.942  29.495  0.0957  0.1473 -0.1724
 3644W        W 5844  15.399   2.411  11.147 -0.0467 -0.0704  0.2057
 3645W        W 5845  10.625   0.526   0.594 -0.2913  0.0571 -0.0226
 3646W        W 5846   0.500   0.371  12.461 -0.0491 -0.0808 -0.0076
 3647W        W 5847  18.459   5.462   0.499 -0.0426 -0.0426  0.2101
 3648W        W 5848  10.606   4.791  31.110 -0.0642  0.1085 -0.1260
 3649W        W 5849   3.580   1.408  15.945 -0.0780 -0.0907  0.2144
 3650W        W 5850   5.894   2.327  34.151  0.2818  0.1323  0.2097
 3651W        W 5851   7.446   1.913  10.487 -0.1358  0.0809  0.1207
 3652W        W 5852   0.677   3.442   7.114  0.1493 -0.0377  0.0011
 3653W        W 5853   2.001   2.340  24.404  0.1210 -0.1629  0.0664
 3654W        W 5854   3.342   5.658  24.576  0.3301  0.1622 -0.1494
 3655W        W 5855   9.219   6.158  29.674  0.2520 -0.0648 -0.0098
 3656W        W 5856  12.717   2.836   7.182 -0.0133  0.0986 -0.1626
 3657W        W 5857   5.783   1.231  13.103  0.0684 -0.1700  0.2818
 3658W        W 5858  16.394   4.748  29.739 -0.1809 -0.0637 -0.0889
 3659W        W 5859  19.759   1.373  29.044  0.0169 -0.0387  0.1585
 3660W        W 5860  15.160   3.797  23.934 -0.1846  0.1303  0.1492
 3661W        W 5861   0.991   5.786  25.971  0.1835 -0.2635 -0.4284
 3662W        W 5862  10.465   3.108  31.844  0.0778 -0.1302  0.2425
 3663W        W 5863   3.936   6.047  31.461  0.0835 -0.1737 -0.1119
 3664W        W 5864  20.784   2.101  25.837 -0.0253 -0.2214  0.0049
 3665W        W 5865  11.034   1.777   2.974  0.1056  0.1970  0.1320
 3666W        W 5866  16.038   2.787  21.358 -0.0983 -0.1001 -0.0323
 3667W        W 5867  13.821   3.226  40.176 -0.1069  0.0489 -0.1152
 3668W        W 5868  10.593   5.959   0.803 -0.1019 -0.0981  0.2611
 3669W        W 5869  19.973   4.089  27.974 -0.1659 -0.2304  0.0210
 3670W        W 5870  13.883   3.400  11.784  0.0629 -0.2064  0.0698
 3671W        W 5871   3.138   6.254  30.310  0.4581  0.1170  0.2020
 3672W        W 5872  16.500   5.660   5.994 -0.0447  0.1362 -0.1989
 3673W        W 5873   6.245   0.194   1.397  0.1064  0.2092  0.1293
 3674W        W 5874  14.302   5.535  14.006  0.1197  0.0399 -0.0862
 3675W        W 5875  14.997   1.931   7.130 -0.0134 -0.2054 -0.3397
 3676W        W 5876  19.146   0.061   7.033 -0.1118  0.1213 -0.0221
 3677W        W 5877   1.706   2.198  28.061  0.2077 -0.0323  0.1249
 3678W        W 5878  18.767   0.744   4.121 -0.3026 -0.3621 -0.0468
 3679W        W 5879   4.978   0.953   6.245  0.1487  0.1460 -0.1787
 3680W        W 5880   8.488   2.306  27.860 -0.0138  0.0634  0.1992
 3681W        W 5881  14.586   5.450  41.705 -0.0642  0.1579  0.2064
 3682W        W 5882  10.639   1.890  38.783  0.1214  0.0026 -0.0624
 3683W        W 5883   4.812   0.981  32.912 -0.1931  0.1309  0.2538
 3684W        W 5884   8.847   1.063   4.277  0.1214  0.5199 -0.1403
 3685W        W 5885   7.762   3.623   1.129 -0.0746  0.1377  0.1774
 3686W        W 5886   9.916   5.401  19.104 -0.0613 -0.1643  0.1127
 3687W        W 5887  18.333   5.518  42.852  0.3525  0.0294 -0.1876
 3688W        W 5888  18.570   4.351  31.856  0.2630 -0.2128 -0.2599
 3689W        W 5889  18.506   1.195  34.459 -0.3239 -0.1028 -0.0058
 3690W        W 5890  15.499   0.781  36.659  0.0839  0.1555 -0.1188
 3691W        W 5891   0.069   1.959   7.363  0.2646  0.0785 -0.2512
 3692W        W 5892  18.300   3.274  15.052 -0.0257  0.1449  0.1602
 3693W        W 5893  11.441   0.086  44.266  0.0923  0.0327  0.0365
 3694W        W 5894  16.282   1.955  13.255  0.1080 -0.1552  0.1998
 3695W        W 5895   2.857   4.255   3.811 -0.1074  0.1299 -0.2033
 3696W        W 5896   0.839   1.557  34.890  0.1026  0.1768 -0.1656
 3697W        W 5897  20.366   0.183  35.834 -0.0274  0.1281 -0.1196
 3698W        W 5898  11.261   3.644  11.520  0.2872 -0.0295  0.1849
 3699W        W 5899  15.855   1.371   0.888  0.0537  0.2209  0.1852
 3700W        W 5900   6.855   6.492  43.807 -0.2490  0.2107  0.1439
 3701W        W 5901   7.703   4.755  33.935 -0.1081  0.2643 -0.0871
 3702W        W 5902   2.759   1.311   7.616  0.1297 -0.1045  0.1228
 3703W        W 5903  16.378   0.269  29.663 -0.1063  0.0424 -0.0878
 3704W        W 5904   3.927   2.216  31.714  0.3996  0.0801  0.0562
 3705W        W 5905   8.217   3.517  25.086 -0.2731  0.0063  0.2332
 3706W        W 5906  20.046   0.770   3.494 -0.2353 -0.0992 -0.1790
 3707W        W 5907  20.749   5.309   7.747 -0.2905  0.2877 -0.2528
 3708W        W 5908   8.520   3.043  17.429  0.0546  0.1681  0.1065
 3709W        W 5909  20.998   3.069  41.711  0.0746 -0.1545  0.3450
 3710W        W 5910   9.048   6.071  32.944 -0.1277 -0.1537  0.0662
 3711W        W 5911   6.529   5.838  34.357 -0.1224  0.0140  0.1110
 3712W        W 5912   8.046   6.183   9.566  0.1928 -0.1978  0.0086
 3713W        W 5913   7.918   1.868  26.066 -0.0280 -0.0090  0.0779
 3714W        W 5914  19.742   3.112  43.096  0.0695  0.1976 -0.2607
 3715W        W 5915  12.059   5.292   3.506 -0.1122  0.0676 -0.1322
 3716W        W 5916   1.753   2.064  13.272 -0.3544 -0.1695  0.0925
 3717W        W 5917  17.522   1.421  11.726 -0.3413  0.2802 -0.0158
 3718W        W 5918  13.579   1.173  29.295  0.1752 -0.2075  0.0519
 3719W        W 5919  18.549   4.939  35.521  0.1097  0.1067  0.3087
 3720W        W 5920  16.455   1.005  33.792  0.0462  0.1329 -0.3397
 3721W        W 5921   2.869   3.509  43.391  0.2415  0.1394  0.2378
 3722W        W 5922  13.162   1.577  40.468 -0.1650 -0.0677  0.1183
 3723W        W 5923   4.412   6.275   9.847 -0.3341 -0.0704  0.2043
 3724W        W 5924  15.053   3.053  11.662 -0.1941 -0.0302 -0.0531
 3725W        W 5925  11.049   1.518   0.603  0.1006  0.0018  0.3908
 3726W        W 5926   6.748   2.671   8.936  0.0428  0.0301  0.1958
 3727W        W 5927  11.036   6.603  13.327  0.0255  0.0598 -0.0562
 3728W        W 5928   8.553   2.705  33.678  0.0131 -0.0189 -0.1468
 3729W        W 5929  14.490   4.394  19.701 -0.2437 -0.0189  0.1589
 3730W        W 5930  18.996   5.438  15.846 -0.3258  0.2183  0.0977
 3731W        W 5931  13.079   2.355  35.392 -0.2392  0.3897 -0.1865
 3732W        W 5932   0.800   1.727  27.094  0.0060 -0.1684 -0.1475
 3733W        W 5933  10.860   2.071  29.735  0.0626 -0.2373 -0.2092
 3734W        W 5934   4.050   1.624  27.198  0.0058 -0.0513  0.0111
 3735W        W 5935  13.192   3.285   5.348  0.0113  0.0391 -0.0017
 3736W        W 5936   0.288   3.932  44.972 -0.3491 -0.1155 -0.2060
 3737W        W 5937   8.063   4.107  38.739  0.1534  0.2777 -0.4432
 3738W        W 5938   4.162   2.618  11.333 -0.1628 -0.1488  0.0752
 3739W        W 5939  12.869   1.216   6.740 -0.1561 -0.0156 -0.1319
 3740W        W 5940   7.095   1.314  10.989 -0.0342 -0.0257  0.0681
 3741W        W 5941  20.028   5.896  12.355  0.0355  0.3445  0.2527
 3742W        W 5942   5.430   4.769   4.849 -0.0788 -0.2314 -0.2176
 3743W        W 5943   6.925   0.690   6.661  0.3152  0.0623  0.0998
 3744W        W 5944  11.690   3.306  11.252 -0.0013 -0.3320 -0.3057
 3745W        W 5945  10.000   3.178   6.166 -0.0442 -0.1063  0.0021
 3746W        W 5946  11.840   1.009  12.516 -0.0979 -0.1809  0.0339
 3747W        W 5947  18.009   5.490  13.475  0.0003  0.0648  0.1021
 3748W        W 5948   3.487   5.498  28.301  0.1644  0.1740 -0.0699
 3749W        W 5949  18.653   3.829  43.980  0.0880  0.2786 -0.1634
 3750W        W 5950  17.286   4.791   4.504  0.1925 -0.0018  0.0401
 3751W        W 5951  14.721   6.154  19.253  0.0551 -0.0696 -0.2782
 3752W        W 5952  16.008   5.120  31.879  0.0437  0.1870 -0.2135
 3753W        W 5953  10.367   1.844  13.784  0.0882  0.1530 -0.1028
 3754W        W 5954  13.802   4.205  14.062  0.0401 -0.2602  0.1134
 3755W        W 5955   2.960   3.714  12.203 -0.0698  0.3025 -0.1280
 3756W        W 5956   3.319   4.566   4.475 -0.1841  0.0110  0.0313
 3757W        W 5957  18.643   1.521  39.647  0.1984 -0.0045 -0.1573
 3758W        W 5958   3.883   2.083  40.387 -0.1175 -0.0604 -0.0895
 3759W        W 5959   6.906   5.694  32.413  0.2617  0.1210 -0.2228
 3760W        W 5960   7.921   1.039  35.210  0.1091  0.0602 -0.0625
 3761W        W 5961  15.566   5.729  37.455  0.0091  0.0545 -0.0412
 3762W        W 5962  14.668   3.832  19.125 -0.1330  0.0448 -0.2734
 3763W        W 5963  19.196   1.571  27.676  0.1432 -0.0289 -0.1550
 3764W        W 5964   0.215   4.055   6.113 -0.1505 -0.1748  0.0329
 3765W        W 5965   7.774   4.011  38.302 -0.0668 -0.1766  0.4284
 3766W        W 5966   8.305   4.765  12.656 -0.2451 -0.3692 -0.0320
 3767W        W 5967   0.840   5.438   9.505  0.2753  0.0228 -0.1310
 3768W        W 5968   2.402   2.455  37.942 -0.0498  0.0099 -0.4145
 3769W        W 5969   3.221   5.402   4.719 -0.0301  0.1984  0.0307
 3770W        W 5970  10.072   4.702  17.865 -0.1490  0.0594 -0.2384
 3771W        W 5971  18.083   5.465  43.538  0.1723 -0.2219 -0.4506
 3772W        W 5972  12.717   5.313   0.790 -0.1297 -0.0929  0.0977
 3773W        W 5973  17.531   6.418   1.915  0.1389  0.0178  0.0101
 3774W        W 5974   4.756   4.908  31.500 -0.3521  0.1364 -0.1467
 3775W        W 5975  12.656   3.101  13.065 -0.0489  0.2001  0.1780
 3776W        W 5976  16.833   6.051   0.963 -0.3357  0.0760 -0.0092
 3777W        W 5977  21.170   2.781  13.579 -0.2979  0.0273 -0.3495
 3778W        W 5978  13.857   2.483   9.360  0.1717 -0.2952  0.1264
 3779W        W 5979  19.882   1.033  11.682  0.2757  0.0524 -0.3003
 3780W        W 5980   9.015   3.812   3.147  0.1155  0.2026 -0.0297
 3781W        W 5981  17.937   5.370  38.494  0.0246 -0.1465  0.3172
 3782W        W 5982   0.317   2.645  37.634  0.0566 -0.2578 -0.1391
 3783W        W 5983   9.644   1.432  37.858  0.2035 -0.0607  0.0248
 3784W        W 5984   6.967   1.874   3.889  0.3372  0.0558 -0.3475
 3785W        W 5985   0.952   1.408  43.266 -0.0559  0.1146 -0.3374
 3786W        W 5986  17.259   0.957  12.225 -0.0384 -0.0325 -0.0550
 3787W        W 5987  10.194   3.515   8.719  0.2295  0.3200 -0.1632
 3788W        W 5988  16.332   0.635  30.831 -0.0774  0.0002 -0.0218
 3789W        W 5989  16.633   0.938  39.330 -0.0956 -0.2672  0.2517
 3790W        W 5990  16.987   2.717  31.486 -0.0546 -0.1380  0.4086
 3791W        W 5991   6.111   3.305   8.570  0.0239  0.1619  0.0255
 3792W        W 5992  14.734   2.649   3.492 -0.0396 -0.0110 -0.0729
 3793W        W 5993  11.117   2.052  20.074 -0.1081 -0.0944  0.2355
 3794W        W 5994  11.218   2.853  43.067  0.1609  0.3286  0.0617
 3795W        W 5995  15.461   5.025  17.802  0.1489  0.1824 -0.1883
 3796W        W 5996  17.965   2.031  36.372  0.0342 -0.2209 -0.0737
 3797W        W 5997   4.988   5.971  42.632  0.1031  0.0742  0.0666
 3798W        W 5998   0.435   2.368  40.233 -0.0075  0.0352  0.0531
 3799W        W 5999   6.594   5.758  39.382  0.0370 -0.0850  0.2567
 3800W        W 6000   2.466   4.001  42.707 -0.1210 -0.1638  0.1163
 3801W        W 6001  20.099   5.020  44.246  0.1868  0.2905 -0.2062
 3802W        W 6002  16.182   1.677   6.877 -0.0245 -0.2141  0.0933
 3803W        W 6003  13.239   5.761   2.351  0.0057  0.1090 -0.0415
 3804W        W 6004   1.862   1.353   3.623  0.1956  0.0417  0.2233
 3805W        W 6005   7.486   6.335  40.304  0.0751  0.4066 -0.1666
 3806W        W 6006   8.418   5.164  42.588  0.0080  0.0031  0.0195
 3807W        W 6007   8.470   5.081  32.790  0.0892  0.0573 -0.1823
 3808W        W 6008   5.234   1.778   3.451 -0.2634  0.4383 -0.1331
 3809W        W 6009   6.786   1.866  43.917 -0.0600 -0.2835 -0.0632
 3810W        W 6010  14.239   3.007  22.492  0.0045 -0.0671 -0.2538
 3811W        W 6011  18.263   6.396   1.891  0.1422  0.0818 -0.2211
 3812W        W 6012   9.714   5.421  34.050  0.2091  0.1216  0.2358
 3813W        W 6013   3.767   6.407   0.492  0.0428  0.2766 -0.1381
 3814W        W 6014   7.278   1.371   8.481  0.3248  0.0978  0.6077
 3815W        W 6015   4.236   3.569  42.858 -0.2419 -0.2581 -0.0222
 3816W        W 6016   8.420   2.858  26.830  0.0048 -0.1259 -0.3122
 3817W        W 6017   4.465   2.975  38.519  0.0720 -0.0689 -0.0248
 3818W        W 6018  16.435   2.528  21.887 -0.1039 -0.1436 -0.0317
 3819W        W 6019  15.397   5.196  29.399 -0.1072  0.4565 -0.1231
 3820W        W 6020   7.734   2.282  33.576 -0.2952  0.0722 -0.1050
 3821W        W 6021  16.717   4.851   0.993 -0.0107  0.0606 -0.1061
 3822W        W 6022   6.747   2.990   0.294  0.1356 -0.2013  0.0679
 3823W        W 6023  20.615   0.879   3.222 -0.1502  0.0662  0.1097
 3824W        W 6024   6.765   5.712  10.877 -0.0738 -0.0516 -0.2762
 3825W        W 6025   7.419   0.877   1.485 -0.0653 -0.1644  0.1754
 3826W        W 6026  12.330   0.265  32.708 -0.0364  0.0654  0.0701
 3827W        W 6027   1.567   5.035   6.538 -0.0973 -0.1149 -0.1403
 3828W        W 6028   2.863   3.473  40.105 -0.1436 -0.2223 -0.3346
 3829W        W 6029  16.675   1.465  29.628  0.0923 -0.1249 -0.0363
 3830W        W 6030  16.177   4.630   6.793  0.3254  0.0547  0.0878
 3831W        W 6031   7.015   0.422  30.802  0.0981  0.0806 -0.0026
 3832W        W 6032   7.127   3.532  26.453 -0.0529 -0.0674 -0.0582
 3833W        W 6033   8.282   3.744  16.828  0.1987  0.4394 -0.1077
 3834W        W 6034  17.678   0.941  19.273  0.1224 -0.1299  0.0324
 3835W        W 6035  17.244   2.734  41.920  0.0741 -0.0400 -0.1678
 3836W        W 6036   8.081   3.521  26.451  0.0844 -0.1563 -0.5440
 3837W        W 6037   8.814   4.503  36.191  0.0942  0.1767  0.1085
 3838W        W 6038   1.792   6.274  23.535  0.1728 -0.0221 -0.0847
 3839W        W 6039  13.293   4.417   8.243  0.0490  0.0021 -0.0146
 3840W        W 6040  14.376   5.848  11.914  0.1987 -0.2443  0.0035
 3841W        W 6041  15.099   3.858  23.395 -0.0852 -0.0565 -0.1454
 3842W        W 6042  17.660   1.105  10.989 -0.0521 -0.0977  0.1165
 3843W        W 6043  20.372   0.218  36.993 -0.1570  0.1183 -0.0238
 3844W        W 6044   0.583   0.699  27.557 -0.2859  0.1139  0.3902
 3845W        W 6045  18.653   6.074  31.998  0.1264 -0.4311  0.0589
 3846W        W 6046  13.742   4.478   8.573  0.2505 -0.0458  0.0893
 3847W        W 6047  18.924   6.166  15.495  0.1978 -0.1661  0.2044
 3848W        W 6048  13.551   2.574  35.316 -0.2223 -0.2613 -0.0937
 3849W        W 6049  11.187   1.750   8.764  0.0866  0.2390 -0.0276
 3850W        W 6050  10.046   0.046  40.514  0.1124  0.2268  0.0358
 3851W        W 6051   1.256   0.839  41.103  0.3290 -0.2412  0.0011
 3852W        W 6052   1.559   1.511  39.203  0.2631  0.1191  0.0709
 3853W        W 6053  20.029   1.246  34.987 -0.2282 -0.2112  0.1268
 3854W        W 6054  16.137   2.201  32.034  0.2298 -0.0841  0.0730
 3855W        W 6055   7.278   5.894   5.572  0.1971 -0.0442  0.2640
 3856W        W 6056   5.679   6.384   4.715 -0.0112 -0.3280  0.0948
 3857W        W 6057  15.911   6.034  40.784 -0.0229 -0.0061  0.0726
 3858W        W 6058   5.998   5.444  36.004 -0.1228  0.4273  0.3199
 3859W        W 6059   6.448   1.652  10.741  0.0819 -0.2544  0.0385
 3860W        W 6060   4.243   4.528   8.940  0.0951  0.0618  0.1712
 3861W        W 6061   7.756   2.200  10.801 -0.1354 -0.1257  0.1892
 3862W        W 6062   4.931   3.330  25.713 -0.1444  0.0595  0.1788
 3863W        W 6063   6.487   1.633  35.943  0.0248 -0.0922  0.0607
 3864W        W 6064   0.618   1.619   2.554 -0.1502  0.0866 -0.1197
 3865W        W 6065  12.043   2.477   7.859 -0.0717  0.0841 -0.0433
 3866W        W 6066  15.807   5.682   2.557  0.2125 -0.0985 -0.2242
 3867W        W 6067   1.249   4.361   3.013 -0.1366  0.0030 -0.2551
 3868W        W 6068  10.473   3.575  45.041  0.1334  0.0759  0.0031
 3869W        W 6069   6.700   2.087  37.811 -0.3032  0.1471  0.3725
 3870W        W 6070   6.715   5.357  34.255 -0.3627  0.3045 -0.0192
 3871W        W 6071   9.334   0.339  35.724  0.4695  0.3629 -0.1743
 3872W        W 6072  10.652   6.122  13.426 -0.2101 -0.2000  0.2265
 3873W        W 6073  17.589   0.249  42.651  0.1443  0.0443 -0.1605
 3874W        W 6074  11.815   1.558  34.235  0.3570  0.1506 -0.4668
 3875W        W 6075   5.343   3.668  13.363  0.0465 -0.3026 -0.2532
 3876W        W 6076  10.859   2.615  35.655  0.2535  0.0559 -0.1055
 3877W        W 6077   7.930   5.844  37.378  0.1104  0.0062  0.3280
 3878W        W 6078   7.074   5.858   6.182 -0.0120 -0.2836  0.0396
 3879W        W 6079  14.720   5.331  37.155 -0.3076 -0.0315 -0.1085
 3880W        W 6080   2.323   1.690   4.042  0.2133 -0.3373 -0.2092
 3881W        W 6081  12.572   3.212  31.362 -0.0918 -0.0398  0.0925
 3882W        W 6082  13.682   3.042  35.187 -0.0805 -0.0892 -0.1328
 3883W        W 6083  11.535   4.458   3.578 -0.0115 -0.1338  0.0882
 3884W        W 6084  19.432   4.072  34.964  0.0505 -0.1133  0.1465
 3885W        W 6085   3.968   2.571  20.415  0.1158  0.0520 -0.0131
 3886W        W 6086  19.303   5.897  11.325  0.4670  0.2044 -0.0950
 3887W        W 6087   3.348   1.062   8.880 -0.2006 -0.2062  0.1279
 3888W        W 6088   5.218   5.271  36.952  0.0240  0.1541  0.0310
 3889W        W 6089   8.463   4.300  36.673 -0.1348 -0.3309 -0.1686
 3890W        W 6090  10.594   4.395   7.931  0.0357  0.0370  0.1960
 3891W        W 6091  10.077   3.876  42.375  0.0616  0.4022  0.0539
 3892W        W 6092  12.107   6.312   4.765 -0.0725  0.2356  0.2058
 3893W        W 6093   8.343   1.282   8.375  0.1253  0.0242  0.0334
 3894W        W 6094  17.204   0.910  41.902  0.2185 -0.3190  0.1092
 3895W        W 6095  16.737   4.855  17.022 -0.1601  0.0299  0.0877
 3896W        W 6096   9.015   0.592  13.461 -0.1956  0.1359  0.1028
 3897W        W 6097  18.945   0.508  10.488 -0.3390 -0.1786  0.0761
 3898W        W 6098   7.210   3.694  10.881  0.0990  0.0250 -0.0832
 3899W        W 6099  19.103   5.818   0.200  0.2394 -0.1169 -0.2988
 3900W        W 6100   2.675   3.583   8.124  0.1746  0.3249 -0.0104
 3901W        W 6101  20.635   1.506   4.776  0.0859 -0.0975  0.1275
 3902W        W 6102   2.795   3.439  45.090  0.1534 -0.2965 -0.2234
 3903W        W 6103  17.371   3.278   0.738 -0.2304 -0.0856 -0.0706
 3904W        W 6104   9.860   6.534  42.277 -0.1602  0.1152  0.3097
 3905W        W 6105   1.793   5.024  27.823  0.0490  0.1008  0.0394
 3906W        W 6106  13.973   3.990  33.470  0.0690 -0.3766  0.0609
 3907W        W 6107  20.361   5.184  39.215  0.1784  0.0061  0.0663
 3908W        W 6108  17.198   6.368  11.483 -0.0257 -0.0733 -0.1164
 3909W        W 6109   6.150   3.345  12.203 -0.1787  0.3357  0.0894
 3910W        W 6110  19.466   5.416  16.081  0.2103  0.1514 -0.0216
 3911W        W 6111  16.076   5.381   4.038 -0.0367  0.0002  0.1205
 3912W        W 6112   3.810   0.625  34.592 -0.1407  0.2564 -0.0287
 3913W        W 6113   4.323   2.367   8.114 -0.0168 -0.0714 -0.0623
 3914W        W 6114   8.042   6.606  30.135 -0.1003  0.0711 -0.0586
 3915W        W 6115  18.986   6.276  40.126  0.2102  0.1270 -0.0999
 3916W        W 6116   5.411   4.955  35.760 -0.0145  0.1391 -0.2300
 3917W        W 6117   4.592   1.321  11.927  0.0620  0.1755  0.3284
 3918W        W 6118  11.891   3.986  33.473 -0.4183 -0.1799 -0.3970
 3919W        W 6119  11.295   0.785   2.282 -0.0234 -0.1641 -0.1098
 3920W        W 6120  19.490   4.406  30.600  0.2343 -0.1626  0.3200
 3921W        W 6121   4.697   6.435  38.526  0.0726 -0.1099 -0.3979
 3922W        W 6122  17.802   3.615  37.948  0.0993 -0.1246 -0.0021
 3923W        W 6123  13.418   0.742  29.184 -0.1245 -0.2212  0.2155
 3924W        W 6124  12.819   0.483  40.770  0.1522  0.0178  0.0477
 3925W        W 6125  11.372   0.291  15.465  0.2731 -0.1352  0.3373
 3926W        W 6126  21.034   1.081  10.386 -0.0146 -0.1067  0.1632
 3927W        W 6127  13.593   2.707  18.517 -0.0346  0.0190 -0.1390
 3928W        W 6128   3.923   2.071  27.987  0.2658 -0.2051  0.0494
 3929W        W 6129   9.485   5.663  14.417  0.0363 -0.2780  0.0227
 3930W        W 6130  11.194   0.907  19.192 -0.0274  0.0555  0.1517
 3931W        W 6131   0.505   5.365   6.764  0.0470 -0.0973  0.0902
 3932W        W 6132  14.979   1.057   2.918  0.0225  0.3609 -0.1601
 3933W        W 6133   2.331   1.534  25.446  0.0865  0.3366  0.1517
 3934W        W 6134   7.532   6.503  29.587  0.2486  0.0394 -0.0628
 3935W        W 6135  16.788   0.032  19.460  0.2164  0.0128  0.2005
 3936W        W 6136  17.572   6.168  30.705 -0.4013 -0.0923  0.0120
 3937W        W 6137   4.425   0.148   3.150  0.3012  0.1735  0.2343
 3938W        W 6138  15.631   4.513   1.007 -0.3330  0.1403 -0.1500
 3939W        W 6139   1.158   2.935  27.165 -0.0940  0.3281 -0.0599
 3940W        W 6140  17.081   5.458  35.279  0.1295 -0.0125 -0.0499
 3941W        W 6141   8.336   5.358  34.011  0.1369 -0.0225 -0.0650
 3942W        W 6142   3.446   3.062  30.383 -0.1943  0.1924 -0.3895
 3943W        W 6143   3.302   2.357  24.855  0.2582 -0.1340  0.0652
 3944W        W 6144   3.760   4.333  30.127 -0.1679 -0.1775 -0.0114
 3945W        W 6145  16.229   0.341  37.800 -0.0384 -0.1501  0.0641
 3946W        W 6146  13.865   5.557  30.032  0.2514 -0.1238  0.2613
 3947W        W 6147   3.804   0.847  26.495  0.2103  0.0237 -0.0860
 3948W        W 6148  11.532   0.958  33.693  0.1349 -0.2656 -0.1866
 3949W        W 6149  15.949   3.714   4.405 -0.1050 -0.2476 -0.0434
 3950W        W 6150  11.510   3.896  40.076  0.1114  0.2540 -0.0662
 3951W        W 6151  14.184   5.023  42.936  0.4918  0.1751  0.2537
 3952W        W 6152  17.943   3.563   4.787 -0.1518  0.0286 -0.0651
 3953W        W 6153  19.214   3.285  18.864  0.0982 -0.0230  0.2459
 3954W        W 6154  16.120   6.078  29.756  0.2483 -0.1170  0.0521
 3955W        W 6155   3.125   4.637  29.187 -0.0848 -0.0141  0.0848
 3956W        W 6156   5.243   0.354  11.281  0.0031 -0.0979 -0.0803
 3957W        W 6157  16.016   4.403  14.904 -0.0906 -0.0244  0.0599
 3958W        W 6158   9.682   4.185  13.320 -0.1379 -0.2259  0.1527
 3959W        W 6159   4.339   4.417   6.209  0.1017 -0.0004  0.0228
 3960W        W 6160  14.315   5.380  33.048 -0.2926 -0.1635  0.0082
 3961W        W 6161   7.559   2.391  11.577 -0.3687 -0.1210  0.1790
 3962W        W 6162  12.580   4.599  31.236  0.0774 -0.2041  0.3267
 3963W        W 6163   5.680   3.451  41.062 -0.1788 -0.3668 -0.1400
 3964W        W 6164  18.515   4.221  15.401 -0.2619 -0.1244 -0.1495
 3965W        W 6165  13.128   4.089  31.202  0.3921 -0.0156 -0.0030
 3966W        W 6166  20.602   4.489   5.146 -0.0874 -0.1919 -0.0947
 3967W        W 6167  10.165   2.466   7.894  0.1055 -0.2097 -0.2392
 3968W        W 6168   6.541   5.943  25.788  0.3332  0.2206  0.3418
 3969W        W 6169   8.350   1.382   4.948 -0.1236 -0.0777  0.0050
 3970W        W 6170   6.678   3.991   6.705 -0.0914  0.1119 -0.2420
 3971W        W 6171  10.372   1.844  10.587 -0.0073 -0.0242 -0.2010
 3972W        W 6172  21.084   5.127   8.567 -0.1168 -0.1005 -0.0679
 3973W        W 6173   8.456   0.167   2.411  0.0611  0.0833 -0.0900
 3974W        W 6174  13.115   5.269  17.953 -0.2421  0.2703 -0.1314
 3975W        W 6175  13.132   3.598  38.147 -0.0864  0.1843 -0.0589
 3976W        W 6176   9.272   3.171  41.461 -0.3296  0.0904  0.1510
 3977W        W 6177   8.030   0.476  10.142 -0.3469 -0.2122 -0.0206
 3978W        W 6178   2.297   5.737  40.863  0.0137  0.0937  0.1636
 3979W        W 6179   3.482   2.881  31.651  0.5460  0.0217 -0.2242
 3980W        W 6180   6.281   3.901  13.181 -0.1967  0.2200  0.3042
 3981W        W 6181  12.925   5.699  22.238  0.2785  0.0631 -0.3600
 3982W        W 6182  17.968   4.981  10.124 -0.2026  0.0053 -0.1919
 3983W        W 6183   0.215   2.671  14.122 -0.1583  0.2215  0.0498
 3984W        W 6184   3.727   4.662  21.697  0.0468  0.0459  0.1527
 3985W        W 6185  20.656   4.323  11.549 -0.1054  0.0258 -0.0111
 3986W        W 6186   1.278   3.947  41.504  0.0187 -0.1433 -0.2581
 3987W        W 6187   8.347   2.737   4.679 -0.1086  0.2941 -0.1268
 3988W        W 6188  20.590   3.659  42.762  0.2896  0.0864  0.1327
 3989W        W 6189  16.185   3.185  38.634 -0.2012 -0.0703 -0.1574
 3990W        W 6190   7.935   6.545  16.411  0.2676  0.5018  0.0572
 3991W        W 6191   5.318   4.688  21.881 -0.0943 -0.1709  0.0240
 3992W        W 6192   4.060   1.811  20.865  0.2116  0.0425 -0.3294
 3993W        W 6193  10.786   6.034  29.897  0.0114  0.4122 -0.0943
 3994W        W 6194   3.774   2.302  43.716 -0.0320  0.1896 -0.3181
 3995W        W 6195  15.452   3.239  41.776  0.2929 -0.0163  0.1524
 3996W        W 6196   1.161   3.097  31.449  0.1674  0.1627 -0.0163
 3997W        W 6197   1.297   5.608  13.819 -0.0664 -0.1173 -0.2053
 3998W        W 6198   6.674   1.921  44.592  0.2031  0.1899  0.0048
 3999W        W 6199   0.943   4.753   3.069 -0.1149 -0.0739  0.1325
 4000W        W 6200  11.798   0.167  30.777  0.0167  0.0530  0.2824
 4001W        W 6201  11.146   5.403  27.326  0.1267 -0.0478  0.0879
 4002W        W 6202  14.378   4.675  35.234 -0.0960 -0.0025 -0.0569
 4003W        W 6203   8.828   1.258  40.947 -0.0905  0.0787 -0.0563
 4004W        W 6204  13.674   5.041  29.783  0.0470  0.1414 -0.2705
 4005W        W 6205  15.235   5.677  38.832 -0.0949 -0.3038 -0.1488
 4006W        W 6206   0.573   2.846  31.057  0.0156 -0.1433  0.0795
 4007W        W 6207   0.713   4.264  40.905  0.2479 -0.2756 -0.0668
 4008W        W 6208   9.933   5.856  44.598 -0.2459 -0.0609  0.2697
 4009W        W 6209   6.045   4.000  10.593 -0.2191  0.3012 -0.1642
 4010W        W 6210  17.240   2.843  44.541 -0.1557  0.1824 -0.1157
 4011W        W 6211  15.676   5.940  19.010  0.1428 -0.1846 -0.0318
 4012W        W 6212  19.066   1.731  32.090  0.1387 -0.1752  0.3236
 4013W        W 6213  16.574   5.109  11.569  0.1611  0.2663 -0.0680
 4014W        W 6214  12.046   2.892  18.131 -0.2203 -0.0842 -0.0206
 4015W        W 6215   3.599   2.815  34.174  0.2965 -0.1788  0.0928
 4016W        W 6216  15.394   4.623  20.063  0.1985 -0.0511 -0.4810
 4017W        W 6217   2.552   1.755  31.369 -0.0406  0.1930  0.0580
 4018W        W 6218  15.114   3.695   5.693  0.0690  0.3278  0.0813
 4019W        W 6219  11.565   1.009  31.269 -0.0988 -0.1569 -0.2405
 4020W        W 6220   5.078   1.700   1.506 -0.2168  0.1344 -0.0875
 4021W        W 6221   0.500   3.650  37.007 -0.1459  0.0135 -0.0067
 4022W        W 6222  11.299   2.266   3.140  0.1872 -0.3626  0.2086
 4023W        W 6223  13.209   6.351   9.983 -0.2808  0.2649 -0.1313
 4024W        W 6224  17.766   4.021  39.245  0.0255  0.0326  0.0667
 4025W        W 6225  11.293   4.731  36.503  0.3087  0.1352 -0.0730
 4026W        W 6226   4.303   4.839  31.325  0.0670 -0.2439  0.1603
 4027W        W 6227   6.080   2.860  29.638  0.0136 -0.0371 -0.2279
 4028W        W 6228  11.765   5.102  35.479 -0.0015 -0.1518 -0.2520
 4029W        W 6229   2.616   0.956  30.814  0.1170 -0.0204 -0.0726
 4030W        W 6230  16.341   5.900  10.034  0.0410  0.1773  0.0930
 4031W        W 6231   8.297   6.402   7.570 -0.0361 -0.1192  0.0214
 4032W        W 6232  17.643   2.773  29.265  0.0381 -0.0674  0.1730
 4033W        W 6233  10.854   3.424  39.647 -0.2841  0.1715  0.1263
 4034W        W 6234  17.241   5.563  31.328 -0.4335  0.1153 -0.1128
 4035W        W 6235   2.868   5.301   7.228 -0.0380 -0.0539 -0.2023
 4036W        W 6236   8.830   5.135  44.929 -0.0116 -0.0369 -0.0259
 4037W        W 6237   7.123   5.840   4.611  0.1135  0.2618  0.1212
 4038W        W 6238   1.375   2.631   9.972  0.2102 -0.0176  0.0138
 4039W        W 6239  21.022   4.502  29.679 -0.1109  0.1641 -0.0495
 4040W        W 6240  11.366   1.986  10.746  0.2752  0.3775  0.0093
 4041W        W 6241  12.223   0.102  14.923 -0.0461 -0.3505 -0.1256
 4042W        W 6242   8.860   4.398  43.610  0.1261 -0.0472  0.0014
 4043W        W 6243  16.244   6.018  31.950  0.0084 -0.1842 -0.0570
 4044W        W 6244  14.784   1.275  19.223 -0.0832  0.0751  0.0425
 4045W        W 6245  14.277   2.537  39.072 -0.2941 -0.1509 -0.0082
 4046W        W 6246  14.704   3.726  20.956 -0.2160 -0.1393  0.1678
 4047W        W 6247   0.514   6.344  30.459  0.1398  0.1405 -0.0447
 4048W        W 6248   0.808   0.370  35.764 -0.4869 -0.2198  0.0953
 4049W        W 6249  12.670   4.879  10.481 -0.0991  0.1531  0.0504
 4050W        W 6250  15.701   3.036  38.882 -0.0869  0.1324 -0.2015
 4051W        W 6251  18.580   4.957  15.477 -0.1502  0.0410  0.0959
 4052W        W 6252  13.141   5.565  33.102 -0.0656 -0.3059 -0.0092
 4053W        W 6253  15.501   2.805  35.331 -0.0653 -0.0769 -0.1810
 4054W        W 6254   0.098   4.899  31.010  0.2637  0.2107 -0.1110
 4055W        W 6255  19.829   0.598  34.452 -0.2365  0.0921 -0.1176
 4056W        W 6256   2.031   2.144  41.859  0.0822 -0.0352 -0.0222
 4057W        W 6257  14.277   1.988  33.036  0.2598  0.0474  0.1209
 4058W        W 6258   2.063   1.422  22.162  0.0042  0.1614 -0.3569
 4059W        W 6259   1.234   5.414   1.425  0.0696 -0.0288 -0.0262
 4060W        W 6260  11.827   2.214  10.447 -0.2122 -0.1061 -0.1107
 4061W        W 6261  16.666   1.962  36.499  0.2019  0.0239  0.2537
 4062W        W 6262  15.382   0.066  30.634  0.1034 -0.1349 -0.1916
 4063W        W 6263   7.164   0.753  13.013 -0.2632 -0.1906 -0.0518
 4064W        W 6264  10.051   0.766  39.288 -0.0084 -0.0725 -0.1654
 4065W        W 6265   0.967   4.749  28.256 -0.1723 -0.1226 -0.3080
 4066W        W 6266  20.343   4.578  32.471 -0.2129  0.1274 -0.0114
 4067W        W 6267   3.717   5.666  10.188  0.0903 -0.0671  0.0565
 4068W        W 6268  20.021   6.295  44.749  0.1540 -0.3285  0.0544
 4069W        W 6269  12.214   4.660   6.789 -0.1852  0.1529  0.0154
 4070W        W 6270  14.390   3.739  34.654 -0.1990 -0.0278 -0.0809
 4071W        W 6271  11.186   1.225   7.488 -0.3819  0.0608  0.0578
 4072W        W 6272  13.115   0.650  44.447 -0.1156  0.1241  0.0712
 4073W        W 6273  18.815   4.134  28.016  0.3432  0.0477 -0.0930
 4074W        W 6274  12.005   6.170  15.268 -0.1461 -0.1030 -0.0601
 4075W        W 6275  12.306   4.205  16.230 -0.1636  0.0721 -0.4100
 4076W        W 6276   0.372   5.430  29.323  0.6726  0.0817 -0.0507
 4077W        W 6277  18.166   3.204  43.126  0.0744  0.1560 -0.0932
 4078W        W 6278   7.984   0.781   5.703  0.2553 -0.0716 -0.0611
 4079W        W 6279   4.778   1.272  23.471 -0.0295 -0.1625  0.0052
 4080W        W 6280  15.280   2.799  32.329  0.1253 -0.1527  0.0124
 4081W        W 6281   7.088   5.125  24.362 -0.2719  0.1205  0.0336
 4082W        W 6282   6.282   0.392  39.727  0.0302  0.0562 -0.0998
 4083W        W 6283   4.139   4.163  32.733  0.2749 -0.2935  0.1415
 4084W        W 6284  16.937   4.839  33.472  0.0153  0.1038  0.1972
 4085W        W 6285  12.956   1.434   5.919 -0.1048 -0.1249  0.0835
 4086W        W 6286   1.113   1.000  25.468 -0.1353  0.0166 -0.1357
 4087W        W 6287  11.256   3.106  13.751 -0.1505  0.3693 -0.0659
 4088W        W 6288   8.459   0.335   6.758  0.0748 -0.1029  0.1582
 4089W        W 6289   0.005   2.070   1.901  0.1401  0.2760 -0.0987
 4090W        W 6290   2.696   2.570  39.460  0.0497 -0.0021 -0.2032
 4091W        W 6291   3.746   5.702  36.548 -0.0386  0.1857 -0.0105
 4092W        W 6292   0.718   5.511  41.420  0.0812 -0.0953  0.0850
 4093W        W 6293  11.022   5.884  37.511  0.1894  0.0177 -0.2659
 4094W        W 6294  11.483   4.131   8.692 -0.0257  0.2642  0.2498
 4095W        W 6295  10.346   6.368   4.119 -0.2386 -0.1525  0.0049
 4096W        W 6296   2.860   2.979  35.594  0.1150  0.0242  0.1172
 4097W        W 6297  12.366   0.529  38.831  0.0019  0.0053  0.0671
 4098W        W 6298  20.230   3.837  41.792  0.0166 -0.3441  0.1739
 4099W        W 6299   5.925   0.275   2.775 -0.3106  0.3638 -0.0261
 4100W        W 6300   8.592   4.863   1.571  0.0618 -0.1213 -0.2741
 4101W        W 6301  20.634   4.474  14.827 -0.0615  0.3754 -0.0801
 4102W        W 6302  16.074   5.118  16.650  0.2354  0.1597 -0.0717
 4103W        W 6303   7.428   4.566  11.787  0.0845  0.1403 -0.4764
 4104W        W 6304   5.785   0.884   2.061 -0.0607  0.1609 -0.0202
 4105W        W 6305   7.603   1.146   5.498  0.1376 -0.1317  0.0436
 4106W        W 6306  20.393   4.120  32.858  0.0195 -0.1083 -0.1076
 4107W        W 6307  13.463   0.160  31.116  0.0283 -0.0788 -0.2167
 4108W        W 6308   4.503   4.002  38.625 -0.1353 -0.0841 -0.0358
 4109W        W 6309  11.125   5.646  35.432  0.2851 -0.1067  0.0380
 4110W        W 6310   8.136   1.652  26.520 -0.0427 -0.0989 -0.1167
 4111W        W 6311  16.688   1.101  30.023 -0.0365 -0.1597 -0.1422
 4112W        W 6312  15.160   3.129  30.296 -0.0277 -0.1873  0.1032
 4113W        W 6313  10.502   5.180   0.676  0.2314  0.1447 -0.0730
 4114W        W 6314   0.813   3.861  39.964 -0.1935  0.0190  0.1726
 4115W        W 6315  12.160   4.530   6.248  0.0262 -0.5093  0.0674
 4116W        W 6316   8.486   3.018  33.265 -0.1439 -0.1405  0.1467
 4117W        W 6317   1.635   6.264   8.108  0.0619  0.1869  0.1355
 4118W        W 6318   6.424   0.655  12.768  0.2012  0.2403  0.0815
 4119W        W 6319  19.315   1.917  18.674 -0.2575 -0.0852 -0.0130
 4120W        W 6320   3.832   5.629  13.490 -0.0270 -0.0423  0.1372
 4121W        W 6321  10.056   1.649  31.730 -0.0493  0.1270  0.2930
 4122W        W 6322  14.339   3.608  10.307 -0.1265 -0.2353  0.1272
 4123W        W 6323  11.925   5.882  44.795 -0.0905  0.1002  0.0768
 4124W        W 6324   1.676   2.445  35.979  0.2589 -0.1311 -0.0393
 4125W        W 6325   3.326   2.314  26.924 -0.0645 -0.1066 -0.1778
 4126W        W 6326  10.826   1.205  11.376 -0.3363 -0.1229  0.0859
 4127W        W 6327  20.478   3.703   7.096 -0.0633  0.0832  0.0076
 4128W        W 6328  15.851   3.684  40.081 -0.2241  0.0305 -0.0175
 4129W        W 6329  16.007   1.350   1.633  0.1191 -0.0654  0.1153
 4130W        W 6330  17.593   1.675  10.937 -0.2661  0.1349  0.2428
 4131W        W 6331   4.460   5.420  41.420  0.0845 -0.3558  0.0663
 4132W        W 6332  12.707   6.127  12.333  0.2115  0.0490 -0.1687
 4133W        W 6333  15.520   2.162  16.176  0.1518  0.1922  0.3555
 4134W        W 6334   7.096   4.938  42.848 -0.1584  0.1771 -0.1409
 4135W        W 6335  12.328   1.508  41.504 -0.1809  0.0536  0.0433
 4136W        W 6336   5.188   4.950   9.985 -0.1302 -0.1109 -0.0672
 4137W        W 6337  11.259   0.161  38.555  0.2247  0.0568 -0.0352
 4138W        W 6338  20.798   1.150  40.140 -0.0055  0.1377 -0.0964
 4139W        W 6339  17.118   4.058  20.473 -0.0998  0.0004 -0.1516
 4140W        W 6340  17.284   4.833   7.262 -0.0521 -0.0007  0.0901
 4141W        W 6341   8.212   5.631   7.908 -0.1883 -0.1623 -0.0444
 4142W        W 6342  18.636   1.248  12.300 -0.1950 -0.0111  0.2652
 4143W        W 6343  19.658   6.184   0.320 -0.2469  0.1004 -0.0214
 4144W        W 6344  13.797   1.928  15.373  0.2241 -0.1650 -0.2126
 4145W        W 6345  20.992   4.322   1.889 -0.0445 -0.1445  0.0592
 4146W        W 6346   1.278   1.988  42.523 -0.1699  0.0683 -0.1110
 4147W        W 6347   3.663   6.177  34.750  0.2090 -0.1532  0.1786
 4148W        W 6348   0.350   4.150  14.929 -0.0604 -0.0263 -0.1074
 4149W        W 6349  18.866   2.224   7.486 -0.0250 -0.2236  0.0616
 4150W        W 6350  17.383   4.032  12.799 -0.0020  0.1457 -0.1966
 4151W        W 6351   8.859   4.789  10.563 -0.0022  0.3879 -0.1440
 4152W        W 6352   0.674   3.754  38.840 -0.1414  0.1485 -0.1757
 4153W        W 6353  18.237   1.100   2.071 -0.1301  0.2370  0.1412
 4154W        W 6354  21.152   6.186  11.558 -0.2504 -0.1957 -0.0762
 4155W        W 6355   3.222   2.413  43.649  0.0323 -0.3160 -0.1877
 4156W        W 6356   1.848   6.267   9.170 -0.1182 -0.0731 -0.2065
 4157W        W 6357   5.678   0.821   0.049 -0.1017 -0.5350  0.1441
 4158W        W 6358  14.297   1.559  30.672 -0.2342  0.1692  0.1725
 4159W        W 6359   8.041   4.516  12.276  0.2020 -0.1636  0.2011
 4160W        W 6360   8.438   1.388  27.751  0.4439 -0.0469 -0.1533
 4161W        W 6361   6.674   5.120  39.440  0.2382 -0.1043  0.1920
 4162W        W 6362   6.314   5.499  34.019 -0.1307  0.1318  0.0445
 4163W        W 6363  16.928   0.273  31.677 -0.2094  0.2860 -0.0662
 4164W        W 6364  11.330   0.431  31.927  0.0233  0.0009 -0.0526
 4165W        W 6365  16.788   0.893  13.435 -0.1353 -0.0404 -0.0423
 4166W        W 6366  17.995   0.847  16.746 -0.2306  0.4403 -0.2756
 4167W        W 6367   1.086   3.435   3.447 -0.1696 -0.2320 -0.1352
 4168W        W 6368  14.244   1.494  17.913  0.3066 -0.1260 -0.0976
 4169W        W 6369   7.263   5.566   9.837 -0.0579  0.2355 -0.0197
 4170W        W 6370  20.143   1.908  40.799  0.2054 -0.0345 -0.0436
 4171W        W 6371  19.267   6.130  31.143  0.0716  0.0659  0.2562
 4172W        W 6372  12.524   3.127   2.032 -0.1916 -0.0712  0.2447
 4173W        W 6373   4.458   2.684  12.295  0.2928 -0.0686 -0.1967
 4174W        W 6374   7.393   4.534  39.222  0.1256 -0.0631  0.0109
 4175W        W 6375  16.262   4.139   0.640 -0.0608 -0.0580  0.0569
 4176W        W 6376  17.163   6.334   3.872  0.1912  0.0794  0.0425
 4177W        W 6377   4.160   3.596   4.319  0.1704  0.1270  0.0282
 4178W        W 6378  18.738   0.014  40.503  0.4851 -0.0378  0.0112
 4179W        W 6379   8.012   1.014  10.507 -0.1484  0.1312  0.0987
 4180W        W 6380   2.631   4.662  10.310 -0.1892  0.0388  0.2209
 4181W        W 6381   6.948   1.247  27.858  0.1438  0.0081  0.0394
 4182W        W 6382   5.761   4.371   8.267 -0.0783  0.0943  0.1019
 4183W        W 6383  12.726   2.722  23.386  0.1539  0.0944 -0.3239
 4184W        W 6384  13.788   5.804   3.181 -0.0247  0.2698 -0.0049
 4185W        W 6385  20.145   4.595  43.845 -0.1673  0.1777  0.2088
 4186W        W 6386  16.492   1.124   7.445 -0.0171 -0.0465 -0.1184
 4187W        W 6387   7.928   5.407   8.303  0.1304  0.2043  0.0396
 4188W        W 6388  12.100   1.117   7.955  0.1282  0.1024 -0.0896
 4189W        W 6389   2.355   4.498  32.814 -0.0371 -0.2697  0.2350
 4190W        W 6390  19.961   4.216   5.821 -0.2277 -0.2768 -0.0349
 4191W        W 6391   2.813   1.772  30.920  0.1891 -0.2599  0.2041
 4192W        W 6392   1.607   0.762  29.854 -0.3141  0.1328 -0.0015
 4193W        W 6393   9.183   0.976  43.514 -0.1497  0.0095  0.0116
 4194W        W 6394  17.860   1.454  10.327  0.2517  0.2498  0.1836
 4195W        W 6395   2.125   2.212   5.377 -0.1607 -0.0647 -0.0626
 4196W        W 6396   6.186   4.326  24.791  0.0017 -0.2779  0.2192
 4197W        W 6397  11.835   6.299  12.318 -0.1013  0.0396 -0.0892
 4198W        W 6398  13.181   5.581   1.874  0.3598  0.1711  0.1783
 4199W        W 6399  12.135   2.514  16.647 -0.1377 -0.2667 -0.0822
 4200W        W 6400  19.041   5.752  16.261 -0.0192  0.0419  0.0557
 4201W        W 6401  11.548   1.321  32.307  0.3966  0.2929  0.3654
 4202W        W 6402  13.452   5.669  31.328  0.2657  0.0714 -0.1412
 4203W        W 6403   2.487   3.373   2.040  0.0342  0.1174 -0.2141
 4204W        W 6404  10.879   1.089   4.146  0.0718  0.1283  0.2286
 4205W        W 6405   3.652   3.849  33.434  0.0711 -0.1806 -0.0911
 4206W        W 6406   3.791   5.427  43.175 -0.3329 -0.1288  0.1248
 4207W        W 6407  19.693   5.052  18.536  0.1106  0.2262 -0.2441
 4208W        W 6408   2.262   4.441   9.048  0.2352 -0.2877 -0.3054
 4209W        W 6409  17.159   1.384  27.996 -0.0394 -0.1272 -0.0199
 4210W        W 6410  18.400   4.511   4.773  0.1361 -0.0042  0.1185
 4211W        W 6411   0.853   4.132  43.756  0.3308 -0.3181  0.1400
 4212W        W 6412  13.594   2.784   8.785 -0.0563  0.0873  0.1515
 4213W        W 6413  18.447   1.392  18.641  0.2713  0.1033 -0.2041
 4214W        W 6414  12.677   0.787  38.537 -0.1403  0.0554  0.1170
 4215W        W 6415   7.076   0.246  10.367 -0.1691 -0.2389  0.2056
 4216W        W 6416   1.244   2.331  34.674  0.1034  0.0459  0.2859
 4217W        W 6417  15.417   0.682  19.511 -0.0388  0.0973 -0.0723
 4218W        W 6418  19.345   0.026  33.181  0.0160  0.2631  0.1424
 4219W        W 6419  14.510   1.313  21.160 -0.1677  0.3389  0.0019
 4220W        W 6420   6.772   1.535   0.189 -0.1245 -0.3848 -0.0310
 4221W        W 6421  16.842   6.300   5.275 -0.0923 -0.1909  0.0290
 4222W        W 6422  12.116   2.829  35.970 -0.2406  0.0658  0.2362
 4223W        W 6423  11.116   2.858   6.981 -0.2092  0.1678 -0.1206
 4224W        W 6424   0.021   5.115  31.510  0.1460  0.1112  0.0174
 4225W        W 6425  19.285   4.302   5.322 -0.1686  0.1204 -0.3487
 4226W        W 6426   3.264   2.408  37.462 -0.1448 -0.3155 -0.2806
 4227W        W 6427   8.723   4.240  32.376  0.0201  0.0527  0.0331
 4228W        W 6428   6.901   6.154   5.809 -0.0177 -0.1326  0.1377
 4229W        W 6429  16.704   4.939  44.173 -0.1539  0.1836 -0.2999
 4230W        W 6430   4.224   2.094  21.267  0.0026 -0.0116 -0.1405
 4231W        W 6431  15.796   4.658   4.420  0.2345  0.0290  0.3207
 4232W        W 6432  12.281   1.568  37.737 -0.0405 -0.0287 -0.2415
 4233W        W 6433   2.603   4.831  31.626 -0.0784 -0.0176  0.1817
 4234W        W 6434   2.240   2.074  11.505 -0.0699 -0.2223  0.1011
 4235W        W 6435  12.936   3.739   4.447 -0.0203  0.2131  0.2543
 4236W        W 6436   7.719   1.591   0.439  0.1924  0.2440 -0.0131
 4237W        W 6437   9.911   3.580  27.566  0.1414  0.1530  0.3377
 4238W        W 6438  17.510   0.451  44.590  0.1505 -0.1253 -0.1030
 4239W        W 6439  12.801   4.174  30.710  0.0529  0.1100  0.2012
 4240W        W 6440  13.780   0.347   2.240 -0.0513  0.3030  0.0858
 4241W        W 6441  14.014   1.835  33.875 -0.0434 -0.0278  0.0585
 4242W        W 6442  14.672   3.216  42.761 -0.3472 -0.0999  0.0351
 4243W        W 6443  18.062   3.124  35.789  0.0125 -0.0312  0.0049
 4244W        W 6444  18.122   4.748   6.221  0.0600  0.2574 -0.1138
 4245W        W 6445  21.037   2.674   6.891 -0.0832  0.2515 -0.1431
 4246W        W 6446   8.422   0.351  41.450  0.0947 -0.1783 -0.0812
 4247W        W 6447   2.471   3.355  26.058 -0.2778 -0.3711 -0.2304
 4248W        W 6448   9.020   0.014  36.004  0.2744  0.1275  0.2563
 4249W        W 6449   3.029   1.154  32.947  0.0531 -0.1118 -0.0602
 4250W        W 6450  12.565   6.430  42.785 -0.2435  0.1745 -0.0884
 4251W        W 6451  18.241   4.308   2.857 -0.0210  0.2747 -0.0679
 4252W        W 6452  11.012   0.807   5.983  0.0510  0.2138  0.0637
 4253W        W 6453   4.122   5.349  42.746 -0.1771 -0.1757 -0.1482
 4254W        W 6454  12.216   0.266  12.504  0.1348  0.0363  0.2742
 4255W        W 6455   6.485   1.811  45.079 -0.0690 -0.2663  0.0694
 4256W        W 6456   6.435   2.125   8.032 -0.0432 -0.0619  0.4210
 4257W        W 6457   8.395   2.398  14.194  0.3537 -0.0919 -0.4333
 4258W        W 6458  11.060   2.051  35.738 -0.2177 -0.0377  0.1102
 4259W        W 6459  20.050   4.894  31.719  0.1399  0.1099  0.3459
 4260W        W 6460   9.178   4.063  39.377  0.0645  0.0169  0.3743
 4261W        W 6461  20.265   3.341  41.992 -0.2698  0.1757  0.2014
 4262W        W 6462  12.024   3.623  32.220 -0.2079  0.1229 -0.2340
 4263W        W 6463   7.201   1.586  36.686 -0.1895  0.1254  0.2196
 4264W        W 6464  16.791   4.105  21.719  0.5303 -0.0552 -0.0384
 4265W        W 6465   2.189   3.907   6.265 -0.0180  0.0026 -0.0403
 4266W        W 6466  14.141   2.644  18.542 -0.1645 -0.2421 -0.2353
 4267W        W 6467   6.842   4.758  12.292  0.1466  0.0228  0.1884
 4268W        W 6468   0.337   5.129   3.411 -0.1645  0.1099 -0.2418
 4269W        W 6469  17.484   2.659  36.566  0.2057  0.3235 -0.0862
 4270W        W 6470  17.913   1.362  30.168 -0.1405  0.1009  0.1242
 4271W        W 6471  10.512   1.024   9.553  0.0874  0.1829  0.0733
 4272W        W 6472   1.933   2.855  36.179  0.1534  0.1879  0.2685
 4273W        W 6473   4.213   1.857  19.619  0.0645 -0.0204 -0.0911
 4274W        W 6474   9.216   1.158  12.126 -0.5974 -0.0344  0.1096
 4275W        W 6475   6.961   5.322   2.921 -0.0486  0.3982  0.0254
 4276W        W 6476  10.609   0.615  15.232 -0.1296  0.4869 -0.0139
 4277W        W 6477   0.872   4.219  33.752 -0.4159  0.0342 -0.0433
 4278W        W 6478  20.799   0.539   7.706  0.2863  0.0745 -0.0679
 4279W        W 6479  14.791   5.028   4.459 -0.0968 -0.2235  0.0556
 4280W        W 6480  20.146   3.131   1.939 -0.0885 -0.2765  0.4096
 4281W        W 6481  11.578   0.267   7.633 -0.1271  0.3755  0.1361
 4282W        W 6482   4.428   5.725   7.635 -0.0277  0.3457 -0.2041
 4283W        W 6483   5.439   1.460  12.847  0.1936  0.3166 -0.0376
 4284W        W 6484  19.822   5.295  31.930 -0.1348  0.1195 -0.3141
 4285W        W 6485   3.182   1.365   5.012  0.0094  0.0282 -0.2285
 4286W        W 6486  10.818   4.006  15.149  0.0198  0.3242 -0.0425
 4287W        W 6487  19.533   6.512  37.709  0.0968 -0.1959  0.0075
 4288W        W 6488  15.338   6.405  12.460 -0.0645  0.1975  0.0317
 4289W        W 6489   8.863   4.260  29.293  0.2365 -0.0235 -0.0756
 4290W        W 6490  19.115   0.061  18.409 -0.0035 -0.1597 -0.0831
 4291W        W 6491   4.468   3.730  11.535 -0.3046  0.0485  0.2933
 4292W        W 6492   3.407   3.408  44.489  0.0200  0.0676  0.3632
 4293W        W 6493  13.376   1.943  33.560  0.1360  0.2135  0.0628
 4294W        W 6494   1.961   0.785   5.196 -0.1712  0.2602 -0.0883
 4295W        W 6495  20.436   6.042  13.790  0.0484  0.0968 -0.1985
 4296W        W 6496   2.217   0.913  35.267  0.1226 -0.1472  0.2322
 4297W        W 6497  12.060   5.930  42.817 -0.2851  0.0543 -0.0523
 4298W        W 6498   8.773   2.237   1.052 -0.2211 -0.1735 -0.1096
 4299W        W 6499   5.837   0.694  44.258 -0.1089 -0.1367 -0.1007
 4300W        W 6500  17.684   1.860  19.865  0.0394 -0.2625  0.1447
 4301W        W 6501   1.604   2.459  13.561 -0.0609  0.0508  0.2555
 4302W        W 6502   6.881   2.709  39.829 -0.2638 -0.1566  0.0489
 4303W        W 6503   9.797   1.058  14.547 -0.0967  0.2890 -0.0808
 4304W        W 6504   1.796   4.051  39.985  0.1642 -0.2027  0.2777
 4305W        W 6505  12.892   3.010  10.652  0.0517  0.0353  0.0063
 4306W        W 6506   6.060   0.480  42.491  0.0194 -0.1249 -0.0562
 4307W        W 6507  14.290   5.841  22.198  0.2257 -0.0515  0.1034
 4308W        W 6508   8.885   5.131  17.106 -0.1140 -0.1588  0.1279
 4309W        W 6509   0.129   0.952  36.480  0.0406  0.0953 -0.0200
 4310W        W 6510   1.211   6.519   9.932  0.0715 -0.0275 -0.1224
 4311W        W 6511  14.938   2.021  20.058  0.1965 -0.1583  0.1014
 4312W        W 6512  11.985   6.350  40.770 -0.3289 -0.1849  0.0578
 4313W        W 6513   7.967   5.233   3.033 -0.2285 -0.3520 -0.0250
 4314W        W 6514  20.750   6.482  38.620 -0.1362 -0.2099  0.2446
 4315W        W 6515  16.933   2.034   3.313  0.5194 -0.0948 -0.1868
 4316W        W 6516  13.329   2.906  39.329  0.0803  0.4053  0.1839
 4317W        W 6517   9.967   1.028  18.494 -0.2923  0.1567 -0.0849
 4318W        W 6518   2.803   1.105   8.739  0.0857 -0.0303  0.1362
 4319W        W 6519  15.558   5.624  10.727  0.0881 -0.0352 -0.2407
 4320W        W 6520  13.597   0.871  15.758 -0.0946  0.3664 -0.0328
 4321W        W 6521   7.269   2.118  26.642  0.0244  0.1371  0.0935
 4322W        W 6522  16.390   1.446  19.106 -0.2707  0.2798  0.0379
 4323W        W 6523  19.557   3.743  29.843 -0.2943 -0.0016 -0.2870
 4324W        W 6524  15.839   4.133  33.926 -0.1498  0.2014 -0.1609
 4325W        W 6525   8.974   0.194  44.476 -0.1875 -0.0686  0.1357
 4326W        W 6526   4.982   3.584  33.708  0.2219 -0.3258  0.2474
 4327W        W 6527   0.891   3.554  33.164  0.2583  0.2663  0.0610
 4328W        W 6528   6.719   1.971  43.372  0.3065 -0.0276  0.0088
 4329W        W 6529  15.380   4.201   6.626  0.4092 -0.0964  0.1805
 4330W        W 6530   6.966   1.457  24.088 -0.0969 -0.1010  0.2561
 4331W        W 6531   3.981   3.804  27.431  0.1595  0.2624  0.0236
 4332W        W 6532  16.541   6.156  41.648  0.3148  0.0589  0.1496
 4333W        W 6533   7.235   0.883  25.817 -0.3407  0.0817  0.0506
 4334W        W 6534  20.345   2.062   8.258  0.1841  0.2694 -0.0544
 4335W        W 6535  12.750   5.766  28.471  0.4737  0.1792  0.1950
 4336W        W 6536   9.440   4.265   1.893  0.1228  0.1604 -0.0382
 4337W        W 6537   2.977   3.593  31.035 -0.0306  0.0077  0.2919
 4338W        W 6538   2.085   4.665  13.742 -0.1864 -0.1080  0.0771
 4339W        W 6539  13.030   2.391  34.679  0.1286 -0.3572 -0.0028
 4340W        W 6540  17.162   5.127   5.473  0.0213  0.0442 -0.0429
 4341W        W 6541  14.388   2.293  31.180  0.2265  0.1488  0.2562
 4342W        W 6542  17.198   3.563  35.942  0.0391 -0.2231  0.1042
 4343W        W 6543  16.426   1.259  34.202 -0.1617 -0.0676 -0.0555
 4344W        W 6544  11.184   3.411  19.988 -0.0012 -0.0643  0.3459
 4345W        W 6545  17.721   2.619  28.205  0.0410  0.0166 -0.2021
 4346W        W 6546   6.134   6.109   2.324  0.0597  0.3661  0.0644
 4347W        W 6547  15.716   6.491  35.274  0.0594  0.0378 -0.2302
 4348W        W 6548  10.390   6.516  42.862  0.2840 -0.2991  0.1635
 4349W        W 6549  11.128   1.543   3.858 -0.2489 -0.0146  0.1885
 4350W        W 6550   2.314   1.772  35.846 -0.0493 -0.1045 -0.0680
 4351W        W 6551  18.908   5.170  33.023  0.0349  0.1992  0.2579
 4352W        W 6552   2.938   6.064  36.559 -0.3117 -0.2649  0.1060
 4353W        W 6553  13.200   1.059  42.201  0.1173 -0.0221  0.0963
 4354W        W 6554   1.998   4.302  40.383 -0.0954  0.0735  0.0008
 4355W        W 6555  15.693   4.264   0.544  0.2009  0.1942 -0.2255
 4356W        W 6556  12.035   2.469  34.633  0.0577  0.0313 -0.0190
 4357W        W 6557  17.361   3.055   7.716 -0.0371 -0.0488 -0.0179
 4358W        W 6558  13.926   3.251  15.543 -0.1096  0.1699 -0.3406
 4359W        W 6559   2.302   6.526   4.027  0.0097 -0.0749  0.3460
 4360W        W 6560   3.791   6.498  29.561  0.1957  0.2113 -0.1463
 4361W        W 6561  11.795   6.296  44.496  0.0211  0.1926 -0.2422
 4362W        W 6562   9.108   4.151  15.262  0.4171  0.1693  0.0222
 4363W        W 6563  19.438   2.907  37.847 -0.3243 -0.2305  0.0909
 4364W        W 6564   9.252   5.773  12.146 -0.1342 -0.0466 -0.0914
 4365W        W 6565  10.973   1.303  35.871  0.1543  0.0920  0.3603
 4366W        W 6566  20.214   3.391   0.323  0.0067  0.1495  0.1180
 4367W        W 6567  18.863   3.758   2.549  0.2662  0.2155  0.1755
 4368W        W 6568   1.018   6.161  41.922 -0.1221 -0.1021  0.0567
 4369W        W 6569  11.350   5.207  11.927  0.0448 -0.0760 -0.0656
 4370W        W 6570   2.985   0.335  21.445 -0.2943  0.3085 -0.0690
 4371W        W 6571  20.802   3.586   9.978 -0.2450  0.0417  0.1312
 4372W        W 6572  17.882   0.526   0.929  0.3365  0.1573 -0.0838
 4373W        W 6573  15.816   2.147   3.577 -0.0848 -0.1198 -0.1585
 4374W        W 6574  20.231   2.520   1.135 -0.2012 -0.0694 -0.3101
 4375W        W 6575  15.789   2.402  41.956 -0.1561  0.1278  0.0621
 4376W        W 6576   3.845   1.557   3.530  0.0437 -0.0481  0.0076
 4377W        W 6577   7.402   2.136  35.733 -0.3960  0.0462 -0.2083
 4378W        W 6578  10.780   0.060   2.192 -0.0833  0.2793 -0.0791
 4379W        W 6579  16.414   6.004   2.667  0.0784  0.1481  0.1821
 4380W        W 6580  10.150   1.109  28.532 -0.1470 -0.1079  0.2719
 4381W        W 6581   3.591   2.526  28.911 -0.0525 -0.1937  0.2398
 4382W        W 6582  10.957   1.734  17.208 -0.0141 -0.0314 -0.1266
 4383W        W 6583  19.447   2.980  13.018  0.2016 -0.0609  0.3010
 4384W        W 6584  13.287   3.088  30.990  0.0282  0.1023 -0.1718
 4385W        W 6585  14.301   6.270   0.360  0.5032  0.0384 -0.3182
 4386W        W 6586   6.690   4.707  15.196  0.2264  0.0528  0.1875
 4387W        W 6587  10.133   4.819  32.531 -0.0594 -0.1161 -0.3424
 4388W        W 6588  12.578   0.196  11.740 -0.1204  0.0829 -0.1997
 4389W        W 6589  16.026   6.208  37.002 -0.1983  0.2644  0.2320
 4390W        W 6590  12.094   5.297   2.957 -0.0590 -0.0010 -0.1116
 4391W        W 6591   1.596   1.306  42.091 -0.0483 -0.0367  0.2709
 4392W        W 6592  13.586   3.969  33.106  0.2067 -0.0857  0.0969
 4393W        W 6593   1.378   3.274  37.638 -0.0268  0.0806 -0.5170
 4394W        W 6594   7.365   4.197  36.998  0.0805  0.0936 -0.1234
 4395W        W 6595   5.907   5.732  23.620  0.2799 -0.0771  0.3738
 4396W        W 6596  15.019   0.729  17.106  0.1432 -0.0995 -0.0375
 4397W        W 6597  15.129   1.898  23.094 -0.2326 -0.1331 -0.2296
 4398W        W 6598  11.389   2.260   4.681 -0.0661  0.0236  0.1758
 4399W        W 6599   4.152   5.140  24.777  0.0949  0.1929  0.0877
 4400W        W 6600  14.752   4.857   8.423 -0.0715  0.0898  0.4256
 4401W        W 6601   8.579   5.571  27.290  0.2069  0.1358 -0.0304
 4402W        W 6602  12.860   6.524  44.002 -0.2469  0.2136  0.2165
 4403W        W 6603  18.631   1.343  18.141 -0.1663  0.1767  0.2794
 4404W        W 6604  11.311   5.194  15.144  0.1419  0.0611  0.0385
 4405W        W 6605  18.980   5.062  17.153 -0.1544  0.0438  0.0630
 4406W        W 6606  18.494   4.276  36.988  0.0599  0.2473 -0.0907
 4407W        W 6607  20.699   4.841  28.102 -0.1111 -0.1432 -0.1749
 4408W        W 6608   1.856   5.072  39.530 -0.0069  0.0407  0.0829
 4409W        W 6609  10.121   0.527  12.884  0.0376 -0.1086  0.0754
 4410W        W 6610  12.577   2.848  37.171  0.1161 -0.0028 -0.0857
 4411W        W 6611  19.314   4.943  28.378  0.2196 -0.3284  0.1139
 4412W        W 6612  14.798   0.047  15.387  0.0454 -0.0053 -0.3383
 4413W        W 6613   2.903   3.644  32.816  0.0957  0.1901  0.1157
 4414W        W 6614   7.112   4.916  39.313 -0.1463 -0.0720 -0.0537
 4415W        W 6615  15.005   4.385  14.228  0.1903  0.0268 -0.1017
 4416W        W 6616  11.486   2.998  22.198 -0.1819 -0.0183 -0.0392
 4417W        W 6617   3.812   2.572   2.599  0.2137  0.2011  0.1263
 4418W        W 6618   5.872   6.161  43.803  0.0095 -0.4043 -0.1994
 4419W        W 6619  16.354   1.172  28.717 -0.0096 -0.1346  0.1373
 4420W        W 6620   5.716   3.701   5.298 -0.2133 -0.1962  0.0206
 4421W        W 6621   2.474   2.454  38.945 -0.2710  0.2113 -0.1712
 4422W        W 6622   4.203   0.330  38.943  0.0191  0.1041 -0.0099
 4423W        W 6623  17.805   3.253  15.695 -0.2939  0.1506  0.0348
 4424W        W 6624   3.018   3.678   7.137  0.0331 -0.1094  0.0955
 4425W        W 6625  15.857   2.924  10.677 -0.2538 -0.1357 -0.3829
 4426W        W 6626   9.119   5.360  30.104 -0.3063 -0.1961 -0.0324
 4427W        W 6627  15.558   6.100  37.102  0.2462 -0.0081  0.3602
 4428W        W 6628   6.624   4.755  31.467  0.0474 -0.3926  0.0165
 4429W        W 6629  19.025   3.882  17.024  0.0916 -0.2472  0.1217
 4430W        W 6630  15.963   5.117  28.807 -0.1122  0.1143 -0.0655
 4431W        W 6631   8.678   1.065  27.386  0.0218 -0.1784 -0.1481
 4432W        W 6632  13.985   5.184  43.693 -0.0270  0.1718 -0.4414
 4433W        W 6633  13.695   4.355  41.621 -0.2243 -0.0913 -0.2324
 4434W        W 6634   7.366   1.399  26.224  0.0872  0.1132 -0.4348
 4435W        W 6635  17.090   2.314  34.293  0.3998  0.4102 -0.2846
 4436W        W 6636   2.231   0.437  27.656 -0.1212  0.0409  0.0940
 4437W        W 6637   0.453   0.958   5.950  0.0261  0.0755 -0.0550
 4438W        W 6638  12.939   1.065  19.342 -0.1881 -0.0023 -0.2387
 4439W        W 6639   4.463   6.554   9.460  0.0500 -0.0298 -0.0864
 4440W        W 6640  13.364   1.755  41.522  0.0708  0.1641 -0.1048
 4441W        W 6641   3.745   3.016   0.164 -0.0171  0.0357 -0.2852
 4442W        W 6642  20.976   6.158  31.612 -0.3060 -0.3672  0.1419
 4443W        W 6643  17.066   6.375  42.453  0.1107 -0.1383  0.3885
 4444W        W 6644  13.091   2.009  38.926  0.2226  0.1033 -0.1028
 4445W        W 6645   5.145   3.637  28.702 -0.3812 -0.1958  0.1222
 4446W        W 6646   1.205   0.367  40.220  0.1240  0.0660  0.0476
 4447W        W 6647   3.966   5.883  33.470 -0.2672  0.1275  0.2167
 4448W        W 6648  12.451   0.983  10.913 -0.1050 -0.0334 -0.0380
 4449W        W 6649  16.040   2.491  34.143 -0.2338 -0.2200  0.1204
 4450W        W 6650   9.868   3.036  37.785 -0.1113  0.1546 -0.1149
 4451W        W 6651  17.477   4.843  18.633  0.1957 -0.1883  0.1209
 4452W        W 6652   0.876   5.755  30.958 -0.2281  0.0603  0.5280
 4453W        W 6653   1.936   6.195  44.040  0.2217  0.2095 -0.4828
 4454W        W 6654   5.921   6.060   1.840 -0.2355  0.3961  0.2234
 4455W        W 6655  15.221   2.016  17.477  0.2774  0.3721  0.1169
 4456W        W 6656   7.428   5.508  45.109 -0.2714  0.1369  0.0141
 4457W        W 6657   0.950   6.587  10.719 -0.1007 -0.3266  0.1639
 4458W        W 6658  14.385   3.869  43.834  0.0609 -0.4276  0.2321
 4459W        W 6659  15.972   4.321   9.525 -0.3650 -0.2207 -0.0759
 4460W        W 6660  20.976   3.662   6.903  0.1579 -0.0236  0.0876
 4461W        W 6661  14.919   0.995  20.844  0.1234  0.1816  0.0651
 4462W        W 6662   5.961   4.172  14.767 -0.0749  0.0258  0.1121
 4463W        W 6663   1.493   6.394  34.092  0.3233  0.0352  0.2008
 4464W        W 6664   4.420   2.549   5.970 -0.2420 -0.3643  0.0540
 4465W        W 6665  17.414   1.662   5.424  0.1055  0.3250  0.2015
 4466W        W 6666   3.401   1.141  25.605 -0.1285  0.0179 -0.0400
 4467W        W 6667  18.940   2.134  33.505  0.0501 -0.4012  0.3264
 4468W        W 6668  19.048   3.407  31.765 -0.0629 -0.3129  0.1095
 4469W        W 6669  19.517   1.179  27.594 -0.1581 -0.0195  0.1411
 4470W        W 6670   4.118   1.361  23.655  0.0470  0.0686 -0.0234
 4471W        W 6671  12.080   2.896  16.946  0.0903 -0.0853 -0.0562
 4472W        W 6672   2.197   4.725   7.245 -0.2931 -0.0520 -0.0601
 4473W        W 6673  11.984   3.385  17.921 -0.1439 -0.2381  0.2599
 4474W        W 6674  10.399   4.256  28.773  0.0772  0.1479  0.2003
 4475W        W 6675   3.096   3.834  29.821  0.4376  0.0456 -0.0757
 4476W        W 6676  17.823   3.903  17.589  0.1216  0.0129 -0.3583
 4477W        W 6677  14.555   4.651  14.251  0.1409  0.1079  0.1191
 4478W        W 6678   2.535   5.427  40.082  0.5447 -0.3658 -0.0471
 4479W        W 6679  13.933   3.343   4.147 -0.1360 -0.1773 -0.0074
 4480W        W 6680  15.756   3.793  29.043 -0.2661 -0.0969  0.2576
 4481W        W 6681  19.282   4.965  12.949  0.0109  0.1207 -0.2035
 4482W        W 6682  16.416   2.983  39.944 -0.3361 -0.1306  0.2008
 4483W        W 6683  14.722   3.003  23.407  0.1173 -0.0693 -0.0492
 4484W        W 6684   8.660   6.191  33.974 -0.0536 -0.1362 -0.1968
 4485W        W 6685   9.969   6.382  35.781 -0.0644 -0.4427  0.1860
 4486W        W 6686   3.249   3.059  37.581  0.1545  0.1839  0.1713
 4487W        W 6687   0.463   1.345  37.354 -0.2404 -0.2981  0.1995
 4488W        W 6688   0.399   0.385  26.604 -0.1108  0.2289 -0.0240
 4489W        W 6689  17.586   5.206   7.587 -0.1368  0.0011  0.0803
 4490W        W 6690   0.744   0.046  13.736 -0.2616  0.1047  0.1307
 4491W        W 6691   2.140   0.833  22.870  0.0065  0.2144 -0.2056
 4492W        W 6692   6.001   1.297  13.538 -0.0108 -0.1058 -0.1114
 4493W        W 6693   5.797   1.693  36.870  0.2205 -0.2373  0.1799
 4494W        W 6694   3.216   5.681   6.986  0.1858 -0.2955 -0.0149
 4495W        W 6695  15.969   6.251   8.860 -0.1005  0.0695 -0.1669
 4496W        W 6696   4.053   4.630  41.157 -0.2163  0.0030 -0.1119
 4497W        W 6697  14.531   4.905  14.756 -0.1219  0.3430 -0.0177
 4498W        W 6698  11.127   5.104  40.381 -0.2376  0.0868 -0.1786
 4499W        W 6699   1.337   4.707  36.227  0.1267  0.1748  0.1287
 4500W        W 6700   0.762   0.378  24.645 -0.1017  0.3029 -0.0972
 4501W        W 6701  16.464   0.586  19.739 -0.1522  0.0062 -0.0569
 4502W        W 6702  14.205   3.393  40.486 -0.1006 -0.1946  0.2764
 4503W        W 6703   5.171   6.036  25.574  0.1975  0.2613  0.3572
 4504W        W 6704  16.262   5.797  41.689  0.0170 -0.0653 -0.0909
 4505W        W 6705  21.086   0.680  43.774 -0.0192  0.2918 -0.0177
 4506W        W 6706  17.617   1.753  28.163 -0.3912 -0.0534 -0.2243
 4507W        W 6707   6.571   4.467  36.508 -0.0787  0.2068 -0.3820
 4508W        W 6708   7.679   2.203  29.411  0.0588 -0.5260  0.1372
 4509W        W 6709   8.120   6.226   0.853  0.0112  0.2381 -0.4101
 4510W        W 6710  12.508   5.426  10.751  0.0947  0.2324 -0.0533
 4511W        W 6711  20.562   2.347  40.913 -0.2011  0.1716 -0.0862
 4512W        W 6712   7.388   2.058   6.059 -0.0459  0.0558 -0.1578
 4513W        W 6713  13.179   5.227  16.649  0.2558 -0.1345  0.2467
 4514W        W 6714   6.887   4.975  13.290 -0.0143 -0.0070 -0.1444
 4515W        W 6715  12.032   3.270  38.833  0.2218  0.0806  0.2028
 4516W        W 6716   0.224   6.074  26.232  0.0259  0.2667 -0.0750
 4517W        W 6717  18.486   2.691  11.980 -0.1040  0.1980  0.4209
 4518W        W 6718  20.792   4.095  27.062 -0.1317  0.1331 -0.1299
 4519W        W 6719   0.842   3.391   1.776  0.0371  0.0558 -0.0055
 4520W        W 6720   0.873   0.210   1.992 -0.0081 -0.1323 -0.1721
 4521W        W 6721  20.808   6.266  32.191  0.3350  0.1314  0.0188
 4522W        W 6722  12.637   1.498  37.247  0.1515 -0.2538  0.0135
 4523W        W 6723   9.209   2.559   0.999  0.2609 -0.1447 -0.0358
 4524W        W 6724   0.913   4.381  24.281 -0.1741 -0.2137 -0.3198
 4525W        W 6725  19.668   4.724  44.642 -0.0968  0.1091  0.2500
 4526W        W 6726   1.120   2.854  34.689  0.3135 -0.3608 -0.2239
 4527W        W 6727  15.385   3.657  20.055  0.1981  0.3022  0.0151
 4528W        W 6728   0.560   2.403  12.861  0.1379 -0.1160  0.1821
 4529W        W 6729   1.978   1.789   5.716 -0.1020 -0.1610 -0.0275
 4530W        W 6730   5.415   1.921  39.867  0.0801 -0.0011 -0.0783
 4531W        W 6731   3.644   5.964  26.789 -0.2394  0.0326 -0.0376
 4532W        W 6732  17.040   5.454  43.370 -0.3619 -0.0617  0.0678
 4533W        W 6733  21.017   1.422  14.011 -0.2085 -0.0096 -0.0609
 4534W        W 6734  15.089   2.456   3.736  0.0548 -0.1147 -0.0632
 4535W        W 6735  10.372   1.633  42.850 -0.3737  0.0591  0.0990
 4536W        W 6736  14.865   3.244  30.801 -0.1888  0.1395 -0.3650
 4537W        W 6737   8.654   0.380  29.044 -0.0064 -0.3254  0.0495
 4538W        W 6738  18.259   3.400  32.360  0.2537 -0.3478  0.2431
 4539W        W 6739  18.255   0.469  44.464 -0.1573  0.1293  0.0084
 4540W        W 6740   1.313   0.607   0.993 -0.2696 -0.1731  0.1254
 4541W        W 6741   8.895   4.828  28.317 -0.0834  0.0346  0.1126
 4542W        W 6742   3.907   1.696  24.074  0.0046  0.0689  0.2682
 4543W        W 6743   3.023   2.498  35.999  0.1122 -0.0304 -0.0597
 4544W        W 6744   0.085   5.446  39.575  0.0621 -0.0493  0.0679
 4545W        W 6745   0.792   1.766   8.635 -0.0675 -0.0377  0.0910
 4546W        W 6746  10.684   6.498  36.630  0.2998  0.3760 -0.0080
 4547W        W 6747  15.482   4.625  40.386 -0.1071  0.2391  0.0348
 4548W        W 6748  15.859   5.425  12.776  0.1147 -0.0872 -0.0706
 4549W        W 6749  17.734   5.727  12.030  0.0657 -0.2536  0.0611
 4550W        W 6750  11.702   4.195   4.017 -0.0434 -0.1179  0.1157
 4551W        W 6751   2.160   6.015  39.276  0.2296  0.0209 -0.2093
 4552W        W 6752  17.059   2.759  29.191 -0.0689 -0.0367 -0.0861
 4553W        W 6753  11.309   4.063   6.532 -0.0124  0.3851  0.0021
 4554W        W 6754   3.432   3.422   6.410  0.1608  0.2282  0.1652
 4555W        W 6755  19.041   2.403  32.731 -0.4714 -0.2254  0.1728
 4556W        W 6756   4.583   0.533  10.103  0.0242 -0.0129 -0.1291
 4557W        W 6757  15.428   1.639  41.063  0.1637 -0.0073  0.0733
 4558W        W 6758   6.838   5.698   5.782  0.1683  0.2721  0.1711
 4559W        W 6759   0.274   5.145   0.255 -0.2256 -0.2046 -0.3361
 4560W        W 6760  15.765   6.048   9.962  0.2242 -0.0089 -0.0699
 4561W        W 6761   5.406   4.163  37.990 -0.0981 -0.4722  0.1065
 4562W        W 6762  11.189   5.246  42.711 -0.1343  0.1179  0.2592
 4563W        W 6763   1.376   1.249  40.807 -0.0794 -0.3501 -0.0362
 4564W        W 6764   7.789   3.854  37.642  0.1728 -0.0583  0.1817
 4565W        W 6765   2.863   4.818  22.238  0.1828 -0.0271  0.3233
 4566W        W 6766   0.471   0.676  34.284  0.0903  0.2355  0.1689
 4567W        W 6767   3.269   0.058  38.125 -0.2165 -0.1381 -0.2945
 4568W        W 6768   2.301   6.392  37.295 -0.2547 -0.1734 -0.2971
 4569W        W 6769  11.974   1.862   8.648  0.2045 -0.2595  0.1828
 4570W        W 6770   7.571   0.648  32.363  0.0204  0.0748 -0.0573
 4571W        W 6771   7.666   0.642  38.320 -0.1979 -0.1122  0.1780
 4572W        W 6772  17.543   4.991  40.224 -0.0072 -0.0049 -0.0161
 4573W        W 6773   9.729   5.690   5.427 -0.0356  0.1412  0.2039
 4574W        W 6774   1.136   4.646  37.993 -0.0534  0.1904 -0.0314
 4575W        W 6775   1.830   3.439  28.442  0.2852  0.2283  0.0602
 4576W        W 6776   7.222   5.881  41.326 -0.0845 -0.3751  0.0720
 4577W        W 6777   5.353   0.495   9.352  0.1120  0.1422 -0.0397
 4578W        W 6778   4.080   1.112   3.382  0.0722  0.2481  0.1255
 4579W        W 6779  16.619   3.473  42.309 -0.1562 -0.0112 -0.1107
 4580W        W 6780   1.713   4.140   3.969 -0.0675  0.2764 -0.3366
 4581W        W 6781  10.725   5.137   3.473  0.1711 -0.0321  0.1359
 4582W        W 6782  15.389   5.899  42.740  0.2849  0.0490 -0.0601
 4583W        W 6783   9.841   0.390  17.902 -0.0733  0.1277 -0.0155
 4584W        W 6784  11.022   1.227  12.302  0.1656  0.2359 -0.5641
 4585W        W 6785   3.676   0.202  22.069 -0.1280 -0.0647  0.2315
 4586W        W 6786  10.901   3.979   5.143 -0.0426 -0.0660 -0.1403
 4587W        W 6787  10.716   0.315   4.672  0.1594 -0.1885  0.2353
 4588W        W 6788   3.466   0.251  21.169 -0.1339  0.2042 -0.1446
 4589W        W 6789  10.713   2.222   6.475  0.0257 -0.1094  0.2646
 4590W        W 6790   6.702   2.307   8.432 -0.0239  0.1274  0.0745
 4591W        W 6791   1.006   1.823  12.811  0.2403  0.0063  0.0820
 4592W        W 6792  10.369   0.283   0.202 -0.2533  0.2171 -0.1451
 4593W        W 6793  20.880   3.587  15.479  0.0274 -0.1356 -0.0603
 4594W        W 6794   6.449   6.020   8.999  0.1138  0.1523 -0.2612
 4595W        W 6795   9.184   4.523  26.326 -0.0050 -0.5564  0.0946
 4596W        W 6796  11.612   5.442  19.807  0.1267  0.3507 -0.2102
 4597W        W 6797  13.251   2.843  21.607  0.0731 -0.1336 -0.1768
 4598W        W 6798  16.554   5.447  40.264  0.1180  0.1611 -0.4067
 4599W        W 6799  14.380   4.854  16.605 -0.0400  0.0568  0.3660
 4600W        W 6800   2.753   0.771  28.294 -0.0590  0.1464 -0.1878
 4601W        W 6801   8.533   2.434  39.429  0.3904  0.0453 -0.0316
 4602W        W 6802   8.470   0.103  13.982 -0.0164 -0.0577 -0.1366
 4603W        W 6803   9.629   4.382   4.962 -0.2997  0.0247  0.1167
 4604W        W 6804  13.708   3.734   7.177 -0.1443 -0.0109 -0.0755
 4605W        W 6805   2.067   6.406   7.552  0.1274  0.0392  0.0680
 4606W        W 6806   3.176   0.774  35.854 -0.1881  0.0602  0.0203
 4607W        W 6807  12.868   5.276  21.039 -0.0178 -0.0689 -0.0277
 4608W        W 6808   0.575   6.530  40.836  0.2806  0.1558  0.1396
 4609W        W 6809  16.141   2.050  14.393  0.0580  0.1155  0.1709
 4610W        W 6810  19.402   2.391  34.379  0.1479  0.1882 -0.2289
 4611W        W 6811  19.897   1.040   1.175 -0.0073 -0.4377  0.1200
 4612W        W 6812  17.295   0.343  14.895  0.0528 -0.1116 -0.0341
 4613W        W 6813   1.657   2.074  14.457  0.2057 -0.1210  0.0738
 4614W        W 6814  17.823   5.652  18.075  0.0813 -0.1314 -0.1683
 4615W        W 6815  14.499   2.744  31.432 -0.1754  0.1696  0.2236
 4616W        W 6816   5.615   3.754  13.954 -0.1050 -0.0811 -0.2313
 4617W        W 6817  10.700   6.177   1.622  0.4880  0.0398  0.2250
 4618W        W 6818  18.559   3.629  12.405  0.1567  0.0578 -0.0050
 4619W        W 6819  20.446   3.771  28.055 -0.2982  0.2866 -0.1295
 4620W        W 6820  11.481   0.644  34.584  0.0552  0.0385  0.2118
 4621W        W 6821   9.560   5.112   1.262 -0.0188  0.0369  0.1507
 4622W        W 6822   5.095   0.209  27.569  0.0570 -0.1148  0.1854
 4623W        W 6823   5.104   3.649   8.446  0.0016 -0.0183  0.0674
 4624W        W 6824  12.711   1.084  12.217 -0.2179  0.1689  0.0195
 4625W        W 6825   7.520   2.128  27.815  0.1456  0.0068  0.2609
 4626W        W 6826   1.070   1.986  40.442  0.2851 -0.1043  0.2481
 4627W        W 6827   8.687   1.898  11.549  0.1603  0.0088  0.1210
 4628W        W 6828   6.094   6.487  44.181 -0.1167 -0.1351 -0.0638
 4629W        W 6829   2.937   5.106  28.473 -0.2109  0.0811  0.0339
 4630W        W 6830   6.835   5.417   2.360 -0.1254  0.0938 -0.2035
 4631W        W 6831  13.401   0.900  37.189 -0.1882 -0.2047  0.0109
 4632W        W 6832  11.624   0.208  42.016  0.0926 -0.1546  0.1459
 4633W        W 6833  14.181   4.403  12.017  0.2058 -0.0256  0.2401
 4634W        W 6834  15.972   1.972  20.276  0.4149 -0.1357  0.0589
 4635W        W 6835   2.440   5.320  12.585 -0.0812 -0.1564  0.0735
 4636W        W 6836  11.632   4.819  32.742  0.1472  0.0825  0.0985
 4637W        W 6837  14.933   6.580  16.367 -0.0021 -0.4759  0.1235
 4638W        W 6838   9.982   3.112  16.355 -0.0203 -0.2162 -0.1370
 4639W        W 6839  12.269   1.040  33.247  0.0500 -0.0114  0.1297
 4640W        W 6840  19.662   5.392  36.961  0.1972 -0.2662  0.1927
 4641W        W 6841  15.279   4.840  32.939  0.1051 -0.2422  0.0316
 4642W        W 6842   1.018   4.836  10.208 -0.2968 -0.0690  0.0180
 4643W        W 6843  20.804   5.705  35.918  0.3512 -0.1962 -0.0938
 4644W        W 6844  10.494   3.483  27.598 -0.0686  0.1142 -0.0339
 4645W        W 6845  14.412   4.868  10.491  0.1320  0.3471  0.1356
 4646W        W 6846  19.704   4.741  14.866  0.1579  0.2634  0.2771
 4647W        W 6847   6.374   2.210   4.118 -0.1635 -0.0372 -0.2027
 4648W        W 6848   5.472   3.898   3.345  0.1243 -0.1969  0.1241
 4649W        W 6849  17.584   3.338  20.311  0.2386 -0.1449 -0.1635
 4650W        W 6850  20.044   0.200  32.845  0.0437 -0.2637 -0.1836
 4651W        W 6851  16.882   6.452   2.383 -0.2300  0.0194  0.1007
 4652W        W 6852  18.197   2.953   9.701 -0.2883 -0.1343 -0.2198
 4653W        W 6853  18.505   5.395  43.773 -0.0811  0.1675  0.2589
 4654W        W 6854   3.565   2.468  25.610  0.3784  0.2954 -0.1769
 4655W        W 6855   7.252   3.468   3.533 -0.2758  0.1381  0.1825
 4656W        W 6856   1.958   5.354   9.057 -0.3293 -0.0921 -0.5940
 4657W        W 6857   2.646   3.373  31.454  0.2300 -0.1651 -0.1903
 4658W        W 6858  14.704   2.798  37.152  0.0723  0.1647 -0.1382
 4659W        W 6859  17.118   4.859  39.458 -0.0755  0.0612  0.4045
 4660W        W 6860   7.356   2.920  37.904 -0.1731 -0.0357  0.0230
 4661W        W 6861  14.232   5.831  10.614 -0.2779 -0.0216  0.0374
 4662W        W 6862   1.723   0.880  40.753  0.1856  0.1176 -0.0197
 4663W        W 6863   7.304   5.359  13.621  0.0146 -0.0829  0.1351
 4664W        W 6864   0.586   4.342  34.850 -0.0742 -0.1587  0.1130
 4665W        W 6865   6.026   2.558  28.453  0.3095  0.0141 -0.0589
 4666W        W 6866  15.159   2.870  34.194  0.1024  0.1358  0.1853
 4667W        W 6867  13.114   4.879  44.107 -0.0017 -0.3584 -0.1192
 4668W        W 6868  18.841   3.993  45.089 -0.0654 -0.1691 -0.4611
 4669W        W 6869   1.333   4.264  24.037 -0.0797  0.0579  0.4775
 4670W        W 6870   7.262   2.065  11.351  0.2284  0.1955  0.0430
 4671W        W 6871   4.242   1.247   2.622  0.0919 -0.0980  0.2480
 4672W        W 6872  14.719   2.784  30.493 -0.0007 -0.0932  0.1830
 4673W        W 6873  17.711   5.062  29.282 -0.0786 -0.1250  0.0156
 4674W        W 6874  13.181   4.062  14.718  0.1873 -0.1686 -0.1515
 4675W        W 6875  20.513   3.944  31.849  0.3731  0.1486  0.0822
 4676W        W 6876   4.861   0.170  37.582 -0.0023  0.0740  0.0440
 4677W        W 6877  15.733   4.088   7.640 -0.0427  0.0655 -0.0473
 4678W        W 6878   0.481   4.169  42.424 -0.1068  0.0491  0.1141
 4679W        W 6879  12.892   1.393  40.865 -0.2432  0.0977  0.0281
 4680W        W 6880  16.076   1.421   7.335 -0.1380  0.0524  0.0742
 4681W        W 6881  18.571   6.321  12.767  0.0321  0.0316 -0.0963
 4682W        W 6882   8.761   2.595  33.204  0.0914 -0.0449  0.0890
 4683W        W 6883  10.535   6.151  39.982  0.1641  0.0263 -0.0668
 4684W        W 6884  21.072   5.377  37.554 -0.0097 -0.1354 -0.0314
 4685W        W 6885  15.891   4.289  17.429  0.0065 -0.0634 -0.2508
 4686W        W 6886   8.628   4.062   0.506  0.0597  0.0886 -0.1030
 4687W        W 6887   9.679   4.791  27.511 -0.0989  0.0776  0.0347
 4688W        W 6888   0.547   1.393  26.711  0.1877  0.3734  0.0732
 4689W        W 6889  17.832   1.855  11.677  0.0897  0.2198  0.3418
 4690W        W 6890  20.669   5.072   3.031 -0.0730 -0.3464 -0.2766
 4691W        W 6891  14.652   6.084  33.536  0.0732 -0.0325 -0.1772
 4692W        W 6892  12.149   4.965  12.541  0.1057  0.1051  0.3280
 4693W        W 6893   2.155   2.818   6.801 -0.0912 -0.0574 -0.1353
 4694W        W 6894   2.277   2.606  28.836 -0.0075 -0.1685  0.2001
 4695W        W 6895   6.161   4.629  42.869  0.1952 -0.1776 -0.0041
 4696W        W 6896   2.305   1.406  27.852  0.0506 -0.0016 -0.1006
 4697W        W 6897  13.949   3.980  18.767 -0.0348  0.0615  0.2212
 4698W        W 6898   5.132   5.038  32.498 -0.0586 -0.0230  0.0109
 4699W        W 6899   8.262   0.591  41.933  0.0693 -0.0901 -0.1951
 4700W        W 6900   9.489   2.960   8.952  0.0001 -0.1689 -0.0955
 4701W        W 6901  21.157   4.998  41.114 -0.0208 -0.1321  0.0126
 4702W        W 6902   2.675   0.759  12.300 -0.1008 -0.1409 -0.2325
 4703W        W 6903  20.253   5.034   3.445  0.1633 -0.1924  0.2080
 4704W        W 6904  16.425   2.800   2.579  0.0318 -0.0061 -0.1591
 4705W        W 6905  18.677   0.089  27.775 -0.1235  0.3079 -0.2705
 4706W        W 6906  16.999   1.652  40.924 -0.1179 -0.0790  0.1104
 4707W        W 6907  19.609   5.840   4.556  0.0493 -0.0879 -0.0743
 4708W        W 6908  19.093   4.292  31.122  0.0937  0.0858  0.2195
 4709W        W 6909  12.515   2.251  17.870 -0.2739 -0.1628 -0.0123
 4710W        W 6910   6.025   1.620   1.283 -0.3404  0.1757  0.0754
 4711W        W 6911  14.003   4.763  17.700 -0.1667  0.0995 -0.1092
 4712W        W 6912   3.751   0.502   6.288  0.0747  0.0524 -0.0101
 4713W        W 6913  16.253   5.372  32.911 -0.0984  0.0111  0.0345
 4714W        W 6914  18.736   6.602  41.313 -0.1443  0.2253  0.4172
 4715W        W 6915   8.156   4.708   4.659 -0.1040 -0.0164 -0.0954
 4716W        W 6916   9.969   4.733  11.214  0.2385  0.0890 -0.1804
 4717W        W 6917   3.872   6.491  42.495  0.1664  0.0240 -0.1261
 4718W        W 6918   8.747   2.949  32.070 -0.0091  0.0328  0.2535
 4719W        W 6919  15.972   0.362  39.178 -0.2603  0.2948 -0.0276
 4720W        W 6920  18.960   2.413  30.927 -0.0845  0.4450  0.1553
 4721W        W 6921   5.194   5.319  11.404 -0.3043  0.0494 -0.1932
 4722W        W 6922   0.364   2.129  16.259 -0.0127 -0.0482 -0.0071
 4723W        W 6923   5.223   2.698  43.761 -0.2335  0.0375 -0.0907
 4724W        W 6924  17.453   5.872  40.930 -0.3905  0.1946 -0.4459
 4725W        W 6925   7.911   4.834   5.493  0.0594 -0.2476  0.0142
 4726W        W 6926   2.865   1.550  32.740 -0.0298 -0.0083 -0.1270
 4727W        W 6927  16.523   3.279   7.222  0.2066  0.0087  0.1338
 4728W        W 6928  10.308   5.243   8.107  0.4022  0.1257  0.0631
 4729W        W 6929  20.138   3.606  33.629 -0.0074 -0.1025  0.1222
 4730W        W 6930  18.439   0.525   1.861  0.1417  0.0490  0.0324
 4731W        W 6931  16.464   4.611   5.264 -0.0895  0.2632  0.1936
 4732W        W 6932  12.051   1.510  18.247  0.2677 -0.2885  0.2094
 4733W        W 6933  20.200   3.182  26.827  0.0868 -0.1192  0.0244
 4734W        W 6934   8.249   0.960  27.095 -0.1801  0.1059 -0.2505
 4735W        W 6935   5.033   0.578  38.952  0.1491  0.2609  0.1769
 4736W        W 6936   2.295   0.143  15.564  0.0724  0.2811 -0.1768
 4737W        W 6937   5.444   5.161  27.302  0.1358 -0.2011 -0.1307
 4738W        W 6938  10.520   6.563  29.823  0.1957 -0.1817  0.1085
 4739W        W 6939   2.134   2.641  12.426  0.2910 -0.0236  0.0254
 4740W        W 6940  11.111   0.197  10.853  0.0801  0.1203  0.0018
 4741W        W 6941  18.543   2.889  44.878 -0.3272  0.0945  0.2672
 4742W        W 6942   3.358   2.009  23.401  0.0758 -0.1660 -0.0831
 4743W        W 6943  11.180   2.507   9.141 -0.0629 -0.2370 -0.0278
 4744W        W 6944   0.947   4.387  43.247 -0.0874  0.0209 -0.3428
 4745W        W 6945  17.772   0.814   3.377 -0.0604  0.1554 -0.0872
 4746W        W 6946   3.431   6.250  35.204  0.1323  0.1346 -0.2894
 4747W        W 6947  19.610   4.203   9.044  0.0795 -0.2840 -0.2827
 4748W        W 6948  16.555   5.365  16.817 -0.1876  0.1228 -0.2443
 4749W        W 6949  14.183   0.086   0.015 -0.1127  0.3168  0.0129
 4750W        W 6950   4.051   4.009  37.029  0.2727 -0.1748 -0.0697
 4751W        W 6951   6.353   3.095   8.168  0.2021 -0.0643 -0.0470
 4752W        W 6952   3.849   4.898  36.710  0.1411 -0.1456 -0.2072
 4753W        W 6953  12.458   6.093   6.465  0.0168 -0.1131 -0.1903
 4754W        W 6954   2.973   5.572  33.676 -0.0666  0.0103  0.0576
 4755W        W 6955   9.964   1.976  18.276  0.3167  0.0881  0.3145
 4756W        W 6956   7.543   1.527  27.187 -0.1347  0.0532 -0.4909
 4757W        W 6957  20.377   1.130  12.353 -0.0871  0.0189 -0.0420
 4758W        W 6958  16.171   6.018  39.008 -0.0129  0.0597  0.1948
 4759W        W 6959  18.528   0.887  44.506 -0.0162  0.0524 -0.1626
 4760W        W 6960  17.346   0.283  32.519  0.0322 -0.2785  0.1933
 4761W        W 6961  15.262   5.892  40.121  0.0226 -0.1718 -0.1574
 4762W        W 6962   3.943   4.309  26.011  0.2205 -0.2066 -0.0811
 4763W        W 6963  19.340   1.891  27.049 -0.2558 -0.0917 -0.0981
 4764W        W 6964   9.545   2.841  30.727  0.0172  0.1720  0.0243
 4765W        W 6965  16.720   2.868  20.259  0.2313  0.2255 -0.0749
 4766W        W 6966   5.521   5.192  25.495 -0.2757  0.2028  0.0159
 4767W        W 6967  10.695   2.203  14.568 -0.2238  0.2408  0.0000
 4768W        W 6968   2.547   1.978   0.960  0.1110 -0.2421 -0.0694
 4769W        W 6969   3.091   1.506  25.808 -0.2163 -0.0212 -0.2904
 4770W        W 6970   1.558   5.977   9.500 -0.0603 -0.0035 -0.0220
 4771W        W 6971   8.314   6.402  29.736 -0.0593 -0.1750  0.1172
 4772W        W 6972   1.945   5.696  41.816  0.1650  0.0224  0.1211
 4773W        W 6973  20.664   3.550  33.726  0.1757  0.4562 -0.1261
 4774W        W 6974   5.874   1.219   0.301 -0.3552 -0.1294  0.1164
 4775W        W 6975   2.053   1.790   4.563 -0.2679  0.1079  0.5913
 4776W        W 6976   9.053   6.400  35.021  0.1776  0.2087 -0.3100
 4777W        W 6977  19.536   4.928   6.108 -0.2411 -0.3333 -0.1119
 4778W        W 6978   8.451   1.038   0.249 -0.1999 -0.0463 -0.2182
 4779W        W 6979  10.533   1.981   2.494  0.2466 -0.0286  0.1990
 4780W        W 6980   8.981   3.928   8.297  0.0071 -0.1228 -0.3551
 4781W        W 6981  17.271   0.284   0.726  0.0379  0.3008  0.1058
 4782W        W 6982  20.192   1.212  11.367  0.2100 -0.2714 -0.0467
 4783W        W 6983   5.405   4.928  12.309  0.1315  0.0964  0.1091
 4784W        W 6984   6.937   3.320   5.706  0.0068  0.2129 -0.0521
 4785W        W 6985  15.084   3.748  21.951  0.0451 -0.1575  0.2501
 4786W        W 6986   5.043   3.341   5.750 -0.2979  0.1295  0.1074
 4787W        W 6987   6.293   5.964  28.317 -0.2048 -0.0181 -0.2705
 4788W        W 6988   6.625   0.619  32.521 -0.1113  0.1032  0.0192
 4789W        W 6989   3.432   1.252  19.731 -0.3121  0.1485  0.0392
 4790W        W 6990  16.865   1.977   2.298  0.1310 -0.0609  0.1843
 4791W        W 6991   3.191   1.163   7.282 -0.2565 -0.0622  0.1460
 4792W        W 6992  17.939   1.958  10.049 -0.0845  0.2248  0.0226
 4793W        W 6993  12.790   5.184  33.190 -0.0402  0.0234  0.0502
 4794W        W 6994  10.384   4.086  40.731 -0.1379  0.0835 -0.2537
 4795W        W 6995   3.733   2.893  27.930 -0.0800  0.2483 -0.0773
 4796W        W 6996   6.307   0.979  42.566 -0.2845  0.0127 -0.0570
 4797W        W 6997   4.948   0.919  15.725 -0.0980  0.2344  0.1906
 4798W        W 6998   9.738   3.167   1.606  0.2522  0.5116  0.0925
 4799W        W 6999   1.526   3.584  27.441 -0.1535 -0.2978 -0.2052
 4800W        W 7000  18.070   0.848  13.924  0.1469 -0.0632 -0.0107
 4801W        W 7001  18.977   5.270   2.906 -0.0099 -0.1875 -0.1743
 4802W        W 7002   6.158   2.699   5.884 -0.0440 -0.1154  0.0481
 4803W        W 7003  14.281   0.755  39.199 -0.1862  0.1139 -0.2501
 4804W        W 7004  15.345   6.211   1.010 -0.2263  0.0300  0.2084
 4805W        W 7005  18.970   1.005   6.785 -0.1528 -0.1782  0.2597
 4806W        W 7006  11.805   1.191  41.889 -0.1710  0.3276 -0.1271
 4807W        W 7007   5.755   2.178  29.364 -0.1995  0.1253 -0.1313
 4808W        W 7008  10.442   1.686  18.927 -0.1113 -0.1052  0.1433
 4809W        W 7009  18.624   5.062  29.727  0.0930  0.0431 -0.2052
 4810W        W 7010  14.600   1.521   8.120 -0.2080 -0.2182 -0.1896
 4811W        W 7011  14.775   0.219   2.603  0.0930  0.0902 -0.1166
 4812W        W 7012   3.718   1.440  35.762 -0.0653 -0.0807 -0.0249
 4813W        W 7013   8.034   3.210  33.304 -0.0554  0.0668 -0.1176
 4814W        W 7014  14.215   4.940  18.390  0.2850  0.0593  0.0744
 4815W        W 7015   0.279   2.505   8.746  0.0850  0.3398 -0.0252
 4816W        W 7016   2.625   4.634  25.058 -0.1141  0.3079 -0.0578
 4817W        W 7017  13.286   4.015  41.585  0.6155  0.0210  0.1420
 4818W        W 7018  10.371   1.968  43.201 -0.2050  0.0300  0.0529
 4819W        W 7019   8.989   3.447  10.037 -0.0938 -0.1371  0.0865
 4820W        W 7020  15.587   1.150  44.092  0.0874  0.0886 -0.0716
 4821W        W 7021   4.238   1.012   0.280  0.2797  0.0512  0.2927
 4822W        W 7022   3.450   2.239  27.794 -0.1163  0.1421 -0.0173
 4823W        W 7023  15.856   3.935  14.761 -0.1196  0.0030  0.2594
 4824W        W 7024  16.784   3.760   2.156  0.3124  0.0900  0.0073
 4825W        W 7025  20.187   3.174  40.022  0.1253 -0.2788 -0.0195
 4826W        W 7026  12.500   0.563  20.119 -0.4165 -0.2020  0.0890
 4827W        W 7027  18.082   0.188   8.821  0.0697 -0.0130  0.0171
 4828W        W 7028  18.114   6.209   5.413 -0.1242 -0.1892  0.0123
 4829W        W 7029   2.481   1.254  26.381  0.1243 -0.0201  0.0013
 4830W        W 7030   0.641   1.490  31.646  0.0498 -0.0138  0.0117
 4831W        W 7031  16.127   0.704  32.717 -0.2066  0.1036  0.4453
 4832W        W 7032  10.512   2.846   7.727 -0.1988 -0.1309  0.2060
 4833W        W 7033  11.459   2.039  33.219  0.3563  0.0861 -0.1002
 4834W        W 7034  21.046   1.622  42.127 -0.0709  0.0032 -0.1908
 4835W        W 7035   4.517   1.684   5.774 -0.1563  0.0817 -0.0278
 4836W        W 7036  13.386   2.075  34.037 -0.2293 -0.4067 -0.2317
 4837W        W 7037  14.777   0.130  32.633  0.1312 -0.2387  0.1159
 4838W        W 7038   1.225   3.543  11.650 -0.1311 -0.0136 -0.0498
 4839W        W 7039  20.590   2.202  17.305 -0.0368  0.0879  0.2287
 4840W        W 7040   0.970   3.847  31.982 -0.1018 -0.0087 -0.4493
 4841W        W 7041  12.424   2.698  31.369 -0.0635 -0.0120  0.1446
 4842W        W 7042   6.995   4.554   2.977  0.3512  0.0238  0.0118
 4843W        W 7043  16.363   5.424  10.324 -0.1516  0.1281 -0.2802
 4844W        W 7044  21.078   3.286   7.225  0.1490  0.0377 -0.0981
 4845W        W 7045  16.393   2.869  38.181  0.0443  0.0957 -0.3778
 4846W        W 7046  14.157   4.846  25.627  0.0068 -0.0261  0.2094
 4847W        W 7047  20.085   3.301  15.403 -0.2357  0.4144 -0.0376
 4848W        W 7048  20.486   3.981   9.978 -0.0765  0.0745 -0.1050
 4849W        W 7049   3.545   6.075  16.152  0.1634  0.1060  0.0744
 4850W        W 7050   5.950   3.690  33.392 -0.0483  0.0512 -0.0526
 4851W        W 7051  19.633   1.392  17.800  0.3801  0.1279  0.2448
 4852W        W 7052  13.831   6.103  43.181 -0.0643 -0.2206  0.0753
 4853W        W 7053  13.595   5.102  10.229 -0.0991  0.0432  0.2482
 4854W        W 7054  13.059   2.432   0.643  0.0259 -0.0786  0.0683
 4855W        W 7055   5.732   5.716   8.064  0.1926  0.0695  0.2828
 4856W        W 7056  18.754   6.178   6.046  0.0247 -0.2102 -0.0086
 4857W        W 7057  11.291   3.039  41.522  0.0538  0.0452  0.0599
 4858W        W 7058  17.836   4.262   8.995 -0.0159 -0.3017  0.3021
 4859W        W 7059  20.989   3.536   9.186 -0.2958  0.1656  0.0344
 4860W        W 7060   4.208   4.500  42.933  0.1184  0.1477 -0.1430
 4861W        W 7061   1.888   1.105  28.717 -0.0541  0.1450 -0.0195
 4862W        W 7062  10.101   0.420  11.879 -0.2750  0.0282 -0.2233
 4863W        W 7063  20.729   4.955   0.807  0.4400 -0.2067  0.0574
 4864W        W 7064  18.686   5.570  19.033  0.2621 -0.1077 -0.2734
 4865W        W 7065  10.561   4.494  18.146  0.0209  0.0572  0.1898
 4866W        W 7066  15.025   2.848   4.803  0.0408  0.0206 -0.1135
 4867W        W 7067  14.542   6.208  20.840  0.1457  0.1220 -0.0902
 4868W        W 7068  17.457   0.905   3.892 -0.0228  0.0806  0.2335
 4869W        W 7069   4.388   6.256   1.631  0.0808 -0.0791 -0.1224
 4870W        W 7070   1.797   3.857  13.501  0.2400 -0.1023  0.2558
 4871W        W 7071  12.587   1.648  10.773 -0.0278 -0.0373  0.0677
 4872W        W 7072  19.452   1.973   0.250  0.0047  0.4115 -0.0200
 4873W        W 7073   2.708   3.489  35.846  0.0138 -0.3095  0.0931
 4874W        W 7074  13.810   0.486  31.259 -0.1023  0.0736 -0.0405
 4875W        W 7075   0.029   4.050  37.862  0.4136  0.1028 -0.1692
 4876W        W 7076   4.764   1.086  33.477 -0.0893 -0.1943 -0.1722
 4877W        W 7077  14.733   6.174  16.213  0.1228  0.0660  0.1944
 4878W        W 7078  18.616   1.634  34.115  0.0678 -0.0354  0.1263
 4879W        W 7079  11.993   5.911  12.590 -0.0322 -0.0620 -0.3513
 4880W        W 7080  16.335   0.138  44.551 -0.1829 -0.2195 -0.2464
 4881W        W 7081  12.731   5.596  30.907  0.1497  0.1170 -0.0157
 4882W        W 7082  17.668   6.500   0.971  0.0945  0.1007 -0.0823
 4883W        W 7083   9.275   3.854  42.696 -0.1432 -0.1514 -0.2858
 4884W        W 7084  16.126   0.691  39.593  0.0744  0.0336 -0.0591
 4885W        W 7085  11.286   1.653  37.532 -0.0041  0.2318 -0.1629
 4886W        W 7086   4.701   4.995  37.545  0.1940  0.2245  0.1296
 4887W        W 7087  14.973   6.144  44.782  0.1147  0.1001  0.1938
 4888W        W 7088   5.089   3.548  15.586  0.2388 -0.1446 -0.0062
 4889W        W 7089  19.541   1.801  10.256  0.0126  0.2227  0.0205
 4890W        W 7090  11.241   1.044   0.406  0.0733 -0.0887  0.0985
 4891W        W 7091  12.095   1.383  22.879  0.0736 -0.1481 -0.0024
 4892W        W 7092   8.501   0.773  14.817 -0.2465  0.0772  0.3066
 4893W        W 7093  19.044   1.493  17.477  0.2527  0.3526 -0.0467
 4894W        W 7094   8.452   4.958   0.555 -0.0548 -0.0255  0.0311
 4895W        W 7095   1.983   3.622  11.315  0.1052 -0.0914  0.1010
 4896W        W 7096  19.669   3.257  11.499  0.1225  0.1085 -0.0594
 4897W        W 7097   7.279   4.277  45.141  0.2595  0.0814 -0.0453
 4898W        W 7098  12.850   1.880   8.591  0.0063  0.1465  0.3959
 4899W        W 7099  10.710   3.489  32.256  0.0269  0.1588  0.0078
 4900W        W 7100   1.114   0.271  34.230  0.1568  0.4861 -0.2085
 4901W        W 7101   5.479   4.316  44.525 -0.1105 -0.0769 -0.1448
 4902W        W 7102   8.133   2.520   1.918  0.1376  0.1093 -0.2200
 4903W        W 7103   6.620   1.441  13.055 -0.1466 -0.1726 -0.1397
 4904W        W 7104  17.022   2.550   5.814  0.4351 -0.1203 -0.2546
 4905W        W 7105  19.493   2.680  29.659  0.1034  0.2552 -0.0134
 4906W        W 7106  14.292   5.680   3.689 -0.1907 -0.0262  0.0229
 4907W        W 7107  20.414   0.254  13.477  0.0332 -0.0352 -0.1168
 4908W        W 7108  12.763   6.532  41.423  0.0186 -0.0569  0.0128
 4909W        W 7109   6.074   5.199   2.235 -0.1818  0.1269 -0.0897
 4910W        W 7110  17.735   4.885   2.548 -0.0166  0.0943  0.2707
 4911W        W 7111   1.497   4.442   4.312 -0.1650 -0.1489 -0.2153
 4912W        W 7112  18.233   4.411   9.650 -0.0020  0.1248  0.1283
 4913W        W 7113   8.806   3.624   4.122 -0.1332  0.0823 -0.1920
 4914W        W 7114  15.556   5.457   5.862  0.2313  0.0321  0.1828
 4915W        W 7115   3.965   0.451   2.397 -0.1311 -0.2946  0.2925
 4916W        W 7116   1.575   4.944   8.463  0.0861  0.2677 -0.0800
 4917W        W 7117  10.463   2.152  31.211 -0.2204  0.1802 -0.1484
 4918W        W 7118   8.696   5.936   2.264  0.3314  0.0047 -0.0240
 4919W        W 7119   5.352   0.272  22.713  0.1277 -0.0867 -0.1275
 4920W        W 7120   4.796   2.130  41.029 -0.1988  0.0587  0.1335
 4921W        W 7121  19.316   5.885  28.860  0.2144 -0.1607 -0.1984
 4922W        W 7122   8.567   6.047  15.763 -0.3289 -0.0132  0.1500
 4923W        W 7123  15.883   5.348   0.540  0.0419  0.0424 -0.1038
 4924W        W 7124  17.767   2.075  44.574  0.0851 -0.1133 -0.2050
 4925W        W 7125   6.974   1.818  14.367 -0.2282 -0.1311  0.1060
 4926W        W 7126  13.920   1.127   1.495  0.0099 -0.0270 -0.2767
 4927W        W 7127  19.325   5.054  33.281 -0.0431 -0.1072 -0.1244
 4928W        W 7128  18.446   3.603  43.052  0.0235  0.2548 -0.0880
 4929W        W 7129   3.393   0.236  12.020 -0.0340  0.0197 -0.1704
 4930W        W 7130   0.984   1.233  34.578 -0.2676 -0.1070  0.1509
 4931W        W 7131   2.859   1.246   3.555 -0.0544  0.3611 -0.1268
 4932W        W 7132   4.422   2.150  45.025 -0.0109 -0.3076  0.0043
 4933W        W 7133   9.435   2.063  29.247 -0.1510  0.2887 -0.2315
 4934W        W 7134  15.184   0.203  39.939  0.0006  0.1562  0.2383
 4935W        W 7135  15.172   3.811   3.747  0.2909 -0.1012 -0.1049
 4936W        W 7136  15.545   4.278  22.244 -0.1557 -0.0288  0.0752
 4937W        W 7137  12.492   0.392  18.070  0.1747  0.0242  0.0037
 4938W        W 7138   3.336   2.090  33.775 -0.0657  0.1615  0.0168
 4939W        W 7139   9.518   3.983  31.711 -0.1938 -0.0722  0.0266
 4940W        W 7140   7.650   3.709  35.638 -0.0746  0.1798  0.0765
 4941W        W 7141  17.880   1.905  28.937  0.0361  0.0292  0.1392
 4942W        W 7142   8.060   2.053   8.731  0.0079 -0.2615  0.0042
 4943W        W 7143  11.163   5.677  41.306 -0.0366 -0.1783 -0.1082
 4944W        W 7144  13.848   2.577  20.482  0.1763 -0.1579 -0.0088
 4945W        W 7145  19.712   5.071   8.625 -0.0943 -0.0333 -0.1252
 4946W        W 7146  13.921   3.788  20.494 -0.0564  0.1822  0.0713
 4947W        W 7147   1.796   0.088  41.207  0.0886  0.2624  0.1539
 4948W        W 7148  13.890   3.741  14.307  0.1944 -0.1349  0.0831
 4949W        W 7149   5.305   6.182   3.485  0.1885  0.0890  0.1315
 4950W        W 7150  13.865   5.097  39.018  0.0955 -0.0012  0.0349
 4951W        W 7151   1.223   0.336  43.670  0.0753  0.2729  0.1192
 4952W        W 7152  19.866   1.126  44.828 -0.0264  0.2858  0.0524
 4953W        W 7153  15.102   5.178  40.932 -0.0410  0.1461  0.0538
 4954W        W 7154   3.460   4.733  44.727 -0.2471  0.1354  0.0744
 4955W        W 7155   2.032   3.058   1.099 -0.1812 -0.1351 -0.0774
 4956W        W 7156  13.158   1.159  24.508 -0.1413 -0.1025 -0.2950
 4957W        W 7157   7.962   4.539  11.121  0.1071  0.1667  0.1622
 4958W        W 7158   2.839   0.057  35.785  0.0762  0.1031 -0.1257
 4959W        W 7159   7.463   3.273  10.887 -0.1279 -0.0925  0.0195
 4960W        W 7160   5.071   5.468  27.268 -0.0672 -0.4694 -0.1223
 4961W        W 7161   2.004   4.299   5.930  0.0921  0.2633 -0.0905
 4962W        W 7162  16.756   5.095  43.111  0.0962 -0.0860 -0.2548
 4963W        W 7163   3.967   1.786  36.097  0.0853  0.1983  0.0939
 4964W        W 7164  20.933   4.733  27.636 -0.0788  0.4476  0.0589
 4965W        W 7165   5.732   6.586  22.388  0.1215 -0.1984 -0.0124
 4966W        W 7166   5.719   6.418   0.871  0.1787 -0.0107 -0.1409
 4967W        W 7167   5.426   4.612  39.050 -0.2593 -0.0350  0.0263
 4968W        W 7168  12.467   3.555  23.818  0.2816  0.2104 -0.2847
 4969W        W 7169   9.724   6.529   4.767 -0.0362  0.0370  0.0668
 4970W        W 7170  19.437   4.781  13.897  0.1209 -0.0757 -0.0686
 4971W        W 7171   7.775   0.244   2.531  0.2350  0.0760  0.1546
 4972W        W 7172  15.177   5.447  17.805 -0.1185 -0.0574  0.0732
 4973W        W 7173   5.578   4.683  26.538 -0.0061  0.2019  0.3277
 4974W        W 7174   5.517   0.918  26.528 -0.0787  0.0126  0.0158
 4975W        W 7175  13.539   6.057   9.798  0.1599  0.0059 -0.1343
 4976W        W 7176  15.391   3.169   4.130  0.5119 -0.1608  0.2984
 4977W        W 7177  10.229   2.701  33.768  0.0098 -0.1530 -0.0257
 4978W        W 7178  10.328   0.171  15.035 -0.5023 -0.0621 -0.0493
 4979W        W 7179  19.994   1.582  29.648 -0.1029 -0.0110 -0.0363
 4980W        W 7180  12.218   4.012  41.966  0.2563 -0.1139 -0.0133
 4981W        W 7181  17.801   4.426   6.481 -0.1116  0.0728  0.0331
 4982W        W 7182   1.213   3.186  30.731  0.1599  0.2673 -0.0302
 4983W        W 7183  17.294   2.349  32.384 -0.0422  0.0452  0.3711
 4984W        W 7184   2.491   4.506  39.067  0.1797 -0.1694  0.0961
 4985W        W 7185   3.726   5.277  10.523  0.2431 -0.0823 -0.1168
 4986W        W 7186  19.228   4.783  39.230 -0.0384  0.2207 -0.3860
 4987W        W 7187  13.283   6.391  29.661  0.1184  0.2115 -0.0752
 4988W        W 7188  14.430   2.464  17.615  0.1127  0.2088 -0.2340
 4989W        W 7189   3.798   6.329  14.144  0.1223  0.4457  0.1272
 4990W        W 7190   1.043   3.793  33.600  0.0944  0.2871 -0.2037
 4991W        W 7191  15.424   2.136  39.767 -0.1935  0.1609  0.0718
 4992W        W 7192  20.231   3.220  27.316  0.0396  0.2074 -0.1087
 4993W        W 7193  16.652   2.480  11.880 -0.1624 -0.1033 -0.1404
 4994W        W 7194  12.763   0.343  42.735 -0.0076 -0.1150  0.2499
 4995W        W 7195  10.265   6.145  29.918 -0.0562  0.0138 -0.1475
 4996W        W 7196   1.053   5.017  44.747  0.1504 -0.1203 -0.1233
 4997W        W 7197   0.751   4.006  26.254  0.1238  0.0088 -0.2955
 4998W        W 7198   3.869   3.365   3.919  0.0402 -0.4410 -0.0012
 4999W        W 7199   4.052   3.644  43.294 -0.2764 -0.0286 -0.1747
 5000W        W 7200   3.734   4.997   7.371 -0.0778  0.1023 -0.1312
 5001W        W 7201   5.886   3.352  23.062 -0.3007  0.2469  0.1712
 5002W        W 7202  14.262   5.672  18.119 -0.1277 -0.0342  0.2209
 5003W        W 7203  11.021   5.755  28.724  0.0879 -0.2313  0.0664
 5004W        W 7204   3.528   3.810  24.487 -0.3247  0.0610  0.2313
 5005W        W 7205  12.111   0.577   5.417 -0.0157  0.1905  0.1107
 5006W        W 7206  17.055   1.075  10.940  0.0737 -0.1096 -0.1452
 5007W        W 7207   8.430   5.832  32.206  0.0007  0.0572 -0.0828
 5008W        W 7208   6.822   5.336  40.714 -0.2031  0.2387  0.1162
 5009W        W 7209  13.565   5.776  15.370 -0.1251 -0.2058 -0.0845
 5010W        W 7210  18.504   0.085  17.873  0.0081  0.0878  0.0373
 5011W        W 7211  14.525   4.472   5.690 -0.2457 -0.2396 -0.1012
 5012W        W 7212  12.591   4.448   1.924  0.1356 -0.2355  0.1560
 5013W        W 7213  19.136   3.854  44.626  0.2360  0.0338 -0.0479
 5014W        W 7214  16.973   2.870  17.317 -0.1152  0.1144 -0.0644
 5015W        W 7215   2.537   5.710  35.872 -0.0124 -0.1622 -0.0452
 5016W        W 7216  12.325   5.134  11.546  0.1582 -0.0990 -0.0058
 5017W        W 7217   3.824   6.534   2.432  0.1132 -0.3707 -0.1276
 5018W        W 7218  20.517   1.182   2.367 -0.2469 -0.2844  0.0876
 5019W        W 7219  11.078   0.395   5.046  0.0226  0.0046 -0.1126
 5020W        W 7220   8.354   3.561  34.522 -0.1482 -0.0350 -0.0118
 5021W        W 7221   6.136   3.364   1.902  0.0957  0.1170  0.0731
 5022W        W 7222   5.652   1.472  28.271  0.3456 -0.0526  0.3967
 5023W        W 7223  11.984   1.353  29.607 -0.0678 -0.1546  0.5165
 5024W        W 7224  13.848   3.766  44.704 -0.1524  0.0489  0.2239
 5025W        W 7225   5.366   0.439  39.714 -0.1417 -0.0973 -0.0990
 5026W        W 7226  17.281   1.263  18.914  0.0712  0.1236 -0.1256
 5027W        W 7227   4.300   0.564  34.501  0.0454  0.0129  0.0370
 5028W        W 7228  14.699   5.941   4.392 -0.1679 -0.0464  0.2673
 5029W        W 7229   1.080   3.055  39.689 -0.2277  0.1750  0.2040
 5030W        W 7230   5.281   2.242  24.560  0.1829 -0.0644  0.0955
 5031W        W 7231   4.664   1.279  41.121 -0.0248  0.1109 -0.1416
 5032W        W 7232   1.336   5.246  23.193  0.0640 -0.0678 -0.1304
 5033W        W 7233   0.459   4.172  15.660 -0.1552 -0.0454 -0.2414
 5034W        W 7234  12.308   6.367   6.022  0.2318 -0.3320  0.1589
 5035W        W 7235  18.428   3.738   7.768  0.0175 -0.1083  0.0116
 5036W        W 7236   3.183   2.110  40.203 -0.1171  0.0701 -0.3208
 5037W        W 7237   3.688   3.534   1.535  0.0989  0.0938 -0.1700
 5038W        W 7238   6.744   4.772  33.566  0.1407 -0.1683  0.0174
 5039W        W 7239  12.507   3.141   8.898 -0.0759 -0.2356 -0.0798
 5040W        W 7240  12.043   3.088   8.158  0.0957  0.2084 -0.0508
 5041W        W 7241   6.606   1.510  27.490 -0.3880 -0.1107  0.1540
 5042W        W 7242   9.002   3.403   9.526 -0.1975 -0.1858 -0.2291
 5043W        W 7243   4.413   0.209   1.121 -0.0624  0.0223  0.0364
 5044W        W 7244   3.763   4.086  26.488 -0.1526 -0.1368 -0.0145
 5045W        W 7245  15.179   2.729  12.732 -0.1875 -0.1321 -0.0672
 5046W        W 7246   4.435   4.180  26.610 -0.0283 -0.3287  0.1027
 5047W        W 7247  11.175   0.333  29.066 -0.0606  0.0682 -0.0945
 5048W        W 7248  20.750   5.567  30.394 -0.1395  0.3462  0.0518
 5049W        W 7249   4.974   3.324   2.955 -0.2551  0.2822 -0.0552
 5050W        W 7250  12.827   0.972  12.841  0.0285  0.0352  0.0919
 5051W        W 7251   2.095   0.435  40.946  0.1499  0.2635  0.0473
 5052W        W 7252   6.786   2.400   9.985 -0.3682  0.1759 -0.1374
 5053W        W 7253   6.884   3.996  37.150 -0.0094  0.1684 -0.0252
 5054W        W 7254  11.683   4.651  37.838  0.2028 -0.2246 -0.0496
 5055W        W 7255   0.994   4.639  32.633  0.2625  0.1945  0.0245
 5056W        W 7256  20.996   5.746  32.397  0.0171  0.1058 -0.1229
 5057W        W 7257  15.187   2.380   1.445  0.2523  0.0545  0.0389
 5058W        W 7258  11.195   0.799  29.802 -0.2015 -0.0163  0.2705
 5059W        W 7259   7.834   3.518  42.208  0.0522 -0.0290 -0.0707
 5060W        W 7260  15.041   5.448  35.188 -0.1026 -0.2112 -0.0818
 5061W        W 7261   2.478   0.283  28.316  0.0814 -0.4328  0.1599
 5062W        W 7262   0.700   1.043  27.141  0.3735  0.1257  0.1456
 5063W        W 7263  14.278   3.787  39.527  0.3553  0.6287  0.0273
 5064W        W 7264   2.062   2.874  36.678 -0.3953  0.2827  0.2923
 5065W        W 7265   1.728   4.472  12.719  0.2746  0.0334  0.0985
 5066W        W 7266   9.832   4.058  40.947 -0.2490 -0.0305  0.0676
 5067W        W 7267   9.135   4.941  19.124  0.3587 -0.3039  0.1164
 5068W        W 7268   8.858   1.600  44.004  0.0386 -0.1792 -0.1016
 5069W        W 7269   0.041   2.598  37.180  0.2640  0.0347 -0.0655
 5070W        W 7270  13.653   0.828  29.904 -0.0192  0.2767  0.0724
 5071W        W 7271   9.360   1.600  31.982 -0.1811 -0.0593 -0.1697
 5072W        W 7272  18.718   5.262  41.447  0.1751 -0.1391  0.1444
 5073W        W 7273   2.532   2.255  32.836  0.0824 -0.4290 -0.1623
 5074W        W 7274   7.309   0.911  11.209 -0.0056 -0.2939 -0.0293
 5075W        W 7275   1.572   2.523   0.314 -0.2107 -0.0131 -0.5001
 5076W        W 7276  20.383   4.153   4.720  0.3639  0.0547  0.0270
 5077W        W 7277  11.963   1.817  41.313  0.0204  0.1499 -0.0689
 5078W        W 7278   1.215   5.013  15.446 -0.0834  0.1562  0.0847
 5079W        W 7279  15.198   0.939  39.255  0.2807 -0.0764  0.0681
 5080W        W 7280  17.179   4.395  12.465 -0.0565 -0.0475 -0.3826
 5081W        W 7281   0.110   2.262  25.488  0.1564  0.0138 -0.1828
 5082W        W 7282   5.556   5.696   9.795  0.2036 -0.1082  0.0650
 5083W        W 7283  20.511   6.170  31.525  0.1150  0.0507  0.1436
 5084W        W 7284  16.138   4.425  21.381 -0.1844 -0.2862  0.0623
 5085W        W 7285   7.896   5.768   4.813  0.0665 -0.0197  0.0927
 5086W        W 7286   5.609   4.887  30.150 -0.1185 -0.0432  0.2509
 5087W        W 7287   9.626   0.736  43.391 -0.0245 -0.2053  0.1076
 5088W        W 7288   7.668   6.094  27.022  0.0549 -0.1477  0.0402
 5089W        W 7289   2.514   2.929  29.794 -0.0546 -0.1986  0.1041
 5090W        W 7290  14.210   5.957  25.029 -0.2424 -0.1345 -0.2303
 5091W        W 7291  14.219   6.070  24.478  0.0259  0.0819 -0.0199
 5092W        W 7292  20.379   3.499   4.154 -0.0240  0.0436  0.2758
 5093W        W 7293   8.751   4.615  26.978 -0.0173  0.1335  0.3587
 5094W        W 7294   5.912   4.042   7.854 -0.0307 -0.1833  0.1084
 5095W        W 7295   8.875   1.929  42.141  0.3486  0.0639  0.0978
 5096W        W 7296  14.881   5.605   7.487  0.0309 -0.2208 -0.0809
 5097W        W 7297  13.238   3.643  15.250 -0.1740  0.0696 -0.0941
 5098W        W 7298   7.686   3.092  41.504 -0.0526  0.0573  0.0521
 5099W        W 7299  13.185   0.452  32.566 -0.0059  0.0451  0.1864
 5100W        W 7300  14.389   3.854  20.462 -0.2917 -0.1292  0.4013
 5101W        W 7301   2.706   3.497  22.718 -0.0318 -0.1042 -0.0798
 5102W        W 7302  12.584   3.740   7.841 -0.1253 -0.0918  0.1989
 5103W        W 7303   6.518   0.731  31.478 -0.2674 -0.0258 -0.1049
 5104W        W 7304  15.130   2.817  33.329  0.0224  0.2109  0.1466
 5105W        W 7305   0.073   3.698  34.874  0.0492  0.4685 -0.0537
 5106W        W 7306  18.442   4.848  30.142  0.0918 -0.1611 -0.1390
 5107W        W 7307   7.048   4.221  24.276  0.1486  0.1056  0.0403
 5108W        W 7308   7.761   3.673  25.153 -0.2140  0.2546 -0.2146
 5109W        W 7309  11.662   1.148   7.507  0.1550 -0.0723 -0.0284
 5110W        W 7310   6.325   1.593  16.926 -0.1874 -0.1503 -0.0455
 5111W        W 7311   6.686   0.116  32.620  0.0159  0.3506 -0.2742
 5112W        W 7312  11.083   1.739  42.810 -0.0295 -0.1179 -0.0185
 5113W        W 7313   7.843   3.012  42.217 -0.2006  0.3607 -0.2720
 5114W        W 7314  16.433   4.943  34.730  0.2077 -0.1000 -0.1633
 5115W        W 7315  15.668   3.792  37.741 -0.0584  0.1732 -0.3420
 5116W        W 7316  19.022   1.473  12.008  0.0360  0.2398 -0.3663
 5117W        W 7317   3.692   0.436  13.756  0.1749 -0.1221  0.2823
 5118W        W 7318   9.339   1.558  35.495  0.0528  0.0634  0.0005
 5119W        W 7319   2.759   2.196  41.821 -0.1013  0.4810  0.0848
 5120W        W 7320   5.535   0.347  36.839  0.1644 -0.1688 -0.0716
 5121W        W 7321   8.591   1.448  13.212  0.1533  0.0412 -0.0506
 5122W        W 7322   7.897   4.266  36.339  0.3344 -0.0543  0.1428
 5123W        W 7323   1.063   4.399  35.839  0.4457 -0.0813  0.3029
 5124W        W 7324   6.736   3.614  11.106 -0.2822 -0.1022  0.1205
 5125W        W 7325   1.728   3.889   0.910 -0.2340  0.2014  0.0030
 5126W        W 7326  19.219   2.949   5.654 -0.3274 -0.0010 -0.2317
 5127W        W 7327  17.347   1.937  29.155 -0.0160 -0.3163 -0.0417
 5128W        W 7328  10.548   5.602  42.962 -0.1291 -0.0302  0.1327
 5129W        W 7329   0.842   3.852   9.728  0.0443 -0.0243  0.3361
 5130W        W 7330   5.790   6.603   1.639 -0.1994  0.1400  0.1156
 5131W        W 7331   3.353   2.575   5.877 -0.1147 -0.1386  0.0107
 5132W        W 7332  15.468   2.656  44.588 -0.1221  0.2733  0.0252
 5133W        W 7333  17.330   4.934  29.016  0.2261  0.2044 -0.0585
 5134W        W 7334  18.618   2.636   9.714 -0.2544 -0.0260  0.0341
 5135W        W 7335  15.029   5.061  19.180 -0.0351  0.0001 -0.1655
 5136W        W 7336  15.946   0.743  35.301  0.3215  0.0597  0.2496
 5137W        W 7337   2.168   4.444   0.183  0.3415 -0.1720 -0.0646
 5138W        W 7338   2.472   3.393  40.375 -0.1579 -0.0517 -0.0848
 5139W        W 7339  13.348   0.556  16.114  0.0253 -0.0420  0.3905
 5140W        W 7340   9.468   1.511  35.028 -0.0341 -0.0679 -0.0691
 5141W        W 7341   0.340   2.889  43.115 -0.0094 -0.2928  0.4421
 5142W        W 7342   1.161   6.114   2.902  0.2714  0.0681  0.0522
 5143W        W 7343   8.807   2.442  32.051 -0.0987  0.1871  0.0912
 5144W        W 7344   4.748   4.244   4.010 -0.1278  0.1436 -0.0229
 5145W        W 7345   4.450   0.274  33.159  0.4290 -0.0602 -0.4379
 5146W        W 7346  12.587   3.263  14.504  0.0183 -0.1350 -0.2071
 5147W        W 7347  15.618   2.824  14.459 -0.0042  0.1150 -0.0149
 5148W        W 7348   0.645   5.875  33.457 -0.0089  0.1043 -0.0919
 5149W        W 7349  11.928   1.002  32.636  0.2587  0.2225 -0.1898
 5150W        W 7350   5.578   1.773  24.899  0.0208 -0.2536  0.2968
 5151W        W 7351   6.444   4.800  30.099 -0.0371  0.1262  0.3225
 5152W        W 7352   3.117   0.829  13.817  0.0363  0.2617 -0.0692
 5153W        W 7353  14.522   5.676  37.470  0.0443 -0.0760  0.1725
 5154W        W 7354  18.683   6.589  31.129  0.2370  0.1055 -0.1236
 5155W        W 7355  19.911   4.980   1.699  0.3730 -0.3029  0.1665
 5156W        W 7356  17.684   1.666   9.664 -0.0868  0.5164 -0.1757
 5157W        W 7357   6.319   1.676  36.971 -0.0510 -0.0145  0.1166
 5158W        W 7358   0.109   1.119  15.789  0.1456 -0.6678 -0.0598
 5159W        W 7359   1.089   6.331   5.175 -0.1470 -0.0838  0.2877
 5160W        W 7360  15.107   3.422  34.341  0.2576  0.0732 -0.2940
 5161W        W 7361  13.805   0.301   4.008  0.0244  0.3088 -0.0694
 5162W        W 7362   2.688   4.693   8.802  0.0880  0.0163  0.0150
 5163W        W 7363   3.926   0.327  42.998 -0.0497  0.2130 -0.3181
 5164W        W 7364   1.196   3.489   9.672 -0.0784 -0.1763 -0.0384
 5165W        W 7365  19.289   1.226  14.421 -0.0417  0.1626 -0.1627
 5166W        W 7366   3.492   4.772  39.140  0.1224  0.1616 -0.0019
 5167W        W 7367   2.798   6.394  44.727  0.0810  0.0071 -0.0412
 5168W        W 7368   5.018   4.544  10.151 -0.1739  0.0000  0.1201
 5169W        W 7369  10.488   2.863   2.996 -0.1224  0.0085 -0.2664
 5170W        W 7370   5.982   4.227   6.219 -0.1072 -0.1100  0.1126
 5171W        W 7371  10.971   5.508   6.213  0.0128  0.0329  0.0516
 5172W        W 7372   3.081   6.074  24.737  0.2543 -0.0820  0.1474
 5173W        W 7373   3.954   0.767  33.834  0.0810 -0.0793  0.2509
 5174W        W 7374  20.569   1.644  26.572 -0.1454  0.2384 -0.1535
 5175W        W 7375   4.562   4.937  25.695  0.2154 -0.5627  0.3568
 5176W        W 7376  13.903   4.695  44.169 -0.0612 -0.2340 -0.2944
 5177W        W 7377   3.325   4.468  36.491 -0.3233 -0.0359 -0.0535
 5178W        W 7378  17.409   2.951   4.127  0.0501  0.4102 -0.0854
 5179W        W 7379  11.270   4.771  30.409 -0.0252 -0.1017 -0.0879
 5180W        W 7380  12.818   2.469  21.409  0.4946  0.0403 -0.1712
 5181W        W 7381   6.295   5.813  33.440  0.1336 -0.1073  0.4222
 5182W        W 7382   3.206   5.240  44.927 -0.2650  0.5230 -0.0401
 5183W        W 7383  10.859   3.116  30.375  0.1360 -0.0161 -0.1942
 5184W        W 7384   1.970   0.959  42.177  0.0284 -0.1984  0.3080
 5185W        W 7385   5.593   3.282   4.891  0.1443  0.2151  0.0095
 5186W        W 7386  13.023   0.013  37.369 -0.2188 -0.1622  0.0531
 5187W        W 7387  14.063   4.712  14.544 -0.2181  0.3322 -0.0194
 5188W        W 7388  18.425   1.886  36.075  0.1194 -0.0985 -0.1340
 5189W        W 7389  17.621   5.914  43.834 -0.0161  0.0585 -0.1249
 5190W        W 7390   8.466   6.597  16.457  0.0559 -0.0667 -0.0435
 5191W        W 7391   2.751   0.282  24.852  0.1621 -0.1217 -0.1567
 5192W        W 7392  19.999   6.135   6.421 -0.0803  0.0898 -0.1153
 5193W        W 7393  13.795   2.663  23.790  0.1582  0.0787  0.1070
 5194W        W 7394  10.290   3.359  19.301 -0.1818  0.0806 -0.1802
 5195W        W 7395  12.233   2.537  37.414  0.0097 -0.0983  0.0566
 5196W        W 7396   3.292   3.735  24.924 -0.3348 -0.1824 -0.0999
 5197W        W 7397  13.388   3.157  18.277 -0.0606 -0.0799  0.0240
 5198W        W 7398  11.050   1.682  41.411  0.0877 -0.1954 -0.1034
 5199W        W 7399   0.880   5.493   3.982  0.0020  0.2524 -0.1461
 5200W        W 7400  10.908   4.331  19.904  0.1474  0.1310 -0.2274
 5201W        W 7401   3.636   3.602  37.059  0.0979 -0.3512 -0.1364
 5202W        W 7402   5.359   1.429   5.728 -0.2854 -0.2630 -0.1310
 5203W        W 7403   0.422   2.204  36.010  0.1367  0.2351 -0.2524
 5204W        W 7404   6.918   2.241  30.697  0.0920  0.1582 -0.2226
 5205W        W 7405   1.383   3.515   6.597 -0.0565  0.0671  0.1129
 5206W        W 7406  19.428   2.043   4.701 -0.2744  0.1487  0.0884
 5207W        W 7407  18.199   6.294  33.942 -0.3739 -0.3760  0.2152
 5208W        W 7408  19.017   4.264  36.974 -0.0906  0.1479  0.4012
 5209W        W 7409  13.200   6.172  36.451 -0.5979  0.2107  0.2649
 5210W        W 7410   3.678   6.358  13.050 -0.1065  0.3870  0.4276
 5211W        W 7411   2.194   1.380  12.770 -0.1330 -0.1180 -0.0076
 5212W        W 7412   3.489   5.165  22.246 -0.0896  0.1509  0.0166
 5213W        W 7413   5.025   2.289  22.108  0.0480 -0.1571  0.0320
 5214W        W 7414   3.883   2.135  27.070  0.0357 -0.2284 -0.0321
 5215W        W 7415   3.007   6.587  30.843  0.1605  0.2810  0.0426
 5216W        W 7416   3.508   1.669   5.327 -0.2484 -0.1331  0.2260
 5217W        W 7417  17.951   5.628  42.547 -0.0783  0.0127  0.1606
 5218W        W 7418  16.076   6.118   7.699  0.1287  0.1540 -0.0669
 5219W        W 7419   9.196   5.092   0.814  0.1366  0.0641  0.0203
 5220W        W 7420  18.427   3.093  42.588  0.0556  0.0595 -0.2978
 5221W        W 7421  16.666   2.500  20.579  0.0281 -0.0260 -0.2880
 5222W        W 7422  14.140   1.098  11.135  0.1750  0.1221 -0.0011
 5223W        W 7423  13.057   0.971  11.855 -0.3840  0.1782  0.1899
 5224W        W 7424   2.257   4.093  25.094 -0.0242 -0.0948  0.2927
 5225W        W 7425  17.461   2.997  40.651 -0.3542  0.2092 -0.0081
 5226W        W 7426   9.313   6.089   9.376  0.0878  0.1661  0.0742
 5227W        W 7427   2.576   3.433   6.940  0.0794  0.0600 -0.3383
 5228W        W 7428  16.292   1.335  45.123  0.3065  0.1398 -0.0775
 5229W        W 7429   0.670   1.677  38.202 -0.0463 -0.2372  0.0029
 5230W        W 7430  11.044   5.469  40.764 -0.0306 -0.0071 -0.0569
 5231W        W 7431   0.200   0.617   8.293 -0.1894  0.0020 -0.4305
 5232W        W 7432   6.190   2.087  39.276 -0.1419  0.1977  0.1610
 5233W        W 7433  12.727   5.396  28.802 -0.1001  0.0092 -0.1245
 5234W        W 7434   4.312   5.285  21.745  0.0454  0.1846 -0.2253
 5235W        W 7435  13.657   0.378  10.854 -0.0566  0.2574  0.1000
 5236W        W 7436   9.431   0.982  44.757  0.2741  0.2221 -0.1742
 5237W        W 7437  12.013   2.601  34.016 -0.1018  0.2062  0.0819
 5238W        W 7438   7.112   0.056  40.053 -0.1237  0.2256  0.0659
 5239W        W 7439  13.258   2.624  13.008 -0.1073 -0.1092 -0.2135
 5240W        W 7440   1.412   3.212   5.915  0.1571  0.0109  0.0543
 5241W        W 7441  19.213   2.292  42.183 -0.0141 -0.1378 -0.0911
 5242W        W 7442   1.487   1.873  43.433 -0.2197 -0.1650  0.0609
 5243W        W 7443  14.422   2.275  17.032 -0.3156  0.3053  0.0938
 5244W        W 7444   2.500   0.548  11.786  0.1644 -0.0554  0.1280
 5245W        W 7445   3.105   5.226  10.648 -0.3738  0.1991  0.0275
 5246W        W 7446   0.404   5.449  45.022  0.2883 -0.1189  0.1125
 5247W        W 7447  17.602   0.099   9.062  0.0652  0.2882 -0.1189
 5248W        W 7448  19.453   2.432  42.724 -0.0472  0.0126  0.0924
 5249W        W 7449   6.199   6.433  38.186 -0.0172  0.0578  0.2655
 5250W        W 7450   9.103   0.560   4.507 -0.0650 -0.0382  0.0588
 5251W        W 7451   4.464   1.393  10.636  0.3820 -0.0698  0.2711
 5252W        W 7452   9.650   2.772  38.128 -0.5323  0.0769 -0.1599
 5253W        W 7453   9.816   0.805   9.076  0.0755 -0.2293  0.1336
 5254W        W 7454  17.542   2.796  10.249  0.0733  0.0525  0.2443
 5255W        W 7455   3.801   5.285  21.560 -0.0455  0.0566 -0.1419
 5256W        W 7456   6.074   2.795  38.214  0.5489  0.2993 -0.0491
 5257W        W 7457  18.302   6.293  40.717 -0.0465 -0.2017 -0.0589
 5258W        W 7458   0.259   5.273   1.160  0.0112  0.1299  0.2120
 5259W        W 7459  14.939   5.153  35.798 -0.1520  0.1607 -0.0397
 5260W        W 7460  12.399   4.427  17.309 -0.2287 -0.3205  0.1871
 5261W        W 7461  16.153   4.335  37.138 -0.0066  0.2019  0.0601
 5262W        W 7462   2.327   0.015  38.456  0.1263  0.0073  0.2726
 5263W        W 7463   5.082   3.166  44.953 -0.0857  0.0387 -0.2175
 5264W        W 7464   6.763   2.633  44.026  0.0848 -0.1455 -0.1144
 5265W        W 7465  16.411   5.036  38.353 -0.0543  0.0697 -0.4482
 5266W        W 7466  13.571   1.449  34.627 -0.1129 -0.0494  0.0494
 5267W        W 7467   1.169   3.767  10.115  0.1142 -0.1552 -0.1189
 5268W        W 7468   3.715   3.654   7.773  0.0706 -0.5108 -0.1213
 5269W        W 7469  17.720   1.567  42.510 -0.0500 -0.0945  0.0493
 5270W        W 7470   2.697   5.724  41.276  0.3092 -0.2227 -0.3263
 5271W        W 7471   2.597   4.063  43.235  0.2475  0.0215 -0.2224
 5272W        W 7472  12.347   1.969   8.323  0.0540  0.0705 -0.3275
 5273W        W 7473   6.590   4.040  29.781  0.2037 -0.4189 -0.1641
 5274W        W 7474   3.547   5.530  29.163 -0.0404 -0.1482 -0.1113
 5275W        W 7475  10.966   0.092  33.978  0.1711  0.0593 -0.1864
 5276W        W 7476   2.993   2.411  43.148  0.1305 -0.2117 -0.3829
 5277W        W 7477  10.607   1.099   3.709 -0.3771 -0.2208 -0.0921
 5278W        W 7478  14.740   6.450   4.139  0.2334 -0.2420  0.1365
 5279W        W 7479   4.443   4.029  44.131  0.0157  0.1135 -0.1024
 5280W        W 7480  16.812   1.666   8.307  0.1606  0.1462 -0.2084
 5281W        W 7481  10.618   0.800   1.032 -0.0599 -0.1328  0.1885
 5282W        W 7482  13.813   5.609  31.721 -0.2844  0.0245  0.0720
 5283W        W 7483   1.358   3.324   3.950  0.1683  0.1015 -0.2602
 5284W        W 7484   5.526   1.408  26.437  0.0076 -0.0948 -0.0141
 5285W        W 7485  20.001   6.534  11.629 -0.4073 -0.1232 -0.0438
 5286W        W 7486   6.647   1.548  37.946  0.0004  0.2648 -0.2350
 5287W        W 7487  11.635   4.701   1.601 -0.3729  0.1195  0.0242
 5288W        W 7488  11.952   3.773   0.436  0.1749  0.0515 -0.2994
 5289W        W 7489   9.209   5.459   8.120 -0.1423 -0.0773  0.0622
 5290W        W 7490   8.634   3.468  36.148  0.0322  0.0693 -0.2387
 5291W        W 7491   2.494   1.661   7.902 -0.1361  0.0018  0.1239
 5292W        W 7492   2.115   5.484   9.977 -0.0513  0.2519 -0.0010
 5293W        W 7493  15.215   1.227   2.479  0.0393  0.0048  0.2858
 5294W        W 7494   5.885   6.250  27.307 -0.1914  0.4861 -0.0123
 5295W        W 7495  14.150   2.686  12.995  0.1318  0.0623 -0.1704
 5296W        W 7496   7.542   5.011   3.255  0.1332  0.0091 -0.3084
 5297W        W 7497   0.132   3.583  37.621 -0.0125 -0.3265 -0.1064
 5298W        W 7498  20.949   2.263  28.245  0.2970 -0.2022 -0.1729
 5299W        W 7499  16.273   0.711  31.335 -0.3031  0.0214 -0.2165
 5300W        W 7500   2.805   1.870   4.101  0.2016 -0.1726  0.1243
 5301W        W 7501  13.625   6.371  36.361 -0.4112 -0.0026  0.1554
 5302W        W 7502  14.493   1.960   2.330 -0.0734 -0.1124  0.0057
 5303W        W 7503  21.052   2.866   3.280 -0.0595  0.0129  0.0606
 5304W        W 7504  17.248   6.309  31.145 -0.1460 -0.2348  0.2717
 5305W        W 7505   6.036   1.854   5.401 -0.1429 -0.1252 -0.2155
 5306W        W 7506   7.830   2.256  40.489 -0.2730 -0.0072 -0.1919
 5307W        W 7507   2.822   0.744  27.481  0.0854 -0.1390  0.2898
 5308W        W 7508  14.071   4.925   7.441 -0.0814 -0.0922  0.0162
 5309W        W 7509   5.846   0.414  14.762  0.0981  0.1774 -0.1707
 5310W        W 7510   4.870   0.128  25.317  0.0849  0.0736  0.1716
 5311W        W 7511  13.255   5.669  30.788  0.0630 -0.2733  0.1396
 5312W        W 7512  17.230   4.974  36.120  0.3077 -0.1469  0.0474
 5313W        W 7513   8.085   3.314  38.775 -0.1852  0.0601  0.2918
 5314W        W 7514   0.575   5.073  24.862  0.0587  0.0049  0.0323
 5315W        W 7515  15.778   4.446  10.911 -0.1246  0.3334 -0.2121
 5316W        W 7516  17.653   4.946  29.784  0.0601  0.0324 -0.0588
 5317W        W 7517   2.704   2.014  38.751  0.0717 -0.0282 -0.1516
 5318W        W 7518  12.068   0.660  12.801  0.4352 -0.0718  0.1284
 5319W        W 7519  15.489   1.524   8.322 -0.1364 -0.2205 -0.6208
 5320W        W 7520   1.225   3.124  28.047  0.2497  0.2557 -0.0664
 5321W        W 7521   2.869   1.013  29.940 -0.3079 -0.2864 -0.3607
 5322W        W 7522   6.534   5.087  42.169  0.1456 -0.1196 -0.1709
 5323W        W 7523  19.957   4.577  42.532 -0.2461 -0.3892 -0.1982
 5324W        W 7524   9.978   6.580  32.156  0.3306  0.2488 -0.1980
 5325W        W 7525   8.183   1.324   0.619  0.3482 -0.0546 -0.3121
 5326W        W 7526   9.856   0.947   3.719 -0.2277  0.0944 -0.3333
 5327W        W 7527   8.154   2.264  12.507 -0.0609  0.1564 -0.2688
 5328W        W 7528   1.776   1.853  42.231  0.4149  0.1067 -0.0720
 5329W        W 7529  16.754   0.102  37.660  0.2983  0.1364 -0.1724
 5330W        W 7530  12.446   0.151  34.989  0.3010 -0.1487  0.0515
 5331W        W 7531   7.349   6.133  12.925 -0.0538  0.0742 -0.2635
 5332W        W 7532   1.310   4.779   5.277  0.3228 -0.0094 -0.1017
 5333W        W 7533  10.988   4.448  31.369  0.3178  0.2061  0.0669
 5334W        W 7534  14.520   5.611  29.439  0.1339  0.0977 -0.1959
 5335W        W 7535  13.862   1.629  19.357  0.0752 -0.1324 -0.1648
 5336W        W 7536   6.769   3.802  41.065  0.0452  0.0792  0.0197
 5337W        W 7537  10.663   1.629   2.089  0.4193 -0.1165  0.0629
 5338W        W 7538   8.524   3.504  17.567  0.1763 -0.1590 -0.3300
 5339W        W 7539  11.421   2.292  32.801  0.1559  0.4537 -0.0271
 5340W        W 7540   7.222   4.135  29.974  0.0402  0.1894  0.1928
 5341W        W 7541  11.988   0.583  40.220 -0.2956  0.1022  0.0291
 5342W        W 7542  18.772   1.603  28.845  0.2296  0.2136  0.1139
 5343W        W 7543   7.072   6.261   4.883  0.1454  0.0513 -0.2144
 5344W        W 7544   7.696   5.201  13.211  0.1771 -0.0717 -0.0732
 5345W        W 7545   6.049   4.513  25.758 -0.1262  0.1083  0.1986
 5346W        W 7546  20.173   5.250  11.863 -0.1856  0.2598  0.4587
 5347W        W 7547   1.669   0.028  32.869  0.0845 -0.0645 -0.2324
 5348W        W 7548  10.907   1.446  15.430 -0.0880  0.1398 -0.0888
 5349W        W 7549   3.328   1.801   2.283 -0.0878  0.1139  0.2583
 5350W        W 7550  19.940   1.202  12.587  0.3180  0.0146 -0.1612
 5351W        W 7551  20.961   5.874  44.237  0.3121  0.2860  0.0878
 5352W        W 7552   7.758   5.360  41.920  0.2530  0.1733  0.2636
 5353W        W 7553  17.008   4.871  44.890  0.2713 -0.1280  0.1986
 5354W        W 7554   2.158   5.931  26.616 -0.0265  0.3513  0.4192
 5355W        W 7555  18.713   2.542   7.154 -0.1293  0.3363 -0.0748
 5356W        W 7556  21.071   5.719   5.767 -0.1189  0.0242  0.1058
 5357W        W 7557  19.368   2.420  45.140 -0.0269 -0.0112  0.0306
 5358W        W 7558   0.527   0.978   8.513  0.0549  0.2153  0.1460
 5359W        W 7559  12.265   5.235  39.252 -0.0463 -0.0810 -0.0091
 5360W        W 7560  18.751   2.495  38.951  0.1194 -0.2211 -0.0506
 5361W        W 7561   8.248   3.748  31.815 -0.0097 -0.3780 -0.2050
 5362W        W 7562  20.558   3.085   8.326  0.1351  0.0996  0.1535
 5363W        W 7563   7.658   0.537   4.255 -0.0371  0.1195  0.4101
 5364W        W 7564  18.026   0.032  15.166  0.3618 -0.0046  0.0067
 5365W        W 7565  18.534   5.842  17.099  0.4340  0.3108  0.1079
 5366W        W 7566  15.133   0.607  20.347  0.2691 -0.1552  0.2458
 5367W        W 7567   6.318   5.649  11.862  0.3098  0.2518 -0.1111
 5368W        W 7568  12.351   5.076  22.160 -0.0601 -0.2386 -0.1659
 5369W        W 7569  19.446   4.609  29.123  0.2489 -0.0407 -0.0010
 5370W        W 7570  13.372   3.663  38.589  0.2247  0.0611  0.2348
 5371W        W 7571  18.783   5.122   8.983  0.0397 -0.0036 -0.1921
 5372W        W 7572   3.492   4.605  36.986  0.0028  0.1757  0.1118
 5373W        W 7573   4.709   5.335  43.810  0.0705 -0.0053  0.2086
 5374W        W 7574  18.177   3.997  11.181  0.0573 -0.1113  0.1111
 5375W        W 7575  17.364   5.209  39.789 -0.0670  0.2622 -0.1862
 5376W        W 7576  14.078   3.863  44.284  0.0699 -0.3603  0.2044
 5377W        W 7577   5.496   4.490   6.101 -0.0088 -0.1713  0.0864
 5378W        W 7578  17.836   0.506  11.618 -0.1616 -0.1053  0.0667
 5379W        W 7579   5.187   3.100  13.328 -0.3244 -0.1996  0.1343
 5380W        W 7580   7.750   5.423  10.610  0.0352 -0.1744 -0.0716
 5381W        W 7581   9.140   2.256  41.931  0.1313 -0.1540  0.1843
 5382W        W 7582  12.212   0.423  16.439  0.3893  0.2606 -0.0826
 5383W        W 7583  20.831   2.482  10.427  0.3821 -0.0686  0.0604
 5384W        W 7584   3.297   0.727  27.241  0.0210  0.0983 -0.3084
 5385W        W 7585  14.842   4.533  32.171 -0.0838  0.1767  0.1288
 5386W        W 7586  12.745   3.043   5.377  0.0345  0.1080  0.0090
 5387W        W 7587   0.976   3.114  14.238  0.1953  0.1184 -0.0760
 5388W        W 7588  14.309   4.994  12.354 -0.0875  0.1213 -0.0293
 5389W        W 7589   0.797   6.090  32.468 -0.1009  0.1726 -0.0689
 5390W        W 7590  14.537   5.108  13.264  0.1465 -0.3107  0.0841
 5391W        W 7591  10.464   5.901  11.439  0.1271  0.0692 -0.0166
 5392W        W 7592   7.304   0.229  34.967  0.1593 -0.1994 -0.0166
 5393W        W 7593  11.270   1.732  40.813 -0.1246 -0.1870  0.1319
 5394W        W 7594   8.403   1.324  35.286  0.0288  0.2269 -0.2183
 5395W        W 7595  16.738   4.657   9.987  0.3000  0.1233  0.1992
 5396W        W 7596  15.201   3.708  39.333  0.0157 -0.0845 -0.1131
 5397W        W 7597  18.659   6.255  11.271 -0.0241  0.1595 -0.0572
 5398W        W 7598   2.290   0.549  15.870  0.0050 -0.0504 -0.2434
 5399W        W 7599  13.725   1.763  11.230  0.0249 -0.0425 -0.0039
 5400W        W 7600   7.467   6.046  36.237 -0.1330  0.0493 -0.2293
 5401W        W 7601  10.560   0.033  39.566  0.0319  0.1338 -0.0541
 5402W        W 7602   5.604   4.400  43.549 -0.3027 -0.2454 -0.1585
 5403W        W 7603  15.558   2.565  34.431  0.0144  0.1670 -0.0290
 5404W        W 7604   5.693   4.430  36.917  0.0314 -0.0905  0.0656
 5405W        W 7605  19.981   1.626  30.393 -0.0495 -0.2093 -0.0666
 5406W        W 7606   9.003   2.955  36.777  0.1141  0.5314 -0.1334
 5407W        W 7607  12.408   6.154  33.498 -0.4028  0.0798 -0.2560
 5408W        W 7608  17.619   3.466  35.591 -0.2377  0.2926  0.4341
 5409W        W 7609  18.282   2.635  12.433 -0.2740  0.1189  0.1512
 5410W        W 7610   5.739   0.451  30.059 -0.0161  0.1348  0.1920
 5411W        W 7611  13.604   4.988  34.138  0.0087  0.0377 -0.1688
 5412W        W 7612  15.423   5.801  10.238 -0.4778  0.0001 -0.0127
 5413W        W 7613  20.066   0.310  34.882 -0.1404 -0.1693  0.0222
 5414W        W 7614  19.024   3.741  42.423 -0.2021 -0.1456 -0.0500
 5415W        W 7615  17.714   1.892  39.346  0.1022  0.2437  0.0051
 5416W        W 7616  15.153   4.238  42.653  0.1255 -0.1599 -0.1755
 5417W        W 7617  11.490   0.384  40.349  0.0280 -0.1703  0.1971
 5418W        W 7618   7.820   4.825  41.876 -0.0223  0.0963  0.0320
 5419W        W 7619  16.373   4.581  20.388 -0.0116 -0.3582  0.1418
 5420W        W 7620   8.969   0.640  27.438 -0.0152 -0.0654 -0.4047
 5421W        W 7621  21.065   3.642   0.489 -0.0127 -0.2745 -0.0101
 5422W        W 7622  12.838   2.822  39.196 -0.0770 -0.0076  0.1011
 5423W        W 7623   8.584   1.534  34.781 -0.2881  0.2739  0.3078
 5424W        W 7624   9.276   3.788   2.216  0.0153  0.0549  0.1051
 5425W        W 7625   8.844   0.632  31.927  0.1735 -0.1122  0.2320
 5426W        W 7626   4.936   3.103  13.755  0.3780 -0.1464 -0.0043
 5427W        W 7627   2.154   6.070   2.747  0.2236  0.0574  0.0441
 5428W        W 7628   0.630   0.968  31.515 -0.1915  0.1697 -0.1481
 5429W        W 7629  11.465   0.367   4.639  0.3746 -0.2463 -0.1119
 5430W        W 7630  19.476   4.809  41.378 -0.0609  0.2876 -0.0474
 5431W        W 7631   4.334   5.704  14.403 -0.1409  0.0194 -0.0123
 5432W        W 7632   0.174   5.865  33.352 -0.2532 -0.1404  0.2546
 5433W        W 7633  17.238   1.168  13.336  0.0775  0.4485  0.3609
 5434W        W 7634   5.704   1.142  16.163 -0.1399 -0.0445 -0.2439
 5435W        W 7635   8.535   3.425   3.746 -0.1700 -0.0639 -0.0898
 5436W        W 7636   3.763   2.249  23.661 -0.1747 -0.3721 -0.1044
 5437W        W 7637  12.406   2.561  17.296  0.0038 -0.0086  0.1254
 5438W        W 7638  17.457   0.769   8.305 -0.2245 -0.1613 -0.0054
 5439W        W 7639   7.331   2.700  39.142  0.1546 -0.1078  0.1680
 5440W        W 7640   6.677   2.480  32.761  0.0197  0.1320  0.0238
 5441W        W 7641  10.609   2.141   5.867  0.3866 -0.1597 -0.2994
 5442W        W 7642  10.388   4.011   8.291 -0.2881  0.0049  0.0591
 5443W        W 7643  11.862   0.016  41.623 -0.0264 -0.1846  0.0478
 5444W        W 7644  19.497   0.177  11.712 -0.0895  0.0283 -0.2041
 5445W        W 7645   9.606   6.403  37.860 -0.1203  0.2225 -0.3167
 5446W        W 7646   9.576   5.245  38.297  0.2489  0.2606 -0.0132
 5447W        W 7647  18.121   0.992   5.812 -0.1576 -0.0013 -0.1791
 5448W        W 7648  12.222   2.554   5.053 -0.1078 -0.0781  0.2062
 5449W        W 7649   2.373   3.373   0.899  0.0318  0.0406 -0.3310
 5450W        W 7650  15.131   6.471   2.946  0.1407 -0.0954 -0.1602
 5451W        W 7651  11.716   4.921  12.851 -0.1670  0.2684  0.1507
 5452W        W 7652   6.875   2.357   1.204  0.1151 -0.0425 -0.1639
 5453W        W 7653   5.349   2.433  31.553  0.0177 -0.0203  0.1691
 5454W        W 7654  11.755   6.009  43.259 -0.0109  0.0244 -0.0062
 5455W        W 7655   2.249   3.387   9.496 -0.0860 -0.1307  0.1354
 5456W        W 7656   7.904   3.651   5.847  0.0206  0.0147 -0.2283
 5457W        W 7657  13.722   2.789  10.192  0.1797 -0.1519 -0.1666
 5458W        W 7658  20.948   3.758  27.366 -0.3354  0.0396 -0.1583
 5459W        W 7659   3.061   1.935  26.088  0.0091  0.2586 -0.1198
 5460W        W 7660  19.254   3.219  27.754 -0.3108 -0.0998  0.0452
 5461W        W 7661  14.094   4.036  11.052 -0.1045  0.3167 -0.1034
 5462W        W 7662   7.185   1.014   9.923  0.0975  0.1918  0.1667
 5463W        W 7663   3.159   2.998  36.080 -0.1433  0.1359 -0.3575
 5464W        W 7664  20.960   5.795  26.206  0.3395  0.0689 -0.0621
 5465W        W 7665  10.386   4.042  33.389 -0.0195 -0.2739  0.0858
 5466W        W 7666  15.465   4.129  42.024  0.1513  0.1264  0.1109
 5467W        W 7667   3.349   1.597  24.450  0.1843  0.2379 -0.2707
 5468W        W 7668  18.756   1.916  17.206  0.1803  0.1020  0.0992
 5469W        W 7669  11.371   3.207  31.474  0.5005 -0.0406  0.0708
 5470W        W 7670  12.717   3.185  32.846 -0.1198 -0.0475  0.2916
 5471W        W 7671   1.758   5.468   9.540 -0.0726  0.1564  0.0452
 5472W        W 7672   6.469   3.859   0.520 -0.0561 -0.1059  0.1214
 5473W        W 7673   3.313   0.824  23.810 -0.0445 -0.1774  0.1820
 5474W        W 7674   2.915   2.245  23.108 -0.1482  0.2634  0.1283
 5475W        W 7675  18.844   3.344   0.900 -0.1196  0.1465 -0.1546
 5476W        W 7676   1.289   1.614  44.626 -0.1713  0.1559  0.0681
 5477W        W 7677   8.234   2.275  26.375 -0.3446 -0.4851 -0.1923
 5478W        W 7678   7.117   6.019  30.696 -0.1753 -0.0975 -0.2883
 5479W        W 7679  13.510   6.085  41.169  0.1968 -0.0375  0.2702
 5480W        W 7680   6.461   4.412  12.483 -0.2597 -0.2665 -0.2276
 5481W        W 7681  20.621   1.101  35.822 -0.1629 -0.1198 -0.0097
 5482W        W 7682   3.397   5.097  26.147  0.1073 -0.0177 -0.2450
 5483W        W 7683  13.409   1.982  36.890 -0.1942 -0.1869 -0.0121
 5484W        W 7684   1.570   1.082  33.935  0.1302 -0.1899 -0.1407
 5485W        W 7685  21.062   1.082  42.129  0.0474 -0.0392 -0.0205
 5486W        W 7686  16.907   5.712  32.428 -0.2337 -0.0341  0.0875
 5487W        W 7687  20.669   5.173   9.875 -0.0880  0.3138 -0.2041
 5488W        W 7688  16.785   5.866  22.030 -0.1621 -0.1358  0.0381
 5489W        W 7689   7.755   5.472   6.792  0.1121  0.0964  0.2260
 5490W        W 7690  10.360   0.058   1.521  0.0278  0.0040  0.0204
 5491W        W 7691   5.235   2.250  29.485 -0.0740  0.1369 -0.4558
 5492W        W 7692   4.742   4.204  34.331 -0.2911  0.0505 -0.1220
 5493W        W 7693  15.639   2.209  34.041  0.0827 -0.1425 -0.0168
 5494W        W 7694   1.757   5.967  39.013 -0.0684 -0.1673  0.1457
 5495W        W 7695  17.016   5.486  30.280 -0.0500 -0.3259  0.0065
 5496W        W 7696   1.410   5.768  12.560  0.5338 -0.1582  0.1600
 5497W        W 7697  17.859   0.963  30.903 -0.4389  0.1061 -0.3122
 5498W        W 7698   8.348   5.900  37.005 -0.0769  0.3558  0.2261
 5499W        W 7699  20.870   3.596   2.479  0.1707  0.4643  0.1008
 5500W        W 7700   3.933   6.403  24.596 -0.0774 -0.1260 -0.1066
 5501W        W 7701   6.501   1.494   8.087 -0.1316 -0.0254  0.2831
 5502W        W 7702  10.856   1.432  29.093  0.0822 -0.0628 -0.0716
 5503W        W 7703   9.600   1.743  38.884  0.1945 -0.0292 -0.2326
 5504W        W 7704   4.560   2.389  37.201 -0.2603  0.2216 -0.2836
 5505W        W 7705   1.807   5.832   6.727 -0.2124 -0.2981 -0.1833
 5506W        W 7706  11.578   1.059  43.360  0.1756  0.0478 -0.4037
 5507W        W 7707   7.880   2.171  30.426  0.1047  0.2568 -0.0658
 5508W        W 7708  12.028   6.375   6.453  0.0051 -0.1691  0.2275
 5509W        W 7709  17.287   5.052  36.589  0.1700 -0.0136  0.1143
 5510W        W 7710   2.335   0.377  12.307  0.2782  0.1810 -0.1166
 5511W        W 7711   5.605   4.959  33.691 -0.2143  0.1456 -0.0722
 5512W        W 7712   0.956   1.409  44.352  0.1483 -0.1403  0.0036
 5513W        W 7713  10.269   2.776  12.805 -0.1388  0.0651  0.0322
 5514W        W 7714   1.995   1.136  26.405  0.3475  0.3548  0.1239
 5515W        W 7715   6.849   3.361   6.197  0.2671  0.1855 -0.1302
 5516W        W 7716   8.847   6.300  13.324 -0.1843 -0.0366  0.1568
 5517W        W 7717  17.339   2.582  13.210  0.1084  0.1667  0.1414
 5518W        W 7718   9.960   1.260  18.988  0.1851 -0.2298  0.0703
 5519W        W 7719  20.671   5.420  36.260  0.1172  0.1642 -0.1389
 5520W        W 7720   8.714   6.354  40.886 -0.0446  0.1517 -0.1747
 5521W        W 7721   1.464   6.404  37.445 -0.1394  0.3189  0.2447
 5522W        W 7722   9.216   3.337   6.924  0.3889  0.2410  0.0103
 5523W        W 7723   4.844   1.088   4.226  0.1089  0.2781 -0.5029
 5524W        W 7724  12.968   5.450  34.987  0.1405 -0.0807 -0.0838
 5525W        W 7725   9.074   4.202  37.429  0.1717 -0.1339  0.1121
 5526W        W 7726  13.122   3.269  35.064  0.0127 -0.1228  0.2094
 5527W        W 7727  12.273   2.675  20.631 -0.0434  0.0025  0.3382
 5528W        W 7728  17.462   2.896   0.427  0.0304 -0.2438 -0.0402
 5529W        W 7729  14.403   1.675   5.672  0.0876  0.0107  0.1931
 5530W        W 7730  16.975   4.327  14.816 -0.0103 -0.2988  0.0869
 5531W        W 7731  16.749   6.030  43.728  0.3851  0.1605  0.0786
 5532W        W 7732  15.724   1.363  40.394  0.0468  0.0376  0.0330
 5533W        W 7733   7.630   4.578  28.995 -0.0483 -0.2224  0.0509
 5534W        W 7734  17.885   2.292   5.574 -0.2179  0.3241 -0.1477
 5535W        W 7735  20.401   4.331  39.157  0.1482 -0.0248 -0.2514
 5536W        W 7736  10.570   6.227  29.384 -0.0571 -0.0079  0.0789
 5537W        W 7737   1.322   1.938   6.318 -0.0352  0.2184 -0.0031
 5538W        W 7738   5.377   3.080  36.141 -0.1733 -0.1899 -0.1566
 5539W        W 7739   4.822   2.966   3.713 -0.1838 -0.2154 -0.0092
 5540W        W 7740   4.686   4.048   1.734  0.1064 -0.3593 -0.0067
 5541W        W 7741  12.818   5.907  29.016  0.2484  0.3612 -0.0394
 5542W        W 7742   1.382   4.002  38.524 -0.0018  0.0067 -0.1153
 5543W        W 7743  13.454   1.891  44.398 -0.1587  0.0356  0.0837
 5544W        W 7744  20.735   4.331  32.124 -0.1162 -0.0526  0.0855
 5545W        W 7745   1.598   4.021  32.133  0.0173  0.1461  0.0681
 5546W        W 7746  17.858   4.228  40.610  0.0070 -0.0584 -0.1634
 5547W        W 7747   8.780   3.830  36.498  0.0731  0.0455  0.2950
 5548W        W 7748  10.394   0.990  11.409  0.0268  0.0077 -0.2026
 5549W        W 7749   6.716   4.221  28.020 -0.1271  0.2331  0.0690
 5550W        W 7750   0.076   0.623  27.785 -0.3049  0.2649 -0.0627
 5551W        W 7751  16.659   5.664  12.174  0.2824 -0.0387  0.1474
 5552W        W 7752  18.736   3.021   4.538 -0.0004 -0.2537 -0.0923
 5553W        W 7753   9.823   3.300  30.623 -0.2837  0.1773  0.3640
 5554W        W 7754   5.624   4.615  38.142  0.1746 -0.0981  0.2585
 5555W        W 7755  12.146   4.463   1.610  0.1038 -0.1549 -0.3019
 5556W        W 7756   8.319   5.138  44.771 -0.3262 -0.2696  0.0817
 5557W        W 7757  20.371   4.704  36.853 -0.2252  0.0003  0.1300
 5558W        W 7758  18.888   3.134  14.165 -0.0666 -0.0470  0.1597
 5559W        W 7759  13.163   5.567  22.662  0.1880 -0.0820  0.3878
 5560W        W 7760  15.147   5.086  14.121 -0.1146 -0.1635 -0.0240
 5561W        W 7761  11.874   0.622  30.615  0.1334  0.1220  0.3529
 5562W        W 7762   0.256   5.569  28.823  0.0942 -0.1043  0.1225
 5563W        W 7763   0.224   5.087  26.270 -0.3587 -0.1123  0.0082
 5564W        W 7764   6.089   1.886   3.455 -0.0754  0.0080  0.0588
 5565W        W 7765   0.574   2.155  24.238  0.0055  0.3862  0.2129
 5566W        W 7766  17.286   3.923  11.091 -0.0279 -0.1169 -0.1216
 5567W        W 7767  10.770   1.235  42.740 -0.1223 -0.1960 -0.1267
 5568W        W 7768  14.741   0.968  35.750  0.0363 -0.1094  0.0207
 5569W        W 7769   6.279   1.058  16.321  0.1320  0.1452  0.0899
 5570W        W 7770   3.141   0.932  15.130 -0.0867 -0.0456  0.2079
 5571W        W 7771   5.781   1.419  27.269  0.1321 -0.0416 -0.2056
 5572W        W 7772  12.121   5.339   5.011 -0.0308  0.1343  0.2819
 5573W        W 7773  10.669   5.763  36.002  0.0301 -0.1445 -0.2805
 5574W        W 7774  18.800   5.571  33.294  0.1033  0.0365 -0.1285
 5575W        W 7775   8.517   1.642  17.644 -0.1022  0.0592  0.2021
 5576W        W 7776   6.972   6.015   3.722  0.0363  0.0761  0.1019
 5577W        W 7777  15.492   6.142   4.297  0.0794 -0.0692  0.3022
 5578W        W 7778   1.413   4.229  38.032  0.1654 -0.2002 -0.1417
 5579W        W 7779  11.327   2.564  15.533 -0.1182 -0.2465  0.0185
 5580W        W 7780   0.699   0.226  30.311  0.2164 -0.0233  0.2443
 5581W        W 7781  12.250   1.144   9.419  0.0215 -0.0346 -0.0293
 5582W        W 7782  20.045   2.416  25.750 -0.2778 -0.0092 -0.1725
 5583W        W 7783   4.380   2.180  13.396 -0.1009  0.1817 -0.2320
 5584W        W 7784  13.901   3.217  23.700 -0.1346 -0.2617 -0.0357
 5585W        W 7785  11.069   2.239  14.941 -0.6399 -0.0530 -0.1204
 5586W        W 7786  13.762   3.309  17.934 -0.1766  0.0208  0.1705
 5587W        W 7787   2.056   4.603  16.130  0.0695  0.5372 -0.1517
 5588W        W 7788   1.981   4.018   0.062  0.0823 -0.1810 -0.0896
 5589W        W 7789  14.235   2.072  34.378 -0.1337 -0.0291  0.4348
 5590W        W 7790  19.245   0.629  18.760  0.0894 -0.0600 -0.1821
 5591W        W 7791   9.993   4.472  27.913  0.2887 -0.0965  0.1825
 5592W        W 7792  19.887   4.480  36.695 -0.0596  0.0986  0.0653
 5593W        W 7793   9.327   2.090  29.757  0.2156 -0.1851 -0.3209
 5594W        W 7794   1.605   4.419  22.993  0.0475  0.0901  0.1557
 5595W        W 7795  10.772   3.389  34.699 -0.2068 -0.0099  0.2092
 5596W        W 7796   9.960   2.247  36.123 -0.1931  0.2146  0.0973
 5597W        W 7797   6.679   6.059  34.770  0.2806 -0.2032  0.0691
 5598W        W 7798  12.640   2.533   6.766  0.1498 -0.0882 -0.2625
 5599W        W 7799   6.991   1.869  38.167  0.2271  0.0886  0.1388
 5600W        W 7800   0.300   0.470   3.318  0.1267 -0.2600  0.0769
 5601W        W 7801  11.292   2.650  42.413 -0.2142 -0.0700  0.0832
 5602W        W 7802   0.841   1.605  36.522 -0.0575  0.0373  0.1425
 5603W        W 7803  20.694   2.348   1.160 -0.2191 -0.1867 -0.2260
 5604W        W 7804   3.988   1.531  31.422 -0.2767 -0.0896  0.1660
 5605W        W 7805  14.794   3.899   5.107  0.0308 -0.0006 -0.1034
 5606W        W 7806  16.159   5.574  41.171 -0.1325  0.0724 -0.4626
 5607W        W 7807   7.177   5.062   4.975 -0.1151  0.0381  0.1172
 5608W        W 7808   8.060   3.185   8.963  0.1426 -0.1953 -0.0238
 5609W        W 7809   2.965   2.739  28.032  0.1256  0.2757  0.2454
 5610W        W 7810   0.085   6.044  41.545 -0.0697  0.0076  0.1311
 5611W        W 7811   5.382   1.944  30.705 -0.0904  0.0376 -0.1808
 5612W        W 7812   7.468   0.053   7.373  0.1160  0.0943  0.2517
 5613W        W 7813   9.936   1.428  11.285  0.0574  0.0145  0.0024
 5614W        W 7814  12.363   3.583   9.164 -0.2774 -0.2001  0.0544
 5615W        W 7815   2.870   0.127  14.871  0.2266 -0.2032 -0.0561
 5616W        W 7816  11.208   6.414   4.839  0.2733 -0.0538  0.1080
 5617W        W 7817   3.298   4.356  20.944 -0.2693 -0.0045  0.4091
 5618W        W 7818  14.149   0.833  33.755 -0.0892  0.1230  0.0051
 5619W        W 7819   8.086   1.674  28.526 -0.0109 -0.3883 -0.0951
 5620W        W 7820  15.998   1.565  14.584  0.0933 -0.0458  0.2919
 5621W        W 7821  11.534   5.446  44.448 -0.0261 -0.1704  0.0952
 5622W        W 7822   5.903   2.880  41.255  0.0368 -0.2095  0.1446
 5623W        W 7823  15.298   3.833  10.917  0.0847 -0.0350  0.0413
 5624W        W 7824  18.169   2.198  35.394 -0.1020  0.3609  0.2420
 5625W        W 7825   0.681   6.301  38.703  0.4021 -0.1664 -0.1815
 5626W        W 7826  13.456   1.317  38.416 -0.1838 -0.0933 -0.0054
 5627W        W 7827   2.045   4.531   4.602 -0.0888  0.1413  0.0085
 5628W        W 7828   1.414   1.806  15.968 -0.0883 -0.0664  0.0695
 5629W        W 7829   8.169   5.235  28.313  0.6182 -0.1249 -0.1463
 5630W        W 7830  13.658   1.794  34.975 -0.1054  0.0336 -0.2332
 5631W        W 7831   2.002   2.926  24.259  0.2051 -0.0642  0.0933
 5632W        W 7832   7.677   1.685  35.896  0.0575  0.0325 -0.1226
 5633W        W 7833   0.271   4.575   5.472  0.1864  0.0504  0.1586
 5634W        W 7834  18.903   2.108  12.617  0.1522  0.1385 -0.1804
 5635W        W 7835   7.552   0.049  41.735  0.0034 -0.1337  0.1376
 5636W        W 7836  20.199   4.969   7.291  0.1405  0.0237  0.0988
 5637W        W 7837   5.484   6.444  26.510 -0.4148 -0.2593 -0.2280
 5638W        W 7838   1.204   1.690  33.704 -0.0025  0.1812  0.2196
 5639W        W 7839   2.346   4.268  10.586 -0.2194  0.2377  0.0760
 5640W        W 7840  12.116   5.953  35.336 -0.1285 -0.0741  0.1823
 5641W        W 7841  11.862   0.200   0.474  0.2295 -0.0007  0.2512
 5642W        W 7842  21.003   5.881  42.563 -0.1960 -0.2401 -0.3707
 5643W        W 7843   7.732   5.367   7.307  0.0610 -0.0684  0.2030
 5644W        W 7844  19.409   3.378  38.627  0.1063 -0.0304  0.2513
 5645W        W 7845  17.890   2.157   4.261  0.1121  0.2420  0.1086
 5646W        W 7846   2.163   2.186   9.856 -0.1915  0.2436 -0.1408
 5647W        W 7847   0.650   5.384  28.545 -0.1507  0.1929  0.0232
 5648W        W 7848   0.756   5.177   9.952 -0.1702 -0.0052 -0.0613
 5649W        W 7849  18.631   2.663  42.772  0.0385  0.2347  0.0088
 5650W        W 7850   1.359   5.858  25.680 -0.4310 -0.0175  0.1925
 5651W        W 7851  15.080   2.180   0.201  0.0405 -0.0970 -0.1823
 5652W        W 7852  16.451   5.055  10.019  0.1174  0.1130 -0.0368
 5653W        W 7853   6.895   1.902   1.464 -0.0553  0.2035  0.0141
 5654W        W 7854  19.574   3.572  14.130 -0.0158 -0.3022 -0.0937
 5655W        W 7855  15.262   0.505  14.575 -0.0798  0.1529 -0.0712
 5656W        W 7856  19.159   6.429  33.686 -0.3834 -0.1489 -0.0648
 5657W        W 7857  21.030   0.224   6.371  0.0298  0.2346  0.1705
 5658W        W 7858   1.887   2.262  28.929 -0.0453 -0.1148  0.3444
 5659W        W 7859  18.304   0.431  15.101  0.0311  0.0374  0.1946
 5660W        W 7860  15.858   1.709  45.027  0.0483  0.0211 -0.0236
 5661W        W 7861   7.777   4.942   9.119  0.2457 -0.0972 -0.1328
 5662W        W 7862   3.501   2.642  45.063  0.0830  0.1767  0.2889
 5663W        W 7863   2.659   4.928  14.443  0.1800  0.0818  0.0437
 5664W        W 7864   4.897   5.758  32.331 -0.0603  0.0583 -0.0008
 5665W        W 7865  16.749   4.574  10.523  0.3610  0.3381  0.0948
 5666W        W 7866  19.944   5.437  42.029 -0.0235  0.1370  0.0374
 5667W        W 7867  11.787   6.432  13.849  0.3352 -0.0059  0.0527
 5668W        W 7868   3.750   5.223   0.653 -0.0319 -0.1918  0.2316
 5669W        W 7869   1.172   1.845  34.404  0.1306 -0.0908 -0.1174
 5670W        W 7870   8.439   2.118  32.387 -0.0900 -0.1193 -0.1790
 5671W        W 7871  20.322   2.832  39.658  0.0326  0.0545 -0.0972
 5672W        W 7872   0.754   2.126   4.209  0.2622 -0.0801  0.1229
 5673W        W 7873  10.761   3.827   2.748 -0.1541  0.0889 -0.0187
 5674W        W 7874  18.782   5.757  42.611  0.1463  0.1147  0.0768
 5675W        W 7875  18.271   4.779  14.511  0.0493  0.0712  0.1160
 5676W        W 7876   4.247   5.715  29.638 -0.0567 -0.0113  0.3144
 5677W        W 7877  15.836   5.094  36.263 -0.0832 -0.2472 -0.0286
 5678W        W 7878  14.568   3.123  37.488 -0.0671  0.1220  0.2198
 5679W        W 7879   8.921   2.806  41.462 -0.0136 -0.0482 -0.2271
 5680W        W 7880  13.783   0.854  21.151 -0.1631 -0.0103 -0.1718
 5681W        W 7881   7.860   3.679  27.523 -0.2483  0.4343  0.2176
 5682W        W 7882   4.658   2.699  43.812  0.0370 -0.1418 -0.0570
 5683W        W 7883   3.613   3.745  27.030  0.2493 -0.0374 -0.0913
 5684W        W 7884  16.582   0.943  15.943  0.1730 -0.2621 -0.4317
 5685W        W 7885   1.951   6.307  14.507  0.0228 -0.2614  0.1083
 5686W        W 7886  15.225   2.726  30.654  0.3437  0.5348  0.2235
 5687W        W 7887   1.574   5.601  37.650  0.1283 -0.2169 -0.1369
 5688W        W 7888   5.709   0.011  23.010 -0.0378  0.0003 -0.0235
 5689W        W 7889  15.129   3.913  19.055 -0.1249  0.1415  0.0692
 5690W        W 7890   2.919   0.716  31.194 -0.1115 -0.0538 -0.0259
 5691W        W 7891   7.291   2.411  12.485  0.2135  0.0962  0.0222
 5692W        W 7892   3.238   4.264  21.467  0.4426 -0.1311  0.1685
 5693W        W 7893   6.935   2.060   6.359 -0.2108  0.1259  0.0132
 5694W        W 7894  11.811   5.502  28.870  0.1550 -0.1555 -0.1137
 5695W        W 7895  16.508   4.346  29.126 -0.1768 -0.0318  0.0008
 5696W        W 7896  12.966   5.538  30.132  0.3028 -0.2692 -0.1163
 5697W        W 7897  18.725   5.107  19.190  0.1515 -0.0128  0.2066
 5698W        W 7898  16.023   1.157  14.280  0.0072 -0.0872  0.2168
 5699W        W 7899   4.858   1.402  38.666 -0.0047 -0.1380 -0.0792
 5700W        W 7900  11.037   3.289  43.056 -0.3927 -0.4662  0.0694
 5701W        W 7901  12.500   2.291  32.282  0.3519  0.0666 -0.1277
 5702W        W 7902   5.732   2.466  44.493 -0.1499 -0.1839  0.0463
 5703W        W 7903   2.957   2.716  24.812  0.0168  0.1954 -0.1256
 5704W        W 7904  19.425   4.644  18.715  0.1267 -0.1274  0.1040
 5705W        W 7905  17.579   2.933  33.396 -0.0490 -0.3769 -0.1388
 5706W        W 7906  15.676   5.407   6.922  0.0270 -0.2369  0.2786
 5707W        W 7907   2.871   5.044   4.722 -0.1405  0.1134 -0.0453
 5708W        W 7908  11.337   4.424  36.933  0.2433  0.2332  0.0769
 5709W        W 7909  19.944   4.048   7.624  0.2606 -0.2067 -0.2812
 5710W        W 7910   2.539   1.410  13.262 -0.0282 -0.0624  0.1354
 5711W        W 7911   1.658   6.215  42.418 -0.2023  0.0588 -0.0051
 5712W        W 7912   2.597   2.611   4.442 -0.1305 -0.0002  0.2779
 5713W        W 7913   8.969   1.846   1.339  0.2277  0.0922 -0.0114
 5714W        W 7914   5.864   2.566  37.498 -0.0046  0.0958  0.2376
 5715W        W 7915  20.217   6.447  12.317 -0.2382  0.2685  0.1375
 5716W        W 7916  13.362   0.161  35.462  0.1526 -0.2417  0.3780
 5717W        W 7917  15.545   5.600  14.109 -0.2401  0.2116 -0.0638
 5718W        W 7918   2.116   4.248  40.935  0.0157  0.0693 -0.0293
 5719W        W 7919   4.767   0.073   9.909 -0.3310  0.3294  0.0351
 5720W        W 7920   6.461   2.676   4.103 -0.0188 -0.1796  0.0431
 5721W        W 7921  19.144   4.455  35.221 -0.1215 -0.0056 -0.2224
 5722W        W 7922  10.719   2.174   2.981 -0.0805 -0.0318  0.0918
 5723W        W 7923  12.685   1.249   3.957 -0.1172  0.0933 -0.0189
 5724W        W 7924  15.003   4.665   5.255  0.1268 -0.0778  0.0447
 5725W        W 7925  10.938   3.512  34.097  0.0901 -0.1831  0.2303
 5726W        W 7926  18.855   4.093  18.309 -0.1053 -0.0227 -0.3609
 5727W        W 7927  13.377   5.972   6.192  0.1124  0.0433 -0.2218
 5728W        W 7928   0.424   0.983  40.849 -0.1528  0.1252  0.0635
 5729W        W 7929   9.720   4.118  16.617  0.2811 -0.2231 -0.2382
 5730W        W 7930  19.893   1.590  31.184 -0.1896  0.0103  0.1436
 5731W        W 7931   0.634   4.764  39.183 -0.1050 -0.0276  0.1492
 5732W        W 7932   7.793   3.316   2.963 -0.1131 -0.2298 -0.1509
 5733W        W 7933  14.459   5.042  37.594 -0.0579  0.4079  0.2661
 5734W        W 7934  19.309   2.865  28.515  0.2378 -0.0705  0.2164
 5735W        W 7935  17.086   4.437   5.370  0.0319 -0.1229  0.0032
 5736W        W 7936   8.976   3.776  30.421  0.4166  0.1334  0.2003
 5737W        W 7937  12.449   3.080  38.379  0.2452 -0.1398 -0.0373
 5738W        W 7938  20.872   2.306  40.525 -0.3199  0.0240  0.0308
 5739W        W 7939  10.543   0.299   3.357 -0.0315  0.1807 -0.1023
 5740W        W 7940  17.168   0.646  11.649 -0.0804 -0.0856  0.0861
 5741W        W 7941  11.435   0.704  15.796  0.2280  0.0471  0.0960
 5742W        W 7942   8.587   4.085  32.865  0.0319 -0.1914  0.0364
 5743W        W 7943   9.529   5.935  13.596 -0.1769  0.1745 -0.2218
 5744W        W 7944  17.518   3.119   2.574  0.1779  0.0207  0.1121
 5745W        W 7945  13.467   1.411  35.942  0.1968 -0.0434 -0.1732
 5746W        W 7946   9.571   3.659  43.096  0.0590 -0.3593 -0.1867
 5747W        W 7947   3.621   0.148  24.213  0.1165  0.1942  0.0820
 5748W        W 7948  16.763   5.634  44.599 -0.1031 -0.0649  0.0786
 5749W        W 7949   7.493   1.390  10.613  0.0568  0.0514  0.0431
 5750W        W 7950   3.658   5.624  38.156  0.0776 -0.0539  0.1212
 5751W        W 7951  16.778   1.992  30.897  0.2001  0.0419  0.2408
 5752W        W 7952   5.887   1.947  38.862 -0.2005  0.1076  0.1253
 5753W        W 7953   0.785   3.584  30.429 -0.4123 -0.2757  0.2153
 5754W        W 7954  13.268   3.518   7.478 -0.0634 -0.0739  0.1155
 5755W        W 7955  11.193   1.608  13.112  0.0643 -0.0798 -0.0588
 5756W        W 7956  13.415   5.824  43.403  0.0156  0.0702  0.1024
 5757W        W 7957   2.917   1.834  43.991 -0.1721 -0.2168  0.1702
 5758W        W 7958  16.036   0.049  34.290 -0.0928  0.5051 -0.0122
 5759W        W 7959  18.025   2.449  40.059  0.1500  0.1786  0.2467
 5760W        W 7960  15.810   5.164  34.258 -0.2256  0.0631  0.0292
 5761W        W 7961   4.004   2.870   8.103  0.1922  0.0030  0.0376
 5762W        W 7962  19.874   4.711  35.416 -0.2546  0.1367 -0.0951
 5763W        W 7963   8.410   5.847   8.849  0.1202 -0.2321  0.1181
 5764W        W 7964   9.071   1.030  12.560  0.1289 -0.1537 -0.0774
 5765W        W 7965  19.954   0.092   7.803 -0.2194  0.0195  0.2548
 5766W        W 7966  15.604   5.740  14.662 -0.2838  0.0408  0.1482
 5767W        W 7967   0.028   6.179  34.219 -0.0647 -0.1238 -0.0226
 5768W        W 7968  20.542   3.081   5.449  0.2441 -0.0234 -0.1275
 5769W        W 7969   7.652   1.881   4.843 -0.0780  0.0622  0.0241
 5770W        W 7970  19.177   6.477  26.578  0.1232  0.1057  0.0278
 5771W        W 7971  17.491   2.904  33.914 -0.0928 -0.0386  0.0532
 5772W        W 7972  14.003   3.845  37.052  0.0947 -0.0151  0.0919
 5773W        W 7973   2.386   3.338  37.934  0.2019  0.1939 -0.3418
 5774W        W 7974   2.114   6.327  11.464 -0.1296  0.0369  0.1215
 5775W        W 7975   6.530   3.744  12.769 -0.0558  0.1455 -0.0587
 5776W        W 7976   4.080   1.877  13.675  0.0398  0.0092  0.0405
 5777W        W 7977   8.088   5.761   6.279  0.3776  0.3416  0.1139
 5778W        W 7978   8.947   3.242  17.654 -0.0462 -0.1561  0.1717
 5779W        W 7979  19.422   4.011   4.829  0.1199  0.1701 -0.0543
 5780W        W 7980  17.400   2.834  41.139  0.1393  0.0485 -0.0653
 5781W        W 7981   1.281   5.035  35.033  0.2012 -0.0450 -0.2031
 5782W        W 7982  18.991   0.594  13.656  0.1573  0.1945 -0.2021
 5783W        W 7983  17.714   1.550  37.292  0.0779 -0.0567  0.0943
 5784W        W 7984  11.106   5.421  39.574 -0.1758  0.0701 -0.2792
 5785W        W 7985   3.716   0.458  25.202  0.3072  0.3125 -0.1927
 5786W        W 7986  10.778   2.053   7.367  0.3381  0.2611  0.2694
 5787W        W 7987   7.212   3.351   5.254  0.0947 -0.0274 -0.0123
 5788W        W 7988   2.239   3.612  16.100 -0.0389 -0.0212 -0.1276
 5789W        W 7989  13.504   4.203  33.537 -0.1077 -0.1525 -0.3963
 5790W        W 7990   2.571   0.813   0.073 -0.1341 -0.2620 -0.0488
 5791W        W 7991   1.063   4.284  40.045  0.1208  0.2264 -0.0380
 5792W        W 7992  17.841   2.448  13.844 -0.0663  0.4457 -0.1364
 5793W        W 7993   0.538   3.447  39.770 -0.0281 -0.0355  0.1720
 5794W        W 7994   2.220   1.036  36.658 -0.0764 -0.1126 -0.0066
 5795W        W 7995   1.613   2.775  44.201  0.2042  0.0315 -0.0216
 5796W        W 7996  20.099   1.634  27.046 -0.0681  0.0885  0.4040
 5797W        W 7997  19.845   0.479  26.274  0.1182 -0.2656 -0.0317
 5798W        W 7998  17.922   2.349   2.128  0.2126 -0.0276  0.3831
 5799W        W 7999   7.085   5.661  30.015  0.1688 -0.1739  0.0541
 5800W        W 8000  20.941   5.658  14.865 -0.1236  0.2363  0.2026
 5801W        W 8001   3.775   1.541  25.399  0.0736  0.1025  0.4442
 5802W        W 8002   6.164   0.943   7.466 -0.3514  0.1687 -0.1875
 5803W        W 8003  12.116   4.474   8.308  0.2511  0.1633 -0.2385
 5804W        W 8004  10.278   4.877  38.429 -0.2288  0.3108 -0.0795
 5805W        W 8005   7.794   0.900   3.924 -0.0928  0.0007  0.3360
 5806W        W 8006  21.123   1.523  36.600 -0.0459 -0.3823  0.0489
 5807W        W 8007   8.023   0.396   3.943  0.1959 -0.0655  0.1846
 5808W        W 8008  16.447   4.630  43.862 -0.0892 -0.1203 -0.0861
 5809W        W 8009   0.177   3.802  40.143  0.0552 -0.1087 -0.0606
 5810W        W 8010   9.431   3.474   1.284  0.2475  0.1752 -0.1930
 5811W        W 8011  17.448   3.927  15.864 -0.2458 -0.0586 -0.0652
 5812W        W 8012  10.581   6.093  43.123  0.1580  0.0030 -0.1268
 5813W        W 8013   9.049   2.843  14.827 -0.1084  0.2847  0.0699
 5814W        W 8014   7.278   2.263  38.383  0.0458  0.1754  0.2765
 5815W        W 8015   5.360   5.891  15.129 -0.0020 -0.0009 -0.0413
 5816W        W 8016   7.655   1.968   7.391  0.0044 -0.1294  0.1809
 5817W        W 8017   3.407   0.071   3.937  0.3179 -0.1270 -0.1716
 5818W        W 8018  10.235   0.072  40.053 -0.1824 -0.1066 -0.1730
 5819W        W 8019   0.257   3.675   5.287  0.0826  0.1788 -0.1272
 5820W        W 8020  16.265   2.006  43.214 -0.1642 -0.1666  0.1332
 5821W        W 8021  18.084   2.108   6.697 -0.1957 -0.1889 -0.0509
 5822W        W 8022  19.212   2.582  32.196  0.2192 -0.3616  0.2048
 5823W        W 8023   4.624   5.139   8.574  0.2406  0.0376  0.0308
 5824W        W 8024   2.119   4.150  38.016  0.2082 -0.0868  0.1254
 5825W        W 8025  10.364   4.906  36.097 -0.0474 -0.4379 -0.0614
 5826W        W 8026  17.523   2.919  14.724  0.0181  0.1141  0.0451
 5827W        W 8027  15.217   2.210  20.413 -0.1075  0.1550 -0.1096
 5828W        W 8028   6.710   5.558  14.221 -0.0039 -0.0611 -0.4781
 5829W        W 8029  13.741   1.569  13.799  0.1451 -0.3446  0.1176
 5830W        W 8030   3.855   2.825   3.978  0.2074  0.1813 -0.0213
 5831W        W 8031  10.436   6.571   8.650  0.0532 -0.0774 -0.2042
 5832W        W 8032  12.124   6.541  11.883  0.4460  0.2450  0.1173
 5833W        W 8033   2.538   0.624   1.125 -0.0224  0.3151  0.0113
 5834W        W 8034   1.385   4.294   5.159 -0.1728  0.0021 -0.3542
 5835W        W 8035  17.352   3.016  15.294  0.0738  0.0371  0.0368
 5836W        W 8036  15.259   4.799   2.200 -0.3413  0.1983 -0.1414
 5837W        W 8037  11.599   4.033  12.831  0.2736  0.1738  0.3075
 5838W        W 8038  18.894   3.321   8.043  0.3652  0.1391  0.1880
 5839W        W 8039   8.565   5.021  39.826 -0.1559 -0.0183 -0.1423
 5840W        W 8040   6.962   3.255  10.717  0.0190  0.3212 -0.0872
 5841W        W 8041  13.513   3.712  14.671  0.0023 -0.3559  0.1960
 5842W        W 8042  13.274   6.576  28.710 -0.1070 -0.2850  0.0059
 5843W        W 8043  19.397   3.470  35.475 -0.0340  0.0517 -0.2121
 5844W        W 8044  18.246   4.893  37.919 -0.2179 -0.0732  0.0114
 5845W        W 8045  14.520   4.927  21.436 -0.1907 -0.0970  0.0017
 5846W        W 8046  20.518   2.954  26.049 -0.1478  0.0467 -0.1100
 5847W        W 8047   7.616   5.777  44.219 -0.2322  0.0028  0.0922
 5848W        W 8048   0.430   0.102  38.519 -0.3483  0.1190  0.2001
 5849W        W 8049  13.772   4.640  24.599 -0.0363 -0.1365 -0.1215
 5850W        W 8050  17.096   1.191  44.312 -0.0021  0.0998 -0.0160
 5851W        W 8051   9.888   0.880  28.992 -0.1763 -0.2080 -0.0727
 5852W        W 8052   2.492   4.248  39.502  0.0663  0.0830 -0.0379
 5853W        W 8053   2.890   3.258  23.861  0.2365 -0.0696 -0.1672
 5854W        W 8054   5.014   3.048  41.250  0.3056 -0.0742  0.1596
 5855W        W 8055   0.335   6.265  11.976  0.2726  0.1281  0.0284
 5856W        W 8056  20.049   0.020  26.336 -0.1344 -0.1669  0.1233
 5857W        W 8057   3.822   0.830  42.598  0.1073  0.0346 -0.0771
 5858W        W 8058   8.147   6.225  39.293 -0.0099 -0.2518  0.0295
 5859W        W 8059   9.391   0.306   4.067  0.3222 -0.2581  0.0545
 5860W        W 8060  11.640   2.997   4.680  0.0736  0.0159  0.0995
 5861W        W 8061   6.219   1.819  34.780 -0.1246  0.1115 -0.3266
 5862W        W 8062   7.313   1.960  43.988 -0.2596  0.0417 -0.0867
 5863W        W 8063  20.273   2.881  34.202  0.1462 -0.0428 -0.2581
 5864W        W 8064  19.602   1.230  16.241 -0.0463  0.2372  0.0369
 5865W        W 8065   5.012   0.277  36.741  0.1187 -0.1394  0.0906
 5866W        W 8066   8.565   1.910  14.369  0.1095 -0.2963 -0.1609
 5867W        W 8067   3.222   1.820   9.239 -0.0441 -0.1027  0.2861
 5868W        W 8068  10.033   2.739   3.100  0.0282  0.1314 -0.1140
 5869W        W 8069  10.329   4.511  33.209  0.0505 -0.0862 -0.1064
 5870W        W 8070   2.084   0.125  10.629 -0.1082 -0.0413 -0.2531
 5871W        W 8071   2.900   0.313  36.741  0.0078  0.0469  0.1576
 5872W        W 8072  14.378   5.663  23.737 -0.0612  0.2450  0.2375
 5873W        W 8073  14.376   0.124  19.730 -0.0829  0.2024  0.0706
 5874W        W 8074  14.893   0.890  38.634  0.1698  0.0027  0.4274
 5875W        W 8075  11.822   0.276  33.288  0.0111 -0.0205  0.0304
 5876W        W 8076   5.648   1.863  26.269  0.0418  0.1224 -0.3288
 5877W        W 8077   2.958   1.790  10.996  0.1382 -0.1208  0.0090
 5878W        W 8078   2.009   2.704   3.284  0.0662 -0.3264 -0.0941
 5879W        W 8079   8.349   5.803   5.290 -0.0140 -0.0874  0.3366
 5880W        W 8080  10.085   4.476  10.220  0.3576 -0.1231  0.0300
 5881W        W 8081   1.744   0.359  39.211  0.0178  0.0979  0.0970
 5882W        W 8082   3.136   4.651  11.110 -0.5104 -0.1445 -0.0487
 5883W        W 8083   0.888   3.744  45.000 -0.1552 -0.1437  0.0588
 5884W        W 8084   0.381   2.280  31.537  0.1966 -0.1465  0.1285
 5885W        W 8085  10.321   2.676   0.900  0.0327  0.2516  0.0089
 5886W        W 8086   1.515   5.391  44.577  0.1175  0.3284 -0.1762
 5887W        W 8087   8.318   2.216  30.145  0.1131  0.3161 -0.0048
 5888W        W 8088  14.445   2.747  17.047  0.0098 -0.1821  0.2863
 5889W        W 8089  12.999   4.880  18.708 -0.0773  0.4930 -0.1560
 5890W        W 8090   4.646   5.309  36.928 -0.0427 -0.1853 -0.0336
 5891W        W 8091  12.049   2.214  38.675 -0.2603  0.1066 -0.0169
 5892W        W 8092  12.529   4.478  35.630  0.0613 -0.1904 -0.0201
 5893W        W 8093   8.423   0.102  10.797 -0.4574 -0.1170 -0.1464
 5894W        W 8094   9.626   0.890  33.090  0.1301 -0.0278  0.1009
 5895W        W 8095   5.685   5.250  28.165  0.1508  0.2165 -0.1456
 5896W        W 8096  16.452   2.618  32.275 -0.1488  0.1475  0.0289
 5897W        W 8097  10.824   5.431   9.183  0.0245  0.2904 -0.1480
 5898W        W 8098   6.552   1.571   1.330 -0.0237  0.0643 -0.0791
 5899W        W 8099  10.679   4.466   1.587 -0.1050 -0.1684 -0.1641
 5900W        W 8100  20.392   6.117  11.860 -0.2644 -0.1820 -0.0588
 5901W        W 8101  14.803   6.144   5.933  0.1170 -0.0420  0.1538
 5902W        W 8102   8.421   6.471  38.903 -0.1709  0.1977  0.1321
 5903W        W 8103  11.189   4.950  18.920 -0.2862 -0.0439  0.1153
 5904W        W 8104  18.587   1.619  39.121 -0.0384  0.1765 -0.1054
 5905W        W 8105   9.350   0.061  19.182 -0.0600 -0.1032 -0.2360
 5906W        W 8106  10.485   3.540  33.583 -0.2606  0.1743 -0.1584
 5907W        W 8107  15.128   5.553   3.109 -0.0516 -0.1449  0.0791
 5908W        W 8108  11.797   0.309  11.765  0.2599 -0.2431  0.0005
 5909W        W 8109   8.714   4.186  27.246 -0.2720 -0.2755  0.2224
 5910W        W 8110  10.149   6.002  14.568  0.2516  0.1246  0.1699
 5911W        W 8111   8.923   6.587   5.035 -0.1312  0.2804  0.0534
 5912W        W 8112  11.157   5.182   3.271 -0.0223  0.0588 -0.0700
 5913W        W 8113  20.887   2.726   9.344  0.0080  0.2192  0.3044
 5914W        W 8114  18.276   2.623  30.596 -0.3411  0.0012 -0.1136
 5915W        W 8115  16.798   5.813  37.129  0.2668  0.1464 -0.1284
 5916W        W 8116   6.031   5.168   7.465 -0.0255  0.0629  0.1073
 5917W        W 8117   6.665   6.582  34.025 -0.1092  0.1866 -0.4701
 5918W        W 8118  16.538   4.024  32.498  0.1023  0.0260 -0.1638
 5919W        W 8119  20.546   0.681  27.782 -0.0094  0.0755  0.0531
 5920W        W 8120  14.800   4.317  43.327 -0.2531 -0.0309  0.1032
 5921W        W 8121   4.054   6.037  42.174 -0.2465 -0.0814 -0.3224
 5922W        W 8122  15.863   2.500  16.176  0.1369 -0.0380 -0.0233
 5923W        W 8123   4.722   1.606  35.619  0.2725 -0.1525 -0.1230
 5924W        W 8124   4.134   4.635  11.621  0.1877  0.2185  0.1275
 5925W        W 8125  10.018   3.791  34.415 -0.1268 -0.2075  0.2360
 5926W        W 8126   2.053   0.268  40.076 -0.1640  0.2925  0.1873
 5927W        W 8127   3.712   3.379  31.515 -0.0474 -0.2626 -0.0001
 5928W        W 8128  18.151   4.217  15.724 -0.1424  0.1013 -0.2908
 5929W        W 8129   0.281   2.163  24.653 -0.1756  0.0019 -0.1275
 5930W        W 8130  10.553   4.538  14.272  0.1211  0.3971 -0.1353
 5931W        W 8131  14.327   3.086  35.732  0.1225  0.2238  0.1766
 5932W        W 8132   8.135   5.252   7.591 -0.1713 -0.2779  0.0570
 5933W        W 8133   2.930   6.136  27.743  0.2810 -0.0530 -0.2238
 5934W        W 8134  20.896   4.656  40.837 -0.3053  0.1965  0.0196
 5935W        W 8135   2.792   6.128  34.679  0.0592 -0.0543  0.0553
 5936W        W 8136  12.533   5.727   2.737  0.1745 -0.2178  0.1610
 5937W        W 8137   5.265   0.109  30.077  0.1314 -0.0917 -0.0191
 5938W        W 8138   1.117   2.538   1.234  0.1371 -0.0027  0.1674
 5939W        W 8139   1.565   0.050  40.094 -0.0027  0.3562  0.0036
 5940W        W 8140   5.395   1.439  24.531 -0.0453 -0.0284 -0.3543
 5941W        W 8141   9.471   3.978  12.916 -0.1629 -0.0371 -0.1205
 5942W        W 8142   0.796   3.038  40.514 -0.1072  0.0849  0.0472
 5943W        W 8143   3.797   4.437  43.703  0.1204 -0.0102  0.0377
 5944W        W 8144  20.499   5.591  43.808  0.1397  0.2874 -0.1161
 5945W        W 8145  17.324   1.773  39.032  0.0313 -0.0902 -0.1670
 5946W        W 8146  11.643   5.102  10.536  0.0470  0.2383 -0.1168
 5947W        W 8147   8.683   5.459  39.072 -0.1871 -0.1723  0.0311
 5948W        W 8148   2.018   6.030   1.672  0.1811 -0.0103 -0.1149
 5949W        W 8149  14.740   1.629  41.713  0.0162 -0.0517 -0.2969
 5950W        W 8150   0.073   2.970  35.726 -0.2052 -0.1138  0.0229
 5951W        W 8151   2.092   4.931  39.074 -0.0573  0.0900  0.2097
 5952W        W 8152  10.695   5.856   4.082 -0.0258 -0.1763 -0.2696
 5953W        W 8153   2.707   4.033  16.221  0.0698  0.2030 -0.2072
 5954W        W 8154  16.113   1.167  31.337  0.0488  0.2974  0.1245
 5955W        W 8155  11.033   0.271   3.375 -0.0622 -0.1321  0.3729
 5956W        W 8156  10.261   1.760   5.947  0.2481  0.2806  0.0757
 5957W        W 8157  10.548   5.819  14.886  0.3473 -0.0270  0.3691
 5958W        W 8158  14.616   1.237   3.750  0.0308  0.4306  0.1558
 5959W        W 8159  11.282   5.688  15.511 -0.0456  0.1118  0.1343
 5960W        W 8160   6.555   6.587  30.059 -0.4441 -0.1437  0.1522
 5961W        W 8161  15.921   0.284   5.593  0.1725 -0.0735  0.3190
 5962W        W 8162   0.053   5.629  40.218  0.0002  0.1640  0.0129
 5963W        W 8163   5.360   2.572  27.808 -0.1859 -0.0036 -0.0773
 5964W        W 8164  18.663   2.410  32.012  0.0902 -0.1124 -0.3368
 5965W        W 8165  20.516   3.013   6.487  0.1737 -0.1014 -0.0649
 5966W        W 8166   6.295   1.127   1.426  0.0883 -0.1839 -0.2339
 5967W        W 8167  17.012   1.176  41.386 -0.5593 -0.1970  0.0322
 5968W        W 8168   6.324   4.500  11.535 -0.1777  0.0019 -0.0773
 5969W        W 8169  13.624   3.767  32.520 -0.0796  0.0624  0.0170
 5970W        W 8170   8.162   2.980   0.102  0.0183 -0.0513 -0.1473
 5971W        W 8171   3.076   5.586  14.096  0.0094  0.2610  0.0501
 5972W        W 8172  15.557   2.016   1.421  0.2876 -0.0955  0.0285
 5973W        W 8173  17.051   2.809  17.794 -0.0561 -0.0901 -0.1394
 5974W        W 8174  14.193   3.716  38.148 -0.1007 -0.3430 -0.3487
 5975W        W 8175   9.834   5.270  30.713  0.0272  0.1397 -0.2685
 5976W        W 8176   8.411   1.722  40.063 -0.4160  0.2994  0.1006
 5977W        W 8177   1.770   2.683  25.932  0.1577  0.3710 -0.0452
 5978W        W 8178   2.469   5.706  33.208  0.1896 -0.1289 -0.1397
 5979W        W 8179  20.751   0.682  26.216 -0.1633  0.2036  0.3862
 5980W        W 8180   2.364   0.626  14.135  0.1860  0.2664 -0.0490
 5981W        W 8181   6.519   2.613  31.881  0.1685  0.0864 -0.0312
 5982W        W 8182   4.721   2.739   7.643 -0.1124  0.0962 -0.0432
 5983W        W 8183   8.953   6.405   7.862  0.1158  0.1695 -0.2601
 5984W        W 8184   4.083   3.525  41.405 -0.0110 -0.0405 -0.1644
 5985W        W 8185  11.218   2.563  32.360 -0.0792  0.3105  0.2130
 5986W        W 8186  19.851   3.530  26.702 -0.0476  0.1228 -0.3233
 5987W        W 8187   5.799   4.010  15.906  0.0121 -0.0405  0.2244
 5988W        W 8188  14.938   2.856   1.689 -0.4606 -0.3883  0.0294
 5989W        W 8189  19.563   5.287   6.567 -0.1302 -0.2103 -0.2530
 5990W        W 8190   2.510   4.364   0.587 -0.1786 -0.0234 -0.0799
 5991W        W 8191  12.405   2.615   2.117  0.0192 -0.2176  0.3420
 5992W        W 8192   1.585   1.706  41.109 -0.0032  0.1622  0.2473
 5993W        W 8193   1.756   2.489  14.763  0.2965  0.1190  0.0473
 5994W        W 8194  20.794   0.990  24.987 -0.2358 -0.1783 -0.2363
 5995W        W 8195   3.772   3.549  28.120  0.1501  0.2054  0.0536
 5996W        W 8196   8.264   6.383   5.506  0.3758  0.0056  0.0160
 5997W        W 8197  12.712   1.990  23.849 -0.0676  0.1719 -0.0158
 5998W        W 8198  12.052   1.987  44.420  0.0604 -0.1253 -0.2868
 5999W        W 8199   9.880   0.927  34.598 -0.0316 -0.3217  0.1374
 6000W        W 8200  20.950   0.795  36.116  0.2774  0.0635  0.0877
 6001W        W 8201  17.521   2.724   0.881 -0.0732 -0.4378 -0.2958
 6002W        W 8202   1.333   3.499  28.646 -0.1211  0.1647  0.2606
 6003W        W 8203  11.820   4.291  41.798  0.0001  0.0387 -0.1590
 6004W        W 8204   2.134   5.473  14.097 -0.3321  0.0986  0.0488
 6005W        W 8205  20.441   4.783  42.376 -0.0190  0.1605 -0.1710
 6006W        W 8206  17.735   3.745   3.777 -0.1176 -0.1834 -0.3174
 6007W        W 8207   0.746   0.544  29.927  0.2664  0.1204 -0.3935
 6008W        W 8208  19.050   2.218   1.788  0.0918 -0.4284  0.0605
 6009W        W 8209   4.982   3.136  43.982 -0.0614 -0.1413  0.0417
 6010W        W 8210  21.129   3.166  36.487 -0.1224 -0.1320  0.2266
 6011W        W 8211   2.058   3.700   4.111  0.2495  0.0172  0.0740
 6012W        W 8212   1.480   5.292  11.247 -0.0732  0.1083 -0.1797
 6013W        W 8213   4.766   1.594   5.311  0.3185 -0.1871  0.1142
 6014W        W 8214  14.186   2.234  22.006  0.1735  0.0999 -0.4406
 6015W        W 8215  17.670   2.414  33.559  0.1528  0.0776 -0.1776
 6016W        W 8216  20.659   2.419  30.450  0.0490 -0.1607 -0.2338
 6017W        W 8217  16.352   2.195   1.171  0.1090  0.0261  0.0342
 6018W        W 8218   4.163   5.952  11.036  0.0767 -0.2547  0.2147
 6019W        W 8219  20.397   3.663   8.187  0.0625  0.0565  0.0743
 6020W        W 8220  16.416   1.131  44.211 -0.0285 -0.1372 -0.1507
 6021W        W 8221  10.570   4.286  19.158 -0.0996  0.0362 -0.2716
 6022W        W 8222   1.171   5.950  37.588 -0.1138 -0.1381 -0.2540
 6023W        W 8223   4.587   0.549   5.064  0.2376 -0.3642 -0.3430
 6024W        W 8224  10.970   5.631   3.444  0.4795 -0.1414 -0.0811
 6025W        W 8225   4.703   4.643  34.591  0.1360  0.0704  0.0890
 6026W        W 8226  10.272   4.781  16.733 -0.0042  0.0072  0.0750
 6027W        W 8227   9.020   2.440  28.006  0.3120 -0.2063 -0.1143
 6028W        W 8228   0.763   0.144  28.736 -0.2678 -0.1316 -0.3402
 6029W        W 8229  19.178   2.869   0.727  0.1778  0.2221 -0.2732
 6030W        W 8230  11.844   6.245   8.369 -0.0914  0.0671 -0.0281
 6031W        W 8231  14.194   4.005   1.372  0.0715 -0.0098 -0.2084
 6032W        W 8232   5.461   5.672  40.815 -0.0121  0.1174  0.2239
 6033W        W 8233  11.080   3.493  20.876  0.2289  0.1212  0.1769
 6034W        W 8234   0.265   3.591  14.234 -0.4565  0.0403  0.1144
 6035W        W 8235   3.788   5.070   9.212 -0.0268  0.0187  0.2281
 6036W        W 8236   6.055   3.482  10.336  0.0384 -0.0150  0.0361
 6037W        W 8237  15.567   0.163  17.271 -0.1579 -0.0885 -0.2561
 6038W        W 8238   5.221   4.752  38.586  0.2354  0.0043 -0.2958
 6039W        W 8239   9.457   5.239  32.534 -0.0837  0.2313 -0.2652
 6040W        W 8240  11.932   0.361  40.636  0.1137  0.5385 -0.1486
 6041W        W 8241   8.689   5.338  28.181  0.0625 -0.4284  0.0162
 6042W        W 8242  18.020   6.213   2.278 -0.0600  0.1714 -0.1345
 6043W        W 8243   1.173   0.330  30.292  0.2978 -0.1060  0.0291
 6044W        W 8244  14.621   0.296  39.375  0.1749 -0.5019 -0.0150
 6045W        W 8245   4.681   5.404   4.486 -0.3093 -0.2699  0.0892
 6046W        W 8246  14.899   5.109  17.581 -0.0331 -0.1625 -0.1137
 6047W        W 8247   4.250   3.587  14.304 -0.1291  0.0551  0.3038
 6048W        W 8248  11.490   6.115   9.323  0.0344  0.0914 -0.0262
 6049W        W 8249   2.203   6.409  30.674  0.3863  0.0614  0.1349
 6050W        W 8250   8.891   0.686  39.380 -0.0332  0.4343  0.0854
 6051W        W 8251   6.943   4.822  40.897 -0.0621 -0.2472 -0.3799
 6052W        W 8252   5.322   2.041   0.693 -0.2617  0.4134 -0.1384
 6053W        W 8253   9.600   2.705  44.552  0.1211  0.0258 -0.2120
 6054W        W 8254   0.916   1.827  14.021  0.1487  0.1952  0.5971
 6055W        W 8255   7.547   3.107  38.892  0.0869  0.0532 -0.0466
 6056W        W 8256  16.224   1.922  16.779  0.0837 -0.0054 -0.0583
 6057W        W 8257  19.249   2.372   9.119 -0.0292 -0.0978  0.0934
 6058W        W 8258   2.791   4.409  28.717 -0.1082  0.1354 -0.0634
 6059W        W 8259  10.684   2.799   6.843  0.2642  0.1567  0.2985
 6060W        W 8260  15.794   4.619  13.684  0.0037 -0.0456  0.1865
 6061W        W 8261  18.876   4.714  30.620 -0.3243  0.1710 -0.4116
 6062W        W 8262   2.461   3.027  33.311 -0.1129  0.1717 -0.3151
 6063W        W 8263  17.224   6.414   0.411 -0.0409  0.2691 -0.3102
 6064W        W 8264  15.838   2.859   4.136  0.3042  0.2012  0.0387
 6065W        W 8265  14.100   4.741  41.314 -0.0185  0.0612  0.0002
 6066W        W 8266  18.621   1.339  32.383  0.1348  0.0613 -0.1313
 6067W        W 8267  13.699   1.053   9.567 -0.0409 -0.0095  0.1130
 6068W        W 8268  20.485   5.137  12.369  0.3475  0.3165 -0.0188
 6069W        W 8269   4.797   4.031  11.861  0.1135 -0.1395  0.1291
 6070W        W 8270  10.084   5.543  18.677 -0.3314 -0.0445 -0.4673
 6071W        W 8271   7.277   5.239  30.992 -0.0753 -0.0112  0.0171
 6072W        W 8272   9.324   5.712  10.640  0.2738  0.1539 -0.1349
 6073W        W 8273   5.524   1.873  12.391 -0.0631  0.0092 -0.1393
 6074W        W 8274  13.438   0.153  44.400  0.0278  0.0093  0.0711
 6075W        W 8275   5.959   6.576  35.206  0.1482  0.2538 -0.1414
 6076W        W 8276   9.615   2.810  36.784 -0.4600 -0.1952  0.0325
 6077W        W 8277   3.757   6.180   9.122 -0.0972 -0.0558 -0.1092
 6078W        W 8278   3.234   1.847   1.525  0.1160  0.0082 -0.0915
 6079W        W 8279  16.373   6.511  44.985 -0.0461  0.0429 -0.2810
 6080W        W 8280   6.112   3.095  13.132 -0.1542  0.0043 -0.1664
 6081W        W 8281  16.256   0.162  11.473 -0.0858  0.0313  0.3578
 6082W        W 8282  10.244   1.463  14.622  0.0577  0.0576  0.1787
 6083W        W 8283  17.443   2.615  30.921  0.0380  0.1682  0.1909
 6084W        W 8284  19.107   2.664  13.283  0.2563  0.0002 -0.0504
 6085W        W 8285  20.731   0.842   6.106  0.1508  0.0228 -0.1279
 6086W        W 8286  12.503   5.119  32.795 -0.3980 -0.2242  0.1489
 6087W        W 8287  16.538   0.343   0.811  0.2334  0.2398 -0.0793
 6088W        W 8288   4.958   3.978  13.358  0.0743  0.0737 -0.0337
 6089W        W 8289  11.128   4.275  34.575  0.0410 -0.1624  0.1990
 6090W        W 8290  11.657   2.692  37.286 -0.1903 -0.1634  0.1060
 6091W        W 8291  20.425   5.118  15.332 -0.2082  0.2295  0.2939
 6092W        W 8292  14.435   2.658  15.019  0.1037  0.1079  0.0996
 6093W        W 8293  12.678   1.332   6.324 -0.1307 -0.0620 -0.0989
 6094W        W 8294   9.783   0.747  35.112  0.0845  0.1700  0.1030
 6095W        W 8295   4.375   0.242  30.481  0.0374 -0.1266 -0.1390
 6096W        W 8296  10.391   0.716  13.344  0.0219 -0.2678 -0.0042
 6097W        W 8297   1.453   5.847  32.185  0.0250  0.0715  0.1224
 6098W        W 8298   4.707   5.940   0.848 -0.0529 -0.1264 -0.3530
 6099W        W 8299  13.237   4.515   8.795  0.0305 -0.4418 -0.0571
 6100W        W 8300  20.000   0.717  44.506 -0.1423  0.0944  0.1516
 6101W        W 8301   2.264   0.213  30.193  0.1265  0.1133  0.2760
 6102W        W 8302  14.410   1.028  44.178  0.1248 -0.0035 -0.1096
 6103W        W 8303   7.522   2.449  30.149 -0.0715  0.1844  0.0469
 6104W        W 8304  11.214   1.128  41.954 -0.1407 -0.0073  0.1680
 6105W        W 8305  16.651   0.360  44.867 -0.0857 -0.0194  0.2513
 6106W        W 8306   8.192   6.240   7.101  0.2309  0.0192  0.0369
 6107W        W 8307  17.272   0.520  36.562 -0.2783 -0.1548  0.2648
 6108W        W 8308  15.570   3.938  16.176  0.1341  0.0195  0.1883
 6109W        W 8309   4.660   2.397  23.062  0.1431  0.0845 -0.1877
 6110W        W 8310  13.822   6.386  33.800  0.2495  0.1396 -0.0527
 6111W        W 8311  11.143   4.776  12.872 -0.0016 -0.0559 -0.2358
 6112W        W 8312   5.636   3.207  24.875 -0.1735  0.0224 -0.2174
 6113W        W 8313  15.079   0.638  21.140 -0.1597  0.2342 -0.0806
 6114W        W 8314   1.705   0.062  43.774 -0.3963 -0.0254  0.0641
 6115W        W 8315  19.548   2.949   8.336  0.4459  0.1252 -0.0292
 6116W        W 8316   1.126   0.291   1.440 -0.1154  0.0292 -0.0500
 6117W        W 8317   9.763   1.415   4.577  0.1469  0.0765  0.0621
 6118W        W 8318  16.465   6.491   1.034 -0.1821 -0.0268 -0.2164
 6119W        W 8319  10.823   4.959  15.231  0.0719  0.0982 -0.2744
 6120W        W 8320   6.677   3.298  41.217  0.1085  0.1414  0.0428
 6121W        W 8321   7.207   2.158  36.787 -0.0108  0.1055  0.0127
 6122W        W 8322   1.952   3.990  42.778 -0.4018 -0.1621 -0.4706
 6123W        W 8323   2.663   6.449  25.575  0.0020  0.0530  0.0440
 6124W        W 8324  16.350   3.788  43.715  0.1545 -0.0169  0.0422
 6125W        W 8325   1.713   6.326  37.029 -0.2989  0.2388  0.1314
 6126W        W 8326   3.215   3.215  14.629  0.0304 -0.1334 -0.0371
 6127W        W 8327  15.045   2.023  34.715  0.2979 -0.5041 -0.2155
 6128W        W 8328  16.542   5.124  21.552  0.0257  0.0409 -0.1025
 6129W        W 8329  11.854   4.896  37.425 -0.1561 -0.0834 -0.2487
 6130W        W 8330  15.291   4.692   3.136  0.0165 -0.0460 -0.1594
 6131W        W 8331  15.363   2.758   8.564 -0.2716  0.1201  0.1618
 6132W        W 8332   2.507   1.133  43.592 -0.1603 -0.0685 -0.2079
 6133W        W 8333  15.101   6.522  19.052  0.0075  0.1334  0.0116
 6134W        W 8334  15.522   1.787  19.230 -0.3831 -0.2363  0.0728
 6135W        W 8335   5.211   0.135   0.045  0.2075 -0.0377 -0.0422
 6136W        W 8336  18.234   2.906  31.036 -0.1805 -0.1526  0.3174
 6137W        W 8337  14.036   3.137  43.442 -0.0812 -0.0123  0.0703
 6138W        W 8338  14.966   0.795  39.984 -0.0819 -0.2556 -0.0370
 6139W        W 8339   9.152   6.266  44.354 -0.3160  0.2011 -0.4359
 6140W        W 8340   1.616   4.958  42.194 -0.1063  0.0536  0.0848
 6141W        W 8341  13.043   4.715  33.373  0.3899  0.2459 -0.0338
 6142W        W 8342  18.826   1.711  15.316 -0.1166  0.0090 -0.0832
 6143W        W 8343  16.196   5.794  19.725 -0.0613 -0.2218  0.0749
 6144W        W 8344   9.172   0.608  17.903 -0.1878 -0.3378 -0.1447
 6145W        W 8345  16.172   5.815  15.888  0.1967  0.0054  0.1376
 6146W        W 8346  13.173   2.969  22.650 -0.0448 -0.1614 -0.0826
 6147W        W 8347   7.651   4.187  30.779  0.1078  0.0677 -0.0704
 6148W        W 8348   8.204   4.330   3.805 -0.2634  0.3655 -0.2198
 6149W        W 8349  10.872   0.756   7.350 -0.3351 -0.0788  0.0561
 6150W        W 8350  18.954   5.008  19.689 -0.1203 -0.1793  0.0724
 6151W        W 8351  13.998   0.625  19.541  0.1116  0.0949 -0.1348
 6152W        W 8352   7.167   4.365  32.866 -0.1119  0.1756 -0.3290
 6153W        W 8353  16.801   5.590   0.104  0.1228  0.0575 -0.1202
 6154W        W 8354  14.145   6.206  40.771 -0.1727  0.1680 -0.0703
 6155W        W 8355   8.218   4.982  11.296  0.1600  0.2786  0.3919
 6156W        W 8356   1.137   6.474   4.678 -0.1183  0.2039 -0.1229
 6157W        W 8357   3.099   1.322   1.435 -0.0724 -0.2241 -0.1821
 6158W        W 8358  20.549   1.217  42.829  0.0100 -0.0409  0.0276
 6159W        W 8359  15.303   1.719  43.769  0.1428 -0.1718 -0.3430
 6160W        W 8360   4.657   6.549   2.051 -0.0623  0.0263 -0.0968
 6161W        W 8361  19.224   6.587  16.302 -0.0433 -0.1384  0.3589
 6162W        W 8362   5.144   6.176  12.485  0.1168 -0.3365 -0.0511
 6163W        W 8363  15.717   3.141  12.568 -0.1413 -0.0184  0.0118
 6164W        W 8364   5.299   2.546   8.537 -0.1284 -0.1402 -0.2317
 6165W        W 8365  15.372   6.231   2.009  0.0617  0.1292  0.1449
 6166W        W 8366  16.549   0.581  33.531 -0.1751 -0.0180  0.0125
 6167W        W 8367  16.143   0.784  11.859 -0.0869 -0.4736 -0.2949
 6168W        W 8368  11.629   0.178  31.556 -0.0871 -0.1465  0.0479
 6169W        W 8369   4.700   4.154  34.960 -0.0613  0.1179 -0.0752
 6170W        W 8370  16.455   5.031   8.959 -0.1966 -0.2428 -0.0030
 6171W        W 8371  12.376   1.641   3.036 -0.0417 -0.1325  0.1284
 6172W        W 8372  10.354   4.734  37.019  0.0943  0.1053  0.2997
 6173W        W 8373  12.682   5.461  16.666  0.1695  0.0742 -0.0461
 6174W        W 8374  11.821   2.652   6.266  0.0495 -0.1262 -0.1271
 6175W        W 8375   4.340   0.641  22.681 -0.0384 -0.1735  0.0736
 6176W        W 8376  20.013   1.384   9.057  0.1595  0.2471  0.2279
 6177W        W 8377  13.568   3.440   2.033 -0.0740 -0.1365 -0.1918
 6178W        W 8378  16.656   2.455   0.010 -0.0205  0.1409  0.2683
 6179W        W 8379  16.558   4.393  14.040  0.4857  0.0340 -0.0254
 6180W        W 8380  15.744   5.522  35.852 -0.1849  0.2136  0.2228
 6181W        W 8381   6.817   5.517  13.474  0.0710 -0.3599 -0.2138
 6182W        W 8382   2.960   2.379   6.625 -0.0583 -0.0797  0.3441
 6183W        W 8383  20.501   6.488  41.724  0.2210 -0.0488  0.1485
 6184W        W 8384   7.210   6.117  28.815 -0.0219  0.0450  0.1836
 6185W        W 8385  20.280   4.616  33.876  0.0733 -0.3259  0.0030
 6186W        W 8386  20.462   2.919  11.453  0.2254  0.1186  0.1092
 6187W        W 8387  10.664   1.983  42.104 -0.1727 -0.1113  0.0828
 6188W        W 8388  10.199   5.018  45.095 -0.2869 -0.0300  0.1183
 6189W        W 8389   7.383   0.234  45.112  0.1277 -0.1246 -0.2333
 6190W        W 8390  11.367   1.031  12.739 -0.3027  0.1855 -0.1418
 6191W        W 8391   4.224   1.663  31.866 -0.0178 -0.1468 -0.0585
 6192W        W 8392   3.380   4.416  13.179 -0.0559 -0.2378 -0.0319
 6193W        W 8393   7.076   5.478  26.136  0.2705 -0.1087 -0.2521
 6194W        W 8394   3.887   1.419  39.271  0.0098  0.2337 -0.2337
 6195W        W 8395   8.707   4.267   9.200 -0.0347  0.0747 -0.1693
 6196W        W 8396  10.253   6.094  12.420  0.4097 -0.0020  0.1923
 6197W        W 8397   1.722   5.431  26.616  0.2040 -0.1565  0.4068
 6198W        W 8398   5.932   6.135  38.923  0.0096  0.0430  0.0481
 6199W        W 8399  18.397   4.925  42.003 -0.0459  0.1720  0.2391
 6200W        W 8400   4.537   2.844  27.944 -0.1324  0.2840 -0.0545
 6201W        W 8401   7.379   0.050  11.223  0.2032 -0.0529  0.2037
 6202W        W 8402  19.173   2.818   4.287  0.3976  0.0017 -0.0605
 6203W        W 8403  10.250   6.005   3.639  0.0149 -0.2759 -0.2295
 6204W        W 8404   9.284   5.656   4.742 -0.0974  0.0062  0.0683
 6205W        W 8405  17.199   4.158  40.038  0.1220 -0.1091 -0.1137
 6206W        W 8406  11.420   3.687  18.252  0.0623  0.2171  0.0254
 6207W        W 8407   2.387   2.102   5.758  0.0135  0.0579 -0.0540
 6208W        W 8408  20.962   6.076  36.899  0.2203  0.0129 -0.2218
 6209W        W 8409  18.280   1.734  39.989 -0.1659  0.1483  0.2545
 6210W        W 8410  11.359   5.617  18.900 -0.4909  0.0401  0.1116
 6211W        W 8411   5.610   5.305  28.757  0.3289  0.2274  0.2141
 6212W        W 8412  11.297   2.082  34.218 -0.4460 -0.3699  0.0984
 6213W        W 8413   0.877   5.154  39.640  0.1488  0.0918  0.2377
 6214W        W 8414  11.624   3.577  16.397 -0.1148 -0.1199 -0.1515
 6215W        W 8415  15.989   6.305  43.327 -0.0240 -0.0418 -0.1263
 6216W        W 8416  20.700   1.128  15.270  0.0556  0.0104 -0.1201
 6217W        W 8417   3.707   2.631   5.394 -0.0031 -0.0285 -0.3856
 6218W        W 8418   8.012   1.300   4.173  0.2155  0.0729  0.0968
 6219W        W 8419  10.349   4.783  29.402 -0.2037  0.1239 -0.0759
 6220W        W 8420   4.154   0.930  25.834 -0.1630 -0.0499  0.4964
 6221W        W 8421   7.121   4.817   2.147  0.0143  0.3587  0.1176
 6222W        W 8422   0.617   0.873   4.470 -0.1703  0.0571  0.1163
 6223W        W 8423  18.090   2.907  15.462  0.2424  0.0927  0.2419
 6224W        W 8424   2.844   6.094  29.922 -0.1403  0.0639  0.3025
 6225W        W 8425  10.256   1.164  42.851  0.1544  0.1854 -0.1137
 6226W        W 8426  11.401   3.916  44.171  0.1205  0.1335  0.0550
 6227W        W 8427   4.524   3.041  42.637 -0.3406  0.0226  0.1903
 6228W        W 8428   5.120   2.382  33.643  0.1378  0.0317 -0.3313
 6229W        W 8429  14.103   5.136  23.403  0.1710 -0.1810 -0.0365
 6230W        W 8430  15.037   3.808  35.301 -0.0871  0.3211  0.0705
 6231W        W 8431   0.587   4.972  33.717 -0.2290 -0.1055  0.1148
 6232W        W 8432   6.307   4.841  13.300 -0.1886 -0.1639 -0.3199
 6233W        W 8433  10.489   4.313  34.765  0.6311 -0.0487  0.0874
 6234W        W 8434  17.120   2.244   0.204 -0.0211 -0.2923 -0.1296
 6235W        W 8435  15.653   5.523  31.273  0.0598  0.0970  0.1061
 6236W        W 8436  20.418   0.754  11.618 -0.0031  0.1002  0.0994
 6237W        W 8437  16.316   3.494   3.611 -0.0002 -0.0749  0.1385
 6238W        W 8438  17.248   2.528  42.414  0.0391 -0.0976  0.0009
 6239W        W 8439   9.607   0.878  30.244 -0.2854  0.0693  0.0821
 6240W        W 8440  15.246   0.126   1.981 -0.1440  0.1884 -0.0604
 6241W        W 8441   9.895   3.615  19.088  0.1088 -0.1366  0.2324
 6242W        W 8442   6.335   5.539  12.330  0.0689  0.0744  0.0118
 6243W        W 8443  12.877   4.307  21.808  0.1335 -0.0031 -0.1574
 6244W        W 8444  16.743   1.128  16.452  0.1772 -0.0559 -0.0336
 6245W        W 8445  16.131   6.214  13.248 -0.1534 -0.0885  0.1919
 6246W        W 8446   5.182   3.838  29.534  0.4073 -0.2983 -0.0542
 6247W        W 8447   6.921   4.623  24.563  0.0320  0.2926  0.1237
 6248W        W 8448   8.373   6.341   6.008 -0.2023  0.0042  0.2447
 6249W        W 8449  19.281   6.108   9.501 -0.2326 -0.0410  0.1474
 6250W        W 8450  17.500   1.191  41.576  0.0292 -0.0387 -0.3219
 6251W        W 8451  15.118   1.763  11.768 -0.0583 -0.1956  0.0519
 6252W        W 8452   5.610   3.890   1.944 -0.1744  0.1425  0.2116
 6253W        W 8453  16.839   4.960   8.140  0.0695  0.1459 -0.1406
 6254W        W 8454  12.943   6.087  18.565 -0.1503 -0.0377  0.0240
 6255W        W 8455  17.681   4.226  20.625 -0.1014 -0.0924  0.3422
 6256W        W 8456  18.812   0.118   2.752 -0.2421 -0.0786  0.0656
 6257W        W 8457   7.542   4.501  38.341 -0.1085 -0.0205 -0.0487
 6258W        W 8458   1.708   6.225  31.950  0.2506 -0.1649 -0.1320
 6259W        W 8459  13.459   2.975  39.888  0.1134  0.1636  0.0322
 6260W        W 8460  17.237   6.484   5.741 -0.0239  0.5214 -0.0920
 6261W        W 8461  10.359   5.600   9.543  0.1237  0.0016 -0.0674
 6262W        W 8462  18.297   3.887  18.201 -0.0206  0.1644 -0.2950
 6263W        W 8463   6.378   1.809   9.452 -0.0445  0.0961  0.3471
 6264W        W 8464   1.414   6.324  39.702  0.0043  0.2368  0.0304
 6265W        W 8465   4.334   0.831  44.601 -0.0358 -0.2246  0.1174
 6266W        W 8466   4.385   4.708  24.028  0.0032  0.5816  0.0326
 6267W        W 8467  11.711   1.426   5.089  0.0074  0.0809  0.1206
 6268W        W 8468  13.437   0.775  23.054  0.1190  0.0671 -0.0033
 6269W        W 8469  10.893   2.980   7.442 -0.0838  0.1459 -0.2637
 6270W        W 8470   5.577   2.370  24.116 -0.1421 -0.1462  0.1554
 6271W        W 8471   5.286   2.053  11.408 -0.0658  0.0484  0.1627
 6272W        W 8472  17.720   0.943  11.876  0.1869 -0.1783 -0.1243
 6273W        W 8473   8.106   4.473  38.325  0.0563  0.0719 -0.1428
 6274W        W 8474  19.080   5.733   2.462 -0.0917  0.0082 -0.3821
 6275W        W 8475  15.004   3.403  19.214  0.1824  0.0340  0.1350
 6276W        W 8476   5.713   0.076  23.891  0.0560 -0.1722  0.1164
 6277W        W 8477  14.001   1.965  18.998 -0.1618 -0.1370  0.1266
 6278W        W 8478  20.658   1.884   4.000 -0.0190 -0.0186  0.1814
 6279W        W 8479  13.956   6.605  15.681  0.1379 -0.2833  0.0595
 6280W        W 8480  16.176   0.245   1.187  0.3328  0.0667 -0.1309
 6281W        W 8481   4.060   6.561  43.338  0.1633 -0.2398 -0.1149
 6282W        W 8482   9.559   3.576  32.022 -0.0051  0.0845 -0.1793
 6283W        W 8483  14.987   1.615  36.586 -0.0936 -0.1508 -0.0163
 6284W        W 8484   7.963   4.157  34.522  0.2997  0.1244  0.1054
 6285W        W 8485   0.090   1.651  37.131  0.1494  0.0540 -0.0052
 6286W        W 8486   3.414   0.675  24.864  0.2110  0.0434 -0.0461
 6287W        W 8487  15.598   3.811   8.139 -0.0058 -0.0055  0.1938
 6288W        W 8488  14.492   2.759  42.715  0.0166  0.2002 -0.1900
 6289W        W 8489  17.209   6.280  28.780 -0.1336 -0.0147  0.0319
 6290W        W 8490   3.264   5.335  23.257  0.2769 -0.0606 -0.2502
 6291W        W 8491  12.933   5.125  20.605  0.1192  0.4782 -0.0546
 6292W        W 8492  14.517   0.094  30.884  0.0077  0.0029  0.3729
 6293W        W 8493  15.604   4.816  31.628  0.0227 -0.0754 -0.2650
 6294W        W 8494  15.477   5.546  11.406  0.1830  0.1400 -0.0313
 6295W        W 8495   5.243   1.073  36.080  0.0951  0.1004  0.2177
 6296W        W 8496   1.267   3.505  43.952  0.1400 -0.0997  0.0546
 6297W        W 8497   8.008   1.715  42.968 -0.0848  0.0013 -0.1408
 6298W        W 8498   1.160   3.443  10.902  0.0165  0.2133 -0.1371
 6299W        W 8499   8.486   3.546   9.223 -0.4974  0.0244 -0.2959
 6300W        W 8500   1.919   4.620  30.579 -0.0090 -0.0440  0.0284
 6301W        W 8501  20.523   0.114  36.545 -0.1713  0.0038 -0.3751
 6302W        W 8502   9.213   1.608  11.971  0.0055  0.2525  0.0753
 6303W        W 8503  13.390   2.065  13.971 -0.0795 -0.0170  0.0808
 6304W        W 8504   2.164   2.409  30.625  0.0837  0.0316 -0.0427
 6305W        W 8505  15.146   1.502  10.014  0.3257 -0.0067  0.3049
 6306W        W 8506   4.692   5.357  14.349  0.1159 -0.0844  0.4265
 6307W        W 8507   8.482   0.942   5.814  0.1349 -0.1153  0.1996
 6308W        W 8508   6.560   0.085  36.949 -0.1703  0.0067  0.2079
 6309W        W 8509  16.975   6.021  15.160  0.2398 -0.1627 -0.2038
 6310W        W 8510  15.019   5.002  14.748  0.2108  0.0402  0.2351
 6311W        W 8511  12.255   4.052   9.979 -0.0262  0.1288  0.3924
 6312W        W 8512   2.311   1.409   6.950  0.0921 -0.0339 -0.2197
 6313W        W 8513  12.633   5.609  32.960  0.0700 -0.1022 -0.0521
 6314W        W 8514  16.561   5.437   2.233 -0.3006  0.1182  0.0773
 6315W        W 8515   0.778   4.842   3.518 -0.1067 -0.1702  0.2933
 6316W        W 8516  21.022   4.472  37.399  0.3246  0.1116  0.1808
 6317W        W 8517   9.550   4.132  33.606 -0.0425 -0.2981  0.1409
 6318W        W 8518  20.934   4.152   9.729  0.0531 -0.2645  0.0143
 6319W        W 8519   7.765   6.001  15.977  0.1299 -0.2355 -0.4147
 6320W        W 8520   1.955   0.662  28.506 -0.1513  0.3902 -0.1253
 6321W        W 8521  13.797   0.383  20.444 -0.1330 -0.1230  0.0363
 6322W        W 8522  16.166   1.461  16.392  0.3081  0.1459  0.2001
 6323W        W 8523  18.095   5.591  12.443 -0.3491 -0.3001 -0.1596
 6324W        W 8524   1.291   0.385  32.504  0.1475 -0.2757  0.0764
 6325W        W 8525  12.680   5.744   5.305  0.0500  0.1073 -0.0834
 6326W        W 8526  13.969   2.753  10.648  0.1812  0.0282 -0.1005
 6327W        W 8527   1.366   6.037   0.567  0.1981  0.1302  0.1633
 6328W        W 8528  14.516   5.899  15.808  0.1960 -0.1842 -0.2031
 6329W        W 8529   9.265   4.753  32.868  0.2386  0.3341  0.1650
 6330W        W 8530   6.121   1.444  30.531  0.2558 -0.0210 -0.3241
 6331W        W 8531  11.178   4.202  28.668  0.0142  0.1355 -0.0275
 6332W        W 8532  20.019   0.594  37.746  0.2690  0.2856  0.0587
 6333W        W 8533  14.897   4.330  13.424  0.0188  0.1879  0.0181
 6334W        W 8534   5.143   2.115   2.467  0.1536  0.0559  0.1334
 6335W        W 8535   2.503   3.398  35.299 -0.0821 -0.0196 -0.0387
 6336W        W 8536  12.957   5.628  43.733  0.1729 -0.0090 -0.0950
 6337W        W 8537   4.378   4.485   2.082  0.1657  0.0271  0.1295
 6338W        W 8538  20.445   0.014   0.606 -0.1195 -0.0463 -0.0693
 6339W        W 8539  11.791   4.326  21.799 -0.0114  0.0582 -0.1375
 6340W        W 8540   1.248   0.227  39.705  0.2906  0.1464  0.0446
 6341W        W 8541  13.843   3.475  29.392 -0.2732 -0.1302  0.3243
 6342W        W 8542   8.281   1.173  14.543 -0.1980  0.0664  0.1032
 6343W        W 8543  19.462   3.393  42.197 -0.1257  0.1072 -0.1449
 6344W        W 8544   9.699   5.756  30.768  0.2055 -0.0190 -0.0690
 6345W        W 8545  18.174   0.338  20.415  0.1388 -0.0086 -0.0009
 6346W        W 8546   5.698   5.380  10.123 -0.1134 -0.0834 -0.2710
 6347W        W 8547   6.140   4.544  23.962 -0.1098  0.3127 -0.5833
 6348W        W 8548  18.839   2.248  13.892 -0.1275  0.1166 -0.1129
 6349W        W 8549   4.601   0.005  27.044  0.0813  0.3116  0.1066
 6350W        W 8550   8.476   2.038   3.887  0.0836 -0.0537  0.0141
 6351W        W 8551   8.447   5.439  29.591 -0.1824 -0.1470  0.2405
 6352W        W 8552  14.502   0.333   9.990 -0.2367 -0.2564  0.0126
 6353W        W 8553   1.279   0.110   7.274 -0.2015 -0.2046  0.1310
 6354W        W 8554  18.548   3.099  15.975  0.3178 -0.0840  0.1050
 6355W        W 8555  16.699   6.410  15.332 -0.0774  0.1977  0.0246
 6356W        W 8556   9.025   5.636  43.560  0.2169 -0.3048 -0.0427
 6357W        W 8557  14.617   6.081  10.376  0.2757  0.1395  0.1968
 6358W        W 8558  13.249   0.326  32.062 -0.1406 -0.2184  0.0335
 6359W        W 8559   0.002   1.196   0.786 -0.3471  0.0588  0.3126
 6360W        W 8560   1.162   0.551  29.697  0.1805 -0.3342  0.0073
 6361W        W 8561  12.908   5.245  40.528 -0.3020 -0.0136 -0.0368
 6362W        W 8562   8.881   5.773  11.774 -0.0028 -0.0660  0.1011
 6363W        W 8563   5.259   2.946  36.843 -0.0499  0.0263 -0.1725
 6364W        W 8564   5.087   5.333  31.594 -0.0848 -0.1956 -0.1071
 6365W        W 8565   2.169   1.101  40.563  0.0703 -0.1147  0.0996
 6366W        W 8566   7.039   3.708  30.668  0.1875 -0.0363  0.1431
 6367W        W 8567   7.448   2.306  40.892  0.0863 -0.1640 -0.0845
 6368W        W 8568   0.173   0.723  34.809 -0.0782 -0.4030  0.2512
 6369W        W 8569   3.430   2.100   8.791  0.0901 -0.1337  0.4458
 6370W        W 8570   0.103   2.815  32.659  0.1203 -0.2778  0.2017
 6371W        W 8571   7.783   0.181  34.061 -0.0825 -0.1742  0.0034
 6372W        W 8572  20.395   0.948  30.215  0.0852 -0.2613  0.0721
 6373W        W 8573  20.395   6.360  27.358  0.0965  0.2380  0.0576
 6374W        W 8574   6.108   5.430  40.943 -0.4658  0.2931 -0.0930
 6375W        W 8575  18.705   6.189   0.308 -0.2308 -0.0946 -0.2061
 6376W        W 8576  15.264   1.796  18.667 -0.2394 -0.1368  0.0989
 6377W        W 8577  14.489   3.343   7.547 -0.0806 -0.0493 -0.0171
 6378W        W 8578  13.125   6.351  39.620  0.0050 -0.2846 -0.1033
 6379W        W 8579   8.261   2.190  28.292  0.2302  0.1109 -0.1022
 6380W        W 8580   7.402   0.007  44.662 -0.1254 -0.0526 -0.1440
 6381W        W 8581   1.972   6.603  12.287  0.1694  0.0660 -0.1573
 6382W        W 8582  13.062   4.790  17.810  0.0051  0.0904  0.0619
 6383W        W 8583   8.869   1.631  33.810  0.2926 -0.0153 -0.2460
 6384W        W 8584  15.398   6.182   0.516  0.1751 -0.4189  0.0857
 6385W        W 8585   4.507   3.710  30.278 -0.1015 -0.1511  0.0889
 6386W        W 8586  10.093   0.406  28.888 -0.0342  0.0688 -0.1412
 6387W        W 8587   8.280   1.863  12.129  0.0564 -0.0892 -0.0017
 6388W        W 8588  14.454   5.061  29.296 -0.1970  0.0467  0.0816
 6389W        W 8589  10.722   4.025  14.326 -0.1121 -0.0411  0.1219
 6390W        W 8590  10.636   0.763  36.808  0.3104 -0.6395 -0.3110
 6391W        W 8591   3.581   6.376  36.837 -0.0285  0.1374  0.0709
 6392W        W 8592   2.003   5.125   8.633 -0.0875  0.2542 -0.2992
 6393W        W 8593  11.963   6.329  22.954 -0.0213  0.3543 -0.1249
 6394W        W 8594   7.848   4.741  13.200 -0.0883 -0.0201  0.1202
 6395W        W 8595  16.613   5.118   4.044 -0.0502  0.1546  0.2162
 6396W        W 8596  19.808   1.733  34.935  0.0148 -0.0093  0.0907
 6397W        W 8597   3.935   1.226   5.875  0.0043  0.1096  0.2003
 6398W        W 8598  10.378   0.900  28.898  0.0903 -0.1275 -0.0194
 6399W        W 8599  10.510   0.140   6.841 -0.1641 -0.0912  0.3186
 6400W        W 8600  18.794   2.367   1.320 -0.2936  0.0084 -0.2562
 6401W        W 8601  19.039   2.386  42.935  0.1572  0.2363 -0.0636
 6402W        W 8602  18.216   5.030  30.528 -0.0054  0.2605  0.0316
 6403W        W 8603   6.105   1.400  39.958 -0.0428  0.2555  0.2599
 6404W        W 8604   4.204   2.473   4.026  0.4641 -0.2435  0.1402
 6405W        W 8605  17.944   3.431   5.993 -0.1719  0.2943 -0.0125
 6406W        W 8606   0.075   2.815  38.140  0.0630 -0.1405  0.1677
 6407W        W 8607   3.850   2.721   3.093  0.1781 -0.0985  0.0864
 6408W        W 8608  12.312   6.227   0.763  0.0686  0.1719  0.0154
 6409W        W 8609  18.616   6.090   5.583  0.3420  0.1773  0.1221
 6410W        W 8610  17.387   0.665   9.965 -0.0547  0.0595 -0.0703
 6411W        W 8611   3.839   5.710  30.592 -0.1323  0.1380  0.1247
 6412W        W 8612  11.006   6.429  10.473 -0.1599 -0.0899  0.0104
 6413W        W 8613   1.519   1.173  22.986  0.0017  0.0024  0.1134
 6414W        W 8614   1.113   3.357  43.486 -0.0894 -0.0154 -0.0068
 6415W        W 8615  15.445   4.765  33.502  0.1289 -0.1654 -0.0758
 6416W        W 8616   4.584   6.224  29.793 -0.1161  0.0519 -0.0920
 6417W        W 8617  10.638   4.715   2.642 -0.0262 -0.1263  0.1203
 6418W        W 8618   1.113   2.360  43.384  0.1308  0.0897  0.1836
 6419W        W 8619  10.012   0.497   1.685  0.0854 -0.0180 -0.1924
 6420W        W 8620  10.876   6.540  29.045 -0.3781 -0.3431 -0.0733
 6421W        W 8621   8.978   1.483  17.502  0.2217 -0.0349 -0.1967
 6422W        W 8622  14.320   0.214  32.959 -0.0213  0.1032  0.0962
 6423W        W 8623  14.819   6.146   1.182 -0.1118  0.2870 -0.0744
 6424W        W 8624  17.144   6.495  13.808  0.1338  0.0076  0.2386
 6425W        W 8625   5.724   4.096  28.220 -0.0110  0.0942 -0.1258
 6426W        W 8626   3.285   3.250  28.839 -0.0776  0.1917 -0.2744
 6427W        W 8627  20.598   6.320  35.106  0.1303 -0.0370 -0.0989
 6428W        W 8628   0.785   2.736   9.366  0.0464  0.2431  0.2384
 6429W        W 8629  13.039   0.173  17.404 -0.1345 -0.1926 -0.0816
 6430W        W 8630  12.855   1.999  35.070 -0.0040 -0.0255 -0.0624
 6431W        W 8631  17.810   3.132  15.080 -0.2648  0.0592  0.0337
 6432W        W 8632  15.426   4.838  10.868  0.0612  0.2835 -0.1332
 6433W        W 8633  13.018   3.428   2.546 -0.3777  0.1959  0.0582
 6434W        W 8634   4.260   4.897   7.512 -0.1299 -0.0632  0.0685
 6435W        W 8635   7.853   5.479  13.749  0.2967  0.1119  0.3018
 6436W        W 8636   1.814   1.708  34.946 -0.0691  0.0472  0.1747
 6437W        W 8637   8.473   4.027  11.243  0.1310  0.1039 -0.0204
 6438W        W 8638  15.186   2.795  39.571  0.2873  0.1006  0.0073
 6439W        W 8639  19.173   0.413   2.987  0.0801  0.2904  0.0753
 6440W        W 8640   4.048   6.426  38.844 -0.1711  0.0643  0.1070
 6441W        W 8641   1.414   2.468  40.646  0.1927 -0.0712 -0.1634
 6442W        W 8642   5.354   5.885  26.555 -0.0412 -0.3515  0.1892
 6443W        W 8643  11.239   0.403   7.305 -0.1522  0.0551 -0.0239
 6444W        W 8644  20.452   1.286   1.825  0.1290  0.0932  0.0618
 6445W        W 8645  17.171   5.382   7.223  0.0665 -0.3154 -0.0173
 6446W        W 8646  11.382   3.779  44.752 -0.4142  0.1195 -0.0620
 6447W        W 8647  13.690   6.506  17.213 -0.0675 -0.2161  0.0908
 6448W        W 8648  19.642   5.982   5.541  0.0193  0.3197  0.1377
 6449W        W 8649   2.970   1.378  38.125  0.1692  0.0376 -0.2908
 6450W        W 8650  17.197   0.985  28.301  0.1102 -0.3924  0.1546
 6451W        W 8651   5.056   3.761  25.284 -0.0876 -0.0229  0.0754
 6452W        W 8652  19.819   4.770  26.193 -0.2358  0.1796 -0.1491
 6453W        W 8653   9.550   0.790  31.742  0.1275 -0.0245 -0.1339
 6454W        W 8654  20.611   0.738  43.737 -0.0104  0.0148 -0.0371
 6455W        W 8655   0.512   3.160  29.064 -0.1998 -0.1899  0.0771
 6456W        W 8656  18.690   5.606   3.820 -0.0330  0.0965 -0.0864
 6457W        W 8657  15.358   2.611  29.214  0.0188  0.0296 -0.3342
 6458W        W 8658  11.112   1.078  10.963  0.1265 -0.2577 -0.1186
 6459W        W 8659  18.907   4.954  13.762  0.1830 -0.3490 -0.2925
 6460W        W 8660   8.599   5.117  34.772  0.0675 -0.2242 -0.0102
 6461W        W 8661  17.269   5.747   4.203 -0.3055 -0.2238  0.1159
 6462W        W 8662   7.166   2.849  13.928  0.1584 -0.0275  0.1777
 6463W        W 8663  14.618   1.323  33.671 -0.0393 -0.1784  0.0960
 6464W        W 8664  18.986   5.446  11.574  0.0965  0.0711  0.0811
 6465W        W 8665   4.456   6.215  31.554  0.1063  0.0706 -0.0449
 6466W        W 8666  13.797   1.356  40.984  0.2931 -0.3436 -0.1693
 6467W        W 8667  19.126   5.427  44.997  0.0491 -0.1317 -0.1068
 6468W        W 8668   0.014   3.938  30.491  0.0584  0.0570  0.1767
 6469W        W 8669   6.178   6.197  10.268 -0.1431  0.0833  0.1771
 6470W        W 8670   6.476   2.521  30.821  0.1399 -0.0666  0.0872
 6471W        W 8671  14.049   1.057  15.899  0.2718 -0.1263  0.0019
 6472W        W 8672   8.405   0.663  15.392 -0.0304 -0.0080 -0.1203
 6473W        W 8673  18.720   5.091  38.668  0.2311  0.2183 -0.0097
 6474W        W 8674   9.402   4.604   4.588 -0.0372 -0.0091 -0.1968
 6475W        W 8675   5.979   3.307  25.183  0.2093 -0.0602 -0.3390
 6476W        W 8676  20.043   3.211  11.213 -0.0311  0.3472  0.1884
 6477W        W 8677   6.421   3.242  14.837 -0.5536 -0.2473 -0.0151
 6478W        W 8678   1.586   3.643   1.878 -0.1870  0.1383 -0.3338
 6479W        W 8679  17.054   2.559  32.030 -0.1962 -0.1180  0.3222
 6480W        W 8680  16.576   1.250   6.223  0.0271 -0.0910 -0.1279
 6481W        W 8681  10.278   0.997  34.955 -0.1367  0.0030  0.0955
 6482W        W 8682   8.121   1.219  28.732  0.0792 -0.2724 -0.3057
 6483W        W 8683  18.293   0.796  44.037  0.0508  0.0257 -0.2045
 6484W        W 8684   4.685   1.003  29.230 -0.1918  0.0185  0.0510
 6485W        W 8685   6.123   3.446   1.419  0.0221 -0.0761 -0.0755
 6486W        W 8686   2.752   5.115  34.372 -0.0439  0.0638  0.5278
 6487W        W 8687  10.188   1.014   3.297 -0.0562 -0.3944 -0.0910
 6488W        W 8688  12.496   0.925  17.184 -0.0073  0.0663  0.0550
 6489W        W 8689  19.360   2.264  41.316  0.1394  0.1162 -0.1101
 6490W        W 8690   4.476   3.360  24.391 -0.3701  0.2751 -0.2224
 6491W        W 8691   7.151   5.527  40.383 -0.3964  0.0020  0.0410
 6492W        W 8692   1.370   6.474  32.485  0.0729 -0.0649  0.2977
 6493W        W 8693  20.098   0.564   3.920 -0.2414 -0.1474 -0.0990
 6494W        W 8694   2.103   1.528   0.250  0.0031 -0.2338 -0.0888
 6495W        W 8695  20.631   1.978  35.950 -0.0021  0.0338 -0.0040
 6496W        W 8696  20.594   5.837   7.072  0.0525 -0.0045 -0.2002
 6497W        W 8697  12.451   6.210  31.727 -0.1402 -0.1366 -0.1761
 6498W        W 8698   4.357   1.471  37.579  0.4298 -0.1831  0.1534
 6499W        W 8699  12.235   4.041  16.898 -0.0171  0.2111 -0.0101
 6500W        W 8700  13.549   3.944  16.029  0.0054 -0.0899 -0.2400
 6501W        W 8701  13.053   6.584  31.759 -0.1894  0.0240  0.1037
 6502W        W 8702  18.589   5.259   4.179 -0.4024  0.3651 -0.0597
 6503W        W 8703   5.172   4.189   0.759  0.1385 -0.0017  0.2490
 6504W        W 8704   0.331   4.381  34.376  0.1783  0.1295 -0.0551
 6505W        W 8705  18.914   3.156  10.808  0.0725  0.3693 -0.2398
 6506W        W 8706  20.493   0.037  29.884  0.2507  0.1724  0.0412
 6507W        W 8707  18.056   3.035  14.615 -0.2982  0.1378  0.0687
 6508W        W 8708   3.010   6.581  44.319 -0.0236 -0.2828  0.2186
 6509W        W 8709   7.597   3.081   1.930  0.0529  0.0400  0.0535
 6510W        W 8710   6.749   2.810  11.621  0.1036  0.0594 -0.2547
 6511W        W 8711  17.557   6.491  42.358  0.0457  0.2704 -0.2155
 6512W        W 8712   9.533   1.409  15.632 -0.0476 -0.2158  0.3026
 6513W        W 8713   3.917   1.589  42.857 -0.1025  0.1978 -0.2006
 6514W        W 8714   2.776   4.775  44.078 -0.3593 -0.0079  0.2384
 6515W        W 8715   6.397   1.735   2.179  0.5877 -0.2553 -0.0456
 6516W        W 8716  15.759   2.877   1.157  0.0241  0.1242  0.1536
 6517W        W 8717  17.991   6.274   6.839 -0.1642  0.0896  0.1005
 6518W        W 8718   4.701   2.688  39.370  0.1994 -0.2720  0.2965
 6519W        W 8719   6.621   1.560  38.845 -0.1005  0.3017  0.0621
 6520W        W 8720   5.110   2.808  33.269 -0.0926 -0.0505 -0.1880
 6521W        W 8721  20.780   0.850  15.740  0.1638 -0.0028 -0.1217
 6522W        W 8722   7.941   0.515  12.075 -0.2101 -0.2005  0.3157
 6523W        W 8723  10.755   0.736   2.365 -0.1609  0.0351  0.0042
 6524W        W 8724   5.179   2.470  15.592 -0.1927 -0.2158  0.1107
 6525W        W 8725  12.925   2.311  39.319  0.2028  0.0629  0.4744
 6526W        W 8726   0.332   3.121   6.999 -0.3271  0.1317  0.1266
 6527W        W 8727  12.984   3.368  21.040 -0.1307 -0.1492 -0.2356
 6528W        W 8728  19.098   4.748   5.978 -0.0512 -0.0240 -0.0191
 6529W        W 8729  10.627   5.724  32.930 -0.1487 -0.1693  0.0101
 6530W        W 8730  19.981   3.151  29.007 -0.3233  0.0170 -0.1309
 6531W        W 8731   2.003   2.749  27.960 -0.3245 -0.2730 -0.1618
 6532W        W 8732  16.204   4.150  35.906 -0.4697  0.0816 -0.1281
 6533W        W 8733  14.983   4.883  37.656 -0.1573  0.0750 -0.0168
 6534W        W 8734  18.979   3.324  26.795  0.3331 -0.0577 -0.2120
 6535W        W 8735  19.012   4.896  38.341 -0.0962  0.1146 -0.2953
 6536W        W 8736  16.104   3.876  43.287  0.1096 -0.5700 -0.2417
 6537W        W 8737   3.434   1.362  38.288 -0.0538 -0.0532  0.3718
 6538W        W 8738  10.644   4.730  19.007  0.2018 -0.2239 -0.2204
 6539W        W 8739  13.028   2.582  43.758 -0.2205  0.2516 -0.2069
 6540W        W 8740   5.184   3.007   8.439  0.1871 -0.1122  0.2310
 6541W        W 8741   1.914   4.801  23.676 -0.2377 -0.0498  0.0736
 6542W        W 8742  15.196   4.517  36.799  0.0740 -0.1681  0.1885
 6543W        W 8743   7.268   0.263   6.117 -0.1193  0.1076 -0.1982
 6544W        W 8744   5.563   0.917  40.584 -0.1107  0.0729 -0.5644
 6545W        W 8745  21.033   0.476   0.976  0.0506  0.2216  0.1717
 6546W        W 8746  11.132   1.211  32.539 -0.0040 -0.1677 -0.1300
 6547W        W 8747   6.741   6.509  31.464  0.1055  0.2444  0.2942
 6548W        W 8748   5.709   1.061   9.417 -0.1362 -0.1314 -0.1525
 6549W        W 8749   2.868   0.558  26.508  0.2618  0.2987  0.1377
 6550W        W 8750  15.399   1.622  36.208  0.1247  0.2312 -0.0577
 6551W        W 8751   7.946   1.970   4.198 -0.1946 -0.2604 -0.3136
 6552W        W 8752  16.988   3.153  37.729 -0.2892 -0.0889 -0.3188
 6553W        W 8753   0.260   1.265  24.817  0.1743  0.0014 -0.0475
 6554W        W 8754   1.482   4.769   1.443 -0.2658  0.0201  0.2443
 6555W        W 8755  14.266   3.337  16.800  0.2170 -0.1672  0.1923
 6556W        W 8756   6.080   0.969   5.247 -0.1530 -0.2611 -0.0465
 6557W        W 8757  10.063   5.271  34.849  0.2512 -0.2714  0.0632
 6558W        W 8758  16.336   4.846  18.632  0.1485  0.1060  0.0431
 6559W        W 8759  12.448   0.617  29.528 -0.3683 -0.2876 -0.1521
 6560W        W 8760  17.632   4.531  20.136 -0.0090 -0.2214  0.2777
 6561W        W 8761  19.770   3.433  10.353 -0.3626 -0.1321 -0.2533
 6562W        W 8762  10.645   5.394  36.925 -0.1272  0.3170 -0.1546
 6563W        W 8763  11.939   1.445  34.897 -0.1156 -0.0805 -0.0630
 6564W        W 8764  12.160   5.313   1.721  0.1826  0.1742  0.5194
 6565W        W 8765  10.749   2.540   3.285 -0.1748  0.0515  0.1379
 6566W        W 8766  13.940   5.574  32.555 -0.2327 -0.0525  0.1898
 6567W        W 8767   3.278   6.498  43.775  0.1231 -0.0576  0.2496
 6568W        W 8768   6.705   0.179   0.526 -0.2602 -0.0116 -0.0594
 6569W        W 8769   6.413   3.859  33.358  0.1586  0.0037 -0.3612
 6570W        W 8770  20.455   2.297  29.969 -0.0808  0.0700 -0.0620
 6571W        W 8771   7.610   2.836  35.344  0.0264  0.2526 -0.0668
 6572W        W 8772  11.336   5.416   5.151 -0.2888 -0.2938  0.1480
 6573W        W 8773  20.980   5.820  12.685 -0.2843 -0.1499 -0.1837
 6574W        W 8774  14.340   6.360  22.549 -0.0173  0.0362 -0.0129
 6575W        W 8775  11.331   5.615  32.795  0.6048 -0.2427  0.1327
 6576W        W 8776  13.682   5.986  32.695  0.0996  0.4192 -0.1736
 6577W        W 8777  20.460   1.795  30.290  0.1027  0.0703 -0.1032
 6578W        W 8778  12.628   3.294  19.949  0.1275 -0.6164  0.0287
 6579W        W 8779   0.141   3.036  29.397 -0.0548 -0.0533 -0.1364
 6580W        W 8780  13.089   3.073  43.608  0.1710 -0.0450  0.0959
 6581W        W 8781   8.903   2.227  13.280  0.1763  0.0190  0.0408
 6582W        W 8782  20.539   2.962  26.523 -0.1552 -0.0165 -0.0110
 6583W        W 8783  16.433   3.300  18.882  0.1257  0.0018  0.1095
 6584W        W 8784   0.106   6.559   3.594  0.0168  0.3615 -0.1369
 6585W        W 8785  17.058   2.918  14.927 -0.0283 -0.2602  0.0275
 6586W        W 8786  19.444   1.294   7.314  0.1036 -0.0540 -0.1061
 6587W        W 8787  10.816   2.159  32.083 -0.2244 -0.0328  0.2276
 6588W        W 8788  13.361   4.515  13.869 -0.2368  0.1285  0.3746
 6589W        W 8789   8.107   0.229  13.250 -0.1435 -0.1614 -0.1081
 6590W        W 8790   2.802   5.416   5.188 -0.3152 -0.3048  0.1130
 6591W        W 8791  16.061   2.505  44.684 -0.2681 -0.0703  0.0546
 6592W        W 8792  14.856   6.163  21.655  0.0368  0.1683 -0.2271
 6593W        W 8793   9.950   5.628  15.544 -0.1798  0.2368 -0.2189
 6594W        W 8794  10.910   5.611  32.453  0.2051 -0.1071 -0.2175
 6595W        W 8795  21.143   4.849  32.720 -0.2519  0.4009  0.1615
 6596W        W 8796   3.896   3.576  34.267 -0.0738  0.1202  0.1091
 6597W        W 8797  17.930   3.114  42.382  0.0313  0.0916 -0.0821
 6598W        W 8798  11.885   2.182  40.905 -0.0365 -0.1613  0.1061
 6599W        W 8799   3.428   2.423   3.085  0.0607 -0.0084 -0.1004
 6600W        W 8800   8.537   5.994  17.087 -0.1889 -0.1074 -0.3061
 6601W        W 8801   1.081   0.659  27.401  0.0481 -0.1635 -0.0054
 6602W        W 8802  11.549   0.088  29.558  0.3052  0.2682 -0.1318
 6603W        W 8803   9.713   6.144  34.914 -0.0287 -0.0647 -0.2623
 6604W        W 8804   8.101   1.842  16.742 -0.1181  0.1963  0.0080
 6605W        W 8805   9.260   0.721  16.079  0.1759  0.1542 -0.4202
 6606W        W 8806  14.647   3.169  12.620 -0.2531 -0.1385 -0.1451
 6607W        W 8807  14.346   2.617   9.493 -0.2319 -0.0353 -0.2113
 6608W        W 8808   9.353   3.066   3.327  0.1824  0.0469  0.0455
 6609W        W 8809   6.461   4.094  14.640 -0.1091  0.0078  0.0531
 6610W        W 8810  19.848   0.574  10.838 -0.0820  0.0845  0.0027
 6611W        W 8811   3.523   1.139  44.993  0.0012  0.2657 -0.0374
 6612W        W 8812  15.176   6.100  33.702 -0.1226 -0.1557 -0.1655
 6613W        W 8813   7.433   3.159  14.543  0.1385 -0.1324 -0.1235
 6614W        W 8814   5.981   0.269  43.909  0.1577 -0.0904  0.0426
 6615W        W 8815   7.061   3.964  42.603  0.0642 -0.0689 -0.2231
 6616W        W 8816   8.229   0.153  38.356 -0.2998  0.0007 -0.3701
 6617W        W 8817   4.455   1.939   8.444 -0.3957  0.4601 -0.3934
 6618W        W 8818   2.696   5.114   9.302 -0.1657  0.1845 -0.0423
 6619W        W 8819  19.747   0.181  11.261 -0.0888  0.0970 -0.0413
 6620W        W 8820   6.966   0.308  25.431 -0.0219  0.0373 -0.2537
 6621W        W 8821   3.409   1.335  22.508 -0.2248  0.1503 -0.1646
 6622W        W 8822  10.638   1.358   6.197 -0.1424  0.1719  0.0385
 6623W        W 8823  13.104   2.219  44.849 -0.0522 -0.0353  0.3458
 6624W        W 8824   3.348   1.070  10.181 -0.0107 -0.1920  0.4003
 6625W        W 8825   3.521   2.547  20.696 -0.0798 -0.0028 -0.3764
 6626W        W 8826   8.730   5.113  16.619 -0.0822  0.1038 -0.1308
 6627W        W 8827  10.480   6.351  41.800  0.0221 -0.1309  0.3032
 6628W        W 8828  18.471   3.532  28.720  0.1969 -0.1162  0.0020
 6629W        W 8829  16.406   5.531  14.304  0.0483 -0.0875 -0.0942
 6630W        W 8830   5.568   1.635  37.355  0.0700  0.1114  0.2169
 6631W        W 8831  12.627   2.524  10.983  0.1990  0.2359  0.0717
 6632W        W 8832  15.047   5.703  22.521  0.1281 -0.0130 -0.0590
 6633W        W 8833  17.338   2.439   9.227 -0.2207  0.2120 -0.0339
 6634W        W 8834  18.977   3.320  14.673 -0.1090 -0.0592  0.1274
 6635W        W 8835   7.179   3.566   4.731  0.1644 -0.0828 -0.2520
 6636W        W 8836  12.353   2.087  43.263 -0.0888  0.0690  0.0844
 6637W        W 8837  15.916   0.567  16.859 -0.2015 -0.1124 -0.2065
 6638W        W 8838  10.834   3.915  32.564 -0.1998  0.0321 -0.0204
 6639W        W 8839  19.100   3.620   1.271 -0.1091  0.1758 -0.0507
 6640W        W 8840  12.851   2.586  22.428  0.0456  0.0020 -0.1895
 6641W        W 8841  20.769   2.853  15.945 -0.0228 -0.4478 -0.1623
 6642W        W 8842  19.265   2.651  30.563 -0.2290 -0.1816  0.2648
 6643W        W 8843  17.936   1.706  43.428  0.3770  0.1728  0.1424
 6644W        W 8844   7.157   5.374  15.516  0.0643 -0.0527  0.0816
 6645W        W 8845   0.564   3.431   8.406 -0.0240  0.2378  0.0168
 6646W        W 8846  13.088   2.022  43.826  0.0337  0.1009  0.2093
 6647W        W 8847  12.488   2.996  44.585 -0.0790  0.2522  0.0358
 6648W        W 8848   5.213   6.540  30.535  0.0903  0.1261  0.3270
 6649W        W 8849  21.021   3.115   1.122 -0.0789  0.1359 -0.0789
 6650W        W 8850   1.383   4.533  13.145 -0.0501 -0.1669  0.1673
 6651W        W 8851   1.577   0.075  25.933 -0.1429  0.1984  0.0012
 6652W        W 8852   5.682   1.781   0.393  0.0731 -0.0441 -0.0245
 6653W        W 8853   9.524   3.847  13.663  0.0555  0.2446  0.2250
 6654W        W 8854  18.561   3.672  35.206  0.0009  0.1074 -0.1475
 6655W        W 8855   6.468   3.754  40.693  0.1003 -0.2008 -0.2554
 6656W        W 8856  18.314   4.968   9.117 -0.0324 -0.1435  0.0723
 6657W        W 8857   1.583   0.651  28.198  0.0678  0.0038  0.0883
 6658W        W 8858  18.931   6.595  15.804  0.0586  0.2866  0.1618
 6659W        W 8859  18.655   5.597   7.300  0.1081 -0.1180  0.1048
 6660W        W 8860  17.691   0.354  43.663  0.1705  0.1522  0.0172
 6661W        W 8861  18.903   6.133  41.338  0.0040 -0.0067 -0.0365
 6662W        W 8862  11.910   6.567  16.196 -0.0043  0.1358 -0.2635
 6663W        W 8863  18.744   5.655   8.730 -0.0085 -0.3394 -0.1350
 6664W        W 8864   9.315   2.877  39.684  0.6235  0.1681  0.1062
 6665W        W 8865   0.318   4.907  10.741  0.0761  0.3276 -0.1839
 6666W        W 8866  14.070   1.174  17.097  0.0672 -0.2010  0.1091
 6667W        W 8867  18.870   1.981   8.288  0.1776  0.0851 -0.0366
 6668W        W 8868  18.841   4.515   0.194 -0.1229  0.1435 -0.3467
 6669W        W 8869  12.895   5.413   4.903 -0.1520 -0.2252 -0.1396
 6670W        W 8870  18.131   5.506  10.971  0.0684  0.0203 -0.2316
 6671W        W 8871  19.368   0.427  16.528  0.2122  0.1802 -0.1179
 6672W        W 8872  15.520   0.561  33.529  0.3215  0.1196 -0.1181
 6673W        W 8873   8.100   5.766  14.105  0.1675 -0.0914 -0.3422
 6674W        W 8874   7.474   4.224  39.636  0.2943  0.2006 -0.1843
 6675W        W 8875   0.488   0.738  10.869 -0.0691 -0.2426  0.0760
 6676W        W 8876  17.471   2.072  34.699  0.3616 -0.0493 -0.1262
 6677W        W 8877  10.069   1.532   0.630  0.1001  0.0009  0.0675
 6678W        W 8878  14.028   2.770  35.504  0.0945  0.4554 -0.0431
 6679W        W 8879   6.092   0.445  37.527 -0.0755  0.2035  0.0010
 6680W        W 8880   6.679   2.642   2.520  0.1335 -0.0428  0.1415
 6681W        W 8881  11.087   4.133  20.388 -0.2085  0.2934  0.0847
 6682W        W 8882   6.007   2.023  37.261  0.0932 -0.0175  0.4109
 6683W        W 8883   9.747   5.157  37.255  0.1075 -0.1069  0.2399
 6684W        W 8884  18.424   1.631  14.394 -0.0876 -0.0651  0.0288
 6685W        W 8885   9.132   6.455   3.720  0.2289  0.0894  0.1229
 6686W        W 8886   5.540   3.911  15.020  0.0857  0.0665 -0.0504
 6687W        W 8887   8.830   2.076  13.963  0.1323 -0.0057  0.0281
 6688W        W 8888   9.025   2.466  38.556 -0.3947 -0.0228 -0.3622
 6689W        W 8889  18.365   2.408   7.916 -0.1951  0.0630 -0.1176
 6690W        W 8890   9.479   3.631   3.261  0.0751 -0.0186 -0.1492
 6691W        W 8891  13.553   2.925   2.004 -0.0259 -0.1841  0.3484
 6692W        W 8892  11.293   3.082  32.365 -0.0695 -0.3451 -0.0923
 6693W        W 8893  13.997   0.128   7.364  0.2855 -0.1135  0.0232
 6694W        W 8894   0.360   5.175  43.115 -0.3927  0.1594  0.1577
 6695W        W 8895   5.585   5.397  15.902  0.0970  0.0042 -0.2278
 6696W        W 8896   6.183   0.603  31.127  0.0290 -0.0964  0.0926
 6697W        W 8897  14.875   3.938  19.620 -0.0179 -0.2501  0.1029
 6698W        W 8898  12.197   4.084  34.720 -0.1992 -0.0779 -0.1957
 6699W        W 8899  12.715   3.468  41.241 -0.0104  0.1938  0.1516
 6700W        W 8900  18.263   6.287  29.818  0.2201 -0.1082  0.2371
 6701W        W 8901  11.799   3.793  43.109 -0.0828 -0.0891  0.3529
 6702W        W 8902   2.812   1.700   5.007 -0.1682 -0.2435 -0.1132
 6703W        W 8903  17.090   0.687  13.053 -0.2862  0.0861  0.0437
 6704W        W 8904   0.849   4.059   5.032  0.0039  0.1460  0.3101
 6705W        W 8905   3.398   3.966  30.288  0.0961  0.0907  0.2407
 6706W        W 8906   2.395   6.227   5.554  0.2179  0.0306  0.2536
 6707W        W 8907  15.617   3.604  43.219  0.2537 -0.1000  0.0730
 6708W        W 8908  10.699   1.940  20.383 -0.2130 -0.2678  0.0389
 6709W        W 8909   3.765   5.206   2.241 -0.2217  0.3067  0.1411
 6710W        W 8910  11.791   6.018  28.438 -0.0056 -0.2227  0.2353
 6711W        W 8911   3.910   3.995  13.481 -0.1321  0.0830 -0.1061
 6712W        W 8912   6.176   2.058   4.901  0.1033 -0.2257 -0.3822
 6713W        W 8913  17.990   0.459   5.820  0.0254  0.0455 -0.0121
 6714W        W 8914   6.884   3.418  44.530 -0.0595  0.1641  0.1999
 6715W        W 8915  18.661   4.412  11.179  0.0632 -0.1861 -0.0677
 6716W        W 8916   8.903   0.487  39.858 -0.0802 -0.0189 -0.1316
 6717W        W 8917   3.032   4.948  44.505  0.0057 -0.3619  0.2837
 6718W        W 8918   3.436   0.728  11.882  0.0511  0.0226  0.2289
 6719W        W 8919   2.385   1.179  15.027 -0.0604 -0.0925  0.0266
 6720W        W 8920   3.899   2.372  13.660  0.3082 -0.1141  0.3768
 6721W        W 8921  11.335   6.439   3.458  0.2106  0.0765 -0.0208
 6722W        W 8922   4.063   4.312   0.263  0.1023 -0.3696 -0.1016
 6723W        W 8923   6.563   0.750  26.436  0.0052  0.3677  0.0237
 6724W        W 8924   0.527   3.520  27.464  0.1360  0.0232  0.0634
 6725W        W 8925  20.081   2.093  42.477 -0.1749  0.3291 -0.3384
 6726W        W 8926   7.239   4.506  43.795  0.0824 -0.0410  0.1050
 6727W        W 8927   6.257   5.131  40.141  0.1330 -0.1976  0.1939
 6728W        W 8928   2.485   5.519  31.602 -0.1251 -0.1131 -0.1179
 6729W        W 8929   0.759   1.887  41.774 -0.0239  0.1002 -0.0728
 6730W        W 8930   1.117   0.590  44.799  0.0031 -0.2063  0.2158
 6731W        W 8931  13.477   3.826  18.796 -0.1125  0.0424 -0.2329
 6732W        W 8932  20.210   1.976  31.190 -0.1500  0.0221 -0.0452
 6733W        W 8933   9.703   0.875  37.115 -0.0463 -0.0435  0.0562
 6734W        W 8934   2.621   5.520  34.040 -0.1322 -0.0820  0.1521
 6735W        W 8935  15.563   6.582  11.450 -0.0672  0.0011 -0.0130
 6736W        W 8936  16.669   1.459   6.776 -0.0844  0.1488 -0.0001
 6737W        W 8937   0.862   3.357  33.774  0.0836  0.2685  0.0954
 6738W        W 8938   4.672   4.754  26.189 -0.1838 -0.3278  0.2201
 6739W        W 8939  19.484   0.923  44.345 -0.1232 -0.0519  0.0895
 6740W        W 8940  15.555   5.162  21.274 -0.0006  0.1564  0.0768
 6741W        W 8941   7.238   4.550  41.298  0.2401 -0.1618 -0.1055
 6742W        W 8942   7.084   1.505  35.036 -0.0058 -0.2276 -0.0851
 6743W        W 8943  12.689   1.621  29.665  0.0486  0.0135 -0.0944
 6744W        W 8944   5.200   1.106  41.150  0.0624  0.1394 -0.2389
 6745W        W 8945  11.199   3.865  10.969  0.3913 -0.0265 -0.0260
 6746W        W 8946   2.371   3.351   4.876  0.0688  0.1569 -0.0840
 6747W        W 8947   0.980   5.465  10.728 -0.1323 -0.0287  0.0787
 6748W        W 8948  17.574   0.102  15.828 -0.0975  0.2131 -0.4190
 6749W        W 8949  17.132   0.519  44.932 -0.2686  0.2507 -0.1576
 6750W        W 8950  17.478   6.359  28.254 -0.1485  0.1068 -0.0071
 6751W        W 8951  14.817   5.425   0.517 -0.2937 -0.2289 -0.0111
 6752W        W 8952  13.595   3.833  39.016  0.0284  0.1721  0.0893
 6753W        W 8953   0.983   4.424  25.938 -0.0248  0.0589 -0.0255
 6754W        W 8954  10.658   4.688   6.041  0.1296  0.1373  0.0079
 6755W        W 8955   3.349   4.754  21.322 -0.0757 -0.4054 -0.0234
 6756W        W 8956  10.169   6.481  34.785 -0.0815  0.0786  0.0902
 6757W        W 8957   5.905   2.129   9.629 -0.2931  0.1049  0.0087
 6758W        W 8958   0.160   0.929  27.433  0.1143 -0.0026  0.0929
 6759W        W 8959  21.158   1.961   5.700  0.1445 -0.2169 -0.1768
 6760W        W 8960   7.288   2.702  14.479  0.0108 -0.0622  0.2328
 6761W        W 8961  13.687   5.138  16.644  0.0466 -0.2160  0.0465
 6762W        W 8962  14.881   3.256  31.500 -0.1616  0.0020  0.0494
 6763W        W 8963  12.496   4.121   3.794  0.3783  0.0739  0.3587
 6764W        W 8964  16.916   3.087  38.415 -0.1543 -0.0072 -0.2540
 6765W        W 8965   5.954   0.695  40.411 -0.0044 -0.2473  0.1173
 6766W        W 8966  16.894   1.387  33.939  0.1183 -0.6509 -0.1329
 6767W        W 8967  14.793   0.075  19.466  0.1777 -0.0224  0.1817
 6768W        W 8968   0.531   2.266  42.422 -0.1024  0.3476  0.4475
 6769W        W 8969   6.879   4.306  10.187  0.1539  0.1458 -0.1179
 6770W        W 8970   8.820   6.267  31.146 -0.0388 -0.1083 -0.0507
 6771W        W 8971   7.157   5.239  44.739 -0.2207  0.2133 -0.0681
 6772W        W 8972  10.865   0.615  12.130 -0.0188  0.0285 -0.0292
 6773W        W 8973   5.660   1.825  31.545 -0.0452  0.1963 -0.0620
 6774W        W 8974  10.114   0.557  11.428  0.0523  0.0097 -0.1942
 6775W        W 8975   7.650   1.259  11.124 -0.0372 -0.0458  0.1081
 6776W        W 8976  16.966   5.181  18.734  0.1232  0.1254 -0.0239
 6777W        W 8977   4.034   3.973   7.424 -0.5159  0.0410 -0.1022
 6778W        W 8978  16.879   4.903  32.203  0.0621 -0.0720 -0.2490
 6779W        W 8979  12.807   2.833  34.763  0.0876 -0.1390  0.0598
 6780W        W 8980  20.964   6.355  16.691  0.0929  0.1168 -0.1409
 6781W        W 8981  19.488   1.661  29.433 -0.2273  0.4081  0.0481
 6782W        W 8982   4.336   5.548  13.849  0.0559  0.1034 -0.0775
 6783W        W 8983   3.381   4.138  26.890 -0.0247  0.1597  0.1976
 6784W        W 8984   2.514   1.607   8.660  0.1343  0.3584  0.0565
 6785W        W 8985  13.187   6.292  35.571 -0.0307  0.0090 -0.2102
 6786W        W 8986  18.599   1.562   4.405  0.0947 -0.2307  0.0548
 6787W        W 8987   1.412   0.530  14.169 -0.0063 -0.4528  0.0262
 6788W        W 8988  20.907   4.041  36.542 -0.2331 -0.2624 -0.1051
 6789W        W 8989  13.933   2.740  32.721  0.0960  0.0800  0.1838
 6790W        W 8990  12.738   2.701  15.101  0.1005  0.1238  0.0892
 6791W        W 8991  15.177   4.239  41.249  0.1723 -0.0158 -0.0899
 6792W        W 8992   6.916   1.683  40.414 -0.0799 -0.2563  0.0762
 6793W        W 8993   7.856   1.241  43.279 -0.1601  0.1168  0.1310
 6794W        W 8994   6.249   4.959  27.217  0.4244  0.0112  0.5469
 6795W        W 8995  14.737   2.632   8.580 -0.1424 -0.2554  0.1871
 6796W        W 8996   7.759   1.447  13.956  0.1970  0.3881 -0.0007
 6797W        W 8997  10.230   5.536  11.004 -0.0321  0.2353  0.0936
 6798W        W 8998  11.070   3.721  38.620  0.1533  0.0866  0.0118
 6799W        W 8999  20.837   2.197   8.288  0.1419  0.2187  0.2972
 6800W        W 9000   8.895   1.438   3.943  0.0236 -0.2586 -0.0009
 6801W        W 9001   3.111   5.781  42.118 -0.1063  0.0131 -0.1220
 6802W        W 9002  19.870   3.722  37.535 -0.1916  0.1920  0.2900
 6803W        W 9003  13.470   5.197  38.170  0.2367  0.2783  0.1772
 6804W        W 9004   9.277   1.033  38.305  0.4443 -0.2333 -0.2494
 6805W        W 9005  17.374   2.927  31.831 -0.2314 -0.2685  0.4250
 6806W        W 9006  16.271   2.938  14.861 -0.1436  0.0571 -0.0766
 6807W        W 9007   5.449   1.052   6.103  0.1009  0.2202 -0.0532
 6808W        W 9008   4.306   3.092  43.094  0.0719  0.0356  0.0046
 6809W        W 9009   9.102   1.628  16.600  0.1891  0.1382  0.2884
 6810W        W 9010   8.642   0.705  27.801 -0.2003  0.0718  0.0654
 6811W        W 9011  18.256   0.535   3.308 -0.1702 -0.1518  0.0052
 6812W        W 9012   8.630   0.105  34.314  0.1536  0.1684 -0.1874
 6813W        W 9013   6.796   4.995  15.649 -0.0564  0.2407 -0.0186
 6814W        W 9014  17.142   0.617  28.642  0.1123 -0.0988  0.1598
 6815W        W 9015   5.327   2.643  39.388  0.1561  0.0557  0.3072
 6816W        W 9016  15.352   4.757  18.997  0.2350 -0.3318 -0.2026
 6817W        W 9017   8.434   4.939  35.953  0.1594  0.0146 -0.1441
 6818W        W 9018   6.296   2.889  39.149 -0.1006  0.2025  0.0854
 6819W        W 9019   1.447   5.999  35.143 -0.1358  0.0322  0.0828
 6820W        W 9020  11.451   5.436  43.953  0.2347  0.0140 -0.1227
 6821W        W 9021   8.364   2.724  32.356 -0.2598  0.0482  0.1919
 6822W        W 9022  11.663   5.281   3.186 -0.1996 -0.0975  0.0173
 6823W        W 9023   4.179   3.718  43.838 -0.0307  0.2278 -0.1470
 6824W        W 9024  16.792   4.684  11.848  0.1762  0.1358 -0.1667
 6825W        W 9025   8.832   0.614  37.465 -0.0766 -0.0777 -0.1885
 6826W        W 9026  19.373   3.742  11.267 -0.2950 -0.3790 -0.3229
 6827W        W 9027  16.639   3.477  44.777 -0.0197 -0.2299  0.0766
 6828W        W 9028  18.621   6.337  43.385 -0.0944  0.1988 -0.0042
 6829W        W 9029  13.886   1.251  12.473 -0.0867 -0.0301  0.0607
 6830W        W 9030  13.137   0.551  19.390  0.1719 -0.2270 -0.1293
 6831W        W 9031  17.927   1.853  31.829 -0.0338 -0.1234 -0.2979
 6832W        W 9032  18.056   3.037   6.252 -0.0138 -0.2035 -0.2774
 6833W        W 9033   9.197   4.234   6.809  0.0695 -0.0585  0.3457
 6834W        W 9034   2.718   2.503  29.983  0.0477  0.1422  0.1630
 6835W        W 9035  20.856   2.598  42.129 -0.1172 -0.1367  0.0190
 6836W        W 9036   6.529   6.125   6.437 -0.0303 -0.0239 -0.1370
 6837W        W 9037   7.704   2.170  30.901 -0.1308  0.1488 -0.0751
 6838W        W 9038   6.524   3.382  39.303 -0.0797 -0.0697  0.0935
 6839W        W 9039   0.167   6.090  32.458 -0.0743  0.0851 -0.1320
 6840W        W 9040   3.343   1.463  43.881  0.0611 -0.0793  0.0437
 6841W        W 9041  20.290   0.656  13.799 -0.1387 -0.2714  0.1418
 6842W        W 9042   9.312   4.025   7.375 -0.0328 -0.0178 -0.0647
 6843W        W 9043  19.619   1.511  10.730 -0.0588  0.0078 -0.3016
 6844W        W 9044  11.530   4.493   5.186  0.0747  0.2807 -0.0136
 6845W        W 9045  14.571   0.284  30.059 -0.2556  0.0057 -0.0541
 6846W        W 9046  19.176   0.732  26.810  0.0477  0.2283 -0.0712
 6847W        W 9047  17.380   1.349  37.642 -0.3619 -0.4293 -0.1364
 6848W        W 9048  15.308   5.089  11.308  0.0392  0.3498  0.0796
 6849W        W 9049   9.647   4.759  31.565  0.2569 -0.1249 -0.0113
 6850W        W 9050   7.600   4.663  43.523  0.2141  0.3627  0.1881
 6851W        W 9051   7.008   4.636   6.496  0.2147 -0.3033  0.0224
 6852W        W 9052  13.027   4.253  40.374  0.2889 -0.1356 -0.2490
 6853W        W 9053   5.957   3.317  30.808 -0.4633 -0.1849  0.1436
 6854W        W 9054  15.200   0.991  14.756  0.2284  0.0406 -0.0843
 6855W        W 9055  11.185   1.418  44.034 -0.1832  0.0112  0.0109
 6856W        W 9056  10.813   1.534  20.123  0.1024  0.2465  0.0828
 6857W        W 9057   5.139   3.464  10.781  0.0383  0.2497 -0.1464
 6858W        W 9058  17.756   4.612   3.525  0.0377 -0.1174 -0.0273
 6859W        W 9059  11.771   5.828  31.518  0.1324 -0.0481  0.3596
 6860W        W 9060  12.845   1.314  38.506 -0.1911  0.3856 -0.1031
 6861W        W 9061   3.994   0.060  39.284 -0.0826  0.1728 -0.1783
 6862W        W 9062   6.244   0.137   5.193  0.4211 -0.3002  0.0414
 6863W        W 9063  10.138   0.555   8.112 -0.1524 -0.0701  0.3104
 6864W        W 9064   9.800   6.534  38.511 -0.0485 -0.0063  0.1939
 6865W        W 9065  16.727   2.445  17.634  0.0495 -0.2976  0.2110
 6866W        W 9066  20.012   0.063  14.863  0.1186 -0.2027 -0.0844
 6867W        W 9067  15.516   2.755  12.336  0.3338 -0.2467 -0.2169
 6868W        W 9068   1.452   4.491   8.279 -0.0136  0.1774  0.2044
 6869W        W 9069  17.742   3.747  39.714  0.2378 -0.1628  0.0785
 6870W        W 9070   4.671   6.186  43.728 -0.0108 -0.1510  0.1834
 6871W        W 9071  18.846   2.647   9.119  0.4535 -0.2541  0.0712
 6872W        W 9072   9.847   6.166   2.773 -0.1777 -0.1518 -0.2071
 6873W        W 9073   0.827   5.915  37.978  0.1569  0.1081  0.3698
 6874W        W 9074  11.231   3.119   8.810  0.0267 -0.1308 -0.3848
 6875W        W 9075  12.072   2.270   5.896 -0.1117 -0.0866 -0.0150
 6876W        W 9076  14.373   5.020   9.776 -0.2607  0.2561 -0.0331
 6877W        W 9077   8.585   1.723  41.079 -0.2715 -0.0467 -0.0050
 6878W        W 9078  20.318   6.570  32.194  0.1508  0.0657 -0.1793
 6879W        W 9079  17.784   1.222  43.483  0.1826  0.2601  0.0883
 6880W        W 9080  18.623   6.121  34.202 -0.0994  0.2753 -0.2122
 6881W        W 9081   2.530   1.824  33.072 -0.1243 -0.0402  0.0041
 6882W        W 9082   8.724   0.873  43.458 -0.0127 -0.2415 -0.1542
 6883W        W 9083  20.425   5.745  43.308  0.1582  0.0074 -0.0977
 6884W        W 9084  19.343   4.734   7.932  0.0866  0.0581 -0.1027
 6885W        W 9085  12.260   0.129   4.562 -0.1681 -0.0945  0.0948
 6886W        W 9086   5.803   0.343  10.563  0.0261 -0.2379  0.3315
 6887W        W 9087  12.545   2.440  11.946  0.0175 -0.0316 -0.2271
 6888W        W 9088   1.272   1.975  28.402  0.1042 -0.0658  0.3395
 6889W        W 9089   0.466   5.747  31.208  0.0508 -0.3567  0.0628
 6890W        W 9090   6.330   4.500   3.612 -0.0148 -0.2129  0.0558
 6891W        W 9091   9.613   4.057   4.459 -0.1792 -0.2020 -0.2596
 6892W        W 9092  12.839   5.912  22.668 -0.1593  0.3027 -0.0903
 6893W        W 9093  20.042   1.214  15.309  0.0403 -0.0174 -0.0564
 6894W        W 9094  13.617   0.528  35.151  0.1487  0.0316 -0.3158
 6895W        W 9095  17.250   4.511  43.421 -0.0586 -0.0103 -0.0140
 6896W        W 9096   8.018   1.492  31.461  0.0585  0.2381 -0.2129
 6897W        W 9097  12.958   0.225   7.359 -0.0252 -0.1023  0.4289
 6898W        W 9098   6.485   5.286   5.007 -0.2185  0.0989  0.0924
 6899W        W 9099   7.081   3.717  32.354 -0.3569 -0.1952 -0.0386
 6900W        W 9100  17.886   5.114  42.714  0.0982 -0.0720 -0.1841
 6901W        W 9101   6.470   3.001  42.082  0.2489 -0.0521  0.0471
 6902W        W 9102   5.240   0.952   0.283 -0.2541  0.0744  0.0740
 6903W        W 9103   5.995   3.283   5.320  0.2519 -0.1217 -0.3226
 6904W        W 9104  12.845   0.420  37.687 -0.0652 -0.1747 -0.1768
 6905W        W 9105  14.861   0.608  39.045 -0.2691  0.2414  0.0670
 6906W        W 9106  15.317   1.731   4.286  0.1277 -0.1331  0.1259
 6907W        W 9107  10.282   0.969  14.416  0.0270 -0.0211 -0.0544
 6908W        W 9108   6.614   3.678  23.578 -0.0583 -0.2163 -0.2381
 6909W        W 9109   7.373   4.424  33.911  0.3033  0.0301  0.0307
 6910W        W 9110  18.787   4.014  14.005 -0.0187 -0.0082 -0.0834
 6911W        W 9111  15.222   1.284  21.596  0.0772 -0.0857  0.3676
 6912W        W 9112  11.114   0.011   4.396  0.3334 -0.2299 -0.1200
 6913W        W 9113   4.515   1.613  22.159 -0.1080 -0.4104  0.0237
 6914W        W 9114   0.392   2.135  44.569  0.0497  0.2352 -0.2556
 6915W        W 9115  19.106   6.473  34.318  0.2464 -0.1689 -0.0627
 6916W        W 9116  12.159   4.726  36.045 -0.2433 -0.1671 -0.0258
 6917W        W 9117   8.955   2.275   6.000  0.0192 -0.0337  0.0908
 6918W        W 9118  10.243   5.613   0.725 -0.1876 -0.2005 -0.2298
 6919W        W 9119  18.953   0.133  36.857  0.1042  0.1480 -0.2681
 6920W        W 9120  18.400   1.748  13.487  0.3823 -0.2594 -0.0625
 6921W        W 9121   6.825   5.846  16.188 -0.0810  0.0394  0.4499
 6922W        W 9122   2.117   4.986   5.298 -0.4667  0.0987  0.1424
 6923W        W 9123  13.314   6.383  35.073  0.0225 -0.0484  0.0806
 6924W        W 9124   7.398   4.955  43.907  0.0081 -0.1738  0.1783
 6925W        W 9125   1.848   4.059   4.459 -0.1396 -0.2613 -0.0711
 6926W        W 9126  19.601   3.649   5.180  0.0760 -0.3109 -0.3040
 6927W        W 9127  19.484   2.672  27.825  0.1499 -0.4168  0.1272
 6928W        W 9128   5.533   5.662  44.610  0.4029 -0.1624 -0.2739
 6929W        W 9129  14.208   2.752  28.643 -0.1163 -0.0052 -0.0218
 6930W        W 9130   8.382   5.410  15.369  0.0119  0.2050 -0.5332
 6931W        W 9131  16.007   3.148  12.143  0.0742 -0.3460 -0.0599
 6932W        W 9132  18.509   0.806  17.399 -0.2320  0.0662  0.2210
 6933W        W 9133   0.477   2.254  41.893 -0.4015 -0.2700 -0.1258
 6934W        W 9134  13.164   5.789  10.035  0.0156 -0.3222 -0.0128
 6935W        W 9135   4.450   2.118  39.666  0.1192 -0.2824 -0.0055
 6936W        W 9136  16.831   0.765   6.250  0.0307  0.1156  0.0058
 6937W        W 9137   3.259   1.567  20.644  0.0435  0.1302 -0.1254
 6938W        W 9138   1.485   1.247  26.329  0.1649 -0.1225  0.2254
 6939W        W 9139  11.842   1.129   1.633  0.1118 -0.2880 -0.1252
 6940W        W 9140   3.834   0.613  44.128 -0.1231 -0.0828 -0.0329
 6941W        W 9141   4.274   2.858  31.675  0.0434  0.1143  0.1195
 6942W        W 9142  13.106   4.448   7.123 -0.1297 -0.3268 -0.0563
 6943W        W 9143  10.267   2.887  40.359  0.1538  0.1907  0.1358
 6944W        W 9144   0.663   1.214   6.706 -0.0167  0.0775 -0.0132
 6945W        W 9145   2.262   0.175   4.470 -0.1576  0.3574 -0.1231
 6946W        W 9146  12.077   0.863  36.978 -0.1876 -0.0824 -0.1452
 6947W        W 9147   1.266   3.274  30.241  0.0053 -0.5110  0.2461
 6948W        W 9148   0.453   3.408  43.069 -0.0720  0.2905  0.1465
 6949W        W 9149   5.380   2.953  23.967  0.1599 -0.2417  0.0803
 6950W        W 9150  20.259   5.495  42.889  0.0320  0.4475  0.2642
 6951W        W 9151   2.551   5.429  40.553  0.2344 -0.0865 -0.1466
 6952W        W 9152   5.455   3.268   6.680  0.1538  0.1075  0.1190
 6953W        W 9153  16.652   6.266  38.980  0.3356 -0.0065  0.0708
 6954W        W 9154   0.025   4.415  15.735  0.2015  0.1184  0.0107
 6955W        W 9155   7.714   2.818  36.327 -0.0237  0.2224  0.1075
 6956W        W 9156   3.598   4.244   5.250 -0.1334 -0.2198  0.1077
 6957W        W 9157  18.919   3.886  27.542  0.4625 -0.0760  0.0105
 6958W        W 9158   2.459   4.237  36.494 -0.1839 -0.0528 -0.0529
 6959W        W 9159  12.465   1.163  14.150 -0.1848  0.1164 -0.1721
 6960W        W 9160  12.540   6.234  38.926  0.1193  0.0438 -0.2965
 6961W        W 9161   4.174   2.932  38.117  0.0470 -0.0724  0.0952
 6962W        W 9162   9.084   3.589  43.727 -0.1914 -0.0774 -0.1789
 6963W        W 9163  17.140   0.771  34.532 -0.3040 -0.4485  0.1814
 6964W        W 9164   3.880   2.461  27.702 -0.0635  0.1156 -0.0204
 6965W        W 9165   4.097   1.140  35.463 -0.0237 -0.0582 -0.0812
 6966W        W 9166  18.373   5.279  38.934 -0.0593  0.0430  0.1748
 6967W        W 9167  12.791   6.234  29.473 -0.0383 -0.1331  0.0800
 6968W        W 9168  12.567   5.681  30.404 -0.0572 -0.2695  0.2083
 6969W        W 9169  10.219   5.911   0.270  0.2844  0.0249 -0.2725
 6970W        W 9170   3.695   4.141  31.795  0.0498 -0.1645 -0.2970
 6971W        W 9171  12.992   6.058  41.505  0.1879 -0.1501  0.2879
 6972W        W 9172  15.398   0.128  33.723 -0.3610  0.0462 -0.0529
 6973W        W 9173  19.249   1.632  15.500 -0.1396  0.2807 -0.1305
 6974W        W 9174  18.011   1.668   0.165  0.1069 -0.2366 -0.0195
 6975W        W 9175  14.723   5.383   6.260  0.2475 -0.1602  0.0434
 6976W        W 9176   7.317   2.933  44.174 -0.0387  0.0016 -0.0062
 6977W        W 9177  19.246   1.339   9.438  0.0755  0.1117  0.0331
 6978W        W 9178  15.732   6.077  18.530  0.0695 -0.2324  0.2165
 6979W        W 9179   3.508   5.403  40.432 -0.0607 -0.1416  0.0526
 6980W        W 9180  16.090   4.180  42.651 -0.0503 -0.2113  0.1197
 6981W        W 9181   4.380   3.526  40.018  0.1742 -0.0734  0.0078
 6982W        W 9182  20.879   1.197   9.436  0.2029 -0.1504 -0.2773
 6983W        W 9183  13.756   2.877  43.083 -0.1862 -0.0440 -0.0506
 6984W        W 9184   0.254   4.628  28.735  0.0482  0.0482  0.1860
 6985W        W 9185  19.353   5.101   1.801 -0.0819 -0.1592  0.1488
 6986W        W 9186   7.081   4.781  33.178  0.1998  0.1707 -0.0820
 6987W        W 9187   6.656   2.424   6.539  0.0959 -0.4427 -0.0496
 6988W        W 9188  20.113   0.203  34.409  0.2926 -0.1977  0.1879
 6989W        W 9189  16.096   4.493  29.448  0.0298 -0.3199  0.2889
 6990W        W 9190   2.299   1.192  23.197 -0.1599  0.0607  0.3573
 6991W        W 9191  19.016   5.602   9.125  0.2233 -0.1545 -0.1702
 6992W        W 9192  14.721   2.054  43.210  0.1970 -0.0838 -0.2767
 6993W        W 9193   4.242   5.975  44.476  0.1716 -0.0291  0.2207
 6994W        W 9194   9.516   0.170   3.538  0.2791  0.2039 -0.0684
 6995W        W 9195  10.569   3.521  10.100 -0.3392  0.0429  0.0691
 6996W        W 9196  12.447   5.708  37.562 -0.1826 -0.0396 -0.0633
 6997W        W 9197   7.868   2.427   9.799 -0.0281 -0.2132 -0.2411
 6998W        W 9198  10.603   4.296   9.672 -0.1923 -0.1864 -0.1023
 6999W        W 9199  19.131   0.758  12.858  0.0360  0.2509 -0.0722
 7000W        W 9200   1.842   3.914   2.837 -0.0645 -0.3005  0.2861
 7001W        W 9201   9.074   4.986  40.075 -0.2309  0.1370  0.1722
 7002W        W 9202  10.975   2.723  16.862  0.0590 -0.1209  0.1734
 7003W        W 9203  11.166   5.845  38.491 -0.2034 -0.0104  0.0402
 7004W        W 9204  13.611   0.375  21.038 -0.1796 -0.2326  0.0273
 7005W        W 9205   0.052   4.169   8.253  0.0177 -0.1102 -0.0036
 7006W        W 9206  12.115   5.210  28.656  0.0172  0.0866  0.2871
 7007W        W 9207  18.619   1.263   9.357 -0.0300  0.2690  0.0149
 7008W        W 9208  11.831   0.985  14.812 -0.1106  0.1929 -0.1515
 7009W        W 9209  14.660   1.843  39.446 -0.3390 -0.0498  0.1188
 7010W        W 9210  20.211   0.923   0.334  0.0867  0.4804  0.0095
 7011W        W 9211   3.381   6.102  29.305 -0.2788  0.0970  0.1239
 7012W        W 9212  16.040   3.632  44.089 -0.0542 -0.1539 -0.2618
 7013W        W 9213   0.353   5.928  12.665 -0.0635  0.1862  0.1360
 7014W        W 9214   9.624   5.712  18.776 -0.0627  0.1472 -0.2914
 7015W        W 9215  10.838   1.203  31.682 -0.1389 -0.0459  0.1790
 7016W        W 9216   6.064   4.779  33.725  0.0651 -0.0027  0.1811
 7017W        W 9217  18.861   4.353   5.587 -0.1970 -0.0134  0.2290
 7018W        W 9218  19.997   5.268  17.445 -0.1478 -0.4020  0.1261
 7019W        W 9219   0.349   6.303  12.992  0.0919 -0.1614 -0.2479
 7020W        W 9220  13.584   5.344  37.621 -0.0287  0.1103  0.0638
 7021W        W 9221   1.492   6.498   2.692  0.1076  0.1622  0.0672
 7022W        W 9222  21.030   3.062   4.851 -0.1596  0.0511  0.2169
 7023W        W 9223  16.600   0.532  30.368 -0.1811 -0.1637 -0.1191
 7024W        W 9224   4.070   5.587  24.154 -0.2003 -0.0743 -0.1342
 7025W        W 9225   3.518   0.476   4.303  0.0900 -0.0770  0.0649
 7026W        W 9226  18.077   3.643  10.870  0.4558  0.3203 -0.0398
 7027W        W 9227  12.627   5.452   6.932  0.1780  0.1326  0.0707
 7028W        W 9228  15.336   2.731  40.137 -0.1038  0.0159 -0.0588
 7029W        W 9229  19.854   6.544  18.088  0.2410  0.1464  0.1426
 7030W        W 9230  15.771   0.029  12.653 -0.0070  0.0989  0.0390
 7031W        W 9231  17.633   4.259  44.336  0.3056 -0.1972 -0.0152
 7032W        W 9232  16.761   6.169   4.121 -0.1432  0.0558 -0.4500
 7033W        W 9233   1.293   1.002  37.159 -0.0616 -0.0784  0.1112
 7034W        W 9234  13.575   4.093  19.290  0.0531  0.2176 -0.0727
 7035W        W 9235  12.541   4.629  22.010  0.2344 -0.6012  0.0155
 7036W        W 9236  17.312   0.257   8.165 -0.1580  0.2000 -0.0824
 7037W        W 9237   2.681   6.454  42.479 -0.0929 -0.0207  0.0312
 7038W        W 9238   3.445   2.614  29.427  0.1176  0.0974  0.1379
 7039W        W 9239   7.259   0.879  24.555  0.2165 -0.1321 -0.0470
 7040W        W 9240  16.262   5.984  42.975 -0.1429 -0.2603  0.1585
 7041W        W 9241  11.211   1.160  40.216  0.0814 -0.1794  0.0174
 7042W        W 9242   6.709   5.872  41.023  0.0096 -0.0121 -0.3781
 7043W        W 9243  17.633   4.897  20.600  0.2797 -0.0456  0.3795
 7044W        W 9244  14.877   0.990  40.547 -0.0421  0.2154 -0.0351
 7045W        W 9245   3.554   2.380   8.402 -0.1161  0.0698  0.0120
 7046W        W 9246  12.061   4.275  10.582 -0.2112  0.0827  0.3260
 7047W        W 9247   9.639   4.069  42.493  0.2894 -0.2355 -0.2243
 7048W        W 9248   7.115   2.570   6.542  0.0490  0.3351 -0.1101
 7049W        W 9249  19.807   2.582  35.976 -0.2047 -0.2368 -0.0130
 7050W        W 9250  14.579   4.842  24.738 -0.2067 -0.3124  0.0502
 7051W        W 9251  21.104   4.703  25.546  0.0131 -0.4674  0.0403
 7052W        W 9252  16.260   0.258  31.129  0.1590 -0.1171  0.0162
 7053W        W 9253  15.538   6.051  23.367 -0.0098  0.1262  0.1493
 7054W        W 9254  19.007   2.359   4.201  0.0799 -0.0000  0.0655
 7055W        W 9255  16.434   6.320  40.798  0.0260 -0.1005  0.1150
 7056W        W 9256   7.348   2.933  12.360  0.0008  0.1203 -0.0179
 7057W        W 9257   5.170   0.015  12.291  0.1170 -0.1487 -0.0518
 7058W        W 9258  19.502   0.307  28.923 -0.0413 -0.2367 -0.2832
 7059W        W 9259  15.899   5.631  44.790 -0.0922  0.3106  0.0186
 7060W        W 9260   5.569   4.869   8.895  0.1687  0.2344 -0.1490
 7061W        W 9261   7.817   4.458  36.852  0.0220 -0.2597 -0.0993
 7062W        W 9262  14.947   1.860  24.414 -0.2766  0.2989 -0.0702
 7063W        W 9263   1.723   0.398  10.956  0.1319 -0.0513  0.0749
 7064W        W 9264  17.713   3.382  33.494  0.3237  0.0151 -0.1012
 7065W        W 9265  15.447   2.798   7.172 -0.0417 -0.2545  0.2548
 7066W        W 9266  11.447   1.058  34.198  0.0291  0.1158  0.1031
 7067W        W 9267   7.362   5.156   6.926  0.0866 -0.2533  0.2314
 7068W        W 9268  10.477   1.383   9.277 -0.1989  0.1467  0.0216
 7069W        W 9269  13.967   3.628   4.821  0.0822  0.1779  0.0983
 7070W        W 9270   8.546   4.754  11.004 -0.0254 -0.2592 -0.1997
 7071W        W 9271  10.896   3.040  13.443  0.0101  0.3200 -0.1090
 7072W        W 9272  15.166   3.223  17.392 -0.2065 -0.0361  0.0276
 7073W        W 9273   7.063   3.097  16.774 -0.0069  0.0513  0.1461
 7074W        W 9274  14.933   5.477   5.317  0.1361  0.1029 -0.0419
 7075W        W 9275  16.871   3.802  44.516 -0.0498  0.0173 -0.2272
 7076W        W 9276  15.185   1.133  35.599 -0.0295  0.2600  0.0706
 7077W        W 9277   1.786   3.101  38.423  0.2419 -0.1768  0.1859
 7078W        W 9278   7.635   3.429   8.873 -0.0069  0.1833  0.0330
 7079W        W 9279  17.858   5.868  29.779 -0.1374 -0.2702  0.0112
 7080W        W 9280  12.865   1.248  30.953 -0.1448 -0.1647  0.0627
 7081W        W 9281   7.882   4.709  35.036  0.0568 -0.0359  0.1481
 7082W        W 9282   7.344   2.270   5.116 -0.0723 -0.2273 -0.0924
 7083W        W 9283  19.097   2.009  31.393  0.1252 -0.2094 -0.1725
 7084W        W 9284   7.986   5.248  11.708 -0.4933 -0.2395  0.1610
 7085W        W 9285   8.460   5.271  35.572 -0.0385 -0.0752 -0.2414
 7086W        W 9286  20.965   2.327  24.699 -0.2424  0.1710 -0.0990
 7087W        W 9287   2.327   2.096  28.695  0.2130  0.3915 -0.1067
 7088W        W 9288  17.318   4.564  45.117 -0.0495 -0.0104 -0.4140
 7089W        W 9289   6.409   0.333  25.619 -0.2039  0.1595  0.1331
 7090W        W 9290  17.070   0.260  32.941 -0.0523 -0.2942  0.2269
 7091W        W 9291   3.439   1.091  36.787  0.0604 -0.5573  0.0932
 7092W        W 9292  10.427   3.353  38.346 -0.1317 -0.0982 -0.1979
 7093W        W 9293   3.753   0.554  24.481 -0.2059 -0.0206 -0.1587
 7094W        W 9294  11.442   6.463  30.592  0.1272 -0.1491 -0.0666
 7095W        W 9295  10.324   4.896  44.441  0.0766 -0.1902 -0.0414
 7096W        W 9296  14.495   2.526  15.504 -0.0714 -0.0414  0.2148
 7097W        W 9297   4.233   0.054  39.800 -0.0129 -0.1854 -0.3759
 7098W        W 9298   1.952   6.310  31.238 -0.2060  0.2254  0.0919
 7099W        W 9299  18.730   6.154  10.260 -0.2861 -0.1377 -0.5392
 7100W        W 9300  14.417   3.362  43.733 -0.2800  0.0625 -0.0690
 7101W        W 9301  20.668   4.460  15.778 -0.0041 -0.2516 -0.0277
 7102W        W 9302  20.822   6.056  38.401 -0.0829 -0.1112  0.1457
 7103W        W 9303   0.562   0.237  11.934 -0.2038 -0.1022 -0.1731
 7104W        W 9304  12.750   0.009  18.197 -0.1239 -0.1258 -0.3589
 7105W        W 9305   5.566   4.699  44.800 -0.0637  0.0257  0.0215
 7106W        W 9306  11.625   1.090  36.343 -0.0874  0.3855  0.2901
 7107W        W 9307  14.139   3.767  28.621 -0.3129 -0.2101  0.0144
 7108W        W 9308  12.174   4.938   4.360 -0.1546 -0.0453 -0.2711
 7109W        W 9309  10.713   0.496  34.109  0.0407  0.0459 -0.0766
 7110W        W 9310   6.857   4.521   3.510  0.2531  0.1441  0.0049
 7111W        W 9311   2.572   3.832   9.764 -0.0511  0.0168  0.1230
 7112W        W 9312  12.698   5.261  35.322  0.1902  0.0892 -0.0169
 7113W        W 9313  15.931   5.493  18.954  0.2225  0.1247  0.2261
 7114W        W 9314   5.990   3.100  10.718 -0.1266  0.1111 -0.0203
 7115W        W 9315   5.760   0.095  37.480  0.1067 -0.0434  0.0360
 7116W        W 9316  15.710   0.017  32.154 -0.2624  0.1418  0.2363
 7117W        W 9317   9.197   4.995  11.526  0.2731 -0.0848 -0.2043
 7118W        W 9318   7.785   6.476  25.332 -0.0147  0.1621  0.0136
 7119W        W 9319  10.104   6.529  12.039  0.2613 -0.0604 -0.1110
 7120W        W 9320   3.082   3.014  44.670 -0.3079  0.1448 -0.3166
 7121W        W 9321  14.249   5.428  25.183 -0.0195  0.0190 -0.2760
 7122W        W 9322  20.139   4.973  29.050 -0.2221 -0.0995  0.0235
 7123W        W 9323  14.939   1.513  43.321  0.0315  0.0455 -0.1809
 7124W        W 9324  17.514   4.839  34.145  0.0217  0.1629 -0.0379
 7125W        W 9325   6.164   0.684  27.760  0.2699  0.0811 -0.2235
 7126W        W 9326  11.365   2.417  35.535  0.0483  0.0782  0.1788
 7127W        W 9327  20.870   6.162  30.569  0.1641 -0.0699 -0.0125
 7128W        W 9328   0.101   4.096   5.626 -0.1802  0.1265 -0.2157
 7129W        W 9329   0.119   4.500   4.607 -0.0322  0.1853  0.2318
 7130W        W 9330  14.271   2.712  11.657 -0.1923 -0.2097  0.1149
 7131W        W 9331  12.649   4.084  29.319  0.0227  0.3823  0.0392
 7132W        W 9332   5.138   6.415   3.904  0.0193  0.2593 -0.2960
 7133W        W 9333   4.757   4.086  31.750 -0.3400  0.1322  0.1265
 7134W        W 9334  12.416   3.852  44.824  0.1900  0.4343 -0.1308
 7135W        W 9335   8.788   5.511  13.583 -0.0746  0.1784 -0.3138
 7136W        W 9336   0.185   2.900  16.594 -0.2027 -0.0401  0.0926
 7137W        W 9337   3.651   4.745   2.909 -0.1373 -0.0064 -0.1586
 7138W        W 9338  19.170   1.776   9.822  0.1090 -0.1107  0.3307
 7139W        W 9339  18.598   0.769  40.145  0.1416 -0.1688  0.2779
 7140W        W 9340   9.077   6.498  17.251 -0.2350 -0.2602 -0.0829
 7141W        W 9341   7.896   3.442  28.854 -0.1334 -0.0678  0.2014
 7142W        W 9342  10.426   5.206  27.520 -0.0551  0.0067 -0.1159
 7143W        W 9343  13.781   2.923   1.553 -0.0338  0.0485 -0.1201
 7144W        W 9344  10.725   1.116  30.671 -0.1201 -0.3633  0.1494
 7145W        W 9345  15.070   5.802  30.947  0.0940  0.1289  0.3767
 7146W        W 9346  16.596   5.542  10.728 -0.0743 -0.1293 -0.0115
 7147W        W 9347   7.776   3.779  26.119  0.1802  0.1189  0.0683
 7148W        W 9348   9.249   2.738   2.853  0.0410 -0.1555 -0.2408
 7149W        W 9349  12.482   4.524   7.915 -0.1805 -0.0918 -0.0221
 7150W        W 9350  12.731   2.358  44.083 -0.0092  0.0782 -0.0640
 7151W        W 9351  12.104   3.144  11.043 -0.0893  0.0213  0.0915
 7152W        W 9352   1.726   3.764   5.313  0.1170  0.0085 -0.0555
 7153W        W 9353   1.775   6.415  27.978  0.0805  0.1461 -0.1582
 7154W        W 9354  10.129   0.680  38.007  0.0582  0.0340  0.0105
 7155W        W 9355  11.803   5.615  13.631 -0.0956  0.2558  0.0128
 7156W        W 9356   1.956   5.331  11.801 -0.0790  0.1705  0.1303
 7157W        W 9357   3.115   4.886  38.776  0.4128 -0.1849 -0.3976
 7158W        W 9358  20.284   3.236   6.872  0.3970 -0.0321 -0.0427
 7159W        W 9359   2.190   3.857   8.233  0.1316  0.2697  0.0968
 7160W        W 9360   6.969   4.987  37.231  0.2137 -0.4275 -0.1972
 7161W        W 9361   5.264   2.788   9.657  0.2491 -0.3993  0.0194
 7162W        W 9362   6.031   5.092  16.051 -0.0014  0.0218  0.0699
 7163W        W 9363  18.068   5.726  35.762  0.2161 -0.0810 -0.0529
 7164W        W 9364   7.037   0.343  42.474 -0.2100 -0.0109 -0.1405
 7165W        W 9365   1.276   2.034  27.873  0.1736  0.1268  0.2444
 7166W        W 9366  15.586   1.491   6.351 -0.2888 -0.1194 -0.0415
 7167W        W 9367  16.711   4.045  39.915 -0.0036  0.2589 -0.1941
 7168W        W 9368  14.882   2.333  40.837  0.2780  0.1991 -0.3315
 7169W        W 9369  16.801   2.755  18.253 -0.1039 -0.0939  0.3001
 7170W        W 9370   1.429   3.384  25.138  0.1662 -0.1534  0.0374
 7171W        W 9371   1.980   1.601  41.866  0.0064  0.0838 -0.4932
 7172W        W 9372  16.664   4.110  44.047 -0.1651  0.0697  0.1570
 7173W        W 9373  10.161   4.540  37.882 -0.1591 -0.0821  0.1057
 7174W        W 9374  12.337   0.656  22.238  0.1256  0.0235  0.0685
 7175W        W 9375  15.059   2.972  35.145  0.0658  0.1899  0.0907
 7176W        W 9376   4.230   6.300  31.110 -0.1111  0.0993 -0.1166
 7177W        W 9377  13.347   5.787   0.400 -0.0302  0.3177  0.0075
 7178W        W 9378   4.717   5.677  27.508  0.1085 -0.0984  0.0254
 7179W        W 9379  15.193   5.850   1.319  0.0696 -0.4870 -0.0090
 7180W        W 9380  11.827   0.176  12.278  0.0876  0.2880  0.3195
 7181W        W 9381   1.291   0.521  35.722  0.0496 -0.3720 -0.1476
 7182W        W 9382   6.783   2.165  40.087  0.1655 -0.0849 -0.0727
 7183W        W 9383  17.505   4.007  29.234  0.1923 -0.2628  0.0541
 7184W        W 9384   8.615   5.848  31.386 -0.2266 -0.1361  0.1509
 7185W        W 9385   2.009   6.334  40.228 -0.0059  0.1204  0.1955
 7186W        W 9386   0.479   4.767  30.634  0.1963 -0.1282 -0.1783
 7187W        W 9387   2.069   2.997  26.977  0.1023  0.3232 -0.0718
 7188W        W 9388  13.055   0.164  15.906 -0.1462 -0.0224  0.0672
 7189W        W 9389  10.726   3.288  29.432 -0.1838  0.0977  0.0404
 7190W        W 9390  19.517   0.338  29.442 -0.1953 -0.0417  0.0046
 7191W        W 9391   2.804   3.271  11.988 -0.0589  0.2561  0.0449
 7192W        W 9392  10.079   2.119  30.811  0.0054  0.0648 -0.0507
 7193W        W 9393  17.763   1.623   3.854 -0.2743 -0.1063  0.0949
 7194W        W 9394   5.857   3.428  32.336 -0.1930  0.1219 -0.0456
 7195W        W 9395  19.951   0.455  11.711 -0.0345 -0.0298  0.0860
 7196W        W 9396  13.668   3.086  33.324 -0.1058 -0.0830  0.0240
 7197W        W 9397  16.084   2.402   9.877  0.0837  0.0141 -0.1393
 7198W        W 9398   2.440   3.433  11.450  0.0039 -0.2125  0.0048
 7199W        W 9399   4.984   3.922  27.592 -0.1554  0.0556  0.0558
 7200W        W 9400   3.920   2.071  12.627 -0.0670 -0.0269  0.0769
 7201W        W 9401  19.767   2.081  13.337  0.0475 -0.0435 -0.1401
 7202W        W 9402  12.889   0.009  40.440 -0.0593 -0.0554  0.1663
 7203W        W 9403   9.047   4.791  42.669  0.0271 -0.1570  0.0254
 7204W        W 9404  17.895   3.508  14.672 -0.1474  0.0704  0.2580
 7205W        W 9405   2.835   3.103  32.244 -0.0209 -0.1516  0.0922
 7206W        W 9406   4.958   2.069  45.017 -0.1297 -0.2764  0.3430
 7207W        W 9407   3.633   4.169  31.194 -0.0388 -0.2699  0.1270
 7208W        W 9408   6.570   2.475  25.015  0.1394  0.0458 -0.1241
 7209W        W 9409   1.881   3.272  27.945 -0.0462 -0.2656 -0.1765
 7210W        W 9410  20.850   4.001  10.288  0.0367  0.0861 -0.0807
 7211W        W 9411  13.881   2.256  17.821  0.1444 -0.0844  0.3183
 7212W        W 9412   3.983   5.491  40.070 -0.2240 -0.0676 -0.1169
 7213W        W 9413  14.284   5.809  15.299  0.0668  0.1779 -0.1975
 7214W        W 9414   4.484   4.545  31.705 -0.2052  0.1838  0.1251
 7215W        W 9415   4.554   0.903  12.883  0.1312 -0.0038  0.0370
 7216W        W 9416  17.864   5.056   5.938 -0.0453  0.0804 -0.1380
 7217W        W 9417   5.103   1.817   0.313 -0.2728 -0.0089 -0.0257
 7218W        W 9418  18.599   2.151  33.002 -0.1601  0.0279  0.1375
 7219W        W 9419  13.361   1.565  41.007  0.0157 -0.0748 -0.0886
 7220W        W 9420  20.965   6.068  43.366 -0.1302 -0.0184  0.3366
 7221W        W 9421  16.984   4.307   2.856 -0.2117  0.1517 -0.1938
 7222W        W 9422  20.456   2.269   5.007  0.2681 -0.1929  0.2753
 7223W        W 9423  11.177   1.212   5.700  0.0594  0.0439  0.0485
 7224W        W 9424   1.303   3.794  13.112 -0.1360 -0.1725  0.0076
 7225W        W 9425  10.850   1.964  36.550 -0.1064  0.0968  0.2768
 7226W        W 9426   4.988   0.128  33.111  0.1957 -0.2815 -0.2181
 7227W        W 9427  14.834   4.743  29.111 -0.0120 -0.1319  0.1761
 7228W        W 9428  15.322   1.382  40.691 -0.4731  0.0941  0.0080
 7229W        W 9429   8.998   0.369  17.455  0.0772 -0.0575 -0.2828
 7230W        W 9430   8.634   2.890  44.944  0.0096  0.0393  0.1066
 7231W        W 9431   5.461   0.365  26.518 -0.0693  0.2477 -0.0904
 7232W        W 9432   0.453   0.458  29.045  0.0708  0.1677  0.1423
 7233W        W 9433  11.589   1.016  39.705  0.2645  0.0079  0.1618
 7234W        W 9434  19.520   4.278   4.409  0.0894  0.1014 -0.1386
 7235W        W 9435   4.872   6.185   2.363  0.0612 -0.2511 -0.1143
 7236W        W 9436   6.449   4.584  40.334  0.0841 -0.1962 -0.1995
 7237W        W 9437  20.674   2.866  35.072 -0.0049  0.1429 -0.0478
 7238W        W 9438  11.648   0.489  10.749  0.1238  0.0054 -0.1235
 7239W        W 9439   0.397   6.563  31.668  0.0720  0.0765  0.0798
 7240W        W 9440   7.167   6.590  34.563 -0.2363  0.1241  0.1299
 7241W        W 9441  17.794   2.740  30.195 -0.0992  0.2373 -0.1858
 7242W        W 9442  19.026   1.519   8.950  0.0515  0.0172  0.0807
 7243W        W 9443  17.484   3.271  32.892  0.4550  0.3576  0.1533
 7244W        W 9444  11.756   5.260  20.290 -0.2075 -0.0897 -0.1958
 7245W        W 9445   8.232   4.684  38.838 -0.0989 -0.0003 -0.2985
 7246W        W 9446   7.949   5.381   5.798  0.1003  0.1776 -0.1510
 7247W        W 9447  14.782   0.175  18.747 -0.0448  0.0357 -0.0899
 7248W        W 9448   5.173   2.656  29.754 -0.5350  0.0310  0.2783
 7249W        W 9449  13.836   4.938  42.553 -0.0364  0.0826 -0.1948
 7250W        W 9450  16.412   0.318  17.502  0.1948  0.0765 -0.1696
 7251W        W 9451  17.848   0.481  36.125  0.0969  0.0231 -0.1326
 7252W        W 9452  12.219   4.825  34.063  0.0185  0.1867 -0.0021
 7253W        W 9453  17.173   5.670  12.478 -0.0062  0.1298 -0.0407
 7254W        W 9454   5.077   0.383  42.236  0.0529  0.0036 -0.0109
 7255W        W 9455  15.818   6.166  12.884 -0.1732 -0.1922  0.0436
 7256W        W 9456  15.626   1.896   0.952  0.1952  0.0762 -0.0065
 7257W        W 9457  19.400   3.778  16.729 -0.4151  0.2857 -0.0963
 7258W        W 9458   5.217   0.535  28.461 -0.0360  0.1824  0.2221
 7259W        W 9459  10.984   5.972   9.870  0.1659 -0.6099 -0.1688
 7260W        W 9460  11.388   1.799   4.275  0.0405 -0.1264  0.0520
 7261W        W 9461   9.920   6.403   1.035  0.2845 -0.3519 -0.2400
 7262W        W 9462  19.635   4.735  40.262  0.1544  0.1076  0.1019
 7263W        W 9463  13.635   0.346  33.454  0.0188 -0.2599 -0.0339
 7264W        W 9464  16.173   6.149  18.240 -0.0879  0.0634 -0.0701
 7265W        W 9465   5.580   3.207  33.948  0.1915 -0.0974  0.2971
 7266W        W 9466  14.388   6.158  18.408 -0.2118 -0.1213 -0.0300
 7267W        W 9467   9.887   2.912  28.706  0.0044 -0.2698 -0.0510
 7268W        W 9468   4.237   3.123  41.829 -0.2421 -0.2951  0.1725
 7269W        W 9469  17.148   0.844  19.484  0.0423  0.2139  0.1382
 7270W        W 9470  19.654   4.886  36.926 -0.1286  0.1952  0.3404
 7271W        W 9471   8.900   1.886  34.751  0.1680 -0.0321 -0.0691
 7272W        W 9472   2.130   4.013  32.241 -0.1969  0.1008 -0.0269
 7273W        W 9473  20.757   6.120  24.375 -0.0507  0.0298 -0.0466
 7274W        W 9474   0.315   1.726  14.018  0.1358  0.0515  0.0816
 7275W        W 9475  18.428   2.004   4.314  0.1702  0.1490  0.0137
 7276W        W 9476  15.262   3.816  41.681  0.0085  0.0676  0.0328
 7277W        W 9477   1.033   4.509  16.333 -0.1636  0.1198 -0.2050
 7278W        W 9478   3.485   2.345  26.147  0.2239  0.1257 -0.2309
 7279W        W 9479  20.987   6.337   3.986  0.1178  0.2933  0.0034
 7280W        W 9480  17.221   4.468  42.308 -0.2846  0.0150  0.2739
 7281W        W 9481  20.279   2.590  41.871  0.0735 -0.0124  0.1883
 7282W        W 9482   0.054   2.665  14.907 -0.1447  0.2123 -0.0883
 7283W        W 9483  18.688   4.110   0.464 -0.1397 -0.2456  0.0742
 7284W        W 9484  20.212   0.624  38.944  0.1158 -0.0768 -0.1863
 7285W        W 9485  19.033   2.881   8.356 -0.0825 -0.0538 -0.1907
 7286W        W 9486   4.809   5.479  11.104 -0.0422  0.1051 -0.0413
 7287W        W 9487  17.266   2.532  34.726 -0.1114  0.1437  0.0191
 7288W        W 9488  14.986   5.892  10.026 -0.0124 -0.2897 -0.0238
 7289W        W 9489   8.793   1.800  17.154 -0.2302  0.2026  0.0322
 7290W        W 9490  16.175   1.166  40.305  0.1896  0.0446 -0.0389
 7291W        W 9491   3.789   6.338  37.283 -0.0007  0.1766 -0.0102
 7292W        W 9492   4.945   0.889   7.818 -0.3434  0.0277 -0.1985
 7293W        W 9493  19.169   5.591  29.328  0.1698  0.2823 -0.1720
 7294W        W 9494   3.275   5.812  12.241 -0.1061 -0.0704  0.0580
 7295W        W 9495   3.514   4.063   7.537 -0.1653 -0.0200 -0.0818
 7296W        W 9496  11.908   2.168  16.994  0.1108 -0.2115 -0.0298
 7297W        W 9497   5.258   1.987  27.758 -0.0922  0.0926 -0.0436
 7298W        W 9498   6.608   4.428  32.356  0.0665 -0.1764  0.0882
 7299W        W 9499  17.635   5.135   9.766 -0.0630  0.0477 -0.0386
 7300W        W 9500   2.190   5.439  30.113 -0.0558 -0.0146  0.0321
 7301W        W 9501   5.628   5.517  15.332 -0.0654 -0.1303 -0.1680
 7302W        W 9502  15.879   3.547  20.884  0.2662 -0.1012 -0.2117
 7303W        W 9503  13.133   6.357  13.342  0.2751 -0.0275  0.0361
 7304W        W 9504  19.130   1.319   9.982  0.0809  0.2148 -0.1063
 7305W        W 9505  15.920   4.271  42.020 -0.2324  0.2803 -0.1476
 7306W        W 9506   9.552   0.653  17.553 -0.1258  0.0501  0.0600
 7307W        W 9507  17.140   3.613  18.659  0.0294 -0.0500 -0.0564
 7308W        W 9508   3.408   6.136  25.979  0.1793  0.0667  0.0890
 7309W        W 9509   4.323   0.395   9.143  0.0156 -0.0671  0.4668
 7310W        W 9510  16.754   4.654  15.626  0.2230  0.0876 -0.1398
 7311W        W 9511  14.957   2.952  23.867 -0.3838 -0.2575 -0.0458
 7312W        W 9512  13.570   2.083  21.383  0.0602 -0.0367 -0.4849
 7313W        W 9513  19.940   2.939  10.613  0.0705  0.0283  0.3472
 7314W        W 9514  17.185   5.494   6.631 -0.0052  0.0981 -0.2873
 7315W        W 9515   4.612   2.723  11.685  0.2519  0.0076 -0.1101
 7316W        W 9516  20.079   0.438   9.326  0.0099  0.0646  0.1765
 7317W        W 9517   8.917   5.547   6.045  0.1038  0.0117 -0.1429
 7318W        W 9518  17.845   3.772  45.153 -0.2220 -0.2989  0.0494
 7319W        W 9519  12.659   3.082  42.812 -0.0466 -0.1670 -0.0487
 7320W        W 9520   8.403   5.248  41.311  0.1418  0.0287 -0.1061
 7321W        W 9521   2.477   5.931  12.613  0.2713  0.0116  0.0129
 7322W        W 9522   0.334   4.334  41.434  0.3048  0.0979 -0.0057
 7323W        W 9523  19.818   4.263  38.563  0.0359 -0.0270 -0.0101
 7324W        W 9524   0.671   3.070  13.458 -0.2384 -0.4271 -0.0270
 7325W        W 9525   1.851   3.350   2.838 -0.1347 -0.0719  0.1246
 7326W        W 9526   7.098   4.391  13.724  0.2459 -0.5249 -0.0436
 7327W        W 9527  10.051   3.443  37.003  0.0731 -0.0076  0.2848
 7328W        W 9528  17.951   2.530  36.354 -0.0653 -0.5396  0.0573
 7329W        W 9529  19.122   3.185   6.120  0.1311  0.1033 -0.2667
 7330W        W 9530   9.507   1.829   4.368  0.0568 -0.2779 -0.1404
 7331W        W 9531   4.539   3.728  12.242  0.0881 -0.1213  0.2111
 7332W        W 9532  17.649   5.220  11.215 -0.2012 -0.0809  0.1857
 7333W        W 9533  20.431   2.953   0.900 -0.1285  0.1108 -0.0732
 7334W        W 9534  19.040   3.210  45.135 -0.1116  0.0921 -0.3378
 7335W        W 9535  11.499   3.951   5.084 -0.2647  0.3752  0.0910
 7336W        W 9536  15.649   0.399  20.322 -0.0800  0.3172 -0.1872
 7337W        W 9537  15.914   2.108   4.902  0.0781 -0.2531 -0.0977
 7338W        W 9538  16.777   1.625  15.143  0.0042 -0.3572  0.1680
 7339W        W 9539  12.762   0.839   6.343 -0.0754  0.1395 -0.1851
 7340W        W 9540   2.110   3.614  32.610 -0.1726 -0.2072 -0.0869
 7341W        W 9541  17.626   1.937   5.785 -0.3589  0.0309  0.0950
 7342W        W 9542  13.966   4.171   6.138 -0.1036 -0.0462  0.0688
 7343W        W 9543   6.012   4.263  44.973  0.0815 -0.1759  0.2041
 7344W        W 9544  18.710   2.851   2.311 -0.2314  0.0017 -0.2956
 7345W        W 9545  10.026   5.171  39.254 -0.0949 -0.1487 -0.0267
 7346W        W 9546   2.617   6.185  26.699 -0.0885  0.0885  0.1480
 7347W        W 9547  16.075   0.814  13.922 -0.2833  0.1199 -0.0413
 7348W        W 9548  14.639   4.419  38.379 -0.3113  0.2610 -0.1117
 7349W        W 9549   9.413   2.330   6.749  0.2059 -0.0055  0.3383
 7350W        W 9550  20.133   0.361  12.975 -0.1275 -0.0940  0.0167
 7351W        W 9551   7.707   5.987  43.554 -0.0544  0.1021 -0.1757
 7352W        W 9552   1.427   0.650  32.023 -0.1824 -0.1785  0.0158
 7353W        W 9553  19.870   4.785   1.201 -0.3103  0.0589  0.0503
 7354W        W 9554   7.401   3.432  36.546  0.2153  0.0535  0.0817
 7355W        W 9555  17.791   6.092  17.315 -0.1280  0.0152  0.0204
 7356W        W 9556   7.696   1.751  31.794  0.3364  0.3373 -0.1902
 7357W        W 9557  19.575   1.560   7.882  0.1709 -0.0380 -0.2223
 7358W        W 9558   3.955   2.533  41.016 -0.1265  0.0842 -0.0431
 7359W        W 9559  20.746   5.027  41.492  0.1675  0.1125  0.0863
 7360W        W 9560   8.339   0.165  11.731 -0.1946 -0.1409 -0.2077
 7361W        W 9561   8.524   3.535   4.541  0.3205  0.3244  0.1315
 7362W        W 9562  17.707   5.415  44.956  0.1160 -0.1397  0.0535
 7363W        W 9563   6.451   4.055  43.979  0.0021 -0.0790 -0.0139
 7364W        W 9564  11.961   2.715  13.331 -0.1856  0.0258  0.0362
 7365W        W 9565  19.150   5.572  42.268 -0.0285 -0.1208  0.2897
 7366W        W 9566  12.521   0.475  14.873  0.0655  0.0796 -0.0692
 7367W        W 9567  19.979   0.364  13.497 -0.0414 -0.0681  0.0476
 7368W        W 9568   3.375   2.943  35.381 -0.1213 -0.0173  0.2269
 7369W        W 9569   3.984   3.137  42.730  0.1678  0.2735  0.1255
 7370W        W 9570  15.440   2.776   1.534 -0.0037 -0.0083 -0.0640
 7371W        W 9571  12.973   4.872  33.879  0.0019 -0.1103  0.2260
 7372W        W 9572  20.479   0.050   5.125  0.0329 -0.1481 -0.1691
 7373W        W 9573  11.451   3.812  29.690  0.0398  0.1816  0.2271
 7374W        W 9574   1.974   0.007   0.558  0.2306 -0.1713 -0.1753
 7375W        W 9575   8.418   1.564  41.889 -0.2513  0.1966 -0.2078
 7376W        W 9576   2.815   1.226  15.446 -0.2126 -0.1911 -0.0079
 7377W        W 9577  12.664   1.580  19.274  0.0117 -0.0844  0.1632
 7378W        W 9578  11.889   6.397  32.491  0.0110  0.1459  0.1554
 7379W        W 9579  20.995   0.392   8.541  0.0934  0.4944 -0.1040
 7380W        W 9580   7.354   0.002  37.889  0.3031 -0.0952 -0.6823
 7381W        W 9581   7.554   5.883  41.747 -0.0478  0.1132 -0.1233
 7382W        W 9582  10.333   4.321   6.135  0.0294 -0.1187  0.2293
 7383W        W 9583   0.753   3.694   3.078 -0.2756 -0.0456 -0.0553
 7384W        W 9584   1.807   5.869  38.462 -0.1522  0.3752  0.0007
 7385W        W 9585  19.675   6.466  16.234 -0.1435 -0.0048 -0.1072
 7386W        W 9586  15.516   3.274  16.222 -0.1513  0.1461 -0.2064
 7387W        W 9587   4.748   1.349  36.056  0.1218  0.0950  0.0412
 7388W        W 9588  10.326   1.293  10.532  0.0339  0.0907  0.2538
 7389W        W 9589  17.216   6.148  30.282 -0.0044  0.0840  0.2109
 7390W        W 9590   2.271   3.060   2.791  0.1294 -0.2667 -0.2308
 7391W        W 9591  11.798   2.230  13.111 -0.1851  0.4550  0.1100
 7392W        W 9592  14.148   3.909  20.057 -0.1197  0.1013 -0.2367
 7393W        W 9593   3.483   4.618  14.669 -0.1686  0.0564  0.1407
 7394W        W 9594  10.940   2.326  36.153  0.0499  0.3574 -0.1189
 7395W        W 9595   1.081   1.675  31.814  0.1283  0.0486  0.0187
 7396W        W 9596   3.623   0.975  43.456  0.1450 -0.1444 -0.2236
 7397W        W 9597  12.315   0.961   5.624  0.0351 -0.0581 -0.1890
 7398W        W 9598  20.379   1.478  38.716  0.4015  0.0851 -0.1698
 7399W        W 9599  17.154   1.418   0.467 -0.3582 -0.3079  0.0287
 7400W        W 9600  19.175   3.178  40.453  0.0812 -0.1653  0.0940
 7401W        W 9601   9.508   4.312  38.448  0.2216 -0.1429  0.0397
 7402W        W 9602   3.949   1.363   5.315 -0.1077  0.0632 -0.3049
 7403W        W 9603   9.713   2.117  17.643  0.2439 -0.1890 -0.0290
 7404W        W 9604  15.257   1.086  19.218  0.2122 -0.2410 -0.1969
 7405W        W 9605   3.581   0.200  41.149 -0.0693 -0.2793  0.2799
 7406W        W 9606   3.764   0.413  35.893  0.0580 -0.1509 -0.0360
 7407W        W 9607  16.736   1.980   0.204 -0.1644  0.0776  0.0364
 7408W        W 9608  19.672   0.249  38.468  0.0428  0.1702  0.0819
 7409W        W 9609  12.239   1.128  12.881 -0.1485  0.0906  0.3895
 7410W        W 9610   1.426   5.181   1.883  0.0373 -0.0546  0.1407
 7411W        W 9611   5.067   5.984   5.194 -0.0727  0.0805  0.1922
 7412W        W 9612  18.401   4.527   5.843 -0.1485  0.0842  0.0893
 7413W        W 9613  17.210   3.533  41.465 -0.0253  0.1307  0.1488
 7414W        W 9614  20.003   6.477   1.921 -0.0781  0.1443  0.0353
 7415W        W 9615   4.193   0.625   3.193  0.3201  0.1572  0.1241
 7416W        W 9616  17.183   3.477  19.662 -0.0883  0.2573 -0.0163
 7417W        W 9617   4.200   1.786  14.909 -0.0399  0.0787  0.2072
 7418W        W 9618  20.373   0.734   1.685 -0.0343 -0.4421 -0.0925
 7419W        W 9619  19.547   6.177  42.524 -0.1065 -0.0310 -0.0261
 7420W        W 9620  15.950   1.361  22.193  0.0447  0.1803 -0.2249
 7421W        W 9621  20.055   3.349  17.258 -0.3863  0.0293 -0.0471
 7422W        W 9622  21.075   5.274  30.705  0.2577  0.1809  0.2741
 7423W        W 9623   5.227   5.718  24.198 -0.0893  0.4492  0.0301
 7424W        W 9624  12.758   3.061  40.533  0.5541 -0.1411 -0.1264
 7425W        W 9625  14.430   0.809  13.604 -0.1033  0.1131 -0.1101
 7426W        W 9626  16.004   2.225  30.525  0.0709 -0.1070 -0.0231
 7427W        W 9627  17.269   0.030  10.900  0.1863 -0.1669  0.0281
 7428W        W 9628   9.847   2.225  16.345  0.0385  0.3644 -0.2028
 7429W        W 9629  15.598   3.065  30.595  0.0966 -0.0416 -0.1178
 7430W        W 9630  12.474   0.046   7.433  0.0558  0.2229 -0.1053
 7431W        W 9631  13.739   1.006  13.587  0.3809 -0.2444  0.3034
 7432W        W 9632   6.375   2.673   9.874 -0.0557  0.0249 -0.1235
 7433W        W 9633   4.160   3.558  25.808 -0.1599 -0.1511  0.0243
 7434W        W 9634   7.854   4.878  38.383 -0.2517 -0.0178 -0.0097
 7435W        W 9635   8.759   1.425  40.381 -0.1805  0.1874  0.1076
 7436W        W 9636   4.033   6.113  15.531 -0.1461 -0.1836 -0.0041
 7437W        W 9637  13.143   5.723   5.235  0.0339 -0.2197 -0.0624
 7438W        W 9638  19.371   1.612   6.916  0.2279 -0.0562 -0.1437
 7439W        W 9639   9.259   4.718   3.225  0.2537  0.2113  0.1479
 7440W        W 9640   2.130   1.843   6.806 -0.0154 -0.0239 -0.2432
 7441W        W 9641  18.458   5.974   6.921 -0.1213  0.1840  0.0928
 7442W        W 9642  19.924   0.772  18.228  0.0475  0.0977 -0.0831
 7443W        W 9643  14.038   2.251  33.499 -0.1228 -0.1430 -0.0405
 7444W        W 9644   5.031   2.424  11.667 -0.3733  0.0595  0.1641
 7445W        W 9645   7.844   3.071  13.087  0.1078  0.1970 -0.1117
 7446W        W 9646   6.141   1.687  35.420  0.0227  0.0807  0.0097
 7447W        W 9647  14.934   2.206  11.956 -0.1922  0.0791 -0.5005
 7448W        W 9648   4.300   5.519  25.161 -0.3368 -0.0227 -0.2052
 7449W        W 9649   4.441   5.895   4.769  0.1151 -0.1666 -0.1716
 7450W        W 9650   1.853   0.136   7.949 -0.3797 -0.1647  0.1306
 7451W        W 9651  18.271   5.077  16.232  0.0110  0.0042 -0.0248
 7452W        W 9652  17.412   4.499  19.494  0.0311 -0.1919  0.2000
 7453W        W 9653   1.604   5.328  41.085 -0.1887 -0.0267 -0.4466
 7454W        W 9654   2.633   1.618  28.598 -0.1377 -0.2515 -0.1382
 7455W        W 9655  17.833   6.095  30.241  0.0428 -0.2257  0.1809
 7456W        W 9656   6.045   3.622   3.941  0.0149  0.0175 -0.2035
 7457W        W 9657   7.439   2.278  42.996  0.0024  0.0743  0.2113
 7458W        W 9658  19.530   6.136  34.481  0.0556  0.0389  0.1451
 7459W        W 9659  17.697   2.859  44.363 -0.0428  0.0193  0.2237
 7460W        W 9660  10.506   3.431  29.010 -0.1963  0.1828  0.0741
 7461W        W 9661  13.122   0.356  29.002 -0.1472 -0.0320  0.2693
 7462W        W 9662   3.033   2.748  10.738  0.3127  0.2373  0.2058
 7463W        W 9663  15.421   4.111  12.228  0.0033 -0.0905 -0.0577
 7464W        W 9664  12.241   4.919  31.405 -0.2394  0.1187  0.0138
 7465W        W 9665  18.642   0.979  43.352 -0.1541  0.0905 -0.0879
 7466W        W 9666   8.107   1.524   8.034 -0.1799 -0.2482 -0.0253
 7467W        W 9667   7.047   1.757  15.292 -0.2668  0.0155 -0.0230
 7468W        W 9668   3.689   1.219  12.064 -0.2568 -0.0456  0.1776
 7469W        W 9669   3.687   2.322  34.139 -0.0438 -0.0547  0.3176
 7470W        W 9670  19.096   6.576  30.275 -0.2502  0.1139 -0.0064
 7471W        W 9671   5.232   6.380  28.878 -0.1231 -0.0975  0.2024
 7472W        W 9672   7.852   3.771   0.483 -0.0129 -0.0518  0.2530
 7473W        W 9673  10.279   5.679  41.155  0.1412  0.3073 -0.0517
 7474W        W 9674   7.437   3.495  43.997 -0.0239  0.0010 -0.1099
 7475W        W 9675   2.570   2.337  26.848 -0.0472  0.3203  0.2005
 7476W        W 9676  11.283   2.821  11.137  0.0724  0.2759  0.2714
 7477W        W 9677  14.246   2.732  23.442 -0.0746  0.1346  0.1787
 7478W        W 9678  16.312   4.827  32.194 -0.1504  0.1633  0.3046
 7479W        W 9679  15.282   2.101  13.659 -0.0008 -0.0319  0.0569
 7480W        W 9680  15.372   6.208  37.574  0.0822 -0.0079  0.0720
 7481W        W 9681   6.653   4.433   1.947 -0.0161  0.2926  0.2106
 7482W        W 9682  12.806   0.177  11.102 -0.2110  0.3401  0.0725
 7483W        W 9683   3.176   5.491  30.980 -0.0082 -0.0137 -0.0203
 7484W        W 9684   5.353   3.651  39.087 -0.3283  0.2765 -0.0895
 7485W        W 9685   3.154   0.661  31.666  0.0857  0.4721  0.0520
 7486W        W 9686  17.391   5.433   3.351  0.0886  0.0264 -0.2398
 7487W        W 9687   9.944   3.757  33.467 -0.0563  0.1548  0.0361
 7488W        W 9688  16.890   0.070   9.546  0.0897  0.2269  0.0273
 7489W        W 9689   7.682   4.576  25.095 -0.0194  0.1462 -0.1000
 7490W        W 9690  12.961   4.199   1.463 -0.0181  0.0263 -0.0333
 7491W        W 9691  16.879   2.716  34.431 -0.2640 -0.1050  0.4325
 7492W        W 9692  11.063   6.162  41.182  0.0235 -0.0414 -0.0906
 7493W        W 9693  17.539   4.860  12.486  0.0469  0.0202 -0.0245
 7494W        W 9694  17.658   6.473  13.611  0.0827 -0.5225 -0.0689
 7495W        W 9695  14.282   2.094  39.818 -0.1389 -0.0293  0.1421
 7496W        W 9696   5.371   2.757  38.767 -0.0872 -0.1347 -0.1734
 7497W        W 9697   7.211   4.507  14.192 -0.2978 -0.0690  0.0431
 7498W        W 9698   2.209   3.399  21.099  0.2100 -0.2238  0.1686
 7499W        W 9699   4.071   5.070  32.865 -0.0555  0.0542 -0.0765
 7500W        W 9700   6.860   2.765   1.552  0.1542  0.0896 -0.1646
 7501W        W 9701   9.496   3.381  33.472  0.1383 -0.1801  0.0779
 7502W        W 9702  17.061   3.921   5.700 -0.2273 -0.1644  0.3129
 7503W        W 9703   3.335   0.118  12.804  0.0613 -0.0598  0.0250
 7504W        W 9704   1.012   5.174  40.531 -0.1696 -0.1962  0.0820
 7505W        W 9705  18.066   0.900  40.054  0.2503 -0.1157 -0.0707
 7506W        W 9706  13.443   1.463  36.868 -0.1499 -0.0221  0.4292
 7507W        W 9707  15.262   4.356  31.881  0.3023 -0.1949 -0.0092
 7508W        W 9708  15.465   3.128  22.759  0.2853  0.1339  0.1765
 7509W        W 9709   1.200   0.242  29.286 -0.0587  0.0747 -0.0389
 7510W        W 9710   8.692   3.777  11.945 -0.2215 -0.1790  0.0144
 7511W        W 9711  12.528   4.416  15.002 -0.0889  0.0839  0.0359
 7512W        W 9712  18.944   3.805   8.719  0.2093 -0.1388  0.1915
 7513W        W 9713  18.587   3.374  31.870  0.2040 -0.1718  0.1825
 7514W        W 9714   2.066   4.781   2.369  0.1346 -0.1155 -0.1311
 7515W        W 9715  12.633   5.020   5.726  0.0267 -0.0785  0.1507
 7516W        W 9716   2.717   1.964   7.460 -0.1074 -0.0322 -0.5389
 7517W        W 9717   0.758   1.836  28.554  0.0264 -0.1597  0.0753
 7518W        W 9718  11.614   1.050  16.112 -0.0355  0.0848  0.0421
 7519W        W 9719  14.755   3.046  22.447  0.3143 -0.0070  0.1169
 7520W        W 9720   1.166   1.683   2.810  0.1951  0.0723 -0.0430
 7521W        W 9721  13.939   1.284  40.033  0.1039 -0.0241  0.2268
 7522W        W 9722  11.920   2.415  21.433  0.0171 -0.1538  0.0275
 7523W        W 9723   5.486   5.293  24.106  0.1986 -0.2852  0.1613
 7524W        W 9724  13.612   0.393  16.556 -0.4194  0.0246 -0.0509
 7525W        W 9725  17.236   1.207  34.310 -0.0583  0.0630  0.0345
 7526W        W 9726  18.579   5.755  34.933  0.0051  0.2630 -0.2529
 7527W        W 9727   8.513   2.949  40.270  0.0519 -0.3118  0.1882
 7528W        W 9728   8.121   3.731   9.622 -0.2176  0.0258  0.1209
 7529W        W 9729  13.995   1.620  24.493 -0.0190 -0.0394 -0.0943
 7530W        W 9730  10.946   5.375   3.863 -0.1941  0.1382  0.1104
 7531W        W 9731   2.874   6.486  23.644 -0.1927  0.0755 -0.0884
 7532W        W 9732  12.657   6.026   1.095  0.4445 -0.1335 -0.0925
 7533W        W 9733   6.811   2.565  12.125  0.2826 -0.0169  0.0191
 7534W        W 9734  11.899   5.679  18.976 -0.1201  0.0056  0.2233
 7535W        W 9735  14.548   0.469   3.401  0.1784 -0.1386  0.3395
 7536W        W 9736   7.173   0.333   0.619 -0.1116 -0.0074 -0.1034
 7537W        W 9737   2.596   6.366  35.102  0.1819  0.0763  0.0811
 7538W        W 9738   5.524   5.467   6.244  0.0780 -0.0740 -0.5536
 7539W        W 9739  18.632   5.583  13.235  0.0410  0.1268  0.0676
 7540W        W 9740  11.198   5.736  19.787  0.2950 -0.2855 -0.1392
 7541W        W 9741  12.232   0.380  15.919  0.0495 -0.1171  0.3781
 7542W        W 9742   6.404   4.424  43.320 -0.0252 -0.0833  0.1728
 7543W        W 9743   0.719   6.127   2.667  0.0514 -0.0763 -0.2483
 7544W        W 9744   0.019   1.614   2.658 -0.1791 -0.2130 -0.1098
 7545W        W 9745   0.258   5.063  31.923  0.1243 -0.1064  0.1304
 7546W        W 9746  20.491   0.710  37.602  0.1504 -0.4153 -0.0137
 7547W        W 9747   2.612   4.510  23.148 -0.1767 -0.0188  0.2692
 7548W        W 9748   9.161   1.885  30.724 -0.2507 -0.2196 -0.2254
 7549W        W 9749  14.490   2.570  22.283 -0.2847 -0.0088 -0.0865
 7550W        W 9750  19.028   3.069  34.796 -0.0552 -0.1162 -0.2270
 7551W        W 9751  14.969   3.080   8.376  0.1501 -0.1010  0.2308
 7552W        W 9752   0.935   6.575   7.612  0.3603 -0.1076 -0.0163
 7553W        W 9753  13.650   5.898  37.274  0.0450  0.0068 -0.0948
 7554W        W 9754   0.459   2.875  38.802  0.2200  0.3480 -0.1831
 7555W        W 9755   4.826   4.613  21.127 -0.1066  0.0375 -0.2945
 7556W        W 9756   9.050   0.458  34.361 -0.3147  0.1325  0.3216
 7557W        W 9757   8.588   2.303   0.578  0.0806  0.0869  0.1481
 7558W        W 9758  10.163   2.784  36.230 -0.3200  0.3256 -0.2357
 7559W        W 9759   5.631   3.717  34.753  0.1074  0.1948 -0.2283
 7560W        W 9760  14.607   2.483  14.239 -0.0891 -0.1599  0.2486
 7561W        W 9761   2.246   1.211  41.847  0.1864  0.0474 -0.0147
 7562W        W 9762  13.261   4.203  10.948  0.0939  0.1489 -0.0643
 7563W        W 9763   6.168   2.741  35.693  0.1046  0.0696 -0.1261
 7564W        W 9764  19.488   0.678  11.616 -0.0187 -0.1702 -0.4278
 7565W        W 9765   9.602   1.413  13.273  0.2971  0.4197  0.0642
 7566W        W 9766   6.644   0.029  15.475 -0.1920  0.0676 -0.3118
 7567W        W 9767  14.566   1.690  34.590 -0.1748  0.3737  0.0682
 7568W        W 9768  13.178   6.407  44.777 -0.1589  0.0409 -0.1299
 7569W        W 9769  12.086   0.885  42.132 -0.2034 -0.0503  0.3200
 7570W        W 9770  10.757   2.432  19.695 -0.1404  0.0962  0.2210
 7571W        W 9771   0.772   2.715  28.931 -0.2605 -0.2921  0.1670
 7572W        W 9772  14.349   6.130   4.012 -0.0340 -0.1388 -0.0178
 7573W        W 9773  16.956   4.389   0.788 -0.3725 -0.0414  0.1886
 7574W        W 9774   9.311   5.168  37.830  0.1542  0.0127  0.1110
 7575W        W 9775   5.596   0.855  32.971 -0.3169  0.0364  0.0224
 7576W        W 9776   2.435   4.307  38.439 -0.3169  0.0000 -0.0190
 7577W        W 9777   4.833   4.792  44.038  0.2075 -0.1552 -0.0609
 7578W        W 9778  19.262   3.043  39.589 -0.0297 -0.0706  0.0360
 7579W        W 9779  11.261   5.960  42.281 -0.1297 -0.2322  0.0238
 7580W        W 9780  13.794   4.659  36.928  0.0804  0.1725  0.0361
 7581W        W 9781  13.332   3.117  43.169  0.2011  0.0202  0.1391
 7582W        W 9782   6.149   0.827  39.575 -0.0707  0.1201 -0.0506
 7583W        W 9783  11.180   0.372  31.356  0.0337  0.0753 -0.1723
 7584W        W 9784  13.029   0.490   6.030  0.1606  0.2804 -0.2680
 7585W        W 9785   9.401   3.275  10.361 -0.0621  0.0300 -0.0645
 7586W        W 9786   7.266   4.206  35.664 -0.0155  0.1147  0.0684
 7587W        W 9787  19.469   4.960  17.432 -0.0831 -0.0148  0.2417
 7588W        W 9788  17.514   5.365  28.885  0.0085  0.0162 -0.0266
 7589W        W 9789  20.383   4.689   4.710  0.0088  0.3803  0.0918
 7590W        W 9790   0.571   3.993   7.039  0.0168  0.0546 -0.3942
 7591W        W 9791  14.417   1.149   1.695 -0.3588  0.1208 -0.1763
 7592W        W 9792  20.124   1.732   6.481  0.1612 -0.2624  0.1868
 7593W        W 9793   6.805   3.189   7.333 -0.2985  0.0471 -0.0377
 7594W        W 9794  15.026   3.650  41.255 -0.1184 -0.2086 -0.1408
 7595W        W 9795   8.390   1.033   6.325  0.1774  0.0624 -0.0854
 7596W        W 9796  13.859   1.132  37.144  0.1542  0.2701 -0.1164
 7597W        W 9797   0.702   6.587   0.885  0.2000  0.0902 -0.0441
 7598W        W 9798   1.821   4.378   7.255  0.0919  0.2074  0.3384
 7599W        W 9799   0.010   1.467   4.806 -0.0530 -0.1219  0.3217
 7600W        W 9800  12.659   6.262  39.410 -0.1510  0.0267 -0.3647
 7601W        W 9801   5.635   3.439  40.360  0.2526 -0.0696  0.0864
 7602W        W 9802   5.624   4.278  10.697 -0.0225  0.1884  0.0521
 7603W        W 9803  18.328   2.230   7.313  0.0136  0.1160 -0.0560
 7604W        W 9804  15.635   1.624  43.091 -0.2074  0.1366  0.0683
 7605W        W 9805  11.092   0.673   1.241  0.0243 -0.0073 -0.1558
 7606W        W 9806   0.118   3.176   2.401  0.4113 -0.4170 -0.0305
 7607W        W 9807  18.215   0.420  17.338 -0.1926 -0.0311  0.2267
 7608W        W 9808  10.016   0.882  31.782 -0.2781 -0.2412 -0.1040
 7609W        W 9809  16.371   4.875   5.805  0.2310  0.2241  0.0281
 7610W        W 9810  13.826   5.718  10.946 -0.2185  0.2474  0.2399
 7611W        W 9811   1.921   6.522  35.389  0.0652 -0.3101 -0.0059
 7612W        W 9812   0.286   1.405   7.856  0.0088  0.0173 -0.1843
 7613W        W 9813  16.928   1.783   8.796  0.0876 -0.0603 -0.1612
 7614W        W 9814  17.436   2.120  14.071 -0.1102  0.2078 -0.1287
 7615W        W 9815   1.831   2.778  43.157  0.1016  0.0435  0.2824
 7616W        W 9816  20.519   0.242  35.198  0.2787 -0.0466 -0.0417
 7617W        W 9817   5.122   4.699  22.387 -0.0828  0.3756  0.2226
 7618W        W 9818   4.350   5.822   1.939 -0.3218 -0.0257  0.1431
 7619W        W 9819   1.879   2.960  33.180  0.0164  0.1364  0.1096
 7620W        W 9820   8.442   5.909  13.407  0.0300 -0.0629 -0.3240
 7621W        W 9821   4.784   1.600  39.139 -0.0159 -0.4314  0.0140
 7622W        W 9822   5.397   3.317  23.128  0.1733  0.0528 -0.0657
 7623W        W 9823   8.655   2.952  16.879  0.1875 -0.0143  0.1066
 7624W        W 9824   8.645   4.342  44.239  0.1647  0.0914  0.1911
 7625W        W 9825   9.613   2.448   9.529  0.1814 -0.0840 -0.0337
 7626W        W 9826  18.659   6.594   6.331 -0.5248  0.3148  0.1652
 7627W        W 9827  17.271   1.403  45.105 -0.0529 -0.1128  0.2437
 7628W        W 9828  12.121   2.106   1.048 -0.0444 -0.2097 -0.0732
 7629W        W 9829  17.243   5.307   9.497 -0.0637  0.1439  0.2850
 7630W        W 9830  15.013   4.133  15.085  0.0313  0.0762 -0.2480
 7631W        W 9831  14.021   2.164   8.156 -0.1951 -0.1143 -0.0627
 7632W        W 9832  20.229   4.477  13.795  0.3765  0.0044 -0.1365
 7633W        W 9833  18.643   0.939  19.918  0.1136 -0.1361  0.1503
 7634W        W 9834  10.253   2.992  36.897 -0.1038 -0.0067 -0.0552
 7635W        W 9835   3.853   0.789  41.657 -0.2547  0.2382  0.1227
 7636W        W 9836   5.318   3.074  27.981  0.2966 -0.0529 -0.1227
 7637W        W 9837  18.347   4.434  17.057  0.1233 -0.0224  0.1808
 7638W        W 9838  11.290   3.862   3.514  0.4114  0.0413  0.0551
 7639W        W 9839  15.115   2.170  43.732  0.1298 -0.1000  0.1748
 7640W        W 9840  15.786   1.706  36.966 -0.0065 -0.3734  0.1545
 7641W        W 9841  13.599   0.989  17.198  0.0026 -0.2374 -0.0252
 7642W        W 9842   6.556   0.329  27.664 -0.0434  0.0014 -0.4205
 7643W        W 9843   3.785   2.819  41.975 -0.2256 -0.1010 -0.1643
 7644W        W 9844   1.035   5.311  34.644  0.1165 -0.2200  0.2440
 7645W        W 9845  14.835   4.856  36.669 -0.0852 -0.0564 -0.0837
 7646W        W 9846  16.068   5.389  19.443 -0.0090  0.0098  0.0011
 7647W        W 9847   1.237   2.888  10.402  0.0325  0.1014 -0.3208
 7648W        W 9848   3.966   1.392  26.324  0.3819  0.2876  0.2762
 7649W        W 9849   5.357   4.044  35.056 -0.0114 -0.1092 -0.0194
 7650W        W 9850   5.978   4.337  31.163 -0.1112 -0.1412  0.0228
 7651W        W 9851  16.802   0.103  43.139  0.0029 -0.0411  0.2777
 7652W        W 9852  11.651   3.379   7.893 -0.1028 -0.1826 -0.0098
 7653W        W 9853  11.853   0.018  37.482  0.0381  0.0949  0.1430
 7654W        W 9854  11.098   2.556  29.774 -0.2160 -0.3505 -0.1433
 7655W        W 9855  14.803   4.891  12.488  0.1072  0.4746  0.0225
 7656W        W 9856  12.358   3.647   2.006 -0.0587  0.0701  0.1171
 7657W        W 9857  17.341   6.426  32.739  0.2963  0.1754 -0.0095
 7658W        W 9858  14.720   5.764  21.939  0.1033  0.3688 -0.3712
 7659W        W 9859   8.160   2.388  42.196 -0.1512 -0.3438  0.0608
 7660W        W 9860  14.402   0.530  23.425 -0.3150  0.0327  0.0441
 7661W        W 9861   2.748   0.199  42.988 -0.0909 -0.3532  0.1809
 7662W        W 9862   1.267   6.074   5.660  0.0502  0.0977 -0.0057
 7663W        W 9863  10.194   3.051  11.502 -0.0372 -0.0087  0.3481
 7664W        W 9864  17.621   0.320  19.047  0.2769 -0.1838 -0.0779
 7665W        W 9865   0.313   6.409   0.321 -0.0820  0.0443  0.1572
 7666W        W 9866  17.840   5.704   6.166 -0.1946 -0.1785  0.1341
 7667W        W 9867   4.542   2.732  44.688  0.0709 -0.0428 -0.2014
 7668W        W 9868   5.582   0.600   5.967 -0.1428 -0.2617 -0.1043
 7669W        W 9869   1.850   4.803   3.377 -0.1240 -0.2042 -0.1344
 7670W        W 9870  18.321   3.009  28.704 -0.0337  0.2101 -0.1699
 7671W        W 9871  10.298   3.392   4.801 -0.1561 -0.3751 -0.2120
 7672W        W 9872   8.466   4.410  43.314  0.0228  0.0338  0.0380
 7673W        W 9873  18.395   1.469   0.407 -0.1460 -0.0279 -0.1035
 7674W        W 9874   3.038   3.577   8.954 -0.0004 -0.0990  0.0973
 7675W        W 9875   8.407   4.533  28.338  0.0764 -0.2044  0.1808
 7676W        W 9876  10.436   0.443  32.742 -0.2504  0.0333 -0.2194
 7677W        W 9877  19.838   2.402  37.938 -0.1163  0.0174 -0.1591
 7678W        W 9878  15.144   0.294  14.138 -0.2604  0.0201  0.0340
 7679W        W 9879  15.477   2.955   8.044  0.0045 -0.3431 -0.3594
 7680W        W 9880   5.393   2.783  13.656  0.3425  0.3977 -0.0300
 7681W        W 9881  11.511   2.334  19.116 -0.2109 -0.2594  0.2290
 7682W        W 9882  10.979   5.187   0.521  0.1100  0.0396  0.0193
 7683W        W 9883  17.574   3.510  17.236  0.2018 -0.3095 -0.0217
 7684W        W 9884   3.560   2.570   7.596 -0.1466 -0.0138  0.0748
 7685W        W 9885   8.398   4.804  14.249  0.0619 -0.0349  0.1629
 7686W        W 9886   1.255   1.956   3.309  0.2104 -0.0565 -0.2780
 7687W        W 9887  14.080   2.979  38.664 -0.1160  0.2010  0.2816
 7688W        W 9888   5.195   2.092  22.762  0.0095 -0.1571  0.1039
 7689W        W 9889  10.667   2.543  41.129 -0.1710  0.0091  0.2613
 7690W        W 9890  20.158   2.427  16.903  0.3664  0.1480 -0.3950
 7691W        W 9891  12.542   3.689  17.937  0.2646 -0.1364 -0.0664
 7692W        W 9892  17.737   4.824  35.709 -0.2553  0.1067 -0.2002
 7693W        W 9893  13.448   3.186  21.148 -0.0840  0.1107  0.2681
 7694W        W 9894  11.938   0.613  15.609  0.3468  0.1438  0.5052
 7695W        W 9895  13.007   3.667  29.944 -0.1789  0.0633  0.1694
 7696W        W 9896   2.988   3.408  15.056  0.1143 -0.1331  0.3416
 7697W        W 9897   9.040   3.071  43.613  0.1566  0.1547  0.0634
 7698W        W 9898   0.522   3.217  29.703  0.0465 -0.2959 -0.1670
 7699W        W 9899  11.782   1.510  16.838 -0.1306  0.0934 -0.0563
 7700W        W 9900  14.351   3.673  23.011 -0.1250  0.0647  0.0989
 7701W        W 9901   5.876   3.505  16.078 -0.3618  0.0027  0.2251
 7702W        W 9902   0.871   4.146  29.920 -0.2949 -0.2019 -0.1169
 7703W        W 9903   4.334   3.121   2.079  0.1191  0.3452  0.0285
 7704W        W 9904   9.497   3.372   7.326 -0.0812 -0.1704  0.0798
 7705W        W 9905  11.553   2.335  33.831 -0.0271  0.0176 -0.0760
 7706W        W 9906  20.867   2.003   9.952 -0.1844 -0.0801 -0.2699
 7707W        W 9907   7.198   0.475   3.998 -0.0056  0.1405 -0.1021
 7708W        W 9908   9.839   1.396  10.316  0.2639  0.0481  0.0586
 7709W        W 9909  10.388   0.610  41.095  0.0168  0.0789 -0.1418
 7710W        W 9910  13.089   1.486  10.671 -0.2066  0.0831 -0.1910
 7711W        W 9911  20.406   2.703  11.909 -0.1321  0.0650 -0.3940
 7712W        W 9912  16.273   0.385   7.972 -0.4037 -0.1964 -0.2047
 7713W        W 9913  13.518   2.382   6.394 -0.1097  0.1763  0.3897
 7714W        W 9914  20.985   5.990  27.462 -0.1873  0.0120 -0.4577
 7715W        W 9915   4.197   2.146  34.028  0.1874 -0.2146  0.0648
 7716W        W 9916   4.002   2.614  12.566 -0.2182  0.2112  0.1164
 7717W        W 9917  13.027   6.338  22.935  0.0830  0.0035 -0.1663
 7718W        W 9918   1.131   0.126  45.147  0.0106 -0.0316 -0.0569
 7719W        W 9919  17.996   1.166  41.650 -0.0324 -0.1964 -0.1494
 7720W        W 9920  12.152   5.813  34.456 -0.2981  0.1865 -0.2369
 7721W        W 9921   6.359   3.009  28.368 -0.0367 -0.0142  0.1593
 7722W        W 9922   7.918   5.084  26.764 -0.0390 -0.2523  0.0237
 7723W        W 9923  13.208   1.574  18.431  0.0963  0.1494 -0.2186
 7724W        W 9924  13.281   6.037  22.505  0.0016 -0.2843 -0.3114
 7725W        W 9925   3.613   4.389  33.872 -0.0451 -0.2776  0.2252
 7726W        W 9926   0.741   0.397  36.968  0.1574 -0.0037 -0.0647
 7727W        W 9927   0.960   2.578  25.586 -0.2290 -0.0787 -0.0157
 7728W        W 9928  17.219   6.235  29.342  0.4008  0.1047 -0.0677
 7729W        W 9929   9.285   1.791  38.397  0.1116 -0.0652  0.3534
 7730W        W 9930   3.906   0.098   9.167 -0.0062 -0.0223  0.1955
 7731W        W 9931  18.068   4.257  29.114 -0.1399  0.0735 -0.2015
 7732W        W 9932  13.731   2.104  29.196 -0.1355 -0.0887 -0.0809
 7733W        W 9933   5.098   3.381   5.132  0.0503 -0.2175  0.1582
 7734W        W 9934   5.202   1.001  10.563  0.3061  0.0139 -0.3942
 7735W        W 9935   0.854   3.992  31.217  0.0222  0.0000 -0.1630
 7736W        W 9936  12.749   1.987  33.182 -0.1010  0.1701  0.2091
 7737W        W 9937   9.820   0.905   4.814 -0.3539  0.1770  0.2209
 7738W        W 9938  15.441   0.242   4.224 -0.1102 -0.0664  0.0418
 7739W        W 9939  18.387   2.513  17.823  0.2121  0.1188 -0.1174
 7740W        W 9940  17.262   3.740  37.221  0.1009  0.0942  0.0835
 7741W        W 9941  17.174   3.153   1.717  0.0879 -0.0410 -0.2500
 7742W        W 9942   3.708   1.452   4.878  0.0896 -0.0135  0.2337
 7743W        W 9943   8.278   1.504   0.129  0.0088 -0.1668  0.0623
 7744W        W 9944   5.882   1.147  24.736  0.0193 -0.0913  0.0104
 7745W        W 9945   9.956   4.148  33.162 -0.1159 -0.1456 -0.0304
 7746W        W 9946  17.156   6.459  13.221  0.1298  0.1263 -0.0690
 7747W        W 9947   9.101   5.602  44.220 -0.2885  0.1056  0.0367
 7748W        W 9948  19.835   5.966   8.601 -0.1510 -0.0370  0.1519
 7749W        W 9949  12.911   4.375  17.560 -0.2635  0.0895  0.0738
 7750W        W 9950   3.461   2.693   0.443 -0.0163  0.1625  0.1983
 7751W        W 9951  17.715   2.366  41.245  0.3061  0.1521  0.1219
 7752W        W 9952  13.542   3.817  17.102  0.0872  0.2293 -0.0834
 7753W        W 9953  16.236   0.222  18.484  0.0779 -0.0274  0.1778
 7754W        W 9954   1.950   6.140  35.046  0.2431 -0.2426  0.0394
 7755W        W 9955  19.735   0.940   4.143 -0.0737 -0.0158  0.0547
 7756W        W 9956   6.858   0.175  41.649 -0.0817 -0.0938 -0.1070
 7757W        W 9957   8.821   0.335  15.403  0.0870 -0.1589  0.0328
 7758W        W 9958  14.912   1.355  34.074  0.2626  0.0410  0.2441
 7759W        W 9959  16.708   6.258  30.143 -0.2335  0.3081 -0.0797
 7760W        W 9960  13.994   0.944  12.132 -0.0735 -0.0242 -0.0097
 7761W        W 9961  12.932   3.015  19.589  0.0399 -0.1570 -0.2670
 7762W        W 9962   6.290   4.370  15.042 -0.1844 -0.3458  0.0936
 7763W        W 9963   9.893   2.627   7.544  0.2281  0.1299  0.2443
 7764W        W 9964   7.069   5.405  11.177  0.4583 -0.1107 -0.1634
 7765W        W 9965   9.596   1.828  31.590 -0.0846 -0.1279 -0.0594
 7766W        W 9966   4.198   2.213  25.248 -0.3371  0.1414  0.1159
 7767W        W 9967   7.480   6.459  38.803  0.2520  0.6504  0.1512
 7768W        W 9968  11.544   2.584  43.401 -0.1886 -0.1665  0.2005
 7769W        W 9969  14.713   1.407  35.525  0.3768 -0.2044 -0.0021
 7770W        W 9970   0.528   0.741   4.975 -0.1459  0.0507  0.0614
 7771W        W 9971   1.709   5.315   3.555 -0.1377 -0.2728  0.2163
 7772W        W 9972  16.613   5.427  13.285 -0.0195  0.0376  0.0744
 7773W        W 9973  11.341   5.943   5.097 -0.0927 -0.3005 -0.1460
 7774W        W 9974   9.809   3.275   4.748 -0.1184 -0.1705  0.2057
 7775W        W 9975  15.116   6.132  36.730 -0.1987 -0.3450 -0.3608
 7776W        W 9976  10.589   6.230  19.840 -0.0419  0.2316  0.1743
 7777W        W 9977  20.457   0.695  28.768  0.1213 -0.1632 -0.0222
 7778W        W 9978  18.125   0.670   9.241  0.1468  0.0912 -0.0338
 7779W        W 9979  15.403   4.467   7.069 -0.1878  0.0954  0.1449
 7780W        W 9980   0.275   5.457   0.711 -0.1751 -0.2107  0.1304
 7781W        W 9981  12.266   6.410  13.922  0.0009 -0.0823  0.4946
 7782W        W 9982   2.477   3.921  40.343  0.1590  0.0137  0.2400
 7783W        W 9983  14.957   3.452  33.835  0.0317  0.3862 -0.4368
 7784W        W 9984   7.404   3.937  34.374  0.1817  0.1996 -0.1445
 7785W        W 9985  15.297   2.512  42.259  0.0401 -0.1052  0.1367
 7786W        W 9986  14.732   3.387   8.728 -0.1357  0.1060 -0.3502
 7787W        W 9987  14.970   3.035   7.834  0.0668  0.1006 -0.0571
 7788W        W 9988  16.887   0.341  16.933  0.3980 -0.0390 -0.4682
 7789W        W 9989   6.522   3.067  38.143  0.1417 -0.1187  0.0932
 7790W        W 9990   4.092   6.016  25.203  0.2214  0.0833  0.3244
 7791W        W 9991  14.273   5.262   1.954 -0.0583 -0.1024 -0.0079
 7792W        W 9992  17.513   4.092  41.487 -0.1669  0.4709  0.2016
 7793W        W 9993  15.705   2.711  12.799  0.1860 -0.2291  0.0605
 7794W        W 9994   0.734   6.089  36.837  0.0550  0.2630 -0.2953
 7795W        W 9995   3.263   3.035  36.622 -0.1453  0.1493  0.0170
 7796W        W 9996   7.380   3.401  13.308 -0.0840 -0.2535  0.3761
 7797W        W 9997   6.988   6.440  24.317 -0.0685 -0.1406 -0.1978
 7798W        W 9998  16.361   1.573  17.267  0.1084  0.1003  0.1711
 7799W        W 9999   9.095   4.400  33.607  0.2043 -0.0973 -0.1169
 7800W        W10000   1.949   5.910   9.831 -0.2323 -0.1023 -0.2131
 7801W        W10001  16.543   1.172  35.086 -0.0727 -0.2982  0.2175
 7802W        W10002  18.139   3.574   8.544 -0.2810  0.0072 -0.1593
 7803W        W10003   7.689   4.149  28.770  0.3000 -0.1215 -0.0768
 7804W        W10004   7.918   5.762   0.871 -0.1143  0.0051 -0.0651
 7805W        W10005  10.122   1.459  44.347 -0.1853 -0.1138  0.1671
 7806W        W10006   5.507   2.977  11.495  0.0344 -0.2543  0.2011
 7807W        W10007  17.730   3.408   3.010  0.1333  0.0781 -0.1254
 7808W        W10008   8.045   5.792  11.761  0.1254  0.0590  0.4045
 7809W        W10009  11.768   2.165  17.552  0.2547  0.3667  0.3913
 7810W        W10010  14.832   0.189  38.126 -0.0692  0.0960 -0.1191
 7811W        W10011  13.740   1.917  34.379 -0.0448  0.0583  0.1670
 7812W        W10012   9.692   5.581   3.406  0.1146  0.1188  0.1780
 7813W        W10013   9.212   5.563  13.871 -0.0789  0.0618 -0.0052
 7814W        W10014  11.793   1.592  19.686  0.1224 -0.1546  0.1166
 7815W        W10015  13.687   1.800  12.861 -0.0772 -0.1415 -0.3241
 7816W        W10016  17.741   0.936   4.986 -0.0810  0.0097  0.0304
 7817W        W10017   4.441   3.852  21.761  0.1978  0.1477 -0.0029
 7818W        W10018  14.746   2.197  19.412  0.1989 -0.1495  0.1025
 7819W        W10019  20.006   5.532  37.698 -0.2125  0.3475  0.2935
 7820W        W10020  10.859   2.330  18.425  0.1306 -0.2043 -0.0312
 7821W        W10021   3.407   1.580  11.795  0.1123 -0.1577 -0.2522
 7822W        W10022  17.637   2.871  13.568 -0.0903  0.2447 -0.0048
 7823W        W10023  21.099   5.912   4.735  0.0014 -0.1161 -0.0778
 7824W        W10024   0.245   6.433   1.784 -0.4272  0.2230  0.0504
 7825W        W10025   8.253   1.131  13.311  0.0218  0.0142 -0.1219
 7826W        W10026  20.180   1.099  14.820 -0.1778  0.3133  0.1209
 7827W        W10027   6.402   5.098  14.131 -0.1137  0.2446  0.2109
 7828W        W10028   4.768   2.979   9.775  0.0752 -0.1153 -0.0862
 7829W        W10029   5.522   2.563  41.373 -0.1692  0.2813 -0.0417
 7830W        W10030  19.357   2.038  13.691  0.0995  0.0625 -0.0484
 7831W        W10031   6.456   4.596  42.469  0.3506 -0.0245  0.0427
 7832W        W10032  10.620   1.659  29.456  0.0030  0.0280 -0.1164
 7833W        W10033  15.299   6.066  10.888 -0.0152  0.0450 -0.0451
 7834W        W10034  11.527   1.246  17.519 -0.3547  0.0577 -0.0599
 7835W        W10035   6.227   6.398  14.614  0.0645  0.0075  0.1103
 7836W        W10036   1.294   3.078   8.336  0.0273  0.0679 -0.0455
 7837W        W10037   2.547   0.435  25.331  0.3341 -0.1206  0.2391
 7838W        W10038  12.883   5.754  10.894 -0.2148  0.0370  0.1869
 7839W        W10039  17.583   2.135  31.110  0.2393 -0.1501 -0.0535
 7840W        W10040   1.107   3.457  14.626 -0.0770 -0.2422 -0.2571
 7841W        W10041  15.650   1.542  12.934  0.0627  0.0279 -0.0079
 7842W        W10042   2.545   4.858  29.914  0.0389 -0.0775  0.0103
 7843W        W10043  10.936   4.168  40.513 -0.1375 -0.3427 -0.0587
 7844W        W10044  10.755   3.833  17.444 -0.0863  0.0028 -0.0196
 7845W        W10045   7.331   1.251  12.636 -0.1637 -0.2105  0.0060
 7846W        W10046  15.478   4.957  44.884 -0.2186 -0.0704  0.1757
 7847W        W10047  16.302   6.163   8.499  0.1783 -0.0395  0.2767
 7848W        W10048   5.879   1.866  39.793 -0.0612  0.0461  0.0073
 7849W        W10049   3.927   4.118  20.201 -0.0174 -0.0724 -0.1790
 7850W        W10050   1.878   4.583  13.227 -0.0980  0.1025 -0.1909
 7851W        W10051  17.100   2.744  37.451 -0.3445 -0.1977 -0.0401
 7852W        W10052  19.538   3.689  41.396 -0.0918 -0.0821  0.0426
 7853W        W10053  17.353   4.527   3.154  0.0484  0.1587  0.1039
 7854W        W10054   5.869   2.329   4.574 -0.0772 -0.1975  0.1820
 7855W        W10055   7.897   6.574   9.198  0.1139  0.0230 -0.0787
 7856W        W10056  15.230   1.597   3.832 -0.1739 -0.1750 -0.1891
 7857W        W10057  18.556   5.120   2.644  0.0214  0.1385 -0.2057
 7858W        W10058  16.150   2.865  17.520  0.0440  0.0650 -0.1795
 7859W        W10059   4.935   0.981  34.257 -0.1924 -0.4547  0.3766
 7860W        W10060  11.086   3.323  28.936  0.0475 -0.2481 -0.0840
 7861W        W10061   9.815   3.537   0.596 -0.2933 -0.3911  0.1863
 7862W        W10062   7.340   4.980   6.419 -0.1301  0.1176 -0.0211
 7863W        W10063   4.983   4.247   1.395  0.2731  0.0056  0.1314
 7864W        W10064   3.819   5.908  23.814  0.0417  0.1467  0.0203
 7865W        W10065  16.315   0.626   6.829 -0.1481 -0.0316 -0.1710
 7866W        W10066   2.542   4.490  15.929  0.0806  0.0609  0.3632
 7867W        W10067  19.520   1.656  43.660 -0.2777  0.0182  0.1324
 7868W        W10068  10.913   3.500  31.782 -0.0237  0.0129 -0.0667
 7869W        W10069   7.638   0.529   7.076  0.0246  0.0946 -0.1308
 7870W        W10070  17.368   2.430  11.244  0.0087 -0.2787 -0.0471
 7871W        W10071  19.437   3.742   8.759 -0.1746  0.0956 -0.1251
 7872W        W10072   3.159   0.262  27.359  0.1537  0.0832 -0.1251
 7873W        W10073  18.483   2.413   3.468 -0.0786  0.1839  0.1051
 7874W        W10074   2.006   5.557  41.297 -0.0479 -0.0996 -0.3776
 7875W        W10075  16.117   1.460   9.268 -0.1121 -0.0460  0.0346
 7876W        W10076  10.410   4.850  42.496  0.0034  0.3385  0.2958
 7877W        W10077  16.836   1.327  37.513  0.2885  0.1142 -0.1236
 7878W        W10078  17.238   6.096  33.748 -0.2969 -0.0447 -0.0925
 7879W        W10079  10.438   3.874  17.104  0.5420 -0.2159  0.0637
 7880W        W10080  17.387   2.400  44.521  0.1057  0.0309  0.0107
 7881W        W10081  16.638   1.763  41.848 -0.0850  0.0297  0.1493
 7882W        W10082  19.030   4.090  40.153  0.2525  0.1303 -0.1066
 7883W        W10083  14.200   4.477  20.104  0.2541 -0.1950 -0.1017
 7884W        W10084   1.474   5.862  43.410 -0.0301  0.1447  0.2883
 7885W        W10085  15.046   5.733  15.903  0.0169 -0.3266 -0.2878
 7886W        W10086  17.188   3.684  14.681  0.1011 -0.0449 -0.0630
 7887W        W10087   7.531   4.357  12.971  0.1808 -0.3927 -0.1993
 7888W        W10088   6.205   6.146  43.367 -0.0519  0.2617 -0.0176
 7889W        W10089   9.406   3.802   6.932  0.0959 -0.1381  0.1515
 7890W        W10090   2.096   0.928  24.431 -0.1789  0.1005 -0.1134
 7891W        W10091  15.327   0.060  19.470  0.0131  0.1405  0.0313
 7892W        W10092   9.334   4.758   2.178 -0.0149  0.2710 -0.2523
 7893W        W10093   5.205   5.226  25.115 -0.1990 -0.1956 -0.0341
 7894W        W10094  14.550   1.435  36.361  0.1395  0.1324  0.0951
 7895W        W10095  15.480   4.017  31.133 -0.0288  0.0560 -0.1790
 7896W        W10096  20.496   4.114   1.828 -0.2216  0.0379 -0.2422
 7897W        W10097  16.685   1.814   9.802 -0.0077  0.0522  0.0163
 7898W        W10098   3.233   0.887  10.611 -0.1826  0.0188 -0.2805
 7899W        W10099   3.161   2.693  44.047 -0.4130 -0.2043  0.0065
 7900W        W10100  14.933   2.339  23.112  0.0407 -0.0301  0.4615
 7901W        W10101  20.986   4.413  34.457 -0.2045  0.3811  0.2110
 7902W        W10102   4.661   2.056  26.237  0.0272  0.1653  0.0882
 7903W        W10103  17.101   6.139   4.525  0.0514  0.0486  0.1826
 7904W        W10104  16.539   4.443  18.060 -0.1477  0.0383 -0.0768
 7905W        W10105   0.159   5.580  26.445 -0.0433  0.0115  0.0423
 7906W        W10106  15.957   3.537  44.604  0.2184 -0.1477 -0.3274
 7907W        W10107  15.663   5.362  30.126 -0.2507  0.1381 -0.0053
 7908W        W10108  12.357   0.941  21.597  0.2983  0.1318 -0.2532
 7909W        W10109  17.808   4.368  16.878  0.2779 -0.0949  0.0891
 7910W        W10110   0.434   4.487  31.067  0.0152  0.1064  0.3858
 7911W        W10111   3.504   4.938  41.742 -0.0468  0.1752 -0.0246
 7912W        W10112   3.294   3.074  33.104  0.3745 -0.1589 -0.4519
 7913W        W10113  12.592   0.003  12.233  0.1061 -0.0050  0.2393
 7914W        W10114   4.018   0.256  20.844 -0.2036 -0.2181 -0.2016
 7915W        W10115   9.039   2.439   3.426 -0.1084  0.0062  0.2623
 7916W        W10116   0.932   1.653  37.754 -0.4019 -0.3675 -0.1031
 7917W        W10117   7.784   2.598  15.578  0.2125  0.0628  0.1644
 7918W        W10118  12.690   2.195  17.427  0.1695  0.0068  0.3475
 7919W        W10119  16.529   2.730   3.909 -0.2317 -0.0740 -0.1063
 7920W        W10120  17.306   5.370  34.790  0.0368  0.1372 -0.1220
 7921W        W10121  10.732   6.375  35.416  0.2789  0.1075 -0.0985
 7922W        W10122  12.963   4.201  34.991 -0.1384 -0.0416  0.3421
 7923W        W10123  15.734   2.461  20.347 -0.0909  0.0129 -0.0581
 7924W        W10124   3.559   5.356  43.646  0.0431 -0.0306  0.0113
 7925W        W10125   1.735   4.128   8.037  0.3854 -0.0611 -0.2403
 7926W        W10126  18.806   0.396  12.748  0.2669  0.0888 -0.3378
 7927W        W10127   0.278   6.034  15.126 -0.1603 -0.0281 -0.0016
 7928W        W10128  10.334   4.892   1.802  0.0266 -0.3366  0.0917
 7929W        W10129  13.026   6.491  23.567  0.3579  0.0198 -0.1267
 7930W        W10130   7.034   2.782  15.014  0.0529  0.0440  0.0806
 7931W        W10131  17.514   3.298   2.116 -0.0896  0.2334  0.0264
 7932W        W10132   6.548   0.523  34.969  0.2098 -0.0422  0.1838
 7933W        W10133  17.740   2.231   9.587  0.0503  0.1081  0.1175
 7934W        W10134   2.341   6.046  43.354 -0.0692 -0.1264 -0.0142
 7935W        W10135  19.216   2.807   0.235  0.2646 -0.1695  0.1248
 7936W        W10136  12.356   5.205  10.256  0.2308  0.1805  0.0650
 7937W        W10137   6.067   4.739  31.461  0.1028 -0.1696  0.0982
 7938W        W10138  10.327   0.860  42.443  0.2152  0.0853  0.0525
 7939W        W10139  19.939   6.389  41.114 -0.0801 -0.2084 -0.2695
 7940W        W10140  11.157   1.530  30.840  0.2640 -0.0982 -0.0304
 7941W        W10141  11.955   3.067  21.193 -0.2388 -0.1497  0.0776
 7942W        W10142   2.895   3.875  31.500 -0.0583 -0.1971  0.2097
 7943W        W10143  19.401   1.334   3.993 -0.1257  0.1437 -0.1159
 7944W        W10144  18.635   0.876  27.878 -0.1429 -0.1112 -0.1497
 7945W        W10145  18.017   5.771  18.511  0.1820  0.2360  0.2760
 7946W        W10146   5.439   5.613  37.809 -0.2729  0.0441  0.0025
 7947W        W10147  12.379   3.229   7.168  0.1512  0.2324  0.1138
 7948W        W10148   8.415   0.157  40.190  0.0408 -0.0190 -0.2036
 7949W        W10149   8.598   5.850  16.231 -0.1591  0.1645  0.0896
 7950W        W10150   2.454   3.861   6.741  0.3156  0.0127 -0.0241
 7951W        W10151   5.519   3.001  25.323 -0.0938  0.1855  0.3983
 7952W        W10152  20.600   4.978   9.396  0.0218 -0.1687 -0.1080
 7953W        W10153  10.344   3.352  20.517 -0.1818  0.0640  0.0369
 7954W        W10154   2.044   1.292  38.381 -0.2462  0.1700  0.2341
 7955W        W10155  12.265   4.686   7.369 -0.1589 -0.1665  0.0697
 7956W        W10156   0.128   4.237  40.966  0.0281  0.1706 -0.2505
 7957W        W10157  17.114   3.679  17.349  0.0333 -0.1185 -0.1322
 7958W        W10158  10.883   0.192  33.196  0.1269 -0.0113 -0.0861
 7959W        W10159   9.691   2.265  35.319  0.0501 -0.1525 -0.2537
 7960W        W10160  15.434   0.805  22.528 -0.1048  0.0164  0.1475
 7961W        W10161   6.196   6.042  37.292  0.0431  0.0304  0.0425
 7962W        W10162  17.423   0.816  34.978  0.1520 -0.1191  0.0326
 7963W        W10163   9.872   5.764  14.099 -0.0623 -0.1688 -0.0738
 7964W        W10164  13.414   2.540  41.785 -0.0409 -0.0275 -0.1376
 7965W        W10165   4.266   4.467   5.730 -0.2325  0.0267  0.2012
 7966W        W10166  17.661   2.782   2.133 -0.0520  0.3430 -0.2019
 7967W        W10167  17.650   5.383   6.516  0.0210 -0.1378  0.0939
 7968W        W10168  15.192   2.235  29.685 -0.6283 -0.0412  0.2051
 7969W        W10169  15.152   6.264   1.537  0.0769 -0.2476  0.0184
 7970W        W10170   9.007   5.891  40.378 -0.0041 -0.0122 -0.1654
 7971W        W10171  12.410   5.462  31.252  0.1712  0.2054 -0.1650
 7972W        W10172   8.196   4.282  32.664  0.1106  0.0282 -0.1280
 7973W        W10173   6.361   4.162  26.445 -0.0009  0.0485 -0.0384
 7974W        W10174   8.547   4.817  17.162 -0.1721  0.3017  0.1689
 7975W        W10175  16.861   2.044  20.816 -0.0800  0.1654  0.2198
 7976W        W10176  12.831   3.994   5.171 -0.3863  0.4801 -0.0870
 7977W        W10177  18.620   3.526  18.322 -0.6269 -0.1264  0.0949
 7978W        W10178   2.653   3.523  37.475 -0.0586  0.0803  0.0045
 7979W        W10179   8.263   5.412   4.890  0.1571 -0.2600 -0.0992
 7980W        W10180   0.514   4.063  12.417  0.0328  0.1320  0.0764
 7981W        W10181   2.464   5.270   0.875  0.1110  0.1800  0.1280
 7982W        W10182   1.309   1.325  13.682 -0.0229 -0.3823 -0.2791
 7983W        W10183  14.266   1.914  41.161 -0.1027  0.0081 -0.0261
 7984W        W10184   8.603   0.822  29.862  0.0775  0.2132  0.1618
 7985W        W10185   5.247   2.677  35.042  0.0275 -0.1062  0.1318
 7986W        W10186   0.812   3.138  10.549 -0.4084  0.0646  0.0832
 7987W        W10187   2.527   3.148  12.987  0.1304 -0.1475 -0.1609
 7988W        W10188  17.838   1.646  44.328 -0.1690 -0.0709 -0.0368
 7989W        W10189  15.885   4.468  40.652  0.1818  0.2393  0.0582
 7990W        W10190  12.732   4.752  29.735  0.2380 -0.2876 -0.2904
 7991W        W10191   5.961   1.994   5.874  0.0493 -0.1156 -0.0323
 7992W        W10192  11.430   5.663  32.283 -0.2684  0.0681 -0.0087
 7993W        W10193  12.903   0.754  20.354 -0.0550 -0.2917  0.1460
 7994W        W10194  18.276   1.232  10.519 -0.1838  0.0356 -0.1364
 7995W        W10195   3.011   4.000   0.755  0.0973  0.0107 -0.1075
 7996W        W10196   2.868   0.426  36.218 -0.0230 -0.1638 -0.0110
 7997W        W10197   9.813   5.656   7.240 -0.0234  0.3341  0.0689
 7998W        W10198  14.245   3.818   0.932 -0.1607  0.1404  0.2138
 7999W        W10199   1.188   1.181  10.202 -0.2112  0.1561 -0.1487
 8000W        W10200  20.748   4.801   3.890  0.4060  0.1853  0.0393
 8001W        W10201  15.828   3.268  37.122 -0.2348  0.3392  0.0483
 8002W        W10202   1.066   2.113  37.904  0.2976 -0.3657 -0.0986
 8003W        W10203  11.857   3.453  30.814 -0.4931  0.2382 -0.0404
 8004W        W10204   4.163   6.272  35.893  0.1917  0.0722 -0.1074
 8005W        W10205   4.198   2.834  27.137  0.0536  0.0231 -0.1677
 8006W        W10206   4.115   0.137  16.053  0.0329  0.0344  0.1555
 8007W        W10207   8.302   1.045  28.128  0.1009  0.3789 -0.2734
 8008W        W10208  18.695   0.824  38.893  0.1718  0.0598 -0.1376
 8009W        W10209   4.586   1.778  13.620 -0.0182  0.0386  0.0905
 8010W        W10210  20.974   6.222  33.419  0.0206 -0.2459 -0.3009
 8011W        W10211  10.751   3.152  44.330  0.0131  0.0355 -0.2364
 8012W        W10212  20.130   6.410  29.581 -0.2401  0.0409  0.0392
 8013W        W10213   1.595   0.350  37.448  0.2636 -0.0688  0.0503
 8014W        W10214  17.610   6.164  39.822  0.0282 -0.2061  0.1943
 8015W        W10215  21.039   0.825  25.791 -0.2449 -0.1869  0.2099
 8016W        W10216  15.863   4.108  33.244 -0.0293  0.0325  0.0904
 8017W        W10217  16.669   4.198   7.819 -0.4238  0.0531 -0.2367
 8018W        W10218  16.089   6.457   6.947 -0.3563 -0.0041 -0.0416
 8019W        W10219   2.581   3.458  14.703  0.0948  0.0179  0.0311
 8020W        W10220  17.435   5.858  17.676  0.1402  0.0324  0.0131
 8021W        W10221  18.783   0.446  44.635 -0.2218 -0.0748  0.3018
 8022W        W10222  16.966   5.196  13.038 -0.1749  0.1876  0.2447
 8023W        W10223   1.898   1.935   2.317  0.0476 -0.1485 -0.0317
 8024W        W10224  10.412   2.173  19.968 -0.0746 -0.1733  0.1138
 8025W        W10225  20.625   4.696   3.393  0.1794 -0.2375  0.2466
 8026W        W10226  17.348   0.129  43.933 -0.0505  0.2117  0.3429
 8027W        W10227  19.718   0.113   6.877 -0.2015 -0.1177  0.0930
 8028W        W10228   9.772   2.766   0.330  0.2606  0.0032 -0.0670
 8029W        W10229  19.446   3.279   9.059 -0.1571 -0.0924 -0.0891
 8030W        W10230   0.802   5.809  24.470  0.3489 -0.2924  0.1380
 8031W        W10231   2.079   2.718  10.200  0.0590  0.0339 -0.2699
 8032W        W10232   5.366   4.928  42.875  0.2756  0.4052  0.4221
 8033W        W10233  14.117   4.289   8.092  0.0392 -0.0776 -0.0896
 8034W        W10234  16.042   4.123   5.588 -0.4146  0.0590 -0.1485
 8035W        W10235  14.357   6.509   3.310  0.3130 -0.1883  0.2178
 8036W        W10236  15.684   3.997  22.640  0.1745  0.0892  0.0551
 8037W        W10237  17.687   3.326   1.186 -0.0622  0.2452  0.1685
 8038W        W10238   0.927   0.834   2.182 -0.0110 -0.2371  0.0078
 8039W        W10239   4.504   0.787  30.635 -0.1898 -0.2277 -0.0418
 8040W        W10240   9.535   3.081  11.304 -0.3267  0.3746  0.3806
 8041W        W10241  11.860   0.424   4.950 -0.0823 -0.1226 -0.0195
 8042W        W10242  16.694   2.927  31.882  0.2175  0.1593  0.0090
 8043W        W10243  13.136   3.898  29.375 -0.1002  0.1766  0.1995
 8044W        W10244  14.251   1.980   6.051 -0.0632 -0.0918  0.0653
 8045W        W10245  10.967   5.425  12.224 -0.0206  0.0067 -0.0055
 8046W        W10246  19.280   3.571  39.591 -0.0169 -0.0724 -0.0607
 8047W        W10247  14.522   2.450  21.255  0.1200  0.1006  0.2612
 8048W        W10248   0.201   4.040  16.023  0.2547  0.0328 -0.3020
 8049W        W10249   3.762   4.473  32.180  0.2550 -0.0570 -0.0631
 8050W        W10250   7.883   4.647  30.814  0.1450 -0.2404 -0.2646
 8051W        W10251  18.963   2.844  37.929  0.0076  0.2960  0.1564
 8052W        W10252   9.344   1.432   8.041  0.2670  0.0655  0.3192
 8053W        W10253  13.214   5.576  39.688  0.0357 -0.3539  0.1111
 8054W        W10254   2.500   5.295  41.067 -0.0864 -0.0178  0.0511
 8055W        W10255   0.153   0.960  34.088  0.2023  0.1585 -0.0801
 8056W        W10256  12.735   5.228  29.826  0.0575 -0.2615 -0.2343
 8057W        W10257   0.791   3.612  29.944 -0.0810  0.2707 -0.2022
 8058W        W10258   0.297   5.640   3.181  0.0473 -0.0206 -0.1669
 8059W        W10259   1.673   1.549  36.527 -0.3229  0.0102 -0.3563
 8060W        W10260   0.786   1.084  14.888  0.0590  0.2229  0.2569
 8061W        W10261  10.223   0.162  41.972 -0.1176  0.2717 -0.0338
 8062W        W10262  11.695   3.323  16.862 -0.0556 -0.1479 -0.4701
 8063W        W10263  11.152   6.382  28.288  0.0473  0.2510  0.0152
 8064W        W10264  12.003   0.521  14.650  0.0622  0.0067  0.0391
 8065W        W10265  14.546   2.127  21.586  0.3808  0.0169 -0.2555
 8066W        W10266   3.935   1.864  38.978  0.3198  0.1779 -0.0141
 8067W        W10267  16.517   0.940   0.898 -0.1799 -0.1440  0.2442
 8068W        W10268   2.328   4.400  29.743 -0.1227  0.2941 -0.1351
 8069W        W10269   9.680   3.291   6.668  0.0909  0.1668  0.1052
 8070W        W10270   7.444   3.298  31.640  0.2391 -0.2317 -0.1776
 8071W        W10271   4.684   2.606  33.466 -0.3799 -0.0535 -0.1348
 8072W        W10272   6.642   2.549  37.426 -0.0362 -0.0127 -0.0418
 8073W        W10273  20.938   4.957   6.958 -0.3393 -0.1514  0.0832
 8074W        W10274  19.200   1.818  38.264 -0.0050 -0.2330 -0.1138
 8075W        W10275  19.077   5.155   2.282  0.0117 -0.0302 -0.2078
 8076W        W10276   9.921   2.963   0.790  0.1288  0.1388 -0.1256
 8077W        W10277   5.927   3.285   7.174 -0.1865  0.0970 -0.0112
 8078W        W10278   0.682   6.583   4.869  0.0517 -0.0645  0.0427
 8079W        W10279  15.463   2.058  35.702 -0.0927  0.1059 -0.0635
 8080W        W10280  14.624   3.046  38.003 -0.2405 -0.0506  0.3704
 8081W        W10281   8.990   5.455   3.888 -0.0986 -0.1305 -0.0934
 8082W        W10282  12.005   3.493   9.504  0.3979  0.1100 -0.0174
 8083W        W10283  13.987   1.562  42.440 -0.1181 -0.0318 -0.2534
 8084W        W10284   2.591   5.321  26.340 -0.2409 -0.0522 -0.1980
 8085W        W10285  17.356   5.423  40.596 -0.0743 -0.0722 -0.1620
 8086W        W10286  20.142   0.064  43.089  0.0510 -0.3246  0.0870
 8087W        W10287   3.483   1.470  34.293 -0.2718 -0.0263 -0.1513
 8088W        W10288  14.303   0.618  17.816 -0.2888  0.0202  0.2875
 8089W        W10289  18.698   0.379   0.540 -0.0802  0.1492 -0.0048
 8090W        W10290  14.905   2.741   9.440  0.0273 -0.0460 -0.2322
 8091W        W10291   6.083   5.312  41.450  0.0527  0.0979  0.0429
 8092W        W10292  17.553   3.327  41.090  0.0417  0.0591  0.0238
 8093W        W10293   6.915   3.743  42.150  0.3847  0.1621  0.0963
 8094W        W10294  16.497   1.724  20.902  0.2543 -0.1272 -0.0340
 8095W        W10295   0.299   2.852  13.204  0.0629 -0.0283 -0.1128
 8096W        W10296   9.417   5.802  17.200 -0.2112  0.0134  0.1953
 8097W        W10297  19.987   5.853  41.124  0.4247 -0.1392 -0.1165
 8098W        W10298   2.213   2.984   3.732  0.1887  0.1114 -0.1857
 8099W        W10299   3.242   2.772  20.354 -0.0057 -0.0854  0.2612
 8100W        W10300   8.552   4.948   4.860 -0.0183 -0.2166  0.0854
 8101W        W10301  17.999   5.636  16.387 -0.0895  0.0086 -0.1273
 8102W        W10302   2.845   0.460  30.720  0.2630  0.2578 -0.0378
 8103W        W10303   4.971   1.301   8.858  0.0492  0.0052  0.1196
 8104W        W10304  14.088   4.139  15.132 -0.2944 -0.0181  0.0040
 8105W        W10305  13.652   6.605   9.612 -0.2091 -0.0591  0.3424
 8106W        W10306   9.492   5.500   3.842  0.3239 -0.0443  0.1538
 8107W        W10307  10.428   5.128  38.983  0.1149  0.0488 -0.0556
 8108W        W10308   9.018   0.559  28.199 -0.3102  0.0174  0.1346
 8109W        W10309   0.320   0.558   2.686 -0.2318 -0.1329 -0.0569
 8110W        W10310  16.596   5.532  38.203  0.3115  0.3619  0.0357
 8111W        W10311   2.969   3.015   7.020  0.1333  0.0963  0.0235
 8112W        W10312   6.867   2.692  13.273 -0.1444  0.0047 -0.0228
 8113W        W10313   2.297   4.909  44.320  0.2713 -0.2369 -0.3198
 8114W        W10314  12.860   1.750  17.700  0.0058  0.0220 -0.3731
 8115W        W10315  20.464   3.868   7.615 -0.0783  0.1542  0.2064
 8116W        W10316  18.958   0.513  40.450  0.1240  0.0528 -0.1494
 8117W        W10317  13.702   0.541  42.852 -0.3284 -0.2383  0.1886
 8118W        W10318  14.922   4.675   2.692 -0.3063  0.1064  0.0669
 8119W        W10319   2.681   3.734  32.369 -0.2748  0.2240  0.1496
 8120W        W10320  15.106   6.464  11.142  0.1991 -0.3531  0.0972
 8121W        W10321   9.433   0.730  28.531 -0.2484 -0.1154  0.0400
 8122W        W10322   7.633   5.064   0.455  0.0307 -0.0281 -0.1924
 8123W        W10323  13.248   0.557  37.966 -0.3144 -0.3133  0.0073
 8124W        W10324  18.076   4.785  38.713  0.0980  0.0744  0.0591
 8125W        W10325  13.127   6.266   7.836  0.1294 -0.0455 -0.1261
 8126W        W10326  12.688   1.640  40.466 -0.1183 -0.2634  0.1366
 8127W        W10327  15.348   4.875  21.877  0.1894 -0.0599  0.0077
 8128W        W10328  20.159   0.642  33.026  0.1855  0.0140  0.1139
 8129W        W10329   7.942   0.034   1.715  0.0639  0.0400 -0.3322
 8130W        W10330   3.936   3.576  35.883  0.0840 -0.0432 -0.1152
 8131W        W10331  10.478   4.050   7.049 -0.4737  0.2324 -0.1097
 8132W        W10332   3.771   6.565  38.073  0.2420  0.1425 -0.2628
 8133W        W10333  15.956   5.989  13.682 -0.4359 -0.0224 -0.1262
 8134W        W10334  12.173   2.034  16.464 -0.1469  0.1859 -0.1092
 8135W        W10335   9.443   3.690   7.734 -0.1233  0.1210  0.0745
 8136W        W10336  18.950   0.750  42.652 -0.2372  0.0235  0.0485
 8137W        W10337  14.156   5.302  29.638  0.1794  0.0682 -0.1911
 8138W        W10338  13.929   5.654  11.868  0.1635  0.0295 -0.0974
 8139W        W10339   2.134   6.282  39.715 -0.0042 -0.1772 -0.0161
 8140W        W10340  20.074   2.725   6.218 -0.0803  0.0748 -0.0469
 8141W        W10341   3.974   0.316  11.929  0.1809  0.1345  0.0028
 8142W        W10342   5.442   3.825  11.097  0.1987  0.0277  0.1646
 8143W        W10343  13.267   2.952  11.578  0.1059 -0.2103 -0.1292
 8144W        W10344  18.139   6.045  12.728  0.1148 -0.0626  0.3261
 8145W        W10345  21.061   2.857  32.215 -0.0242  0.2982  0.2614
 8146W        W10346   7.582   0.109  28.630 -0.0505  0.1078 -0.0774
 8147W        W10347  14.777   5.946   8.466  0.1774 -0.0081 -0.1169
 8148W        W10348   2.255   5.296  35.972  0.0101 -0.2282 -0.0569
 8149W        W10349   8.548   1.532  39.490  0.4374 -0.0020 -0.0928
 8150W        W10350   5.943   1.081  34.505 -0.1592  0.1711  0.0898
 8151W        W10351   4.020   6.485   2.003 -0.0159 -0.2698  0.0689
 8152W        W10352   4.672   1.619   7.056  0.1568 -0.1507 -0.0566
 8153W        W10353  15.708   3.513   2.987  0.0242 -0.1864  0.0147
 8154W        W10354   7.791   0.822   5.138 -0.2092  0.1805  0.2599
 8155W        W10355   5.999   3.443  26.115  0.3318 -0.1824 -0.0011
 8156W        W10356  14.499   5.906  12.406 -0.1037  0.1755 -0.0841
 8157W        W10357  20.644   0.091  31.201 -0.0783 -0.0809  0.2718
 8158W        W10358   8.642   3.021  39.660 -0.0527  0.1434  0.0734
 8159W        W10359  15.519   5.778  35.224 -0.0770 -0.0316 -0.0697
 8160W        W10360  12.581   0.826  36.820 -0.1283 -0.0381  0.1745
 8161W        W10361  10.880   0.836  28.128 -0.1446  0.0813  0.0894
 8162W        W10362  18.285   3.512  34.091  0.1338  0.1837 -0.0140
 8163W        W10363   6.331   3.262  27.071  0.2772 -0.3013 -0.2481
 8164W        W10364   3.627   3.495  26.586  0.0383 -0.2554  0.0191
 8165W        W10365  15.262   1.554  44.228 -0.0659 -0.1688 -0.1501
 8166W        W10366   3.706   6.298  28.328  0.2420  0.0867  0.2008
 8167W        W10367  20.598   1.100  26.573  0.2842  0.0049  0.2633
 8168W        W10368   6.944   5.602  30.480  0.3134 -0.1496 -0.0531
 8169W        W10369   3.776   1.447  43.671 -0.1177 -0.0819 -0.0518
 8170W        W10370  10.804   5.993  16.109  0.0215  0.0473  0.2568
 8171W        W10371  11.127   1.778  12.541  0.2532 -0.0270 -0.4074
 8172W        W10372  17.267   5.992  14.709 -0.0813  0.1826 -0.2780
 8173W        W10373   8.347   0.891  30.707 -0.2389 -0.4017 -0.1836
 8174W        W10374  12.067   6.202   5.610  0.0084  0.0784  0.0530
 8175W        W10375  15.515   2.287  36.233 -0.0778 -0.2352  0.2973
 8176W        W10376  11.188   0.013  16.703  0.1354 -0.0475 -0.0518
 8177W        W10377   1.298   5.716  38.508  0.1161  0.2158  0.0790
 8178W        W10378  19.601   3.052  26.826  0.0488 -0.1941  0.1603
 8179W        W10379  16.405   2.569  12.394  0.0890  0.1217  0.0392
 8180W        W10380  13.210   1.122  16.010  0.2190 -0.2417  0.0226
 8181W        W10381  17.965   0.562  40.619  0.2018 -0.0101  0.1509
 8182W        W10382   0.777   2.893  33.869  0.0754  0.1511 -0.1124
 8183W        W10383   9.018   1.573  26.691 -0.1152 -0.1368  0.2183
 8184W        W10384  15.718   3.678  36.443  0.0723  0.0432  0.1234
 8185W        W10385   8.696   3.631   1.257 -0.2209  0.1824  0.1612
 8186W        W10386   8.210   2.386  33.780  0.2293  0.0862  0.0275
 8187W        W10387  13.585   4.491  44.473  0.1387 -0.0003 -0.0155
 8188W        W10388  15.416   5.581  19.153  0.2090 -0.0369  0.0669
 8189W        W10389   8.530   5.653  42.483 -0.0762  0.1909  0.1898
 8190W        W10390  14.988   1.887   4.890  0.0219 -0.0285 -0.0738
 8191W        W10391  15.364   1.894  10.187 -0.2553 -0.0354  0.1886
 8192W        W10392  12.666   3.651  29.123 -0.0258 -0.2268 -0.0550
 8193W        W10393   1.370   3.982  14.261  0.1517  0.1865 -0.0835
 8194W        W10394   5.040   1.485  10.566  0.0648 -0.0060  0.2759
 8195W        W10395  10.452   1.484  33.226 -0.0555 -0.1007  0.1328
 8196W        W10396  19.565   3.355   5.643 -0.2687 -0.2973 -0.0028
 8197W        W10397   4.479   5.583  10.255 -0.2608  0.2961  0.0189
 8198W        W10398   7.573   4.354  11.376  0.1053  0.2445 -0.2314
 8199W        W10399   6.122   1.519  27.688  0.0816  0.0488 -0.2273
 8200W        W10400  16.372   2.129   2.607  0.1054  0.0712  0.3113
 8201W        W10401   5.102   6.112  28.392  0.0552  0.1180 -0.2235
 8202W        W10402   4.657   0.156  40.434 -0.0162 -0.1395 -0.0899
 8203W        W10403   4.278   2.706  23.082  0.1421  0.2549  0.0129
 8204W        W10404   4.676   2.567  38.603  0.1304  0.0774  0.0559
 8205W        W10405   5.999   1.857  13.643  0.2259 -0.3606  0.3651
 8206W        W10406   3.354   4.147  10.820 -0.0668 -0.1911  0.2135
 8207W        W10407   7.186   3.550  28.273 -0.0970 -0.2685 -0.1608
 8208W        W10408  12.737   5.938  11.592 -0.0355 -0.3324 -0.2606
 8209W        W10409  14.544   3.097  41.743 -0.2216 -0.3418 -0.2266
 8210W        W10410  10.945   4.057   4.244 -0.3019  0.1768  0.0189
 8211W        W10411   1.333   1.718   7.105 -0.1842  0.2773  0.1358
 8212W        W10412  11.812   3.684  19.249 -0.0150 -0.1334  0.0462
 8213W        W10413   4.715   4.295  23.947 -0.1014 -0.1837  0.1319
 8214W        W10414  14.973   0.038   8.150  0.1798  0.0805 -0.0851
 8215W        W10415  20.763   0.704  40.512  0.1771  0.0841 -0.3416
 8216W        W10416   5.715   5.288  23.572  0.2299  0.0520  0.0690
 8217W        W10417  19.710   2.074  29.514 -0.1434 -0.0491 -0.2369
 8218W        W10418   8.388   6.379  12.058  0.0094 -0.0678  0.0671
 8219W        W10419  18.894   4.193  19.405 -0.0361  0.1100  0.0362
 8220W        W10420  18.108   4.666  36.028 -0.1601  0.1394  0.1044
 8221W        W10421   9.484   1.671  29.629 -0.1012 -0.0241  0.1671
 8222W        W10422  11.601   0.696   1.721  0.1027 -0.0464 -0.1398
 8223W        W10423   4.874   0.513  30.152  0.1726  0.1607  0.1559
 8224W        W10424   0.866   5.379  26.938  0.2039 -0.2617  0.0918
 8225W        W10425  11.295   1.623  34.435  0.2042 -0.1115  0.3141
 8226W        W10426  20.078   2.035  33.050 -0.1078 -0.0278 -0.2060
 8227W        W10427  20.297   6.305  10.614  0.0708 -0.1196 -0.0487
 8228W        W10428  11.321   6.128  10.306 -0.0085 -0.0288  0.2141
 8229W        W10429  10.307   4.856  43.517 -0.0051  0.1790  0.3374
 8230W        W10430   0.619   6.218  14.349  0.0734 -0.0746 -0.2786
 8231W        W10431  10.604   0.630  17.822 -0.0635 -0.2334  0.0241
 8232W        W10432  10.286   0.277  15.548 -0.1043  0.5567 -0.0370
 8233W        W10433   0.500   4.781  44.057 -0.0570 -0.4695 -0.2781
 8234W        W10434   6.478   2.432   0.866  0.0828  0.1357 -0.2652
 8235W        W10435   6.672   0.963   4.103 -0.2004  0.0397 -0.1215
 8236W        W10436   7.287   1.899  14.736  0.4042 -0.5839  0.0067
 8237W        W10437  19.912   4.097  30.013 -0.1155 -0.2182  0.0047
 8238W        W10438   5.584   2.784   4.578 -0.0705  0.0930  0.2460
 8239W        W10439  14.446   5.816  14.440  0.2245 -0.2808  0.0363
 8240W        W10440  14.977   1.952  44.174  0.0783 -0.1995 -0.0376
 8241W        W10441   7.149   0.727  12.518 -0.2041  0.1707  0.4403
 8242W        W10442  15.871   1.994  10.136 -0.2621 -0.0103 -0.0302
 8243W        W10443  15.370   3.905  29.359  0.2137  0.0107 -0.1335
 8244W        W10444  19.128   5.908  39.841 -0.2685 -0.1779  0.1930
 8245W        W10445   9.929   0.090  42.695  0.4084  0.0863 -0.2463
 8246W        W10446   1.409   3.450   7.428  0.1116  0.1409 -0.1419
 8247W        W10447   7.850   6.228  31.566  0.0088  0.1839 -0.0372
 8248W        W10448  13.674   2.147  33.071  0.1234 -0.0224  0.0317
 8249W        W10449  10.983   1.616  38.918 -0.0261  0.1112 -0.3182
 8250W        W10450   6.150   5.037  42.475  0.0591  0.0038  0.2273
 8251W        W10451  13.807   5.618  10.441 -0.0668 -0.1544  0.2143
 8252W        W10452   0.688   3.082  27.335 -0.0247  0.3220  0.1008
 8253W        W10453  10.673   0.953   5.603  0.0644 -0.1312 -0.0049
 8254W        W10454  20.559   1.259  14.455  0.1570 -0.1597 -0.0729
 8255W        W10455   0.339   2.336   5.132 -0.2118  0.0768  0.0940
 8256W        W10456   6.289   5.890  40.721  0.3879  0.0454 -0.1109
 8257W        W10457  11.337   5.617  31.503  0.1189  0.0037  0.2721
 8258W        W10458   0.789   2.031  36.285 -0.0048 -0.4386  0.0652
 8259W        W10459  15.587   6.072  43.546 -0.0793  0.1919 -0.2090
 8260W        W10460  15.528   2.295  22.482  0.1637  0.1529 -0.2456
 8261W        W10461   2.684   1.430  34.638  0.0737 -0.1841  0.4247
 8262W        W10462   4.845   5.039  42.001 -0.0415  0.4192  0.2445
 8263W        W10463   1.957   4.113  28.157 -0.0627 -0.1323  0.1709
 8264W        W10464  20.590   2.452   9.065  0.0976  0.0184 -0.3514
 8265W        W10465   3.749   5.991  12.662 -0.1860  0.0438 -0.1638
 8266W        W10466   2.451   5.021  42.871  0.2458  0.1625 -0.2175
 8267W        W10467  19.839   4.350  27.249 -0.4564 -0.1641 -0.0301
 8268W        W10468   5.330   2.703  11.971 -0.1271  0.1183 -0.1289
 8269W        W10469  18.992   5.687   1.960  0.1540 -0.0022  0.2880
 8270W        W10470   0.381   3.805   4.792  0.1200  0.0346 -0.0621
 8271W        W10471   6.087   0.049   4.137 -0.1540 -0.0373 -0.1412
 8272W        W10472   0.060   0.528  10.633  0.2634  0.1065 -0.0224
 8273W        W10473  13.492   4.759  42.950  0.2969 -0.1125 -0.2558
 8274W        W10474  17.253   5.335   3.878 -0.1003  0.0116  0.0064
 8275W        W10475   1.821   1.562  31.249  0.2507  0.2236 -0.2100
 8276W        W10476  11.667   3.938  10.836 -0.0383  0.1220  0.0514
 8277W        W10477  15.994   2.764  37.279  0.2842  0.2229  0.0318
 8278W        W10478  17.715   1.677   4.455 -0.3384  0.0792 -0.0924
 8279W        W10479  11.164   5.374  29.277  0.2701 -0.2689  0.1819
 8280W        W10480  11.353   0.283   1.548  0.1224 -0.2592  0.2457
 8281W        W10481  15.524   0.266  40.784  0.0542 -0.2481 -0.1491
 8282W        W10482  10.762   6.420   7.193 -0.1430  0.0505  0.3287
 8283W        W10483  11.832   1.720  40.263 -0.0901  0.1822  0.0695
 8284W        W10484  16.718   3.685   1.338 -0.0653 -0.2588  0.0304
 8285W        W10485  12.618   2.235   0.897  0.0003  0.0976 -0.1631
 8286W        W10486  14.929   6.085  12.045 -0.0595 -0.0194 -0.0107
 8287W        W10487   2.847   3.079  22.400 -0.1622 -0.0211 -0.0488
 8288W        W10488  19.436   2.154  28.192  0.0399  0.1207 -0.0134
 8289W        W10489  11.201   5.089  10.138  0.3134  0.0880 -0.0670
 8290W        W10490   2.030   1.828  34.516  0.0479 -0.2283 -0.1160
 8291W        W10491   3.973   0.187  11.453  0.0345  0.1952 -0.0263
 8292W        W10492   0.512   3.489  24.761  0.0712 -0.0093 -0.1522
 8293W        W10493   8.082   6.419   8.381 -0.3589  0.2397 -0.2195
 8294W        W10494  15.393   1.835  33.893 -0.0247  0.1111  0.2023
 8295W        W10495  16.721   2.163   9.427 -0.2309  0.0884 -0.0976
 8296W        W10496   1.148   5.310  36.798  0.0344 -0.0965  0.0876
 8297W        W10497  20.489   1.269  33.623 -0.0208 -0.0164 -0.1417
 8298W        W10498  18.337   0.830  33.875 -0.1902 -0.1903  0.0628
 8299W        W10499  13.677   5.104  31.755 -0.1226  0.0775  0.1690
 8300W        W10500   0.254   5.123  41.498  0.0462  0.4527  0.1395
 8301W        W10501   1.096   0.879   0.632  0.2400  0.0099 -0.0089
 8302W        W10502  12.706   5.802   1.820  0.0752  0.1530 -0.1015
 8303W        W10503   7.790   2.132   1.975  0.0190 -0.3095 -0.1220
 8304W        W10504  13.671   2.902   0.200 -0.0506  0.2998 -0.0051
 8305W        W10505  16.475   5.963   8.057  0.0763 -0.3983 -0.0584
 8306W        W10506   8.286   0.874  30.210  0.5001  0.0408  0.0826
 8307W        W10507  15.067   2.832  12.150  0.0578  0.0409  0.0620
 8308W        W10508  18.773   3.591   7.339 -0.2394  0.0821 -0.0969
 8309W        W10509  13.474   2.718  12.008 -0.0525  0.3974 -0.4358
 8310W        W10510   9.921   2.761   9.124  0.1106 -0.0859  0.0008
 8311W        W10511  16.857   5.230   6.915 -0.2519  0.2766  0.4301
 8312W        W10512  14.275   2.709  38.230 -0.0323  0.1081 -0.0419
 8313W        W10513   7.281   5.864  12.008  0.2954 -0.1064  0.2933
 8314W        W10514  15.977   1.761   2.403 -0.0229  0.0385  0.1234
 8315W        W10515   1.485   0.577   9.591 -0.0459  0.2319 -0.0365
 8316W        W10516  16.418   3.001  15.739 -0.1484 -0.0915  0.0025
 8317W        W10517  15.687   5.555  16.544 -0.0482  0.1002  0.1752
 8318W        W10518   9.328   0.132  38.230 -0.1038  0.0635  0.1008
 8319W        W10519   2.269   3.394  43.825  0.4431  0.0982 -0.0097
 8320W        W10520   0.786   1.819   5.934 -0.0495 -0.0478 -0.1845
 8321W        W10521  10.402   5.809  44.439  0.0528 -0.0044 -0.1777
 8322W        W10522   4.002   4.481  30.564 -0.0676  0.1465 -0.2045
 8323W        W10523   0.798   5.568  39.903  0.1096  0.2882 -0.3947
 8324W        W10524  11.414   0.415   5.879  0.1464  0.0548  0.0102
 8325W        W10525  19.487   0.063  30.681 -0.0405  0.1178 -0.0692
 8326W        W10526  19.841   6.093  37.692 -0.0518 -0.0710 -0.2502
 8327W        W10527  18.809   3.470  33.163  0.0843 -0.2393 -0.2893
 8328W        W10528  12.395   2.946  33.878  0.2966  0.0930 -0.2254
 8329W        W10529  20.090   4.626   6.769 -0.1253  0.0397 -0.0479
 8330W        W10530  19.580   0.677  44.894 -0.0553  0.0677  0.4410
 8331W        W10531   9.371   6.475   5.831 -0.2874  0.0904  0.0875
 8332W        W10532   4.177   3.410  32.244 -0.0874 -0.0869 -0.1170
 8333W        W10533   5.370   5.832  28.780 -0.3240 -0.0644 -0.2033
 8334W        W10534   0.603   6.422   2.208 -0.0866 -0.0712  0.1342
 8335W        W10535   6.741   0.857  35.754  0.0871 -0.2235  0.1907
 8336W        W10536   1.653   4.936  35.409 -0.0190  0.1215  0.1788
 8337W        W10537  10.442   1.799   6.391 -0.0122 -0.1263  0.1138
 8338W        W10538   0.874   6.487  27.858  0.1371 -0.0216 -0.2584
 8339W        W10539   8.089   4.365  41.871 -0.1800  0.1951  0.0083
 8340W        W10540   4.720   0.626   3.939  0.1959  0.0952  0.1091
 8341W        W10541   7.664   6.141  16.905  0.2712 -0.0240  0.1449
 8342W        W10542  11.875   5.493   1.127 -0.0172 -0.1610  0.0740
 8343W        W10543  19.195   1.443  34.856  0.0358 -0.3397 -0.1402
 8344W        W10544   0.260   2.257  15.623  0.1459 -0.0016  0.1326
 8345W        W10545  10.688   1.562  41.057  0.1060  0.2727  0.1229
 8346W        W10546   6.106   5.365  12.749  0.2835 -0.2659  0.0379
 8347W        W10547  12.613   1.277  39.891  0.1679  0.0823  0.0247
 8348W        W10548   3.440   1.927   4.859  0.1539  0.1731  0.0914
 8349W        W10549   0.760   2.722  41.530 -0.0140 -0.0547  0.2544
 8350W        W10550  17.335   3.915   9.460  0.2827  0.3045 -0.0240
 8351W        W10551  16.500   5.857  16.702  0.2769  0.1285  0.0432
 8352W        W10552  19.853   4.469  36.043 -0.1223 -0.1675  0.1086
 8353W        W10553  18.885   1.531  14.340 -0.3313 -0.1451 -0.3704
 8354W        W10554   7.137   0.657  39.628  0.4629 -0.2675 -0.1326
 8355W        W10555  12.399   1.156   3.056  0.0442 -0.0070  0.0960
 8356W        W10556  12.338   5.252  34.918  0.0795  0.1304 -0.3046
 8357W        W10557  21.061   1.357  40.992 -0.1170 -0.1010  0.2272
 8358W        W10558  18.663   6.345   1.637 -0.0794  0.0904 -0.1019
 8359W        W10559  14.599   3.359  32.797 -0.0481 -0.1639 -0.1633
 8360W        W10560  19.721   3.208  41.304  0.0945  0.0945 -0.2236
 8361W        W10561  10.632   4.638  19.567 -0.1250 -0.1438 -0.4225
 8362W        W10562  10.353   3.645  11.205 -0.0590 -0.1760 -0.0256
 8363W        W10563   5.030   6.512   7.738  0.1818 -0.3458  0.1458
 8364W        W10564  15.480   1.521  22.009 -0.2619  0.1218 -0.4665
 8365W        W10565   1.533   0.682  10.594 -0.0521  0.3202 -0.2775
 8366W        W10566  18.655   0.722  34.284 -0.0529  0.0414 -0.1767
 8367W        W10567  17.064   2.071  35.997  0.0186 -0.0202  0.2043
 8368W        W10568  14.669   6.382   6.489 -0.1898  0.0655  0.2699
 8369W        W10569   9.988   5.596  42.009 -0.0338 -0.2297 -0.0414
 8370W        W10570   7.735   1.915  40.841  0.4362  0.1411  0.1159
 8371W        W10571   3.515   5.171  27.349 -0.1244 -0.2968  0.0020
 8372W        W10572  16.389   1.930  10.168 -0.2249 -0.0664  0.0943
 8373W        W10573  17.819   0.691  44.290  0.0715  0.0134  0.0725
 8374W        W10574  14.223   4.094  12.918 -0.2676  0.0755  0.3120
 8375W        W10575   4.169   0.280  13.640 -0.1666  0.1751 -0.0553
 8376W        W10576   0.140   0.689   0.566 -0.2425  0.0330 -0.0396
 8377W        W10577   8.189   2.326  31.978 -0.2420 -0.3501 -0.0386
 8378W        W10578  17.710   5.709  13.116 -0.2700  0.1061 -0.2290
 8379W        W10579  13.224   4.347  38.643 -0.2146  0.1771 -0.1109
 8380W        W10580   5.514   5.337  25.948  0.1081  0.2621 -0.1212
 8381W        W10581  15.131   4.003  32.187  0.2457 -0.1901  0.0731
 8382W        W10582  15.919   0.047   9.777  0.1397 -0.2384  0.1996
 8383W        W10583   7.670   0.754  42.000 -0.3049 -0.1701 -0.0491
 8384W        W10584   0.111   3.801   7.872  0.1409  0.3555  0.1666
 8385W        W10585   2.635   3.392  38.404  0.1643  0.1681 -0.0836
 8386W        W10586  12.057   2.582  43.241  0.2576  0.1959 -0.2895
 8387W        W10587   8.756   5.881   1.429  0.2921 -0.1528  0.1372
 8388W        W10588  15.679   2.902  10.129  0.0432  0.1962  0.0318
 8389W        W10589  11.613   3.353   9.136 -0.2154 -0.2155  0.0934
 8390W        W10590   8.059   6.108   7.852 -0.0774  0.2361 -0.1423
 8391W        W10591   2.292   2.469   7.383 -0.1446 -0.0405 -0.2057
 8392W        W10592  16.724   5.167  11.091 -0.2969 -0.0034  0.0477
 8393W        W10593  15.136   0.610  44.635 -0.1061  0.3433  0.1271
 8394W        W10594   0.036   0.140  40.657  0.0808  0.3059  0.1776
 8395W        W10595   1.761   4.865  40.097  0.0460  0.1249  0.0226
 8396W        W10596  14.198   5.406   7.697 -0.2012 -0.3976 -0.2932
 8397W        W10597   6.778   3.580   8.888 -0.1292  0.1300 -0.2526
 8398W        W10598  12.504   5.183  36.689 -0.3187  0.0720 -0.1651
 8399W        W10599   7.562   5.062  35.258 -0.1702 -0.1529 -0.0550
 8400W        W10600  13.380   5.146  38.922  0.0265  0.0049 -0.0048
 8401W        W10601   2.713   1.315   9.636  0.3441  0.1729  0.0486
 8402W        W10602  10.018   6.152  32.549  0.0604 -0.0192 -0.2165
 8403W        W10603   1.425   3.315   4.930  0.1559 -0.0035  0.0042
 8404W        W10604   7.220   6.386   9.175  0.0418 -0.0770 -0.0968
 8405W        W10605  20.238   5.369  10.178  0.0112  0.1215 -0.1309
 8406W        W10606   3.943   0.815  13.535  0.1510 -0.2747  0.0701
 8407W        W10607  14.085   0.048  24.525 -0.3860  0.1688 -0.1630
 8408W        W10608  19.684   1.805   1.276  0.3522 -0.2810 -0.1395
 8409W        W10609   4.891   5.242   1.102  0.1152  0.0983 -0.0850
 8410W        W10610   3.356   2.340   1.453 -0.2719 -0.0686 -0.1211
 8411W        W10611  11.927   1.829  14.462  0.1493  0.0854 -0.2811
 8412W        W10612   9.189   2.834   1.518 -0.1547  0.2116 -0.0625
 8413W        W10613   8.471   3.634  40.985 -0.1454  0.1131 -0.2571
 8414W        W10614  14.083   1.398  11.877  0.0934  0.1121 -0.2685
 8415W        W10615   4.475   4.726   0.288  0.0871  0.1261  0.0637
 8416W        W10616   4.256   3.310  32.822  0.2481  0.0018 -0.4143
 8417W        W10617   1.565   5.776  42.648  0.1535 -0.1012  0.2451
 8418W        W10618   9.764   5.551  38.956  0.1730  0.1577  0.1006
 8419W        W10619  12.984   3.441  10.391 -0.2139 -0.1149  0.0629
 8420W        W10620   0.777   1.643   7.900  0.1663 -0.0680 -0.1451
 8421W        W10621   3.018   0.329  28.279 -0.1182 -0.0280  0.4410
 8422W        W10622   5.933   4.505   9.999 -0.1918  0.0006 -0.1806
 8423W        W10623   8.952   1.130  14.028 -0.3213  0.0234  0.1416
 8424W        W10624   1.178   3.849  10.621  0.3882  0.1212  0.1482
 8425W        W10625  14.753   0.648  18.097  0.1439 -0.0198 -0.4319
 8426W        W10626   1.035   1.373  22.961 -0.0990 -0.2232  0.0632
 8427W        W10627  12.341   4.706  37.322  0.1252  0.0730  0.0582
 8428W        W10628  11.302   4.184  38.698 -0.0148  0.0561 -0.1613
 8429W        W10629  15.944   5.658   0.171 -0.2166  0.1485 -0.1198
 8430W        W10630  14.834   5.569  30.251  0.0034 -0.0652 -0.0623
 8431W        W10631   0.548   5.549  34.867 -0.2704  0.0067 -0.0534
 8432W        W10632   4.274   3.536   7.828 -0.0623 -0.0348 -0.0303
 8433W        W10633   6.890   4.885  30.945 -0.0707  0.1976  0.4292
 8434W        W10634  12.692   3.497  33.228 -0.2676  0.2925  0.3251
 8435W        W10635  10.073   3.812  38.351 -0.0403  0.3497 -0.1879
 8436W        W10636  16.700   4.831  38.741  0.3849 -0.3674  0.0648
 8437W        W10637   6.759   6.597   3.065 -0.0685  0.2854  0.1574
 8438W        W10638  18.802   3.050   0.462  0.1921 -0.2341 -0.0606
 8439W        W10639   9.033   5.601  33.055  0.1207 -0.1696  0.0441
 8440W        W10640  14.248   5.350  21.224 -0.0502 -0.2449 -0.4351
 8441W        W10641   2.598   2.988   6.605 -0.0037 -0.0722 -0.2752
 8442W        W10642  14.420   0.079  18.401 -0.3574 -0.1122  0.0303
 8443W        W10643   7.524   2.935  34.411 -0.2834 -0.1107 -0.0937
 8444W        W10644  20.804   4.506  42.563 -0.1511  0.0956  0.1553
 8445W        W10645   4.126   3.896  24.722 -0.2332 -0.2101  0.1714
 8446W        W10646   8.244   4.999   8.650 -0.1759  0.0042  0.3885
 8447W        W10647  10.611   3.259  18.046  0.0575 -0.1251  0.0824
 8448W        W10648  14.101   2.936  41.954  0.0061  0.1270  0.0063
 8449W        W10649  18.125   1.710   2.829  0.0588  0.0967  0.0072
 8450W        W10650   6.324   2.944  30.447  0.0112 -0.1262 -0.0158
 8451W        W10651   1.921   5.058  13.374  0.0810  0.2027  0.1511
 8452W        W10652   7.729   1.493   8.483 -0.0205 -0.2231 -0.4254
 8453W        W10653  11.031   0.578   6.902 -0.0361  0.2191 -0.0310
 8454W        W10654  20.536   0.007  30.571 -0.0720  0.1876  0.0851
 8455W        W10655   4.982   0.267  26.697  0.1395  0.0069  0.0782
 8456W        W10656  18.260   1.508  41.320 -0.0717 -0.0382  0.1580
 8457W        W10657  16.124   3.305  22.221  0.0673  0.0880  0.0086
 8458W        W10658  20.280   1.646   1.491  0.2569 -0.0885  0.2695
 8459W        W10659   6.477   1.832   6.165  0.0479  0.2793  0.0270
 8460W        W10660  11.074   0.599  28.602  0.0898  0.0888  0.3008
 8461W        W10661  14.326   4.706  13.473  0.1664 -0.0290 -0.2212
 8462W        W10662   2.113   2.599   0.281 -0.1247  0.2723  0.3519
 8463W        W10663   7.010   4.761  40.135 -0.0255 -0.2893 -0.3693
 8464W        W10664  18.290   3.452  13.235  0.1687  0.2446  0.0013
 8465W        W10665  13.738   5.163   9.166  0.2660 -0.2176 -0.1462
 8466W        W10666   2.344   4.703  13.287 -0.1651 -0.0103  0.1438
 8467W        W10667  10.373   0.094  16.456  0.0544 -0.1517  0.3507
 8468W        W10668   0.757   2.053  24.904  0.0304 -0.1981 -0.2345
 8469W        W10669  17.630   6.379   6.063 -0.0091 -0.1488  0.0871
 8470W        W10670  17.341   1.012  17.966  0.1432  0.1694 -0.0380
 8471W        W10671   9.451   5.823  15.749  0.1832  0.4398  0.2268
 8472W        W10672  11.635   5.100  18.158  0.2418 -0.0488 -0.1663
 8473W        W10673  11.924   4.959  10.138 -0.0929  0.0382 -0.1098
 8474W        W10674   8.561   2.432   5.590  0.1056 -0.0839  0.2840
 8475W        W10675   6.157   2.910   8.955 -0.1400 -0.1239  0.1885
 8476W        W10676  11.541   1.566   7.216 -0.3047 -0.1423  0.1605
 8477W        W10677  20.751   1.732   7.242 -0.0302  0.2618  0.2394
 8478W        W10678  20.412   2.683  38.813 -0.0285  0.0796  0.0488
 8479W        W10679  17.326   3.170  29.892  0.1227 -0.0362 -0.0651
 8480W        W10680  20.663   5.607   8.087  0.0766  0.1543 -0.2386
 8481W        W10681   4.523   1.959   7.384 -0.1292 -0.1084  0.0984
 8482W        W10682  15.165   6.307  44.365 -0.1648  0.0956  0.1094
 8483W        W10683  20.221   0.869  26.243 -0.2098  0.2407  0.0948
 8484W        W10684  10.976   2.126  33.340 -0.0355 -0.1868  0.0735
 8485W        W10685   7.273   1.487   5.998  0.1085  0.0530 -0.0619
 8486W        W10686  11.785   1.564  37.692 -0.2791  0.0826 -0.3523
 8487W        W10687   4.719   0.193  41.384 -0.3126 -0.3078  0.0824
 8488W        W10688  20.333   3.098   1.442  0.0292  0.0369  0.2768
 8489W        W10689  11.060   1.772  39.766 -0.0581 -0.2630  0.0736
 8490W        W10690  14.038   4.636   0.606 -0.0416  0.3859  0.0153
 8491W        W10691  13.310   0.335   8.341  0.1090 -0.1217 -0.0409
 8492W        W10692  19.830   1.371   5.250 -0.1182 -0.0446  0.1470
 8493W        W10693  18.036   5.397   7.439  0.1153 -0.2762 -0.0297
 8494W        W10694  19.358   0.422  34.218 -0.1800  0.0502  0.2719
 8495W        W10695   5.551   1.654  13.375  0.0729 -0.0433 -0.0985
 8496W        W10696  11.312   4.077   7.432 -0.4380 -0.2053  0.1342
 8497W        W10697   4.540   6.485  40.958 -0.1497  0.1363  0.3474
 8498W        W10698   7.494   4.911  10.590 -0.2040  0.4305  0.0355
 8499W        W10699  14.636   0.295  42.466 -0.2588  0.0188 -0.2034
 8500W        W10700  14.353   2.296   5.634  0.1692 -0.1926  0.0862
 8501W        W10701  20.594   1.923  36.515  0.1678 -0.1573 -0.2528
 8502W        W10702   0.684   1.148  28.531  0.1234 -0.2569  0.0834
 8503W        W10703   2.854   0.108  39.480 -0.1182 -0.1360  0.0773
 8504W        W10704  18.975   4.344  43.040  0.0611  0.0788 -0.2162
 8505W        W10705   3.401   3.105  34.880 -0.0195 -0.2209 -0.1728
 8506W        W10706  19.980   2.917  16.603  0.2909  0.1746  0.1614
 8507W        W10707  15.104   5.651   4.768 -0.0354 -0.1113 -0.1447
 8508W        W10708   3.167   5.747  36.249  0.0269 -0.1089 -0.0454
 8509W        W10709   8.690   2.172  26.437 -0.1866 -0.0630  0.2535
 8510W        W10710   2.513   5.112  31.157  0.0696 -0.0663 -0.3951
 8511W        W10711   3.288   0.068  35.034  0.2162  0.2539 -0.0823
 8512W        W10712   3.887   5.220  38.293 -0.1030 -0.1203 -0.1599
 8513W        W10713  17.740   6.570  18.012  0.0892 -0.2025  0.0351
 8514W        W10714  18.298   2.787   4.900 -0.1015  0.0529 -0.0836
 8515W        W10715   3.244   0.153  10.157 -0.4494 -0.1713  0.1881
 8516W        W10716   6.288   3.076  42.616 -0.0687 -0.1167  0.1791
 8517W        W10717  15.438   5.893  35.985  0.0845 -0.3810 -0.0176
 8518W        W10718  10.583   1.306  41.456 -0.1073  0.1804 -0.2545
 8519W        W10719  12.590   2.941  36.086 -0.0617 -0.0091  0.0903
 8520W        W10720  13.991   2.954   9.677 -0.0069  0.1511 -0.0383
 8521W        W10721   1.254   3.105  33.793  0.1604  0.0662 -0.1275
 8522W        W10722  17.154   0.903  14.718 -0.0121  0.2078  0.0192
 8523W        W10723   3.296   6.189  43.199  0.0384  0.0697 -0.1388
 8524W        W10724  12.988   5.266  30.639 -0.1251  0.1835  0.0202
 8525W        W10725   5.112   3.535  12.146  0.3100 -0.0450 -0.0905
 8526W        W10726  13.851   1.626  44.121  0.0137 -0.0702 -0.0285
 8527W        W10727   6.980   3.205  43.922  0.4028 -0.2344  0.0504
 8528W        W10728  12.226   3.510   3.696 -0.1383  0.0059 -0.0729
 8529W        W10729  13.730   6.415  38.245 -0.1289 -0.0093  0.0880
 8530W        W10730   5.153   6.195  33.005 -0.2537 -0.1021  0.2281
 8531W        W10731  11.262   3.703   6.909 -0.0428  0.1143 -0.0153
 8532W        W10732   6.044   2.590  39.522 -0.1704 -0.0637  0.2828
 8533W        W10733  16.597   3.665   7.709 -0.0633  0.2597  0.3027
 8534W        W10734  19.074   1.791  29.974  0.0849  0.1923 -0.1930
 8535W        W10735   2.202   4.923  12.672  0.2800  0.0092 -0.0039
 8536W        W10736  16.818   1.288  38.443 -0.1824 -0.0526 -0.1251
 8537W        W10737   3.417   1.548  10.338  0.2144  0.2243 -0.2100
 8538W        W10738  16.415   0.792  40.851  0.0562 -0.1029  0.0342
 8539W        W10739  19.898   0.799  42.277 -0.1305 -0.3657 -0.0658
 8540W        W10740   8.898   2.478  39.797 -0.2344 -0.0547 -0.0537
 8541W        W10741   4.896   0.633  28.966 -0.0828 -0.0384 -0.2737
 8542W        W10742   3.274   3.867   6.628 -0.1374 -0.0691  0.0539
 8543W        W10743  17.708   2.234  20.887 -0.0004 -0.2687  0.2724
 8544W        W10744  16.936   0.181  29.448  0.0189  0.2109 -0.2609
 8545W        W10745  19.114   6.072   5.205  0.1263 -0.2713 -0.0153
 8546W        W10746  17.997   2.881  38.597  0.0273 -0.3576 -0.0012
 8547W        W10747  10.840   1.027  15.113 -0.0637  0.1114 -0.2906
 8548W        W10748   3.446   1.173  14.785 -0.5169  0.0103  0.1740
 8549W        W10749  15.122   1.701  39.636  0.1273 -0.0676  0.0197
 8550W        W10750  15.332   5.159   6.163 -0.2430 -0.0360  0.0081
 8551W        W10751  21.112   6.360  25.430 -0.4178 -0.5012  0.1495
 8552W        W10752  10.847   0.163  18.014 -0.1673  0.2173  0.0415
 8553W        W10753  17.823   0.920  15.307 -0.1374 -0.2890 -0.2142
 8554W        W10754  20.160   4.830  38.380  0.0088 -0.2917 -0.1346
 8555W        W10755  10.500   1.893  28.965  0.1116  0.2358 -0.1768
 8556W        W10756  19.447   2.385  18.363  0.0009 -0.0890  0.1666
 8557W        W10757  19.812   0.561  35.803  0.0213  0.0846 -0.1882
 8558W        W10758   0.937   1.122   0.209 -0.1291  0.0632  0.1069
 8559W        W10759  17.517   0.958  11.431 -0.1772  0.2197 -0.1385
 8560W        W10760   6.514   5.234  14.592 -0.2390 -0.1112  0.1177
 8561W        W10761  12.524   2.385  34.741 -0.2231 -0.0697 -0.1194
 8562W        W10762   2.671   2.212   0.030 -0.0979  0.2112  0.3379
 8563W        W10763   4.663   0.147   6.314 -0.1469 -0.1216  0.1515
 8564W        W10764   1.618   2.842   8.670 -0.0824  0.0594 -0.3911
 8565W        W10765   4.669   0.953   0.488 -0.3589  0.0711 -0.0069
 8566W        W10766   4.167   1.981   3.679 -0.1074  0.0305 -0.1314
 8567W        W10767   7.848   6.529  30.634 -0.0773  0.0046 -0.0677
 8568W        W10768  17.993   0.220   4.999 -0.0791 -0.0283 -0.0870
 8569W        W10769   0.225   4.593   7.960  0.0935  0.4207  0.1513
 8570W        W10770   8.101   5.270   9.462  0.2738 -0.3544  0.1421
 8571W        W10771  15.114   5.951  14.776 -0.0894 -0.0255  0.1903
 8572W        W10772   4.474   3.162  41.295  0.1095 -0.1256 -0.2515
 8573W        W10773  11.897   4.086  40.329  0.0631 -0.1715 -0.3625
 8574W        W10774   6.675   5.622  28.209 -0.3513  0.1987 -0.0451
 8575W        W10775  20.424   6.143  41.189 -0.2455  0.1549 -0.1347
 8576W        W10776  11.347   5.623   9.475  0.0243 -0.1121  0.1213
 8577W        W10777   4.274   3.069  29.592 -0.0817 -0.1693  0.3150
 8578W        W10778   6.623   0.497  14.955 -0.0952  0.5432  0.0936
 8579W        W10779  14.224   1.186  38.815 -0.0613 -0.0162  0.0543
 8580W        W10780  15.579   2.079  31.360 -0.0153 -0.3318 -0.0706
 8581W        W10781  16.398   0.357  16.896 -0.0564  0.0056  0.0849
 8582W        W10782   5.729   6.406  40.335  0.0644  0.1810  0.0932
 8583W        W10783  16.846   4.514  16.709 -0.1348 -0.1191  0.2959
 8584W        W10784   3.413   2.689  12.004  0.1022  0.0693 -0.0440
 8585W        W10785   1.926   1.712  24.067 -0.2466 -0.0456 -0.1382
 8586W        W10786   3.962   0.784  30.703 -0.1409  0.0886  0.0120
 8587W        W10787  11.520   6.083  15.296  0.1291 -0.1740 -0.3840
 8588W        W10788   2.046   4.355   2.012  0.1493  0.1407 -0.2066
 8589W        W10789   3.553   5.956   4.039  0.0816 -0.1721  0.1136
 8590W        W10790   6.000   5.402   9.708 -0.3726 -0.2626  0.2823
 8591W        W10791  12.267   2.705  22.456  0.2185  0.0333  0.0119
 8592W        W10792  17.894   4.373   0.700 -0.2161 -0.1510  0.4095
 8593W        W10793  18.861   5.518  13.983  0.1233 -0.1442 -0.1960
 8594W        W10794  11.245   0.600  34.066 -0.0345 -0.2891 -0.1393
 8595W        W10795  14.040   3.979  41.637 -0.1763  0.0967  0.0995
 8596W        W10796  18.400   4.800  44.577  0.2665  0.1468  0.0510
 8597W        W10797  17.250   0.855   5.509 -0.1173 -0.3682 -0.1293
 8598W        W10798  10.767   2.699  37.885 -0.0585  0.2462  0.0408
 8599W        W10799  12.842   0.823  23.290  0.0483 -0.0894 -0.2163
 8600W        W10800  20.779   2.123  45.039  0.0247  0.0863  0.2892
 8601W        W10801   8.545   5.130  30.935 -0.0171  0.0723 -0.1250
 8602W        W10802   8.665   3.943  35.800  0.0175 -0.2420 -0.0863
 8603W        W10803   2.260   0.372  11.012  0.0982 -0.0413  0.1496
 8604W        W10804  18.189   5.256  36.577  0.3193 -0.1127 -0.2242
 8605W        W10805  14.735   0.324   5.386 -0.0308  0.0918  0.1444
 8606W        W10806   0.081   2.124   4.724 -0.0414 -0.2950  0.0754
 8607W        W10807   2.129   4.140  43.272  0.0391 -0.0120  0.0089
 8608W        W10808  15.724   5.241  23.108  0.0048 -0.1320 -0.0428
 8609W        W10809  10.567   3.738  42.695 -0.1438  0.0282  0.0131
 8610W        W10810   8.030   2.692  43.926  0.1027 -0.1196 -0.3543
 8611W        W10811   1.484   4.632  24.988  0.0905  0.2258  0.0694
 8612W        W10812  14.842   3.905  16.737 -0.3370 -0.4070  0.3049
 8613W        W10813  11.004   0.634  10.698 -0.0417 -0.1935 -0.0654
 8614W        W10814  16.570   5.934  41.174 -0.0876  0.1364  0.2392
 8615W        W10815  20.054   5.736   2.238 -0.0429 -0.0249  0.1472
 8616W        W10816   2.630   0.946  38.386  0.1127 -0.3890  0.3880
 8617W        W10817   4.205   3.442  10.297  0.1408 -0.0272  0.0683
 8618W        W10818  17.390   4.893  13.151 -0.0775  0.0817  0.5664
 8619W        W10819   7.607   2.892   9.859 -0.2693 -0.2222  0.1993
 8620W        W10820   6.482   0.184  13.632 -0.1200 -0.0841  0.0999
 8621W        W10821   1.900   2.321  22.756  0.1363 -0.3430 -0.1369
 8622W        W10822  17.089   5.229  32.544 -0.0867 -0.1610 -0.0379
 8623W        W10823   9.947   0.402  16.517  0.0411  0.2068  0.1418
 8624W        W10824  17.102   0.474  40.851 -0.1666  0.1631  0.2736
 8625W        W10825  11.598   4.086  18.049  0.0710 -0.3513  0.2039
 8626W        W10826   3.004   4.663  35.632  0.1318 -0.5208 -0.2113
 8627W        W10827   9.051   5.953   0.004 -0.1491  0.0406  0.0245
 8628W        W10828   3.897   3.144  14.983 -0.0639 -0.0891  0.2237
 8629W        W10829   0.956   4.823   9.684  0.0181  0.1295 -0.0581
 8630W        W10830  16.658   0.697   2.809 -0.0110 -0.0044 -0.0217
 8631W        W10831  14.715   4.152   3.714 -0.0971  0.0188 -0.0795
 8632W        W10832  20.467   0.827  39.907  0.0992  0.0940  0.2008
 8633W        W10833   0.604   5.373   7.285  0.0215 -0.1286  0.1562
 8634W        W10834   6.230   5.272  38.306 -0.0806 -0.0446  0.0129
 8635W        W10835   3.070   3.372   4.241  0.0644 -0.0561  0.0313
 8636W        W10836  20.192   5.005  28.063  0.2676  0.2284 -0.1332
 8637W        W10837  18.393   3.384  41.117 -0.1965  0.1807  0.1280
 8638W        W10838   8.933   2.852  44.241  0.2833  0.0774 -0.2829
 8639W        W10839   9.781   2.462  30.487  0.0452 -0.1855  0.1073
 8640W        W10840  15.788   2.137  14.875  0.0229 -0.1282 -0.0555
 8641W        W10841  19.679   5.766  42.288  0.0005  0.0286 -0.0528
 8642W        W10842  10.735   0.708  19.200  0.1802 -0.4769  0.0085
 8643W        W10843  16.396   3.911  36.998 -0.0726 -0.2033 -0.0020
 8644W        W10844   9.383   6.363   1.825  0.1230  0.1195  0.1123
 8645W        W10845  20.797   5.145  39.524  0.2030  0.0190 -0.1645
 8646W        W10846   7.941   3.741  39.056 -0.0991  0.1185  0.1091
 8647W        W10847   5.366   0.189  13.566 -0.1464  0.0567  0.1316
 8648W        W10848   3.775   5.436  24.538  0.0122 -0.1939  0.0798
 8649W        W10849  16.109   6.283  39.798 -0.0377 -0.1802 -0.0506
 8650W        W10850  17.624   5.708  10.953 -0.0622 -0.2203 -0.1470
 8651W        W10851   4.664   2.698  21.976 -0.1302 -0.2842 -0.2348
 8652W        W10852   3.639   6.030  37.655  0.0086 -0.2172  0.1009
 8653W        W10853   6.318   3.350  39.855  0.1146 -0.1685 -0.3814
 8654W        W10854   8.183   3.475  32.301  0.0097  0.0120  0.1049
 8655W        W10855   0.055   5.307  10.460 -0.3232 -0.1590 -0.2935
 8656W        W10856   0.402   3.637   0.480 -0.1403 -0.0539 -0.0231
 8657W        W10857  17.382   4.814   8.211 -0.2011 -0.1048 -0.1352
 8658W        W10858  20.841   0.120  27.375 -0.2331  0.0813  0.1264
 8659W        W10859   1.971   5.176  43.208  0.1671 -0.2526  0.2628
 8660W        W10860   6.848   5.529   0.009 -0.1960  0.2204 -0.0773
 8661W        W10861   7.478   1.201  30.287  0.2718 -0.0552  0.0674
 8662W        W10862   2.232   2.220  13.101  0.0880  0.0939 -0.1457
 8663W        W10863   2.245   1.691   1.312 -0.2336  0.0009 -0.1187
 8664W        W10864  16.680   0.145  30.815 -0.2874 -0.0406 -0.2065
 8665W        W10865  16.885   1.637  17.926 -0.1310  0.1182 -0.0141
 8666W        W10866  20.061   6.486   5.366  0.1887  0.0566  0.0657
 8667W        W10867  14.467   0.710  31.776  0.0338 -0.3653 -0.2132
 8668W        W10868   6.114   4.160   8.703 -0.0360  0.1329  0.0724
 8669W        W10869  16.184   0.776   4.194  0.0933 -0.1047 -0.1345
 8670W        W10870  10.627   0.066  38.625  0.2338  0.0341  0.1806
 8671W        W10871  17.611   4.912  43.076 -0.1705  0.1250 -0.0540
 8672W        W10872   2.315   5.372  33.593 -0.1089  0.1128  0.0901
 8673W        W10873  15.343   0.179  43.981  0.2243  0.0608  0.0273
 8674W        W10874  21.118   3.098  14.147 -0.2921 -0.3255 -0.3146
 8675W        W10875   8.757   4.341  26.582 -0.0688 -0.2413 -0.4132
 8676W        W10876   6.176   4.688  34.288 -0.1414  0.0512  0.1569
 8677W        W10877   3.908   1.304  24.932  0.2512  0.1070 -0.0065
 8678W        W10878  19.927   2.842  27.727  0.2972  0.0499  0.1802
 8679W        W10879   6.596   1.289  11.080  0.0282  0.2411  0.3092
 8680W        W10880  10.317   4.964  40.738 -0.0572  0.2316  0.0703
 8681W        W10881   0.099   1.262  35.411 -0.1854  0.0238 -0.0865
 8682W        W10882   9.208   4.034  43.565 -0.0191 -0.0016 -0.0660
 8683W        W10883   2.610   1.808  14.625  0.0852 -0.0050  0.1345
 8684W        W10884   1.259   0.963  41.581  0.0159  0.0753  0.1421
 8685W        W10885   6.970   0.728  31.190  0.0359 -0.0346 -0.1468
 8686W        W10886   0.422   5.907  27.468  0.0178 -0.2723  0.1433
 8687W        W10887   5.530   3.097  14.972  0.4660 -0.1922 -0.0579
 8688W        W10888   5.681   5.337  11.677 -0.0408  0.1517 -0.1361
 8689W        W10889  12.430   5.987  10.675 -0.0972  0.0570 -0.2078
 8690W        W10890   1.594   1.200  26.968 -0.1638 -0.2016  0.1541
 8691W        W10891  15.653   4.017  40.502  0.1903 -0.2184 -0.0213
 8692W        W10892  13.723   4.932  35.076 -0.1451 -0.3739  0.1537
 8693W        W10893   5.313   6.522  38.261  0.1680  0.2029  0.0051
 8694W        W10894   5.698   0.281  34.901  0.0630 -0.0450 -0.1068
 8695W        W10895  19.687   4.156  31.980  0.0205  0.0891 -0.2596
 8696W        W10896   9.570   1.706  28.475 -0.0326 -0.0487  0.1905
 8697W        W10897  12.132   1.293   4.770  0.0359  0.0427 -0.0368
 8698W        W10898  15.941   6.192  19.349 -0.2064  0.0148  0.2048
 8699W        W10899  13.688   1.227  14.896  0.2151  0.0107  0.2631
 8700W        W10900  16.653   6.440  20.394  0.2628 -0.2377  0.0443
 8701W        W10901   8.709   3.121   2.042 -0.3638 -0.1686 -0.1108
 8702W        W10902   9.174   4.771   4.972  0.0481  0.2491 -0.0620
 8703W        W10903  20.162   6.110  16.895 -0.1546 -0.0937  0.0161
 8704W        W10904   4.568   6.423  10.300  0.0815 -0.3723 -0.0849
 8705W        W10905  20.176   5.016   8.486 -0.6071  0.1166 -0.2727
 8706W        W10906  17.616   4.659   8.738 -0.0458 -0.1123 -0.0519
 8707W        W10907  19.128   0.017   6.068 -0.1116 -0.3027 -0.0367
 8708W        W10908   8.128   3.978  10.802  0.1431  0.2269 -0.0213
 8709W        W10909  11.911   4.859  18.510 -0.2136  0.0126 -0.0513
 8710W        W10910  18.793   3.599  13.235 -0.4694  0.1925 -0.2037
 8711W        W10911  15.474   2.072  34.509  0.0644 -0.2305  0.0461
 8712W        W10912  13.017   3.069  41.157 -0.0308 -0.1102 -0.1760
 8713W        W10913  12.739   3.293  12.566 -0.0242  0.1951 -0.3532
 8714W        W10914  15.549   1.421  17.153  0.1576  0.0683  0.1313
 8715W        W10915  12.018   4.149  14.891 -0.1017 -0.3833 -0.2370
 8716W        W10916  20.915   3.306  41.295  0.0419  0.3801  0.2507
 8717W        W10917  20.866   3.243  35.426 -0.1932  0.0289 -0.0021
 8718W        W10918  14.170   0.501   6.747 -0.5072 -0.2445 -0.0516
 8719W        W10919   9.138   2.251  33.222 -0.2743  0.0995  0.1703
 8720W        W10920  17.519   6.524   6.504  0.1203  0.1318  0.0496
 8721W        W10921   3.915   2.159  22.038 -0.0477 -0.1143  0.0687
 8722W        W10922  19.298   2.377  37.667 -0.1154 -0.0679  0.1077
 8723W        W10923  11.346   2.497   0.925  0.2234  0.0650  0.1061
 8724W        W10924  20.104   1.928  15.071 -0.1943 -0.0032 -0.0550
 8725W        W10925   9.249   1.529  16.118  0.2710  0.0279 -0.0547
 8726W        W10926  17.732   3.788  16.796  0.1489 -0.1238  0.1582
 8727W        W10927  11.649   1.741   9.023 -0.3698 -0.1693  0.0054
 8728W        W10928  16.431   6.143  20.771 -0.1287 -0.0597 -0.0658
 8729W        W10929  14.249   5.590  36.237  0.1763  0.0573  0.0824
 8730W        W10930  19.225   4.206   7.830 -0.2611 -0.2142  0.1183
 8731W        W10931   5.998   0.963   6.205 -0.0586 -0.0444  0.0194
 8732W        W10932   2.613   1.726  36.299 -0.0975 -0.1959 -0.2306
 8733W        W10933  14.796   4.974  33.043  0.1076  0.3640  0.1088
 8734W        W10934  12.574   3.037  20.883 -0.1145  0.0879 -0.0786
 8735W        W10935  14.366   6.320  33.085 -0.2142 -0.1153 -0.0218
 8736W        W10936  18.847   0.331   4.405 -0.3674 -0.0767  0.2839
 8737W        W10937  16.107   1.053  30.795  0.0836 -0.1917  0.1696
 8738W        W10938  19.232   0.213  34.646  0.1557 -0.3095  0.0612
 8739W        W10939  15.675   0.532  10.235 -0.1702 -0.0269 -0.4755
 8740W        W10940   7.263   4.041  41.794  0.1690  0.2228 -0.0948
 8741W        W10941   0.973   6.307  24.624 -0.2522  0.0598 -0.0206
 8742W        W10942   9.480   3.460   9.306 -0.0471  0.1295 -0.0217
 8743W        W10943   2.274   4.765  29.417  0.1399 -0.0016  0.2009
 8744W        W10944  15.149   5.623   6.212 -0.1322  0.3460 -0.3025
 8745W        W10945  17.134   5.138  29.527 -0.0528  0.2543  0.2299
 8746W        W10946   0.957   5.624  29.933  0.2126  0.0135  0.1244
 8747W        W10947   4.727   4.070  26.065 -0.3319  0.0685 -0.1920
 8748W        W10948  20.161   2.334  13.567  0.1146  0.1047  0.1843
 8749W        W10949  13.393   0.591  11.695  0.0433  0.0129  0.0418
 8750W        W10950   8.896   5.129  43.445  0.1628 -0.2098 -0.1453
 8751W        W10951   3.053   4.079  32.490  0.1169  0.0194  0.2188
 8752W        W10952  15.920   5.912  21.285 -0.4747 -0.0003  0.1596
 8753W        W10953  16.443   2.891  34.909  0.2589  0.1899 -0.2433
 8754W        W10954   7.840   3.116  40.500 -0.2590  0.0505 -0.1073
 8755W        W10955   6.857   1.136  35.275  0.0762 -0.0024  0.2272
 8756W        W10956   3.305   6.047  14.889 -0.0623  0.1902  0.0796
 8757W        W10957  17.403   2.580  43.038 -0.0864 -0.0708  0.0182
 8758W        W10958   8.775   4.578   5.087  0.2958  0.0610 -0.1496
 8759W        W10959  16.165   2.975   8.339  0.0352 -0.1608 -0.0023
 8760W        W10960  15.143   2.629  41.149 -0.4506 -0.1754 -0.2416
 8761W        W10961  13.244   3.672  31.379  0.0094  0.1739  0.0274
 8762W        W10962   9.221   2.489  13.807 -0.2745 -0.1390  0.0539
 8763W        W10963  20.065   0.704   8.611  0.1224  0.2021  0.2825
 8764W        W10964  10.661   4.437   0.143  0.1992 -0.0996  0.2054
 8765W        W10965   5.381   5.708  37.306  0.0104 -0.1745 -0.1766
 8766W        W10966   6.592   1.066  14.788 -0.1226  0.0047  0.3571
 8767W        W10967   2.337   4.844  30.784  0.0837 -0.1077 -0.2397
 8768W        W10968  17.722   1.509   2.350  0.0739 -0.2384 -0.3292
 8769W        W10969   2.072   0.052  25.486  0.0241 -0.3301 -0.0597
 8770W        W10970   0.410   3.292  11.175 -0.0146  0.0850  0.1098
 8771W        W10971   8.069   5.539   1.408 -0.0773 -0.1279 -0.2377
 8772W        W10972   5.835   1.825  10.336 -0.2478 -0.0832  0.1040
 8773W        W10973  16.859   4.521  44.506 -0.1154 -0.1005 -0.2361
 8774W        W10974   2.799   1.025  41.169 -0.0581 -0.0005 -0.1457
 8775W        W10975   4.417   4.851  12.171  0.2676  0.1509 -0.0136
 8776W        W10976  14.697   2.940   5.208 -0.2630 -0.1716 -0.1241
 8777W        W10977   6.857   2.984  15.612 -0.1151 -0.0914 -0.3152
 8778W        W10978   0.093   2.241  11.980 -0.1491  0.1928  0.0437
 8779W        W10979  10.565   0.813   8.225  0.1124  0.2853  0.3217
 8780W        W10980  16.458   6.130   4.522 -0.2952 -0.1202  0.2462
 8781W        W10981   9.896   1.204   5.451 -0.0673  0.2728  0.0159
 8782W        W10982  16.386   1.686  11.890 -0.1636  0.3444  0.0702
 8783W        W10983   6.343   5.420  33.039  0.2956 -0.0377  0.2950
 8784W        W10984  15.845   0.461   3.988  0.2850 -0.0688  0.1373
 8785W        W10985  17.741   2.612  15.177 -0.4199  0.1530 -0.1798
 8786W        W10986   9.124   0.631  41.632 -0.1505 -0.2440  0.3705
 8787W        W10987   2.278   5.774   3.624  0.1408  0.3640  0.2321
 8788W        W10988  19.613   5.487   5.586 -0.1517  0.0409 -0.2470
 8789W        W10989   3.484   2.520  28.184 -0.2913 -0.1216 -0.1613
 8790W        W10990  14.463   0.289  13.476 -0.1464 -0.0528  0.1252
 8791W        W10991   1.964   3.407  12.306 -0.0953 -0.0642  0.2398
 8792W        W10992  17.340   6.388  36.066 -0.0256 -0.1169 -0.1716
 8793W        W10993  14.900   6.342   3.681  0.1436 -0.1857 -0.2510
 8794W        W10994   4.186   2.625  28.799 -0.3624 -0.0020  0.2709
 8795W        W10995  17.668   1.641  43.009  0.2108 -0.0584 -0.0424
 8796W        W10996  18.656   0.184  36.403 -0.0130  0.0187 -0.0817
 8797W        W10997  16.050   0.135  18.976 -0.1998  0.1996 -0.1773
 8798W        W10998  19.078   5.204  44.485  0.2852  0.0779 -0.0665
 8799W        W10999   4.093   3.696   8.309 -0.1520  0.2618 -0.1134
 8800W        W11000   3.319   2.639  25.248 -0.0586 -0.1889  0.2294
 8801W        W11001  13.408   6.133  35.974 -0.1437  0.1826 -0.0286
 8802W        W11002   7.645   6.087  13.343 -0.1047  0.1505 -0.0333
 8803W        W11003  20.493   4.554  10.636 -0.0901 -0.2669 -0.2926
 8804W        W11004   1.809   2.301  26.301  0.0579  0.1345  0.1353
 8805W        W11005   9.176   3.261  32.074 -0.2222  0.2932 -0.0360
 8806W        W11006  14.241   1.439   1.275  0.1670 -0.0344  0.1549
 8807W        W11007  15.095   0.002   1.162 -0.3394  0.1755  0.0485
 8808W        W11008  12.758   4.839  34.338 -0.0484  0.0577  0.2048
 8809W        W11009  20.919   0.227  27.927 -0.1672 -0.1809  0.0746
 8810W        W11010  16.226   0.920   1.920  0.1077 -0.1136 -0.2535
 8811W        W11011   9.637   5.665  18.275  0.0605  0.1046  0.1956
 8812W        W11012   6.997   6.399   1.737  0.0517 -0.1024 -0.0323
 8813W        W11013   7.140   4.647  25.044  0.1426 -0.1654  0.1570
 8814W        W11014   4.312   6.248  33.603 -0.0350  0.1257 -0.3192
 8815W        W11015  14.516   2.038  35.516 -0.0636  0.1939 -0.0357
 8816W        W11016   0.301   2.053   7.769 -0.0131 -0.0982 -0.0602
 8817W        W11017   3.892   0.985  40.446  0.0804 -0.0311 -0.3470
 8818W        W11018  20.109   1.657  10.098 -0.0409 -0.0118  0.1291
 8819W        W11019   3.484   5.433   3.434  0.2905 -0.0722  0.1132
 8820W        W11020  17.486   1.669  16.358 -0.1888 -0.0052  0.0300
 8821W        W11021  10.518   3.785   2.248  0.0317  0.0019 -0.1908
 8822W        W11022   0.082   0.348  25.305  0.0041  0.1783  0.0842
 8823W        W11023   7.529   5.307  14.142  0.0880  0.2614 -0.2930
 8824W        W11024  19.673   6.190  36.765 -0.0601 -0.1728 -0.1034
 8825W        W11025  13.325   3.132  37.209  0.3434  0.0703  0.0152
 8826W        W11026  16.074   5.615  29.926  0.0800 -0.1728  0.0058
 8827W        W11027  18.090   1.533  10.890 -0.0267  0.3639 -0.1634
 8828W        W11028  20.522   0.368  44.528  0.0800 -0.0538  0.0586
 8829W        W11029  10.258   5.374  43.319  0.1547 -0.0303 -0.2798
 8830W        W11030   7.594   1.115  43.963 -0.0144 -0.0787  0.0200
 8831W        W11031   1.127   0.021  35.756  0.1587 -0.1571  0.0670
 8832W        W11032  14.633   1.116  43.061 -0.0242 -0.3026 -0.0181
 8833W        W11033   3.947   2.033  20.366 -0.3359 -0.0790 -0.1558
 8834W        W11034   9.241   5.663  43.072 -0.1518  0.1466 -0.1783
 8835W        W11035   9.068   6.552  42.524  0.1481 -0.0865 -0.1633
 8836W        W11036  17.870   0.081   4.002 -0.0339  0.2905  0.3959
 8837W        W11037  15.255   4.300  23.184  0.1250  0.0421 -0.1167
 8838W        W11038   9.303   2.725  32.788  0.0130  0.3278 -0.0437
 8839W        W11039  15.471   2.410  15.747 -0.2640 -0.0058 -0.0689
 8840W        W11040  12.736   3.692  21.308  0.1204  0.0892 -0.0339
 8841W        W11041  20.957   6.399  29.771  0.0862 -0.0133 -0.0245
 8842W        W11042  20.190   3.105  32.986 -0.0621  0.0115 -0.1822
 8843W        W11043   1.154   0.407   8.260 -0.1133  0.0090  0.0511
 8844W        W11044   7.437   3.665  39.655  0.0068 -0.0539  0.1422
 8845W        W11045   3.759   4.463  23.573  0.0978 -0.1309 -0.1517
 8846W        W11046   1.028   0.597  25.218  0.2485 -0.1762 -0.1621
 8847W        W11047   0.205   4.890  27.586  0.0605  0.1910 -0.1780
 8848W        W11048   5.136   0.363  14.034  0.2453 -0.0269 -0.4973
 8849W        W11049   7.385   2.784   0.677 -0.0425 -0.2879 -0.0935
 8850W        W11050  20.927   6.455  39.915 -0.0970 -0.0054 -0.1433
 8851W        W11051  10.547   4.339  41.359  0.0206  0.0731 -0.1404
 8852W        W11052  12.696   3.944  40.938 -0.2181  0.1962  0.0492
 8853W        W11053  10.526   1.867  43.694  0.0655  0.2394  0.0665
 8854W        W11054  15.814   2.316  29.391  0.0796 -0.4307  0.0575
 8855W        W11055   6.836   5.264  31.411 -0.2059 -0.0951 -0.0232
 8856W        W11056   3.160   3.991  37.673 -0.0042 -0.0209 -0.2909
 8857W        W11057  15.023   1.975   9.270 -0.0064  0.2227  0.1900
 8858W        W11058  10.390   3.116  13.299 -0.0762 -0.0527  0.0294
 8859W        W11059   4.368   3.552   2.981  0.3511 -0.0843 -0.0649
 8860W        W11060   1.570   2.223  36.963  0.0192 -0.0278 -0.0910
 8861W        W11061  14.320   4.603  19.286 -0.3833 -0.3057  0.0108
 8862W        W11062  13.791   5.557  21.451 -0.2554  0.0599  0.1734
 8863W        W11063   1.742   2.221  44.258  0.2930  0.1182  0.5318
 8864W        W11064   8.174   3.872  34.853 -0.0844  0.1101  0.0111
 8865W        W11065  19.322   4.237  38.788  0.1302  0.0044  0.3158
 8866W        W11066   1.212   2.556  38.128  0.0071 -0.0393  0.2087
 8867W        W11067  11.094   3.000  34.860 -0.1223  0.1024 -0.2145
 8868W        W11068   6.271   2.645  13.902 -0.0815  0.0141  0.0259
 8869W        W11069   2.056   1.544  28.474 -0.0885 -0.1565  0.0366
 8870W        W11070  17.791   0.792  43.814 -0.1005 -0.1245 -0.2471
 8871W        W11071  14.892   3.312  12.042 -0.1920 -0.0636 -0.0623
 8872W        W11072  19.718   4.209  37.487  0.2236 -0.1186  0.1614
 8873W        W11073   5.809   3.116   1.246 -0.0327 -0.2881  0.2055
 8874W        W11074  10.102   3.555  31.002 -0.0541  0.1106  0.2238
 8875W        W11075   2.456   3.616  29.341 -0.0525  0.1946 -0.1331
 8876W        W11076  13.517   4.913  14.781  0.2429 -0.0465  0.4136
 8877W        W11077   8.338   3.146  13.021  0.0587 -0.1664 -0.1645
 8878W        W11078   5.581   0.898  38.983  0.0870 -0.0204  0.2992
 8879W        W11079  11.752   3.953  42.204 -0.1238 -0.0787 -0.1846
 8880W        W11080   2.197   4.358  22.211 -0.2107 -0.2013  0.0273
 8881W        W11081  17.023   5.079   6.431 -0.0304  0.0434 -0.0495
 8882W        W11082   1.700   2.617  11.113  0.1768  0.0735 -0.3442
 8883W        W11083   1.771   4.753   0.498 -0.0330 -0.0390 -0.0056
 8884W        W11084  14.923   1.209  10.477 -0.0106 -0.2029 -0.2789
 8885W        W11085  12.089   1.753  36.835 -0.2385  0.0783  0.0707
 8886W        W11086  12.516   2.588   0.487  0.0974 -0.1585 -0.0122
 8887W        W11087  14.931   0.630  22.676  0.2428  0.2512  0.2947
 8888W        W11088  18.846   5.814  11.152  0.3599 -0.1297  0.0728
 8889W        W11089  12.262   2.808  38.875  0.2359 -0.0146  0.3141
 8890W        W11090  11.768   3.009  43.216 -0.1400  0.1082 -0.1942
 8891W        W11091  10.719   5.446  45.057 -0.0756 -0.1348 -0.3411
 8892W        W11092   2.416   0.218   7.322 -0.3544  0.0456 -0.3321
 8893W        W11093   8.055   1.894   9.213  0.2828 -0.2262 -0.1693
 8894W        W11094   0.268   1.546   8.556 -0.3969  0.0842  0.0699
 8895W        W11095  13.020   4.016  18.705 -0.1742  0.3311  0.0538
 8896W        W11096   7.278   3.497   9.257  0.1746  0.0220  0.1112
 8897W        W11097  18.648   0.628  33.225  0.0275 -0.4701 -0.1202
 8898W        W11098  10.100   3.570   5.845  0.4128  0.2979  0.0228
 8899W        W11099   0.540   2.672  30.314  0.0973  0.0760  0.2271
 8900W        W11100  11.116   0.933  43.092  0.0662 -0.0286  0.0851
 8901W        W11101  13.874   3.371  13.435 -0.1357  0.2382 -0.0972
 8902W        W11102  10.868   4.864  44.347  0.2614 -0.1707 -0.1005
 8903W        W11103   9.654   2.461  35.784 -0.1040  0.0083  0.2104
 8904W        W11104  14.706   0.310  16.919 -0.3419  0.0957 -0.0186
 8905W        W11105  13.632   0.055   1.300  0.2572 -0.2747 -0.2247
 8906W        W11106   0.336   0.386  35.543  0.1183  0.0336  0.2015
 8907W        W11107  14.649   2.704  12.804 -0.0671 -0.1182  0.0993
 8908W        W11108  16.066   5.066  33.812  0.1593 -0.2635 -0.0134
 8909W        W11109   8.270   0.280  38.839  0.1311 -0.4380 -0.1027
 8910W        W11110  13.432   2.610  20.227 -0.2100 -0.5078  0.0222
 8911W        W11111  19.510   0.453   1.982 -0.3761  0.3284 -0.3903
 8912W        W11112   2.545   5.990   1.942 -0.0368  0.1095 -0.1303
 8913W        W11113  18.071   4.720   1.033  0.3345 -0.0430  0.1892
 8914W        W11114  20.476   3.300  12.568  0.1556  0.0676  0.1117
 8915W        W11115  10.433   1.513  28.641  0.0400 -0.1755 -0.3146
 8916W        W11116   8.681   3.077  31.215 -0.0721  0.0011  0.1091
 8917W        W11117   6.639   5.519  15.757  0.1766 -0.1996 -0.1385
 8918W        W11118  10.117   2.296  19.166  0.0301  0.1879 -0.1464
 8919W        W11119   7.338   5.633   7.021  0.0473 -0.0169  0.4402
 8920W        W11120  12.191   5.101  13.630 -0.0103  0.3287 -0.4862
 8921W        W11121   8.523   1.203  35.807 -0.1610 -0.0106  0.0608
 8922W        W11122  16.196   0.146  32.294 -0.0933 -0.2218 -0.4015
 8923W        W11123  13.645   0.047   2.631 -0.0890 -0.0219  0.0104
 8924W        W11124  20.046   0.678  45.029  0.0794 -0.1934  0.0099
 8925W        W11125  19.517   5.551  18.682  0.0454 -0.1980  0.2505
 8926W        W11126   6.873   2.904  36.657 -0.0881 -0.2365 -0.0650
 8927W        W11127  13.933   5.591  43.391  0.1349  0.0484  0.1513
 8928W        W11128  16.956   4.432  21.043  0.2034 -0.2295  0.0897
 8929W        W11129  16.791   3.460  42.828  0.0842 -0.0718 -0.0146
 8930W        W11130   4.464   0.165   4.773  0.1661  0.2933 -0.1022
 8931W        W11131   2.641   4.820   2.427  0.2134  0.1035 -0.1806
 8932W        W11132   1.067   0.745   3.177  0.1960 -0.0361 -0.1021
 8933W        W11133   8.788   4.612  41.131 -0.1121 -0.1868 -0.0487
 8934W        W11134   8.260   0.793   4.912 -0.0327 -0.0585  0.0848
 8935W        W11135  15.849   0.003  30.812  0.1407  0.1849  0.2271
 8936W        W11136   9.319   6.513  33.143  0.1838  0.2668 -0.4236
 8937W        W11137   1.409   0.438  26.205 -0.5377  0.0316  0.1674
 8938W        W11138   9.103   1.645  40.659 -0.0580 -0.0786 -0.0217
 8939W        W11139   8.175   5.217  13.023  0.1084 -0.0535 -0.0499
 8940W        W11140   0.482   5.288  44.160 -0.1396  0.0067 -0.1459
 8941W        W11141  20.589   5.261  33.589 -0.0531  0.1225  0.0266
 8942W        W11142   9.794   4.829   6.928 -0.1576  0.1172  0.1898
 8943W        W11143   2.916   3.072  43.040  0.0812  0.1961 -0.3055
 8944W        W11144  11.812   2.822  37.930  0.2594 -0.0843 -0.0471
 8945W        W11145   1.918   0.600   3.344 -0.0957 -0.1439  0.0617
 8946W        W11146   2.822   4.110  37.345 -0.1459  0.1483  0.3407
 8947W        W11147  14.648   6.071  23.640  0.2368  0.2652  0.2961
 8948W        W11148  14.933   0.826  19.414  0.2901 -0.1406 -0.0434
 8949W        W11149  16.179   2.964   3.551 -0.0829  0.3007  0.3385
 8950W        W11150  19.471   3.965  36.739 -0.0047 -0.1172  0.0629
 8951W        W11151   7.557   5.782   8.203  0.0235  0.2496 -0.1035
 8952W        W11152  17.964   4.729  18.804 -0.0425  0.1861 -0.1264
 8953W        W11153   8.256   4.493  44.586  0.2322 -0.0756  0.1571
 8954W        W11154  11.037   2.227  12.015 -0.0922 -0.1998  0.1045
 8955W        W11155  18.158   0.114   0.954 -0.1050  0.1307  0.0499
 8956W        W11156   2.660   1.289  38.873  0.2777 -0.2482  0.2066
 8957W        W11157  19.347   4.895  16.033 -0.0677  0.1430 -0.1159
 8958W        W11158   8.366   3.382  17.109 -0.0132  0.1776 -0.0158
 8959W        W11159   8.414   1.320  32.121 -0.1562 -0.2817  0.1550
 8960W        W11160   1.749   1.371  13.976  0.0046 -0.1740  0.0912
 8961W        W11161  17.663   6.484  12.385 -0.2372  0.0533 -0.1143
 8962W        W11162   3.906   5.048  22.010 -0.0395 -0.0891  0.0069
 8963W        W11163   8.096   1.146  15.519  0.0815  0.3324  0.1673
 8964W        W11164   2.996   2.714   3.356 -0.4797 -0.0932 -0.0236
 8965W        W11165   0.252   0.498  40.876  0.2557  0.3372 -0.1211
 8966W        W11166   2.001   3.028  31.825  0.0336 -0.0092  0.0409
 8967W        W11167  17.370   0.826   4.368 -0.2220  0.1978  0.0182
 8968W        W11168   8.470   4.105  36.253  0.2029  0.2899  0.1570
 8969W        W11169  15.657   4.286  18.345 -0.0129 -0.2510 -0.2540
 8970W        W11170   1.466   3.719  37.378  0.1013 -0.2742 -0.0110
 8971W        W11171   8.525   1.521   6.829 -0.1801 -0.2907 -0.1579
 8972W        W11172   5.614   5.804  25.760 -0.1050 -0.0204  0.1288
 8973W        W11173  16.161   2.699   5.582  0.1767 -0.1704  0.0702
 8974W        W11174  17.274   3.495  13.558  0.1150  0.1970 -0.1354
 8975W        W11175  14.510   2.414   8.079 -0.1931 -0.0997  0.1122
 8976W        W11176   7.361   1.284   4.752 -0.0135 -0.1523  0.2380
 8977W        W11177  15.539   1.304  42.711  0.0747 -0.1421  0.0614
 8978W        W11178   6.148   4.731   9.525 -0.0391  0.2784  0.1620
 8979W        W11179  15.054   5.764  34.224  0.1074  0.0165 -0.0384
 8980W        W11180   4.078   1.933   1.149 -0.0726 -0.0064  0.0441
 8981W        W11181  19.645   4.388  33.460  0.0233  0.0029 -0.1734
 8982W        W11182   1.279   3.723   5.238 -0.0342 -0.0484  0.3538
 8983W        W11183  12.799   1.373  17.029 -0.0823  0.4285 -0.0800
 8984W        W11184  15.092   4.800  22.871 -0.0269  0.0187 -0.0507
 8985W        W11185  16.072   1.033  18.097  0.1435  0.0681 -0.0198
 8986W        W11186   5.568   0.962  29.510 -0.0117  0.1209 -0.0197
 8987W        W11187  11.923   0.193  34.888 -0.3619  0.0256 -0.0289
 8988W        W11188   5.872   0.541  39.930 -0.2189 -0.1099 -0.1921
 8989W        W11189  20.518   5.990  41.641 -0.0017  0.2152 -0.0707
 8990W        W11190  18.373   0.485  18.718 -0.0505 -0.0357 -0.0631
 8991W        W11191   1.487   4.703  32.546  0.0237  0.3140  0.1211
 8992W        W11192   4.881   6.207  33.890  0.1721 -0.1678  0.1015
 8993W        W11193  16.630   4.331  29.647 -0.1729  0.0986  0.0188
 8994W        W11194  17.888   1.614  32.313 -0.0306  0.2216  0.0529
 8995W        W11195   1.552   2.099  41.714  0.1748 -0.2013 -0.1314
 8996W        W11196   0.240   6.490  13.697 -0.0129  0.0883  0.1732
 8997W        W11197   7.453   6.254  30.362  0.1293 -0.2479  0.1255
 8998W        W11198   0.121   1.881   5.219  0.1456  0.0155 -0.4678
 8999W        W11199  18.770   0.100  37.963  0.1879 -0.1268 -0.0927
 9000W        W11200   9.183   5.736  39.759 -0.1523 -0.0774  0.1620
 9001W        W11201  12.710   3.490  19.026  0.0895 -0.0840  0.1299
 9002W        W11202  13.188   4.350  44.796  0.0392  0.1549  0.0561
 9003W        W11203  20.599   5.420  33.124 -0.0767 -0.2250  0.1044
 9004W        W11204  19.214   5.053  29.305 -0.0672 -0.1170 -0.1556
 9005W        W11205   3.166   0.952   8.296  0.1738 -0.0180  0.1324
 9006W        W11206  19.885   0.561   0.338 -0.1353 -0.1888 -0.1343
 9007W        W11207  10.028   4.921  12.814 -0.4087  0.0866 -0.0133
 9008W        W11208  16.970   4.817  40.390  0.2035  0.0083  0.0887
 9009W        W11209   3.567   1.793  22.110  0.1704  0.2346  0.0755
 9010W        W11210  10.209   2.285   9.007 -0.0151 -0.1206 -0.1977
 9011W        W11211   2.423   4.771   8.339  0.0151 -0.3142 -0.0657
 9012W        W11212  13.900   3.050  30.890  0.0506 -0.3563  0.0194
 9013W        W11213  15.290   5.278  43.611  0.0829  0.1213  0.1691
 9014W        W11214   6.794   0.882  40.939 -0.2683  0.1866 -0.0790
 9015W        W11215   1.878   1.550  39.889 -0.0930  0.2204 -0.1269
 9016W        W11216  18.534   6.107  12.288  0.1503 -0.0174  0.0833
 9017W        W11217   5.612   0.138  33.295  0.0963  0.1093 -0.2744
 9018W        W11218  19.213   2.461   0.998 -0.0716  0.2043 -0.4719
 9019W        W11219  21.008   0.997  35.126  0.0780  0.0964 -0.0106
 9020W        W11220   8.868   4.676  41.769  0.1005 -0.4075  0.2038
 9021W        W11221  12.410   2.050   4.208 -0.0773 -0.1069  0.1877
 9022W        W11222   4.278   4.801  44.998  0.1583 -0.2563  0.2778
 9023W        W11223   9.908   3.876   5.026  0.0775  0.3994 -0.0006
 9024W        W11224   8.499   0.629  13.303  0.0901  0.0647 -0.0784
 9025W        W11225   1.111   1.876  45.023 -0.2636  0.0255  0.1346
 9026W        W11226  16.562   4.439  11.477  0.1916 -0.2778 -0.1000
 9027W        W11227   1.921   5.043  44.703  0.2545  0.0932 -0.3162
 9028W        W11228   8.618   0.710   4.579 -0.0631  0.0862 -0.0644
 9029W        W11229   2.837   3.773   1.169  0.1250  0.0035 -0.0015
 9030W        W11230  13.656   2.977  23.387 -0.0614  0.2196  0.4362
 9031W        W11231  17.003   1.214   4.279  0.4640  0.3639  0.0014
 9032W        W11232  20.734   0.258  41.450 -0.0585  0.2461  0.3754
 9033W        W11233   5.290   1.649  34.478 -0.0400 -0.1691  0.2398
 9034W        W11234   4.908   5.579  41.912 -0.0356  0.0169  0.3659
 9035W        W11235   1.729   2.538   4.367  0.1250 -0.1752 -0.2064
 9036W        W11236  16.120   6.006   3.069  0.0209 -0.1236 -0.1000
 9037W        W11237   5.514   6.336   7.391  0.1045 -0.0798 -0.0898
 9038W        W11238   1.883   6.083  12.410  0.0212 -0.2939 -0.4181
 9039W        W11239  16.463   5.098  20.456 -0.0777 -0.3060  0.3674
 9040W        W11240   7.307   5.779   2.369 -0.1218  0.0954  0.2706
 9041W        W11241  11.632   4.250  28.831 -0.4145 -0.1396  0.1008
 9042W        W11242  11.748   1.942  15.568 -0.0139  0.1503  0.2703
 9043W        W11243   7.186   4.447  38.693  0.0963  0.0667  0.1379
 9044W        W11244   3.018   3.028  43.655  0.0371  0.1737 -0.0164
 9045W        W11245  14.706   5.084   5.518 -0.0155  0.0420 -0.3637
 9046W        W11246   3.966   4.786   2.115  0.0176  0.1208 -0.2202
 9047W        W11247   0.328   4.715  24.364 -0.0554 -0.2648 -0.2500
 9048W        W11248   3.263   5.343   5.714 -0.0649  0.2151  0.0142
 9049W        W11249   9.131   1.960  15.039  0.0794  0.0835  0.0661
 9050W        W11250  15.860   2.035   1.826  0.0803  0.1191 -0.2758
 9051W        W11251   7.976   6.541  27.112 -0.1392  0.0953  0.1724
 9052W        W11252   8.722   4.270  10.816 -0.0050 -0.0445 -0.1871
 9053W        W11253  19.841   5.592  30.083 -0.1572  0.0760  0.4749
 9054W        W11254  10.899   0.033  38.179 -0.1552 -0.1674  0.0055
 9055W        W11255  15.786   6.485  36.276  0.0152 -0.2259  0.1955
 9056W        W11256   1.408   6.490  35.385 -0.0875 -0.0852  0.3074
 9057W        W11257   1.072   4.424   0.857 -0.0702 -0.0965 -0.0566
 9058W        W11258   9.421   1.091   4.424 -0.0319  0.1129  0.2473
 9059W        W11259   2.545   2.798  33.835  0.2432  0.1136 -0.0782
 9060W        W11260   8.937   4.032  33.284  0.0563 -0.0462 -0.0079
 9061W        W11261   4.594   5.063  24.377 -0.3043 -0.2746 -0.0865
 9062W        W11262   2.673   3.901  28.793  0.0695  0.2346 -0.1053
 9063W        W11263  16.103   2.196  42.781  0.0445  0.0517  0.1514
 9064W        W11264   6.987   1.349  40.836 -0.0071  0.1236 -0.0295
 9065W        W11265   5.194   4.442  23.896  0.0201 -0.0103 -0.1149
 9066W        W11266  19.514   4.452   7.456 -0.0866  0.1665  0.1385
 9067W        W11267  10.278   4.198   0.495  0.1574  0.1504  0.0372
 9068W        W11268  14.740   2.653  31.845  0.0027 -0.1628 -0.1145
 9069W        W11269  13.501   4.709   6.710 -0.1246 -0.2153  0.0753
 9070W        W11270  12.707   0.738  39.593 -0.0367  0.3021 -0.1053
 9071W        W11271   5.061   3.128   7.007 -0.0310  0.0834 -0.3033
 9072W        W11272  18.045   3.897  44.666  0.1579 -0.1990  0.1781
 9073W        W11273   5.552   0.045  10.274 -0.1685  0.0755  0.4676
 9074W        W11274   4.430   0.875  11.732 -0.2584  0.1391  0.0099
 9075W        W11275  15.286   1.835   9.637 -0.5010 -0.2733 -0.2255
 9076W        W11276  12.133   1.018  40.362  0.0184 -0.0667  0.1820
 9077W        W11277   7.294   1.783   9.647 -0.5345  0.0396  0.0365
 9078W        W11278  15.168   0.119   8.582 -0.1923 -0.1287  0.0964
 9079W        W11279  13.465   2.012  28.557  0.1510  0.0145 -0.1514
 9080W        W11280   2.642   3.066   8.156 -0.0704 -0.0329 -0.1646
 9081W        W11281   1.535   0.473  40.962 -0.0285 -0.0093  0.1249
 9082W        W11282  15.240   4.294   2.821  0.0450 -0.0441 -0.1610
 9083W        W11283   4.274   5.627  26.064  0.0372  0.0360 -0.2475
 9084W        W11284  15.244   1.669  42.489  0.2028  0.2155 -0.1647
 9085W        W11285  19.982   2.123  10.073  0.0731 -0.2416  0.2192
 9086W        W11286  13.748   4.198  10.067 -0.0416 -0.1047 -0.3214
 9087W        W11287   0.879   6.496  43.168 -0.0977  0.1731 -0.0746
 9088W        W11288   8.656   2.128  35.969  0.1325  0.1668  0.1052
 9089W        W11289   8.722   2.773  10.556 -0.3809 -0.2567 -0.0536
 9090W        W11290   3.022   4.160   4.637  0.0343  0.0986  0.1316
 9091W        W11291  18.043   4.041  18.979  0.1542  0.1697  0.0746
 9092W        W11292   9.640   5.532  44.765 -0.2585  0.0096 -0.2716
 9093W        W11293   9.228   2.763  42.842  0.0789  0.1268 -0.1800
 9094W        W11294   1.354   0.001  39.245 -0.2490  0.3296 -0.0727
 9095W        W11295   7.210   4.181  38.212  0.0911  0.2434  0.0463
 9096W        W11296   5.753   5.190  22.579  0.2564  0.1462  0.0884
 9097W        W11297  15.414   5.073  39.576 -0.2599  0.1161 -0.0002
 9098W        W11298  16.968   1.603  19.276  0.0281  0.1762  0.1329
 9099W        W11299   0.941   0.486  26.546 -0.1364 -0.0353 -0.1802
 9100W        W11300  13.956   4.602  25.100  0.1949  0.0702  0.2837
 9101W        W11301  13.033   3.961   3.957  0.0360  0.0538  0.0940
 9102W        W11302  10.701   3.131  35.765 -0.1300 -0.2267 -0.2903
 9103W        W11303   8.059   3.381  40.912 -0.2037  0.1501 -0.0679
 9104W        W11304  18.362   0.528   9.717 -0.3800  0.1684  0.0579
 9105W        W11305  13.366   4.235   0.174 -0.1338 -0.0513  0.2535
 9106W        W11306   8.628   2.341  12.823 -0.0810 -0.3572  0.1433
 9107W        W11307   6.277   4.012   3.203  0.0965  0.0918  0.0510
 9108W        W11308   5.200   2.700  24.362  0.1227 -0.6538  0.0090
 9109W        W11309   3.081   1.490  24.894 -0.0992 -0.1905 -0.3037
 9110W        W11310  11.752   1.994  38.294  0.0045 -0.3094 -0.1390
 9111W        W11311   8.587   2.613  35.351 -0.1564  0.1702  0.0797
 9112W        W11312   9.112   2.384   1.991 -0.5026 -0.0800  0.0562
 9113W        W11313  14.276   5.653   6.313 -0.1425  0.0324 -0.0577
 9114W        W11314   6.007   4.927   4.814  0.1475 -0.0876  0.0183
 9115W        W11315  16.407   4.487  31.234  0.1335  0.0351 -0.0675
 9116W        W11316  18.097   3.970  43.174  0.1728  0.0893  0.0859
 9117W        W11317  11.619   5.551   8.673  0.0851 -0.0605  0.0052
 9118W        W11318   0.829   1.768   1.540  0.0348  0.1683  0.2345
 9119W        W11319   9.387   1.087   5.622  0.1120  0.0794 -0.2021
 9120W        W11320  10.331   4.286  15.871  0.1672 -0.1889 -0.0204
 9121W        W11321  16.979   2.261  41.857 -0.1911  0.1290  0.2728
 9122W        W11322  14.643   6.039   6.860  0.1177  0.1421 -0.0115
 9123W        W11323   4.666   2.482  13.003  0.0923  0.1479 -0.1311
 9124W        W11324   9.596   2.186   7.509 -0.2883 -0.0108 -0.0499
 9125W        W11325  16.329   0.237  34.719  0.0177  0.3547  0.1150
 9126W        W11326  10.418   4.810  41.221  0.0270 -0.2019 -0.0142
 9127W        W11327   3.178   1.063  27.691  0.2256 -0.0646  0.1302
 9128W        W11328   8.590   3.870  41.443 -0.1611 -0.2502  0.0203
 9129W        W11329  20.249   6.514   9.171  0.0796  0.3490 -0.1516
 9130W        W11330  11.589   1.533  15.833 -0.0953  0.1216 -0.2509
 9131W        W11331   2.447   3.665  25.258 -0.4005 -0.0696 -0.2848
 9132W        W11332   9.105   4.923  36.070 -0.2235 -0.0136  0.1758
 9133W        W11333   6.968   4.088  44.015 -0.2376 -0.1801  0.2467
 9134W        W11334   2.598   4.155  24.291 -0.1450  0.0624 -0.1993
 9135W        W11335   5.620   2.375  38.975  0.0218  0.0596  0.0341
 9136W        W11336   7.501   6.237  32.601  0.0159 -0.0209  0.1093
 9137W        W11337  16.896   6.067   2.730  0.1092 -0.1291  0.2377
 9138W        W11338   8.945   6.168   8.303 -0.2706 -0.0499  0.4301
 9139W        W11339   9.725   6.282  15.600 -0.0185  0.0131 -0.0223
 9140W        W11340  14.599   6.153  30.911  0.0950 -0.1097 -0.1076
 9141W        W11341  19.285   3.968  10.788 -0.1369  0.1810  0.2087
 9142W        W11342  12.705   6.277  12.856  0.3798 -0.1734 -0.0929
 9143W        W11343  20.345   0.877  43.102 -0.2069  0.1645 -0.2045
 9144W        W11344  14.129   3.380  20.278  0.0930 -0.0388  0.1403
 9145W        W11345   6.744   5.582   6.491 -0.1577  0.0732  0.0357
 9146W        W11346   7.427   1.545   5.173 -0.0873  0.0878  0.0462
 9147W        W11347   0.144   1.535  31.899 -0.0700  0.3042  0.0754
 9148W        W11348  18.085   5.739  19.592  0.0820  0.7645  0.0745
 9149W        W11349   3.788   2.253  36.864  0.0195 -0.2122 -0.1255
 9150W        W11350   0.532   1.949  13.608 -0.2259 -0.0619  0.1680
 9151W        W11351   8.676   0.625  33.315  0.3032 -0.1278 -0.2490
 9152W        W11352  13.843   5.400  21.931  0.0394 -0.0567 -0.1313
 9153W        W11353   5.521   5.312  31.927  0.1850 -0.2195 -0.1921
 9154W        W11354   7.083   1.061  13.652  0.2151  0.1637  0.2254
 9155W        W11355  14.159   5.157  10.208 -0.1362 -0.1419  0.0061
 9156W        W11356   0.864   6.215  40.518  0.0722 -0.1689 -0.0484
 9157W        W11357   0.511   3.549  14.642  0.0317  0.3237 -0.0798
 9158W        W11358  17.521   3.303  43.889  0.1648 -0.0688 -0.1661
 9159W        W11359   9.102   5.916  16.507 -0.0869  0.0065 -0.2044
 9160W        W11360   2.951   6.168  40.184  0.0150 -0.1542 -0.0435
 9161W        W11361   5.084   2.082   5.248 -0.0055 -0.2795 -0.0594
 9162W        W11362  12.640   4.387  32.150 -0.0404  0.2038  0.0577
 9163W        W11363   5.790   4.391  29.108 -0.1056  0.0546  0.0704
 9164W        W11364  10.933   5.367  31.002  0.0996  0.0305  0.0710
 9165W        W11365   5.435   5.008  34.865 -0.3665 -0.1415  0.0272
 9166W        W11366   4.521   4.101   5.343 -0.0475  0.1101  0.0984
 9167W        W11367   8.099   2.431  29.212  0.0232  0.0193 -0.0699
 9168W        W11368   8.610   6.398  39.433 -0.3152 -0.0004 -0.0825
 9169W        W11369   9.432   5.162  29.162  0.1957  0.3463  0.0149
 9170W        W11370   6.236   2.775  26.505  0.1487 -0.1308  0.2017
 9171W        W11371   5.435   3.836  37.638 -0.0137 -0.0332 -0.0493
 9172W        W11372   7.060   2.234  41.609  0.1290  0.0863  0.1241
 9173W        W11373  14.320   3.344  13.690  0.2666  0.1084 -0.0555
 9174W        W11374  19.093   6.228  44.334  0.2240  0.1027  0.0172
 9175W        W11375   7.406   2.561  30.620 -0.3711  0.1071  0.0687
 9176W        W11376  16.983   0.895   3.175 -0.0398 -0.0437  0.0067
 9177W        W11377  10.809   2.696  18.789 -0.1644 -0.1528  0.1936
 9178W        W11378   6.869   5.865  25.412  0.0794  0.2182  0.2359
 9179W        W11379  16.723   1.055   0.444  0.1066 -0.0332 -0.0171
 9180W        W11380  16.490   3.006  39.491 -0.1540 -0.1712  0.0147
 9181W        W11381  21.147   4.361  43.799  0.0779 -0.0480  0.0009
 9182W        W11382  10.934   1.770   6.238 -0.0251  0.0733  0.0873
 9183W        W11383   3.479   0.024   1.557  0.0463 -0.0399 -0.0784
 9184W        W11384   0.770   4.908   6.652  0.1027  0.1143  0.0062
 9185W        W11385  10.023   4.058  31.388  0.1551 -0.2191 -0.4347
 9186W        W11386  11.972   5.106   0.142 -0.3051 -0.0801 -0.0025
 9187W        W11387   4.754   0.398   7.693  0.1003  0.0264  0.2038
 9188W        W11388   6.753   3.269  40.714 -0.0637  0.2850  0.1823
 9189W        W11389  12.437   1.307  29.337  0.0919 -0.1284 -0.4022
 9190W        W11390   2.227   6.467  10.099 -0.0256 -0.3523  0.0578
 9191W        W11391  15.882   2.570   6.993 -0.0688 -0.1666  0.2092
 9192W        W11392   6.802   6.349  25.598  0.3364  0.0281  0.3940
 9193W        W11393   6.862   4.871   1.664 -0.0646 -0.1640 -0.1103
 9194W        W11394   1.494   0.738  38.205 -0.0375  0.0337 -0.0393
 9195W        W11395  13.022   4.219  43.253  0.1048 -0.2344 -0.0539
 9196W        W11396   9.169   1.831  43.579 -0.1046  0.0453 -0.1149
 9197W        W11397  18.436   0.125  17.036 -0.2256  0.0839 -0.0166
 9198W        W11398   6.539   6.334  33.023  0.0717 -0.4425  0.1456
 9199W        W11399  17.749   2.552  32.550  0.4982 -0.1451  0.0145
 9200W        W11400   3.181   2.680  32.104 -0.0978  0.2287  0.1487
 9201W        W11401  18.187   1.886   3.871 -0.1890 -0.1945  0.0585
 9202W        W11402   4.192   2.760   0.182 -0.1787  0.1148 -0.1049
 9203W        W11403   3.963   5.399  32.437  0.0781 -0.0792  0.3258
 9204W        W11404   0.200   2.170  14.209 -0.0357 -0.0804  0.2467
 9205W        W11405   9.605   2.902   1.151 -0.0457 -0.1111 -0.0715
 9206W        W11406   1.093   0.351  42.366  0.2564  0.1364 -0.1938
 9207W        W11407   2.048   6.076  15.502 -0.2374  0.3836  0.0297
 9208W        W11408  19.137   4.545   6.440  0.0489  0.0577  0.2399
 9209W        W11409   5.949   3.642   6.264 -0.2695  0.2619  0.0790
 9210W        W11410  20.806   3.326   3.355  0.0674  0.3354 -0.0689
 9211W        W11411  17.244   5.947  40.409  0.1018  0.0745 -0.0627
 9212W        W11412  15.691   0.124   3.674 -0.0676 -0.0418  0.0286
 9213W        W11413  16.071   4.633  31.712  0.0709  0.0982 -0.2843
 9214W        W11414   2.339   4.458   9.931 -0.3404  0.3499 -0.0301
 9215W        W11415  11.417   2.711  36.815 -0.0249  0.1377  0.5258
 9216W        W11416   1.393   0.813  14.590 -0.1304  0.1362  0.1664
 9217W        W11417   2.778   1.621   3.193  0.0671 -0.1918 -0.0280
 9218W        W11418   4.426   2.366   0.375 -0.1626 -0.1824 -0.0059
 9219W        W11419  17.428   3.070  38.544 -0.1518 -0.4631 -0.1048
 9220W        W11420   6.187   4.181  34.249 -0.0961 -0.3019  0.2107
 9221W        W11421   0.840   2.479  30.708  0.0618 -0.0282  0.1527
 9222W        W11422  19.167   2.485   9.586  0.0635  0.0955 -0.1992
 9223W        W11423   9.701   1.642  43.656 -0.2265  0.0086 -0.0373
 9224W        W11424   2.893   3.167  28.297 -0.1031 -0.1414  0.3035
 9225W        W11425   6.730   2.169  13.358 -0.0102  0.2564 -0.2366
 9226W        W11426   0.537   2.165   9.026  0.1012 -0.1201 -0.1351
 9227W        W11427   1.786   2.312  10.206  0.2862 -0.0328 -0.0350
 9228W        W11428   8.724   3.033   9.385 -0.1848 -0.1056  0.0120
 9229W        W11429  15.063   2.545  36.292  0.1830 -0.2185  0.1633
 9230W        W11430  11.407   4.376   0.476 -0.2303 -0.2482 -0.0110
 9231W        W11431  16.098   0.195  35.192  0.0997 -0.1996 -0.0563
 9232W        W11432   6.519   5.582  29.717  0.2822  0.0936  0.0960
 9233W        W11433   5.955   5.586  36.670  0.2313  0.0030  0.0235
 9234W        W11434   0.944   4.135   1.221  0.0136  0.0594 -0.1603
 9235W        W11435   5.781   5.676  35.570 -0.3896  0.0447 -0.0927
 9236W        W11436  15.090   2.578  11.562  0.0897 -0.0464 -0.0579
 9237W        W11437   2.916   3.377   3.767 -0.0923 -0.0923  0.3881
 9238W        W11438   2.990   1.984   1.948 -0.0256 -0.1225  0.1727
 9239W        W11439   2.212   1.293  11.201  0.1426  0.1527 -0.1938
 9240W        W11440  10.867   1.449  18.707  0.3084 -0.2053  0.0095
 9241W        W11441  14.416   1.950  44.086 -0.3398 -0.0180 -0.1555
 9242W        W11442   6.147   3.789  40.028 -0.4265 -0.1282 -0.1736
 9243W        W11443  17.785   4.923   5.277  0.1140  0.2570 -0.0831
 9244W        W11444  18.906   2.619  35.545  0.1581 -0.1177 -0.4537
 9245W        W11445   8.828   4.647  32.641  0.2950  0.3190 -0.1135
 9246W        W11446  11.656   2.719  16.677 -0.2728 -0.0352  0.1710
 9247W        W11447  13.340   6.131  15.045 -0.0322  0.3548  0.1111
 9248W        W11448   3.253   6.505   7.558 -0.2190 -0.1880  0.3853
 9249W        W11449  15.143   2.475  19.525  0.0552 -0.0197 -0.0988
 9250W        W11450  12.980   1.376  30.417 -0.1359  0.1938  0.2064
 9251W        W11451  15.137   4.080  20.925  0.0938 -0.0256  0.2230
 9252W        W11452  19.155   4.599  13.502 -0.0448  0.1817  0.0772
 9253W        W11453   5.206   1.603  26.051  0.1939 -0.0293 -0.0813
 9254W        W11454   8.599   0.779  38.598 -0.1246  0.1454 -0.1451
 9255W        W11455   7.382   4.576   3.358  0.1123  0.4981 -0.0164
 9256W        W11456   2.336   2.087  42.312 -0.2665  0.0742 -0.1829
 9257W        W11457   8.007   5.557  30.296  0.0353 -0.0802 -0.2177
 9258W        W11458   9.787   0.352  14.918  0.0335 -0.0013  0.0820
 9259W        W11459  13.259   2.409  31.536 -0.0497  0.0857 -0.2705
 9260W        W11460  16.907   3.506  16.605  0.1376  0.4912 -0.0695
 9261W        W11461   4.903   3.809   0.451  0.5537 -0.2665 -0.1758
 9262W        W11462   9.411   3.757  16.536  0.0936  0.0390 -0.2249
 9263W        W11463  17.180   1.985  38.214 -0.0444 -0.1461  0.1012
 9264W        W11464  10.163   2.119  41.995 -0.0575  0.2117 -0.0327
 9265W        W11465  15.619   2.054  38.608  0.3336  0.1182  0.2113
 9266W        W11466  14.354   3.879   6.309 -0.1353  0.0533 -0.0192
 9267W        W11467  17.284   4.933   1.659 -0.0696  0.1434 -0.2640
 9268W        W11468  13.907   0.575  41.399 -0.0728 -0.0317 -0.0775
 9269W        W11469   1.991   1.215  32.752  0.1326  0.1100 -0.0988
 9270W        W11470  10.701   1.635  30.005 -0.3105 -0.2097 -0.1280
 9271W        W11471   3.726   1.057  16.485 -0.1168  0.1365  0.0649
 9272W        W11472   6.815   0.885  28.478 -0.0654  0.0669 -0.1697
 9273W        W11473  19.311   3.450  10.564 -0.0152  0.1073 -0.0564
 9274W        W11474   0.189   1.104  43.798  0.0624 -0.2437 -0.1600
 9275W        W11475  15.642   2.840  11.112  0.0638 -0.0057 -0.0005
 9276W        W11476  20.186   1.435  13.917  0.0818 -0.1277 -0.0709
 9277W        W11477   4.244   3.068  35.215 -0.4914  0.2504 -0.1627
 9278W        W11478   0.618   1.866  44.940 -0.0271  0.1225 -0.2366
 9279W        W11479  14.428   5.280   5.147 -0.0345  0.0530 -0.4189
 9280W        W11480   2.416   4.976   5.828  0.0346 -0.1551  0.0806
 9281W        W11481   9.952   4.333  42.250  0.0974 -0.0860 -0.1435
 9282W        W11482   6.468   3.899  43.428 -0.2636  0.2492 -0.3338
 9283W        W11483  20.430   4.143  42.518  0.0339  0.2574  0.4473
 9284W        W11484  16.388   3.616   1.735 -0.0308 -0.0293 -0.0355
 9285W        W11485  18.760   2.025  31.742  0.0160 -0.0739 -0.1329
 9286W        W11486   8.452   1.830  42.382 -0.0473  0.0484  0.4962
 9287W        W11487  18.869   2.503  36.093 -0.2794 -0.0686  0.3367
 9288W        W11488   0.500   2.271   1.208  0.0814  0.3768  0.1300
 9289W        W11489   7.569   5.709  37.697 -0.1177  0.0665  0.2288
 9290W        W11490  11.000   3.697  43.886 -0.0093 -0.5847 -0.1190
 9291W        W11491  11.702   1.866  44.906 -0.0219  0.2404  0.0223
 9292W        W11492   2.280   3.714  30.682  0.2834 -0.3198 -0.0804
 9293W        W11493  19.274   3.761  42.890  0.1912 -0.1077  0.1693
 9294W        W11494   8.023   2.821  34.591 -0.1042  0.3143 -0.0020
 9295W        W11495  19.369   2.406  38.243  0.0207  0.0222 -0.1175
 9296W        W11496  12.922   5.432  19.347 -0.0739 -0.0381 -0.3644
 9297W        W11497  15.621   1.302  31.207  0.3288 -0.3226 -0.0683
 9298W        W11498  14.274   1.044  38.334 -0.0397  0.2946 -0.0466
 9299W        W11499  11.992   3.003  22.129  0.0721  0.1285 -0.2325
 9300W        W11500   6.400   5.191   9.430  0.1804 -0.0955 -0.1522
 9301W        W11501  15.157   1.777  15.316  0.0063 -0.0673  0.2220
 9302W        W11502   5.384   1.744   6.134  0.0066  0.0210 -0.0887
 9303W        W11503  20.494   4.935  13.973  0.0052  0.0210  0.2208
 9304W        W11504   5.035   1.529  14.664  0.0171 -0.1772  0.1934
 9305W        W11505   2.024   4.140   5.403  0.1419 -0.1891  0.0605
 9306W        W11506  19.987   0.745  11.280  0.1456 -0.1091  0.0410
 9307W        W11507   4.632   3.980  23.568  0.3129  0.0422 -0.1729
 9308W        W11508  19.014   0.746   4.638  0.4167 -0.3922 -0.1779
 9309W        W11509  12.716   4.471  36.724  0.0324 -0.0456  0.0885
 9310W        W11510  13.972   1.372   3.722 -0.2145 -0.0426  0.1273
 9311W        W11511  20.027   4.497  31.011  0.0854  0.1215  0.4428
 9312W        W11512   1.515   4.934  44.909  0.0552 -0.0422  0.0181
 9313W        W11513   3.514   5.548  42.810  0.0938 -0.1892  0.1436
 9314W        W11514   2.156   6.333  12.777 -0.1749  0.1672  0.2753
 9315W        W11515  18.638   3.040  15.488 -0.0078  0.1176 -0.0534
 9316W        W11516  13.833   1.120   2.010 -0.2779 -0.1534 -0.1799
 9317W        W11517   8.103   2.314   4.646 -0.2840  0.1624  0.0354
 9318W        W11518  16.506   1.463  17.738  0.3718 -0.1450  0.1367
 9319W        W11519  18.385   4.840  39.729  0.1946 -0.6582 -0.1438
 9320W        W11520   0.732   2.708  42.123  0.1812  0.0391 -0.2058
 9321W        W11521   6.989   1.365  28.403  0.1672 -0.1339 -0.1335
 9322W        W11522  10.894   1.511   6.658  0.0147 -0.0322 -0.1258
 9323W        W11523   2.979   4.565  15.650  0.0345  0.1633 -0.4403
 9324W        W11524   2.762   0.437  28.795  0.1233 -0.2203 -0.1432
 9325W        W11525   5.058   0.979  11.558  0.0477 -0.0574  0.0220
 9326W        W11526  17.315   0.606  31.659  0.1670  0.2751  0.1806
 9327W        W11527  16.491   1.933  19.249 -0.2448 -0.0176  0.0208
 9328W        W11528   2.998   4.501  16.211 -0.1114  0.0481  0.1360
 9329W        W11529  15.426   0.817   2.431  0.0992  0.3380  0.0382
 9330W        W11530   9.326   6.244   4.447  0.0948  0.0557  0.3713
 9331W        W11531  14.707   3.869  24.923 -0.0604 -0.0214 -0.1446
 9332W        W11532   2.142   5.861  45.053 -0.2443  0.1629  0.0620
 9333W        W11533   0.636   4.130  44.636 -0.1587  0.0087 -0.1449
 9334W        W11534  17.673   2.334   0.014 -0.0333 -0.2158  0.1084
 9335W        W11535  15.252   6.087  42.279 -0.0331  0.1718  0.1793
 9336W        W11536   2.879   4.176   8.760 -0.0741  0.0115  0.1411
 9337W        W11537  11.635   5.576  36.340 -0.0559 -0.2033  0.0989
 9338W        W11538   4.528   0.909  12.384  0.1376 -0.0154 -0.0105
 9339W        W11539   9.445   3.123  28.760 -0.1893  0.0745 -0.0283
 9340W        W11540   2.508   3.091   0.122  0.1522  0.1491 -0.2613
 9341W        W11541  17.872   1.966  37.621  0.2560  0.0623 -0.0252
 9342W        W11542   3.194   0.987  43.073 -0.1737  0.2264 -0.0966
 9343W        W11543   3.798   5.010  40.596 -0.2222  0.0154 -0.1970
 9344W        W11544  12.580   6.058   3.311  0.1433  0.0277 -0.1585
 9345W        W11545  14.664   6.069  42.482 -0.0988  0.0200 -0.1170
 9346W        W11546  10.535   1.197  35.606  0.1814 -0.2136  0.1558
 9347W        W11547  19.401   3.068  43.536  0.0687 -0.1342  0.0246
 9348W        W11548  18.139   0.968  35.104 -0.0966  0.1250 -0.0079
 9349W        W11549  10.423   6.159  32.784 -0.1450 -0.1280  0.1138
 9350W        W11550  14.598   0.302  34.824 -0.1152 -0.1527 -0.2409
 9351W        W11551   1.539   1.724   7.590  0.1537 -0.3316 -0.0547
 9352W        W11552  18.188   6.227  17.073  0.1208  0.3077 -0.1563
 9353W        W11553  16.841   5.493  30.742  0.0737  0.0701 -0.0622
 9354W        W11554  19.204   3.540   3.199 -0.1812 -0.0559  0.2208
 9355W        W11555  10.822   5.203  39.945  0.1062 -0.2273  0.1104
 9356W        W11556  11.754   0.010   4.474 -0.0219 -0.0187  0.0894
 9357W        W11557  13.233   3.889  40.624  0.0992  0.0115  0.0571
 9358W        W11558   8.990   5.389  34.794 -0.1909 -0.2737  0.0145
 9359W        W11559  18.755   5.305  28.995  0.0221 -0.0783  0.0325
 9360W        W11560   4.859   4.321  28.023  0.1807  0.1279  0.0940
 9361W        W11561  18.179   3.796  37.580 -0.2043 -0.1440 -0.0850
 9362W        W11562  19.450   1.136  29.388  0.0891  0.1944 -0.0946
 9363W        W11563  12.801   6.520  10.444 -0.1037  0.0574 -0.0748
 9364W        W11564  11.784   6.177   5.138 -0.1983 -0.1398 -0.0848
 9365W        W11565  17.779   1.276  13.964 -0.0156 -0.0196 -0.1429
 9366W        W11566   7.564   5.509  34.396 -0.0387  0.1720  0.0522
 9367W        W11567   5.610   2.560  30.763 -0.2505  0.2531  0.0757
 9368W        W11568  15.653   0.883  34.808 -0.0349  0.0565 -0.0930
 9369W        W11569  20.909   6.012  14.105  0.3912  0.1992 -0.2134
 9370W        W11570  10.773   0.250  17.496 -0.2677 -0.0066 -0.3138
 9371W        W11571   9.658   6.391   9.032  0.0045 -0.0140 -0.3495
 9372W        W11572  20.782   2.323  27.220  0.1090 -0.2417  0.2654
 9373W        W11573  14.771   3.469  23.273 -0.2184  0.1659  0.0761
 9374W        W11574   4.571   2.856  34.394  0.0345  0.5277 -0.1512
 9375W        W11575  17.164   3.274  17.073 -0.1284  0.0673  0.1787
 9376W        W11576   7.092   5.611  27.159  0.0637  0.4456  0.1170
 9377W        W11577   9.883   3.237  40.424  0.1498 -0.2055  0.1348
 9378W        W11578   1.162   5.438  28.558 -0.1378 -0.1478  0.2664
 9379W        W11579  13.142   3.506  32.683 -0.1176  0.1178 -0.2521
 9380W        W11580  15.556   3.397  17.169  0.1790  0.1263 -0.1316
 9381W        W11581   6.506   1.039  14.155  0.0788 -0.1127  0.0105
 9382W        W11582  16.563   0.406   4.054 -0.0737  0.2129  0.0585
 9383W        W11583  18.360   4.996  42.693 -0.3296  0.1585  0.0166
 9384W        W11584  17.262   5.852  38.784 -0.1692  0.0241  0.0103
 9385W        W11585  20.627   5.329   0.471  0.2884 -0.1098  0.0927
 9386W        W11586  12.820   0.861  18.027 -0.0189 -0.2728  0.0649
 9387W        W11587   9.168   0.806  35.258  0.1558 -0.1692  0.0121
 9388W        W11588   0.027   0.007  35.756 -0.0923  0.3935  0.0915
 9389W        W11589   6.318   1.195  26.570  0.1502  0.1260 -0.1895
 9390W        W11590  11.774   2.548  44.279 -0.0525 -0.1875 -0.0679
 9391W        W11591   3.523   1.781  38.523 -0.2716  0.0714  0.0962
 9392W        W11592   4.457   3.696  21.008 -0.1354 -0.0844  0.1600
 9393W        W11593   6.027   0.047  31.873 -0.0583  0.0122 -0.0080
 9394W        W11594  16.323   5.971   1.151  0.0173 -0.0005  0.0893
 9395W        W11595  17.948   2.080  15.232  0.2762  0.1204 -0.0447
 9396W        W11596  15.530   4.393  38.260 -0.0504  0.1025  0.2026
 9397W        W11597   9.782   3.920  18.275  0.0780  0.1493  0.0718
 9398W        W11598   4.238   2.985  29.100 -0.0638 -0.2511  0.0905
 9399W        W11599   2.384   3.964   2.031 -0.2295  0.0908 -0.1179
 9400W        W11600  10.580   1.530  17.706 -0.0077 -0.0559  0.0910
 9401W        W11601  16.038   3.094  15.334  0.1982 -0.1376 -0.0588
 9402W        W11602  16.984   4.272   9.703  0.0514  0.1367  0.1955
 9403W        W11603  20.413   2.805  16.295  0.0767  0.1523  0.1455
 9404W        W11604   8.489   6.393  12.523 -0.0468  0.2787 -0.1535
 9405W        W11605  12.765   2.348  14.696 -0.3641 -0.0509 -0.2191
 9406W        W11606  17.632   1.169   6.784 -0.0402  0.0094 -0.1022
 9407W        W11607  13.594   1.197   6.053  0.2066 -0.0990  0.2573
 9408W        W11608   6.935   4.215  35.158  0.0723  0.1034 -0.0569
 9409W        W11609  18.267   4.997   7.103 -0.0485  0.7008 -0.0514
 9410W        W11610   9.121   6.401  33.743  0.2283 -0.2950  0.0225
 9411W        W11611   4.076   3.953   3.293  0.1105  0.0294  0.0225
 9412W        W11612  19.200   0.793  37.329 -0.0717  0.0634  0.1224
 9413W        W11613   1.705   4.397  28.634  0.0532  0.2221  0.0768
 9414W        W11614   7.035   2.841   1.073 -0.2383  0.2739 -0.0504
 9415W        W11615   3.167   2.360   0.226 -0.1381 -0.4135 -0.1320
 9416W        W11616  12.609   1.199  16.569  0.4279  0.1976  0.1022
 9417W        W11617   2.914   5.416  43.590  0.3705 -0.0157  0.0043
 9418W        W11618  15.918   3.282  35.404 -0.1919  0.0008  0.0972
 9419W        W11619   0.290   6.583  31.145 -0.0403 -0.0894  0.3229
 9420W        W11620   7.557   3.991  41.221 -0.3177 -0.1760 -0.1250
 9421W        W11621  17.666   5.767  19.247 -0.2772  0.0141  0.1017
 9422W        W11622  19.704   0.109  32.428 -0.0686  0.1313 -0.2808
 9423W        W11623  15.292   4.707   6.557 -0.2341 -0.0518 -0.1746
 9424W        W11624   7.237   4.727  44.883  0.2530  0.1918  0.1238
 9425W        W11625   0.584   3.637  30.928  0.0931  0.0601 -0.2540
 9426W        W11626   1.030   6.158   6.063 -0.2189 -0.1628 -0.2916
 9427W        W11627  11.443   4.828  44.743 -0.2456 -0.3161  0.2847
 9428W        W11628  12.980   6.478  33.604  0.3229 -0.1593 -0.1250
 9429W        W11629  12.365   4.619  17.763 -0.0292 -0.0443 -0.0933
 9430W        W11630   4.085   4.920   4.921 -0.2027  0.0896 -0.2926
 9431W        W11631  13.970   6.329  18.242  0.1336  0.1997 -0.0460
 9432W        W11632   5.526   3.945  26.870  0.5510 -0.2115  0.0546
 9433W        W11633   9.331   2.536  39.085  0.3099  0.0298  0.0837
 9434W        W11634   8.602   3.369  45.112 -0.1383 -0.0069 -0.0983
 9435W        W11635   2.989   3.379   3.250  0.2238 -0.4075 -0.1975
 9436W        W11636  18.845   6.440   6.739  0.1157 -0.0017 -0.3742
 9437W        W11637  13.898   2.005  40.665 -0.0504 -0.0326  0.3671
 9438W        W11638  17.920   4.829  31.277  0.3215 -0.2415  0.2567
 9439W        W11639  14.541   3.434  21.296  0.0863  0.0068  0.0814
 9440W        W11640  12.867   3.823  40.029  0.1776  0.0522  0.2285
 9441W        W11641  14.954   4.196  10.877  0.0458 -0.0492  0.1594
 9442W        W11642   1.993   4.978   3.947 -0.1402  0.0605  0.1354
 9443W        W11643  18.137   6.233  44.672 -0.0966 -0.2644 -0.1927
 9444W        W11644  17.225   5.997  17.254  0.1835 -0.0781  0.0695
 9445W        W11645   8.898   1.190   5.667  0.0731 -0.2323  0.0493
 9446W        W11646   5.079   4.954  33.896 -0.3404  0.0013  0.1625
 9447W        W11647   3.505   3.410  38.661  0.4151  0.1807  0.1037
 9448W        W11648   2.010   4.229   2.500  0.0702 -0.0608 -0.2998
 9449W        W11649   2.959   2.506  33.770  0.1531 -0.0748  0.0771
 9450W        W11650   1.157   1.725  33.153 -0.2416  0.1209  0.0167
 9451W        W11651   1.053   2.916   1.611  0.0462  0.0143 -0.1283
 9452W        W11652   0.567   2.590  28.450  0.2824 -0.3719 -0.2920
 9453W        W11653   2.211   1.056   3.333 -0.3541  0.0015  0.0619
 9454W        W11654  18.374   1.446  42.511  0.1816  0.0241  0.1831
 9455W        W11655  19.397   5.507  32.255 -0.2793  0.2748 -0.0432
 9456W        W11656   6.654   0.272   6.133 -0.0179 -0.0806  0.2549
 9457W        W11657  20.878   5.003  10.732 -0.0429  0.0176 -0.1952
 9458W        W11658  20.997   1.473  35.811  0.2491  0.1399  0.0024
 9459W        W11659  19.848   2.130   8.391  0.0451  0.1181  0.1368
 9460W        W11660   8.691   1.642  32.522 -0.0302  0.0930  0.0522
 9461W        W11661  15.819   0.683   6.543  0.1775  0.0888  0.0963
 9462W        W11662  15.805   6.509  38.917 -0.0472  0.2572 -0.0718
 9463W        W11663   9.406   6.351  31.285  0.2066 -0.2389 -0.2017
 9464W        W11664   1.202   2.490  41.401  0.2257  0.1148 -0.3119
 9465W        W11665  20.281   0.864  12.745  0.1109  0.0446  0.0070
 9466W        W11666   0.234   3.955  27.628 -0.2345 -0.1441 -0.0716
 9467W        W11667   8.925   5.873  44.604  0.1227 -0.0016  0.2905
 9468W        W11668  13.624   3.912  44.045 -0.0792 -0.2170  0.0656
 9469W        W11669   9.250   5.919  41.279  0.1281  0.2095 -0.0116
 9470W        W11670  13.132   1.199  38.005 -0.0559 -0.1926  0.0192
 9471W        W11671  10.658   4.560  32.634 -0.1097 -0.1873  0.1781
 9472W        W11672  14.654   2.996  17.685  0.0493 -0.0819  0.0783
 9473W        W11673   4.164   0.631  27.219 -0.1808 -0.0888  0.1553
 9474W        W11674  20.143   6.053  34.693 -0.1896 -0.1756  0.1477
 9475W        W11675  15.636   5.706  17.077  0.0689  0.1745  0.4929
 9476W        W11676   3.104   2.976   8.438  0.1897  0.0238 -0.0606
 9477W        W11677   8.414   5.641  14.912 -0.0852 -0.0768 -0.2875
 9478W        W11678   0.528   1.555  13.241  0.1473  0.0237  0.3401
 9479W        W11679   4.054   2.977  19.715 -0.0515 -0.1007  0.0905
 9480W        W11680   7.087   1.034   5.777 -0.0460 -0.0990 -0.0216
 9481W        W11681  14.838   5.425  37.771 -0.2737  0.1108  0.4635
 9482W        W11682  11.844   2.742  15.575 -0.0782  0.0440  0.0171
 9483W        W11683  17.701   2.181  42.964 -0.2505  0.1667  0.1909
 9484W        W11684  17.488   3.848  13.225 -0.1512 -0.0963 -0.1020
 9485W        W11685   2.024   0.223  37.118 -0.3157  0.1201 -0.2112
 9486W        W11686   2.784   5.652  31.988  0.0693 -0.2791  0.1223
 9487W        W11687   3.378   1.584  12.334 -0.2332 -0.2706 -0.0432
 9488W        W11688   8.556   6.479   9.598 -0.0498  0.0361 -0.0100
 9489W        W11689  12.404   6.200  30.592  0.3137 -0.0017  0.3373
 9490W        W11690   3.803   3.181  15.922 -0.3721 -0.1580 -0.2339
 9491W        W11691   3.157   2.396  35.486 -0.4512  0.0956  0.3787
 9492W        W11692   5.180   0.033  41.509  0.0423 -0.2826 -0.1461
 9493W        W11693  11.642   1.859   5.435 -0.0812  0.3604  0.2273
 9494W        W11694   3.215   3.141  40.183 -0.0784  0.0754 -0.0700
 9495W        W11695   3.485   5.637  32.057 -0.2560  0.3168  0.3717
 9496W        W11696   3.829   4.411  39.137  0.2015  0.2058 -0.1540
 9497W        W11697  18.103   2.748  20.068  0.0422 -0.1429  0.1384
 9498W        W11698   2.036   4.479  36.290 -0.3775 -0.0271 -0.1741
 9499W        W11699  11.167   5.647  41.814  0.0341 -0.0934  0.1970
 9500W        W11700  13.077   3.752  28.182  0.1555  0.1333 -0.1763
 9501W        W11701  12.206   3.141   2.849  0.1081  0.0080  0.0107
 9502W        W11702   0.668   4.421  36.731  0.3490 -0.0581  0.0832
 9503W        W11703   2.521   0.789   1.844 -0.0614 -0.1937  0.0113
 9504W        W11704  11.519   0.441  18.302  0.4580  0.2073 -0.3610
 9505W        W11705  16.764   5.271  12.500 -0.2608 -0.1215  0.1598
 9506W        W11706   5.123   5.120  23.330 -0.1234 -0.1447  0.1974
 9507W        W11707   3.384   3.631   3.894 -0.2281  0.0497 -0.2144
 9508W        W11708   6.709   1.367  15.551 -0.3253  0.1120 -0.2236
 9509W        W11709  19.195   1.928   6.525  0.0300 -0.0442 -0.4018
 9510W        W11710  19.818   0.001   3.881 -0.2188  0.0927 -0.2396
 9511W        W11711   1.770   4.328  33.383 -0.1429 -0.2835 -0.5000
 9512W        W11712  19.595   3.109  13.461 -0.3494 -0.1265  0.1116
 9513W        W11713  12.623   5.332  12.771 -0.2929 -0.0501 -0.1094
 9514W        W11714  13.441   4.503  43.384 -0.0979 -0.1587  0.0218
 9515W        W11715   3.228   6.226  41.700  0.3326 -0.0711  0.0003
 9516W        W11716  17.843   2.760  43.280 -0.0268 -0.2612  0.3262
 9517W        W11717  16.794   5.020  16.579  0.1924  0.1444  0.3067
 9518W        W11718  19.498   4.299  13.593 -0.0820  0.0974  0.2557
 9519W        W11719   5.182   2.994  35.415 -0.0150 -0.1155 -0.0294
 9520W        W11720  13.396   5.397  30.362 -0.2992  0.0956  0.0611
 9521W        W11721   4.336   0.127   2.371  0.2117 -0.1676  0.2809
 9522W        W11722  18.110   1.796  28.021 -0.0236  0.2454 -0.2527
 9523W        W11723   0.787   5.141  40.118  0.1237  0.1968  0.0708
 9524W        W11724  18.412   2.790  36.265  0.1778 -0.0795  0.2444
 9525W        W11725  12.322   6.516  18.021 -0.1868  0.2876  0.0971
 9526W        W11726  17.851   0.947   4.443 -0.2555 -0.3363 -0.1006
 9527W        W11727   2.094   0.821  23.465 -0.0429 -0.2443 -0.0141
 9528W        W11728   8.521   4.644  25.668 -0.1454 -0.0282  0.3402
 9529W        W11729  12.936   2.697  41.602 -0.3247  0.0639  0.0572
 9530W        W11730   4.980   1.187   7.391  0.2893 -0.1984  0.3038
 9531W        W11731   6.394   2.153   5.765 -0.1259 -0.3611 -0.1017
 9532W        W11732   6.191   6.002  29.079 -0.0462  0.2297  0.0207
 9533W        W11733  16.282   5.026  29.337 -0.0093 -0.0782 -0.1365
 9534W        W11734   7.304   4.008  27.463  0.3261  0.1488 -0.1460
 9535W        W11735  16.112   3.907   6.911  0.0162  0.0751 -0.1343
 9536W        W11736  11.525   1.165  34.701  0.4037  0.2205  0.0578
 9537W        W11737   5.982   5.626  35.121 -0.5197  0.0107  0.1423
 9538W        W11738   9.728   0.285  39.610  0.1775  0.0995  0.0826
 9539W        W11739   7.359   4.445  40.095 -0.2455 -0.2189  0.1000
 9540W        W11740   8.845   5.479  40.616  0.1804  0.1822 -0.0887
 9541W        W11741   6.659   3.968  15.827  0.1162 -0.0985  0.3705
 9542W        W11742  18.064   4.832  33.514  0.1049 -0.2100  0.1385
 9543W        W11743   3.969   3.249  42.237  0.2073 -0.0450  0.2784
 9544W        W11744  18.075   4.461  39.676  0.0071 -0.0130 -0.0886
 9545W        W11745   8.460   5.110  15.827 -0.0239 -0.1599 -0.0760
 9546W        W11746  13.908   1.638   6.892  0.1096  0.0560 -0.2442
 9547W        W11747  15.376   4.270  10.713 -0.4282 -0.0324 -0.0211
 9548W        W11748   6.835   6.570  27.065 -0.2680 -0.1687 -0.0987
 9549W        W11749  10.499   5.857  11.973 -0.2022  0.0707 -0.1918
 9550W        W11750   1.530   6.062  10.050 -0.1893  0.1371 -0.3297
 9551W        W11751  13.734   4.377  10.842 -0.0369  0.0129 -0.2963
 9552W        W11752  15.114   3.140  15.089 -0.0970 -0.0401 -0.4024
 9553W        W11753  15.115   6.561  31.694  0.0878  0.3598 -0.0895
 9554W        W11754  12.344   3.833  41.266 -0.0787 -0.0729 -0.1387
 9555W        W11755   4.852   0.780  36.739  0.1759 -0.0009 -0.1566
 9556W        W11756   6.117   2.813  12.681  0.0654  0.1108  0.2945
 9557W        W11757  11.544   1.745  31.903  0.1973  0.0403  0.4216
 9558W        W11758   5.558   4.020  40.281  0.0560 -0.2000 -0.0827
 9559W        W11759  16.015   2.540  17.183  0.2471  0.1696 -0.1552
 9560W        W11760  13.283   3.825  32.199 -0.1027 -0.1384  0.1851
 9561W        W11761   9.317   2.518  17.510 -0.1073  0.1774 -0.1445
 9562W        W11762  10.284   1.820  11.531  0.1310 -0.2453 -0.0380
 9563W        W11763   7.476   6.000  29.299  0.0025 -0.2532  0.2912
 9564W        W11764   8.281   0.380  12.804 -0.1444 -0.1767 -0.1200
 9565W        W11765  13.319   3.255   1.684  0.0867 -0.3568  0.0301
 9566W        W11766  13.527   2.323  18.133 -0.0160 -0.1301  0.1955
 9567W        W11767   0.242   0.186   0.611 -0.1905 -0.0881  0.1782
 9568W        W11768   6.648   1.244  12.215 -0.0802  0.2367  0.0003
 9569W        W11769   0.911   5.001   4.813  0.2602 -0.2265  0.2098
 9570W        W11770   0.863   1.588  34.114  0.1224 -0.0374  0.1340
 9571W        W11771  19.480   0.592  13.502 -0.2168 -0.0064  0.1881
 9572W        W11772   6.526   5.722  10.364  0.3057 -0.1578 -0.3114
 9573W        W11773   2.647   1.600  15.078  0.3696  0.1566 -0.1584
 9574W        W11774  11.671   4.787  21.595 -0.0250 -0.0820  0.0083
 9575W        W11775  16.800   3.656   3.318 -0.2492  0.0323  0.0084
 9576W        W11776  10.482   5.118  40.280 -0.0715  0.1643 -0.0667
 9577W        W11777  14.499   0.989   9.580  0.1428  0.1443  0.2660
 9578W        W11778   2.110   5.470   6.478  0.3465 -0.2280  0.1169
 9579W        W11779   4.657   4.882  43.549 -0.2420 -0.1790  0.0057
 9580W        W11780   9.453   4.854  40.880  0.0455  0.4463 -0.1421
 9581W        W11781  15.965   2.009  35.151 -0.1424  0.1119 -0.1603
 9582W        W11782  15.517   3.743  32.009  0.0926  0.1944 -0.0280
 9583W        W11783  14.600   1.823  25.875  0.0411 -0.0373  0.0839
 9584W        W11784  20.775   6.292  36.509  0.2057 -0.1675  0.2445
 9585W        W11785  12.215   3.830  37.089  0.1271 -0.1550  0.2903
 9586W        W11786   7.556   0.572   0.362  0.0877 -0.0939  0.2616
 9587W        W11787   6.347   2.581  35.228  0.4641  0.3156  0.0413
 9588W        W11788   2.865   6.073  25.884  0.0775  0.0681  0.0913
 9589W        W11789   3.294   4.295   9.054  0.1476  0.0830 -0.0513
 9590W        W11790  13.754   1.785  43.356  0.0913 -0.0564 -0.1193
 9591W        W11791   0.694   5.391   2.952 -0.0107  0.1926  0.0246
 9592W        W11792  19.206   0.943  38.971 -0.1935 -0.0079  0.0642
 9593W        W11793   1.334   5.513  40.720 -0.0098  0.0965 -0.1002
 9594W        W11794  12.250   4.916  42.854 -0.1284 -0.2224 -0.0783
 9595W        W11795  20.124   2.835  44.004  0.0666 -0.0798 -0.1215
 9596W        W11796  14.155   0.501   8.773  0.0326 -0.1276  0.1337
 9597W        W11797  16.676   1.914  13.617 -0.3137  0.1143  0.0148
 9598W        W11798  18.337   0.156   4.494 -0.5816  0.3392  0.2931
 9599W        W11799   3.383   4.210  43.514 -0.0271  0.2655  0.1624
 9600W        W11800   5.686   1.267  38.146 -0.4527  0.0540  0.1835
 9601W        W11801  17.109   3.088  36.629  0.0460  0.4557  0.0973
 9602W        W11802  13.024   6.035  33.337  0.2605  0.1810 -0.0746
 9603W        W11803  11.569   5.045  20.654 -0.1593 -0.2755 -0.2284
 9604W        W11804   3.053   0.018   9.546 -0.0810 -0.0230 -0.1128
 9605W        W11805   4.548   1.055  11.001  0.3545  0.1511  0.0854
 9606W        W11806   3.122   4.402  44.458  0.1782 -0.2661 -0.0359
 9607W        W11807   7.584   1.070  13.114  0.0406  0.3916  0.2797
 9608W        W11808   9.748   0.319  11.189  0.0205 -0.1765  0.0206
 9609W        W11809   4.007   4.359  36.039 -0.2607  0.3730 -0.1291
 9610W        W11810  20.062   2.421  16.450 -0.2286  0.1527 -0.0731
 9611W        W11811  13.296   1.816  32.080  0.0905 -0.0353  0.0021
 9612W        W11812  13.499   2.749   4.690  0.1054 -0.0385  0.1011
 9613W        W11813  17.333   0.671  42.366 -0.0261 -0.2466  0.2520
 9614W        W11814   4.608   1.677  41.883 -0.0633  0.1128  0.2892
 9615W        W11815   6.023   2.298  35.982  0.1951 -0.0206  0.3766
 9616W        W11816  14.794   3.617  22.776  0.2023 -0.1528  0.3461
 9617W        W11817   0.462   3.383  40.298 -0.1310 -0.0445  0.1438
 9618W        W11818   2.456   3.946  31.771  0.1277  0.2261  0.0507
 9619W        W11819  17.189   3.662  29.434  0.2016  0.1251  0.0181
 9620W        W11820   7.740   5.968  35.150 -0.2711  0.1198 -0.0547
 9621W        W11821  14.359   0.659  41.130  0.0822 -0.0128 -0.2503
 9622W        W11822   6.298   5.482  40.461 -0.0106 -0.0180  0.0302
 9623W        W11823  15.091   4.318  29.354  0.0860  0.0262  0.1082
 9624W        W11824  12.147   3.155  20.663 -0.1579 -0.2526 -0.1876
 9625W        W11825  20.784   4.884  31.226 -0.0348  0.1343 -0.2659
 9626W        W11826  10.672   2.778  36.127  0.0869  0.1745  0.0878
 9627W        W11827  13.980   1.108  17.792 -0.1093  0.2446  0.1013
 9628W        W11828  17.345   3.487  36.468  0.3906 -0.2908  0.2195
 9629W        W11829  11.653   5.061  41.157 -0.0603  0.2392  0.1767
 9630W        W11830  19.352   0.148  16.933 -0.1750 -0.1284  0.1398
 9631W        W11831   4.322   5.041  35.979  0.0715  0.1334 -0.2048
 9632W        W11832  13.200   3.520  36.174  0.0332  0.0662  0.2548
 9633W        W11833  11.140   6.473  31.388  0.0368 -0.2564  0.2047
 9634W        W11834   4.227   5.595  23.024 -0.0901 -0.4564  0.0959
 9635W        W11835   6.211   0.012  33.847 -0.4035 -0.4371  0.0077
 9636W        W11836  17.310   2.232  30.043  0.0014  0.0335 -0.2784
 9637W        W11837  16.709   6.575   6.118  0.0338 -0.2091 -0.1843
 9638W        W11838  11.336   0.062  43.040  0.0631  0.3348 -0.0456
 9639W        W11839  20.354   4.570  14.395  0.0563 -0.1404 -0.0819
 9640W        W11840   0.609   5.644  43.729 -0.0181  0.1710 -0.0199
 9641W        W11841   2.021   0.881  29.556 -0.2344 -0.0074 -0.0292
 9642W        W11842   9.223   3.490  36.198  0.0421 -0.0972  0.0212
 9643W        W11843  13.306   6.355  10.538 -0.2849  0.0580 -0.0277
 9644W        W11844  20.669   4.044   9.063  0.0683 -0.1180  0.2808
 9645W        W11845  11.387   2.251  10.306  0.3269 -0.3431 -0.0240
 9646W        W11846  10.187   4.330  39.288  0.1134  0.3054 -0.2620
 9647W        W11847   6.199   6.095  15.698  0.0828  0.0778 -0.2271
 9648W        W11848   4.931   4.709   1.106 -0.0116 -0.3162  0.1946
 9649W        W11849   2.373   1.943   4.980  0.4636  0.0963  0.1468
 9650W        W11850  16.687   0.010  12.083 -0.2380  0.0841 -0.0718
 9651W        W11851  12.363   4.588   5.746 -0.1145  0.3599 -0.0611
 9652W        W11852  16.099   4.902  32.850 -0.2533 -0.2917 -0.0900
 9653W        W11853  20.920   4.962   1.732 -0.0559  0.0199 -0.0965
 9654W        W11854   4.088   3.792  37.475 -0.0122 -0.2916 -0.0361
 9655W        W11855   3.452   3.026  23.259  0.0479  0.1314  0.1140
 9656W        W11856  21.032   0.807  26.568  0.0867 -0.1108 -0.2238
 9657W        W11857  19.629   3.293  39.803  0.1035  0.0648 -0.0496
 9658W        W11858   4.608   5.152  33.190 -0.0746  0.0046 -0.1027
 9659W        W11859  15.337   4.344  12.631  0.3481 -0.0121  0.1126
 9660W        W11860   3.290   5.831  20.900  0.0226 -0.0548  0.1616
 9661W        W11861   9.507   5.172  12.999 -0.0137 -0.2257 -0.0420
 9662W        W11862   3.867   5.804  36.031 -0.1493  0.0116 -0.1146
 9663W        W11863  17.111   6.446  31.634 -0.1324 -0.1036  0.3956
 9664W        W11864  13.993   4.233  24.381  0.1003  0.1592 -0.0551
 9665W        W11865  20.191   5.217   9.716  0.0592 -0.1608 -0.0242
 9666W        W11866  12.737   4.413  12.302  0.7424 -0.0450  0.4113
 9667W        W11867  20.165   2.172   5.908 -0.0655  0.0808  0.1533
 9668W        W11868  15.974   4.837  15.788  0.2038 -0.1166 -0.3719
 9669W        W11869  19.468   3.961   3.415  0.2809 -0.0561  0.1803
 9670W        W11870   4.905   2.515  30.127 -0.1267 -0.3349  0.1287
 9671W        W11871  20.503   0.782   2.628 -0.0633 -0.0566 -0.3593
 9672W        W11872  11.213   3.538  30.200 -0.0095  0.1499  0.1133
 9673W        W11873  20.121   4.541   3.500 -0.1607 -0.0657  0.0409
 9674W        W11874   7.333   5.306  30.293  0.0340  0.0030 -0.0766
 9675W        W11875  17.927   2.793   5.400 -0.0601  0.0369  0.1853
 9676W        W11876   3.627   6.573  30.550 -0.1484  0.0171  0.0207
 9677W        W11877  10.864   2.660   8.739 -0.2842 -0.0924  0.1165
 9678W        W11878  12.587   0.897   2.664 -0.3430 -0.0939  0.2561
 9679W        W11879   7.916   2.334  32.985 -0.0495  0.0944 -0.0047
 9680W        W11880   4.567   1.967  24.800 -0.0413  0.0687  0.1218
 9681W        W11881   3.369   6.101  29.804 -0.0379 -0.0255 -0.2892
 9682W        W11882  12.812   1.504   7.126 -0.1114 -0.1142  0.1279
 9683W        W11883   9.829   5.687   9.807  0.2296  0.2975 -0.2223
 9684W        W11884   5.500   6.465   0.411  0.0402 -0.0105  0.1020
 9685W        W11885   3.175   6.595   8.098  0.0161 -0.1561 -0.0995
 9686W        W11886  18.798   5.673   5.216 -0.0309  0.0517 -0.0887
 9687W        W11887   0.156   5.756   1.087  0.0332 -0.0665  0.1473
 9688W        W11888   3.354   1.782   3.497 -0.1343  0.0505 -0.0166
 9689W        W11889   2.864   4.263  26.856 -0.2510  0.2043  0.0223
 9690W        W11890  17.514   2.224  15.522 -0.1238  0.2147  0.3706
 9691W        W11891   0.176   2.931  10.193 -0.2737 -0.2115 -0.2093
 9692W        W11892  11.329   3.605  18.960  0.0657  0.3201  0.0725
 9693W        W11893  15.066   0.459  34.998 -0.1565  0.0899  0.1238
 9694W        W11894   5.643   0.176  25.269  0.2966 -0.0697 -0.1439
 9695W        W11895   9.931   3.105  14.346  0.2733  0.2814  0.0826
 9696W        W11896  11.879   2.033  32.138  0.0440  0.1450 -0.2951
 9697W        W11897  19.074   6.559  39.018  0.0808  0.1492 -0.0823
 9698W        W11898   7.149   0.546   7.244 -0.1659  0.0553 -0.0531
 9699W        W11899  14.605   2.368  39.494  0.2296 -0.1469  0.3084
 9700W        W11900  18.207   1.705  41.787  0.0261  0.0740 -0.1478
 9701W        W11901  15.056   1.356   6.251  0.3286  0.0632 -0.2525
 9702W        W11902  17.912   2.479  37.714  0.3419  0.2265  0.0706
 9703W        W11903  19.892   1.886  37.195  0.0077  0.1000  0.1797
 9704W        W11904   6.297   1.040   1.936  0.0420 -0.2431 -0.0102
 9705W        W11905  18.819   6.333   2.401 -0.2710 -0.0348  0.0094
 9706W        W11906  16.288   2.274  14.862  0.3081 -0.2785  0.0494
 9707W        W11907   4.278   4.555  28.530  0.1366 -0.1748  0.0428
 9708W        W11908   2.037   0.179  16.080  0.3212 -0.0101 -0.0931
 9709W        W11909   5.131   4.571  40.399  0.0904  0.0280 -0.1432
 9710W        W11910  16.884   2.619  42.870  0.0136 -0.0977  0.0426
 9711W        W11911   6.107   5.641  39.944  0.1196  0.0931 -0.1051
 9712W        W11912  11.294   1.209  11.933 -0.1916 -0.5268  0.3168
 9713W        W11913   0.227   4.960  35.382 -0.0609  0.0990  0.0969
 9714W        W11914   2.418   3.833   7.789 -0.4784  0.1521 -0.0669
 9715W        W11915  17.357   0.171  31.949 -0.0275 -0.2430 -0.3419
 9716W        W11916   3.110   3.571  13.415  0.2195 -0.2868 -0.0742
 9717W        W11917   8.942   2.609  11.018 -0.1726  0.2239  0.1583
 9718W        W11918   3.989   4.669   6.614 -0.0313  0.1949 -0.1043
 9719W        W11919   3.543   1.072   4.586  0.2042 -0.4945  0.2284
 9720W        W11920   1.840   0.403  15.404  0.0039  0.2343 -0.1793
 9721W        W11921   5.699   5.215  40.763  0.2597 -0.0165  0.0545
 9722W        W11922   4.353   1.939  21.756  0.1818 -0.1240 -0.0839
 9723W        W11923   5.398   2.076  40.804 -0.3235 -0.0240 -0.4773
 9724W        W11924  13.186   3.839  22.604 -0.0074  0.0686 -0.0532
 9725W        W11925  14.018   4.044  18.293 -0.0901 -0.1146 -0.1434
 9726W        W11926  18.907   2.921  40.706 -0.1042 -0.0596  0.0542
 9727W        W11927  15.843   3.023  31.450  0.1034 -0.0672  0.1702
 9728W        W11928  14.553   0.353  22.986 -0.1316  0.0701 -0.0545
 9729W        W11929   8.689   5.351  30.493 -0.1262 -0.2373  0.0037
 9730W        W11930   5.220   0.625  26.950  0.2571 -0.1308 -0.1413
 9731W        W11931   7.986   4.146   6.024  0.0269 -0.0956 -0.1346
 9732W        W11932  19.810   4.981  42.286 -0.0252 -0.0737  0.0104
 9733W        W11933  18.444   3.226  10.242 -0.0569 -0.1084 -0.0523
 9734W        W11934  21.015   0.831  38.646 -0.0155 -0.0394 -0.0270
 9735W        W11935  15.616   3.730   4.798  0.1373  0.0760 -0.1600
 9736W        W11936   7.392   4.782   5.331  0.0830 -0.1267  0.0016
 9737W        W11937   5.458   2.213   0.209  0.0806  0.1165 -0.2267
 9738W        W11938  16.710   1.947  10.602 -0.0897 -0.0936 -0.2273
 9739W        W11939  20.261   1.140   9.423 -0.3634 -0.0085  0.0314
 9740W        W11940  10.928   0.470  43.110  0.1644  0.0959  0.1374
 9741W        W11941  16.261   0.990  19.261 -0.3405  0.1466  0.2485
 9742W        W11942  10.875   0.799  20.549  0.2042  0.1812 -0.2719
 9743W        W11943   9.513   5.589  35.578 -0.1578  0.1179  0.0333
 9744W        W11944   3.849   1.730  26.710 -0.3803  0.0438  0.2816
 9745W        W11945   0.319   3.047  14.881  0.0800  0.0005  0.2398
 9746W        W11946  11.503   0.576  36.384  0.1701 -0.0543 -0.0894
 9747W        W11947  14.069   2.928  13.730 -0.1084 -0.2906  0.1212
 9748W        W11948   6.062   3.260  29.944 -0.0665 -0.2006  0.0753
 9749W        W11949  13.288   1.497   7.393  0.1976  0.1333 -0.1671
 9750W        W11950   5.191   4.863  16.278  0.1211  0.2417 -0.2491
 9751W        W11951  16.965   5.836  18.033 -0.2032  0.0016  0.0062
 9752W        W11952   3.095   4.838  25.164  0.0211 -0.0987 -0.0869
 9753W        W11953  15.525   5.975  39.686  0.0784  0.1220 -0.2012
 9754W        W11954   6.383   2.854  39.919 -0.0237  0.2249  0.0719
 9755W        W11955  17.728   2.996  42.874  0.0338 -0.0225  0.0604
 9756W        W11956  16.200   1.197   5.784  0.0589  0.0547  0.3873
 9757W        W11957  15.425   4.139   8.438 -0.1828 -0.0462 -0.0299
 9758W        W11958  19.314   4.037  27.821  0.0323  0.1200  0.0245
 9759W        W11959   2.155   2.765  12.979 -0.0165  0.1104 -0.2050
 9760W        W11960  15.302   1.756  23.544  0.3160 -0.0510 -0.0137
 9761W        W11961  21.068   6.230  35.261 -0.1100 -0.0342 -0.1130
 9762W        W11962   3.364   2.309   9.330 -0.2121  0.0478  0.2285
 9763W        W11963  12.793   3.818  22.188  0.1160 -0.0385 -0.3793
 9764W        W11964  15.787   1.953  32.331  0.2589 -0.3426 -0.0737
 9765W        W11965  15.522   1.526   5.862  0.2032 -0.1155  0.0574
 9766W        W11966   3.552   5.280  36.916 -0.0089  0.0026 -0.1575
 9767W        W11967   9.135   3.915   1.194 -0.2762 -0.3306  0.2179
 9768W        W11968   2.498   2.541  27.719  0.1337 -0.0710 -0.0584
 9769W        W11969   5.210   0.587   2.642 -0.0711  0.0298  0.2025
 9770W        W11970  12.432   2.113   4.917 -0.1521  0.0604 -0.4268
 9771W        W11971   3.052   0.082  10.652  0.1051 -0.0125  0.0953
 9772W        W11972  12.528   6.468   4.952  0.0732 -0.0103 -0.1152
 9773W        W11973  12.829   5.673   3.170 -0.1437  0.0005  0.0174
 9774W        W11974  17.870   0.771  33.851 -0.3128 -0.3019 -0.0403
 9775W        W11975   9.543   3.376  43.595  0.0955  0.2568 -0.0037
 9776W        W11976  12.098   0.727  28.667 -0.1789  0.2033  0.3919
 9777W        W11977  14.927   2.062   2.197 -0.1940 -0.3165 -0.3814
 9778W        W11978   7.748   1.486   7.229 -0.3017 -0.2276 -0.2337
 9779W        W11979  17.765   2.935   5.822 -0.0681 -0.1587  0.1582
 9780W        W11980  10.320   5.335   9.069 -0.0826 -0.1829  0.1258
 9781W        W11981   0.735   1.030  36.329  0.1122  0.2865  0.3753
 9782W        W11982  13.228   4.490  20.321  0.0735  0.1076 -0.0619
 9783W        W11983  10.379   5.493  33.332  0.2489 -0.1754  0.0320
 9784W        W11984   0.396   1.515   9.841  0.2322 -0.1671 -0.2006
 9785W        W11985  13.361   3.388  23.446 -0.0806 -0.0967  0.3846
 9786W        W11986   6.514   5.972  36.829  0.1963 -0.2734  0.0968
 9787W        W11987   5.315   3.720  39.963 -0.2614  0.0263 -0.2767
 9788W        W11988  19.202   0.859  15.598 -0.1920 -0.1036 -0.0928
 9789W        W11989   2.643   4.469  30.738 -0.1989 -0.1508 -0.2033
 9790W        W11990  16.834   5.404  20.207 -0.2589  0.2101 -0.2040
 9791W        W11991   5.644   4.413   8.764  0.0440 -0.0362  0.0315
 9792W        W11992   5.937   2.791  44.835  0.0827 -0.1817  0.0534
 9793W        W11993   5.017   6.265  37.498 -0.0098  0.2314  0.0887
 9794W        W11994  13.895   0.040  41.479  0.1043 -0.0708 -0.0566
 9795W        W11995   1.214   0.353  28.564  0.0167  0.0720 -0.1473
 9796W        W11996   3.206   1.451  12.850  0.0808  0.0305 -0.1949
 9797W        W11997   6.164   0.017   6.422  0.1857  0.0637 -0.1968
 9798W        W11998  13.904   3.081  18.424 -0.0604 -0.0782 -0.1159
 9799W        W11999   1.290   6.120  16.070  0.1801 -0.1050  0.2011
 9800W        W12000  12.587   0.157  17.664  0.2995 -0.0883  0.5784
 9801W        W12001   4.852   2.255   6.318 -0.0560 -0.2334  0.0259
 9802W        W12002  14.552   0.003   9.618  0.0262  0.0948 -0.3489
 9803W        W12003  12.682   6.053  42.023 -0.1533 -0.2246  0.2900
 9804W        W12004  15.564   0.612  39.204 -0.0592 -0.1143 -0.0762
 9805W        W12005  19.420   1.819  40.357 -0.0690  0.2588  0.2224
 9806W        W12006   2.805   4.045   8.137 -0.1405 -0.0206  0.0207
 9807W        W12007   6.728   3.720   7.577 -0.1879 -0.3010  0.2073
 9808W        W12008   7.933   4.069  11.982  0.0542  0.0957  0.3103
 9809W        W12009  12.323   1.897  11.212  0.1362  0.1418 -0.0295
 9810W        W12010   6.463   4.102  38.408 -0.1462 -0.0774  0.1804
 9811W        W12011  18.401   0.284  11.827  0.0974 -0.0389 -0.3829
 9812W        W12012  19.838   5.491  14.113 -0.0276 -0.2816 -0.4345
 9813W        W12013   3.993   5.451  22.398  0.0913 -0.0660  0.0608
 9814W        W12014  17.056   1.710  42.429 -0.1822  0.0787  0.2120
 9815W        W12015   5.537   4.532  27.634 -0.1022  0.0497 -0.0767
 9816W        W12016   1.814   2.870  11.547 -0.1810 -0.1077 -0.0417
 9817W        W12017   1.581   4.077   9.921  0.0589 -0.3682  0.0573
 9818W        W12018   7.579   5.089  16.013 -0.1739  0.0865  0.2102
 9819W        W12019   2.938   4.817  20.947 -0.0762  0.3315  0.2102
 9820W        W12020   4.624   0.758   5.594  0.0313  0.1038  0.2648
 9821W        W12021  14.158   0.725  30.317 -0.0877 -0.0058  0.1010
 9822W        W12022  16.261   5.738  40.443 -0.1646  0.0709 -0.1084
 9823W        W12023   4.723   1.390   2.359 -0.0396 -0.5641 -0.3134
 9824W        W12024  18.763   1.090   0.670  0.1279 -0.3913 -0.1723
 9825W        W12025  12.055   0.438  31.614 -0.0780  0.0012 -0.1201
 9826W        W12026  13.335   4.274  22.901 -0.2520 -0.0093  0.1208
 9827W        W12027  12.040   1.430  42.368 -0.0777  0.5392 -0.1354
 9828W        W12028  20.053   2.874  26.478 -0.0822  0.0379  0.0988
 9829W        W12029  19.241   3.992   9.292 -0.0046 -0.3755  0.1354
 9830W        W12030  18.073   5.418  32.731 -0.0659  0.1048  0.0081
 9831W        W12031  17.551   6.140  16.379 -0.3579 -0.2179 -0.0115
 9832W        W12032  15.761   3.683  19.650 -0.0186 -0.1277 -0.1541
 9833W        W12033  20.981   2.138   7.763  0.0794 -0.1585  0.0430
 9834W        W12034  17.621   5.029   3.015  0.4108  0.1275  0.0808
 9835W        W12035   1.088   4.385   1.708 -0.1065 -0.0573  0.0833
 9836W        W12036  20.298   1.634  35.138 -0.1034  0.0544 -0.3733
 9837W        W12037  20.578   0.432  42.936 -0.0641 -0.1344  0.2223
 9838W        W12038  16.420   2.504  15.765 -0.0021  0.0501  0.1558
 9839W        W12039  15.569   5.021  32.549  0.1630  0.0066 -0.2762
 9840W        W12040  14.060   0.312  19.133  0.0146 -0.2774  0.2893
 9841W        W12041   4.565   0.689  38.746 -0.1532 -0.1318 -0.2961
 9842W        W12042   5.145   5.474   5.283 -0.2554  0.0032 -0.0623
 9843W        W12043  17.097   6.391  33.173  0.0759  0.3598 -0.1893
 9844W        W12044  19.208   1.084  38.012  0.1198 -0.1815 -0.0925
 9845W        W12045   8.261   0.195  12.336  0.3934  0.3629 -0.2413
 9846W        W12046   3.836   2.576  19.337 -0.1029 -0.0122 -0.0235
 9847W        W12047  17.053   2.733   7.939 -0.0836  0.0083  0.0745
 9848W        W12048   9.130   3.045  10.759 -0.0106 -0.0390  0.1313
 9849W        W12049   3.042   5.143   6.638 -0.2083  0.2938  0.1933
 9850W        W12050  19.270   1.466  13.482 -0.1231  0.1526  0.2115
 9851W        W12051  18.784   0.578  31.801 -0.1590 -0.1492  0.1363
 9852W        W12052   6.101   3.045  27.480  0.0833  0.1773  0.2113
 9853W        W12053   4.262   0.399  20.076 -0.0236 -0.1803  0.0515
 9854W        W12054  15.440   4.905   1.741 -0.0191 -0.2048  0.1889
 9855W        W12055   3.330   4.528  33.086 -0.5047 -0.0823 -0.0487
 9856W        W12056  18.495   3.877   1.686  0.0997  0.1312  0.0453
 9857W        W12057  13.214   1.163   4.830 -0.0338  0.0405  0.1988
 9858W        W12058   0.161   5.000  12.311 -0.0975  0.0995  0.1437
 9859W        W12059   8.129   0.023  31.713 -0.1405  0.0837  0.1747
 9860W        W12060  10.697   1.136  39.393  0.0985 -0.0065 -0.2949
 9861W        W12061  10.496   2.244  36.954  0.0664  0.0870  0.2580
 9862W        W12062   8.438   3.224  12.197  0.2268  0.2326  0.0822
 9863W        W12063  15.190   5.291  31.943  0.3561 -0.1557 -0.0108
 9864W        W12064  10.884   1.683  14.682  0.0975  0.0693 -0.0658
 9865W        W12065  14.517   4.206   9.647 -0.0811  0.0006 -0.2705
 9866W        W12066  12.718   3.565   6.801  0.0236  0.0380  0.2187
 9867W        W12067  17.323   4.153  20.968  0.3073 -0.1585  0.1652
 9868W        W12068  18.879   3.189   1.475 -0.2930  0.1052 -0.1331
 9869W        W12069   0.139   3.516   3.324  0.4912  0.0502  0.0107
 9870W        W12070  11.288   0.961  17.068  0.1386 -0.0647  0.2141
 9871W        W12071  16.071   0.975  39.179 -0.0845 -0.0274  0.2660
 9872W        W12072   0.409   1.392   4.526  0.0974 -0.1414 -0.1995
 9873W        W12073  12.291   0.832  12.367  0.0028 -0.1091 -0.0064
 9874W        W12074  18.889   3.581  28.499 -0.1833  0.3895  0.2254
 9875W        W12075  19.236   5.874  35.035  0.0096  0.2180  0.0366
 9876W        W12076  16.214   3.663   1.256  0.2402 -0.4125  0.2433
 9877W        W12077  16.718   4.526   8.332  0.0017  0.2873  0.1484
 9878W        W12078   2.439   2.205  34.924 -0.3068  0.0023 -0.0415
 9879W        W12079  11.721   5.719   9.116 -0.1887 -0.0164 -0.2359
 9880W        W12080   0.295   4.856  25.249  0.1794  0.0930  0.1899
 9881W        W12081  14.086   2.468  40.756 -0.1353 -0.0087  0.1247
 9882W        W12082  10.484   6.343  31.059  0.0726 -0.0808  0.0778
 9883W        W12083  13.819   0.229  24.056  0.0159 -0.1031 -0.0872
 9884W        W12084  14.682   0.585   6.868 -0.1474  0.0730 -0.1550
 9885W        W12085   1.222   3.752  39.225  0.1835 -0.0202  0.0060
 9886W        W12086  21.057   6.392   8.450  0.0105  0.1977 -0.1976
 9887W        W12087   9.583   4.575  16.368 -0.1517  0.0741 -0.1543
 9888W        W12088  19.784   0.872   7.231 -0.2299  0.3520  0.0847
 9889W        W12089   8.593   3.223  36.658  0.0074 -0.0731 -0.3905
 9890W        W12090  10.705   6.294  40.858 -0.4499  0.1338 -0.1778
 9891W        W12091  20.139   4.116   8.121  0.0940 -0.0110 -0.0899
 9892W        W12092   1.081   4.343  36.455 -0.1560 -0.0283 -0.0322
 9893W        W12093   0.778   2.690  44.666 -0.1094 -0.0691  0.2205
 9894W        W12094   1.657   5.530   2.282  0.0060  0.0125 -0.0143
 9895W        W12095  17.218   6.578  42.903 -0.1423 -0.1053 -0.1009
 9896W        W12096   9.390   3.057  37.617  0.1359 -0.0488  0.1620
 9897W        W12097   2.344   4.480  28.028  0.1688 -0.0442 -0.1409
 9898W        W12098  17.322   1.110  10.107 -0.1475 -0.2681 -0.0689
 9899W        W12099   7.958   2.601  37.060 -0.4271 -0.1856 -0.1454
 9900W        W12100   9.993   3.993   8.743  0.0724  0.1470  0.0276
 9901W        W12101  10.142   1.644   2.533  0.2978  0.0536  0.1985
 9902W        W12102   9.221   0.484  11.359  0.1859 -0.1440 -0.0548
 9903W        W12103   4.355   1.217   5.574 -0.0492  0.1121  0.0705
 9904W        W12104   5.868   1.223   8.342 -0.1073 -0.0020  0.0237
 9905W        W12105   5.821   3.657  33.880 -0.1244  0.2569 -0.1287
 9906W        W12106   0.147   0.207  11.683  0.0674  0.0063 -0.0306
 9907W        W12107   0.548   4.793  39.811 -0.0938 -0.0590 -0.0433
 9908W        W12108   3.872   3.188  25.845  0.3496  0.0806  0.0951
 9909W        W12109  13.627   5.537  11.380  0.2139  0.0404 -0.0417
 9910W        W12110   0.567   5.760   7.700 -0.0594  0.2866 -0.1086
 9911W        W12111   9.274   0.335   2.701 -0.2200  0.4464 -0.1484
 9912W        W12112  11.604   2.214   5.945  0.0955  0.1710  0.2038
 9913W        W12113   2.150   5.524  10.799 -0.0558 -0.0205 -0.1159
 9914W        W12114   5.327   6.096  35.197 -0.2382  0.1493  0.2000
 9915W        W12115   8.427   5.202  17.474  0.2472  0.0412  0.4929
 9916W        W12116  20.816   2.609  38.505  0.1519  0.1259  0.0145
 9917W        W12117   0.102   3.454  25.046 -0.0379 -0.0213  0.0339
 9918W        W12118  19.005   1.995   0.697 -0.1403 -0.0264 -0.1906
 9919W        W12119   8.350   6.283  30.396 -0.0685 -0.2676 -0.2819
 9920W        W12120  14.287   6.459  35.273 -0.5233 -0.4297  0.2352
 9921W        W12121   1.231   4.483   9.966 -0.0617  0.1725  0.1465
 9922W        W12122  17.612   2.582  19.913  0.2512  0.0526 -0.0856
 9923W        W12123   3.167   1.501   3.953 -0.3341  0.1395  0.0403
 9924W        W12124   0.294   4.983  35.866  0.3577 -0.1849 -0.2251
 9925W        W12125  12.936   1.877  42.376 -0.0087  0.0048 -0.0923
 9926W        W12126   1.370   1.103  13.247  0.1396  0.1822  0.0115
 9927W        W12127   3.244   0.349  31.050 -0.0491 -0.0646  0.1985
 9928W        W12128   6.631   6.001  30.672  0.2669  0.0566  0.4248
 9929W        W12129  19.136   0.296  27.243 -0.0831 -0.3206 -0.1480
 9930W        W12130  18.873   0.862  36.031 -0.1167 -0.0407  0.4557
 9931W        W12131   8.885   1.131  32.430  0.1416 -0.0711 -0.0201
 9932W        W12132   9.008   2.459  31.563  0.0014  0.4818 -0.1109
 9933W        W12133  14.191   4.192  11.528  0.0147  0.2882 -0.2472
 9934W        W12134  14.701   5.174  34.871 -0.1965  0.0621  0.0472
 9935W        W12135   9.877   3.651   9.646 -0.0952  0.0363  0.2653
 9936W        W12136   3.322   2.332   2.599  0.1809 -0.0280  0.0218
 9937W        W12137   0.009   1.078   0.267  0.5515 -0.1759  0.0180
 9938W        W12138  20.186   5.504  44.248  0.2731 -0.1693  0.0013
 9939W        W12139  20.862   4.846  15.463  0.0231  0.0452 -0.0959
 9940W        W12140  18.616   1.705   0.848 -0.3685 -0.0601 -0.2559
 9941W        W12141   3.621   1.745  24.965  0.0256  0.0679  0.1518
 9942W        W12142   7.821   4.973  32.312  0.0994 -0.2002 -0.0557
 9943W        W12143  13.786   3.497   2.938  0.1758 -0.0258  0.0727
 9944W        W12144  15.568   5.480  44.406  0.1823 -0.0197  0.0031
 9945W        W12145   9.322   4.378  29.517 -0.1241 -0.0604 -0.0015
 9946W        W12146   8.572   1.789  43.621  0.1967 -0.2129 -0.1596
 9947W        W12147  17.244   2.747  43.559 -0.0185 -0.0286  0.0839
 9948W        W12148   0.242   1.781  31.423  0.1167 -0.2995 -0.0565
 9949W        W12149  11.639   6.373  43.999 -0.0083  0.0057  0.2115
 9950W        W12150   9.435   1.374  33.071 -0.0943  0.0646  0.1394
 9951W        W12151  20.568   3.781  26.065  0.1131  0.1263 -0.1667
 9952W        W12152  10.657   2.782  15.106 -0.1274  0.2996  0.0368
 9953W        W12153   5.137   4.809   6.628 -0.1075  0.1863  0.2186
 9954W        W12154  17.277   5.640  29.270  0.1313  0.2893  0.0937
 9955W        W12155  15.619   4.025  44.916 -0.1535  0.2088  0.2144
 9956W        W12156   6.848   4.862  44.537 -0.0933 -0.1941  0.2266
 9957W        W12157   0.371   5.608  38.607  0.0048  0.3040  0.0693
 9958W        W12158  14.467   2.527  40.055 -0.2202 -0.1664  0.0610
 9959W        W12159   7.035   5.172  39.761  0.1681 -0.3081  0.3041
 9960W        W12160  14.227   4.021  10.014  0.0690 -0.0219  0.4296
 9961W        W12161  13.930   0.546  24.537  0.3413  0.0935 -0.0250
 9962W        W12162   6.553   1.704  42.915 -0.0309  0.0991 -0.0531
 9963W        W12163   0.726   2.189   5.500  0.3409 -0.0147 -0.0097
 9964W        W12164   8.339   2.228  42.642 -0.0463 -0.0646  0.2778
 9965W        W12165  16.049   0.398  30.088 -0.1383 -0.2254  0.2642
 9966W        W12166  11.849   4.951   7.917 -0.1557  0.5338 -0.0316
 9967W        W12167  20.341   4.695  12.565 -0.0406 -0.2946  0.1601
 9968W        W12168  14.581   1.067   2.543 -0.1247  0.0512 -0.3328
 9969W        W12169   6.597   1.196  31.277  0.0420  0.3033  0.1393
 9970W        W12170  18.669   0.822   5.872 -0.0956  0.0791 -0.3138
 9971W        W12171  14.044   3.143   6.437 -0.1195 -0.2752  0.0225
 9972W        W12172   9.715   6.516  36.542  0.0245 -0.0669  0.0280
 9973W        W12173  20.990   4.424  39.640 -0.0966  0.2727  0.0294
 9974W        W12174  15.471   5.178  14.620  0.3186  0.0872 -0.1278
 9975W        W12175  13.711   6.339  30.483 -0.0630 -0.2673 -0.2179
 9976W        W12176   0.087   5.839   9.247 -0.2953  0.2766  0.2020
 9977W        W12177   1.022   4.835  44.187 -0.1564  0.2942  0.1458
 9978W        W12178  13.610   6.043  17.448 -0.2206  0.0168 -0.5233
 9979W        W12179  21.103   4.438  29.127 -0.0367  0.1698  0.3958
 9980W        W12180   2.310   3.002  39.108 -0.0238 -0.2350  0.2459
 9981W        W12181  13.170   1.676  39.333  0.2061  0.0030  0.3974
 9982W        W12182  11.962   1.219  40.888  0.2345 -0.0011  0.0740
 9983W        W12183   4.857   2.640  36.878  0.0450 -0.1232 -0.1494
 9984W        W12184   1.859   6.556  36.210 -0.0779 -0.0043 -0.0833
 9985W        W12185  10.756   0.978  41.116  0.2133 -0.3312  0.1773
 9986W        W12186  16.262   0.969  32.283  0.2005 -0.0003  0.0895
 9987W        W12187  10.239   4.827  18.339  0.1324  0.0191  0.0234
 9988W        W12188   0.670   1.256  24.417  0.1574 -0.0011  0.2797
 9989W        W12189   1.363   0.378  23.153 -0.1516 -0.2979 -0.1654
 9990W        W12190  18.429   6.178   7.418 -0.1646  0.0130  0.0467
 9991W        W12191   3.145   4.213  35.469  0.0201  0.1430 -0.0555
 9992W        W12192  11.706   2.177  31.704 -0.0497  0.1332  0.2459
 9993W        W12193   1.153   5.060   5.716  0.2983  0.0306 -0.1171
 9994W        W12194  13.548   5.782  38.323 -0.1102 -0.0606  0.0638
 9995W        W12195   1.994   2.217  23.920  0.3584 -0.3870  0.0358
 9996W        W12196  19.952   3.352   2.830 -0.1523 -0.1946 -0.1985
 9997W        W12197   9.455   0.224  17.328  0.0165 -0.1857  0.0407
 9998W        W12198  16.159   3.966  21.055  0.2375  0.5121 -0.2812
 9999W        W12199   2.992   2.061  32.842  0.0834 -0.0304 -0.0882
10000W        W12200   2.926   6.083   5.685 -0.4772  0.2576  0.0993
10001W        W12201  16.732   4.635  17.501 -0.0308  0.1183 -0.0011
10002W        W12202  19.569   1.021  37.571 -0.1849  0.1080 -0.2614
10003W        W12203   6.010   4.349  44.476  0.0243  0.0370 -0.1230
10004W        W12204   1.341   2.748  29.486  0.1403  0.0060 -0.1146
10005W        W12205  13.439   0.313  41.645 -0.3620  0.1076 -0.0401
10006W        W12206   3.007   3.219  25.939  0.1955 -0.1195 -0.1328
10007W        W12207  18.001   2.694  39.632 -0.2386  0.0077 -0.3998
10008W        W12208  20.161   1.576   1.027 -0.2370  0.0412  0.1686
10009W        W12209   8.750   5.071  29.940  0.0033  0.0026  0.1099
10010W        W12210  12.267   5.420   9.255  0.1936 -0.3064  0.2426
10011W        W12211   3.694   0.036  33.915 -0.2045 -0.1926  0.1261
10012W        W12212   8.285   6.529  39.782 -0.0778 -0.0327 -0.3271
10013W        W12213  18.081   2.851  10.287 -0.2596  0.0173  0.2555
10014W        W12214  13.932   0.803  29.412  0.1382 -0.0515 -0.0437
10015W        W12215  19.731   5.807   7.589  0.1506  0.0153 -0.0164
10016W        W12216  15.532   3.954  18.018  0.0931  0.0910 -0.1556
10017W        W12217   1.770   6.533  42.814 -0.1993  0.2625 -0.0896
10018W        W12218   6.539   2.496   0.310 -0.0574  0.1976  0.2414
10019W        W12219   3.995   2.635  22.219  0.0297  0.0387 -0.0074
10020W        W12220  18.730   2.321   2.262 -0.1369 -0.1974 -0.2461
10021W        W12221  10.865   0.444  14.161  0.1014 -0.2088 -0.1702
10022W        W12222  13.499   5.435  36.748 -0.1700  0.2363  0.1955
10023W        W12223   3.570   5.538   1.920  0.1105 -0.1303  0.0927
10024W        W12224   7.564   1.385  42.911  0.0107  0.0404  0.1520
10025W        W12225   5.026   5.223  35.333  0.0434  0.0445  0.0723
10026W        W12226  11.918   2.439   1.336 -0.2881 -0.0608 -0.1449
10027W        W12227  16.580   3.336   6.672  0.0043  0.0753 -0.2490
10028W        W12228   4.335   3.490  24.876  0.1587 -0.0922 -0.0314
10029W        W12229  13.893   0.441  44.070  0.4113  0.2948  0.3065
10030W        W12230   2.682   4.895   7.458 -0.0386 -0.2764 -0.0645
10031W        W12231   3.880   5.509   8.534  0.0796 -0.1419 -0.1285
10032W        W12232  17.597   5.656  30.473  0.3234  0.2098 -0.1769
10033W        W12233  18.716   0.428   5.479 -0.1545 -0.2920 -0.3026
10034W        W12234   2.380   6.240  37.868  0.1188  0.1419  0.2035
10035W        W12235   0.314   5.927  29.242  0.1186  0.0430 -0.0255
10036W        W12236   9.309   1.041  14.869 -0.1804  0.1951 -0.2869
10037W        W12237   2.575   4.318  41.066 -0.0172 -0.0422 -0.3218
10038W        W12238  13.800   5.419  12.820  0.1571 -0.0457 -0.0324
10039W        W12239   0.497   3.926  25.062  0.0266 -0.1369 -0.0398
10040W        W12240   6.294   1.459  34.445 -0.1553 -0.2571 -0.3554
10041W        W12241  19.776   3.883  10.674  0.4915 -0.1529 -0.3107
10042W        W12242   1.669   0.436  40.388  0.2255 -0.0892 -0.0257
10043W        W12243   8.108   0.335  13.795 -0.1252 -0.3201 -0.1229
10044W        W12244   6.326   2.696  32.444 -0.4434 -0.0607  0.2044
10045W        W12245  14.982   5.741  11.561 -0.2853  0.1133  0.3546
10046W        W12246   8.697   0.322  44.872  0.3200  0.1150  0.2516
10047W        W12247  16.255   1.558  20.459 -0.0491  0.0167  0.0834
10048W        W12248   6.512   5.224   3.986  0.0445 -0.1450  0.1074
10049W        W12249  10.499   2.454  44.957  0.3391 -0.0931 -0.5890
10050W        W12250  10.933   0.735   9.561  0.3148  0.0489 -0.0533
10051W        W12251   8.671   2.054   5.221 -0.0306  0.3474  0.0227
10052W        W12252  18.874   5.628  34.168  0.0980 -0.0042  0.2833
10053W        W12253   4.391   2.728  32.691 -0.0306 -0.0957 -0.0162
10054W        W12254   2.080   2.282  14.422  0.2135  0.0797  0.1873
10055W        W12255  16.056   1.588  19.928  0.4701  0.4601 -0.3095
10056W        W12256  19.613   4.842  11.009 -0.1039 -0.3580 -0.1988
10057W        W12257   1.227   5.439  41.980 -0.0430 -0.0631  0.3045
10058W        W12258  12.151   4.363  11.479 -0.3001 -0.2109  0.4739
10059W        W12259  18.401   4.398  28.325  0.0294  0.2018 -0.1596
10060W        W12260   1.351   4.534  31.229 -0.1445  0.2281 -0.0534
10061W        W12261   6.088   0.960  23.566 -0.3208  0.0528 -0.0050
10062W        W12262   1.005   0.660  34.890 -0.0935 -0.0945 -0.1314
10063W        W12263   1.373   5.800  30.789  0.0587 -0.1743 -0.0143
10064W        W12264  10.046   4.520  31.260 -0.0885  0.0441 -0.1273
10065W        W12265  10.850   0.574  40.803  0.0312  0.0360 -0.0698
10066W        W12266  12.410   1.344  40.729  0.1594  0.2415  0.0407
10067W        W12267  12.450   2.253  23.512  0.0865 -0.0417 -0.3640
10068W        W12268  12.800   0.396   0.988  0.0283 -0.1659 -0.1584
10069W        W12269   0.710   2.845  10.162  0.0403  0.3119 -0.0958
10070W        W12270   0.363   1.059  13.022 -0.2156  0.1351  0.2112
10071W        W12271   8.427   4.601  39.432  0.1873 -0.2144 -0.1133
10072W        W12272  11.795   0.316  43.097 -0.2948 -0.0070 -0.2551
10073W        W12273  14.637   4.868   8.900  0.0017  0.0639  0.2221
10074W        W12274   9.308   3.957   4.919 -0.0480 -0.3405 -0.1416
10075W        W12275   8.747   0.050  29.823 -0.4846 -0.0395  0.0587
10076W        W12276   2.305   4.839  21.347 -0.1238 -0.2003 -0.0992
10077W        W12277  10.058   3.927   0.885 -0.3692  0.0412 -0.1016
10078W        W12278  17.818   2.793  32.956 -0.3120 -0.3596 -0.0921
10079W        W12279   2.441   2.710  43.948 -0.0744  0.1504 -0.4249
10080W        W12280  14.487   1.097  16.282  0.2296 -0.1236 -0.1076
10081W        W12281  18.154   2.299  32.845  0.2439  0.0400 -0.4241
10082W        W12282  12.634   2.665   3.876  0.2568  0.4934  0.0221
10083W        W12283  15.599   2.216  31.893 -0.2086  0.0228  0.2474
10084W        W12284   3.402   5.646   1.361  0.2004 -0.1694 -0.0261
10085W        W12285  10.776   5.764   8.423 -0.1669  0.2087 -0.2953
10086W        W12286   2.437   1.084   7.294 -0.0468 -0.0432 -0.2610
10087W        W12287  12.762   2.458   3.405  0.1395  0.0038  0.2467
10088W        W12288   1.123   0.826  28.434  0.2350 -0.1076 -0.0356
10089W        W12289   9.315   5.854  26.997 -0.0984 -0.0107  0.1449
10090W        W12290  20.207   6.211  36.737 -0.1196  0.0626 -0.1125
10091W        W12291   0.051   0.631  15.966 -0.1848 -0.1783  0.1076
10092W        W12292   3.810   1.497  41.961  0.2946 -0.0043  0.1736
10093W        W12293  18.886   0.015  10.388 -0.4147 -0.0915 -0.2165
10094W        W12294  11.842   0.302  13.717  0.0053 -0.0717  0.1918
10095W        W12295  14.663   3.543  37.250  0.0836 -0.3515  0.1586
10096W        W12296  15.977   5.758   9.196  0.1593  0.0016  0.0040
10097W        W12297   4.877   1.892  29.272 -0.0377 -0.1292 -0.3017
10098W        W12298  10.139   5.729   8.068  0.2713 -0.1090  0.2151
10099W        W12299  19.201   5.689  41.351 -0.0526 -0.0073  0.2464
10100W        W12300   4.028   4.069   6.558 -0.5463 -0.0937  0.3083
10101W        W12301  14.951   5.720  43.002 -0.0882  0.0529  0.0295
10102W        W12302  16.204   2.450  16.755 -0.1063  0.1307 -0.1427
10103W        W12303   0.252   5.327  31.169 -0.1805 -0.0767 -0.0939
10104W        W12304  16.800   5.324  20.744 -0.1927 -0.0084  0.1372
10105W        W12305  11.156   5.537  37.111  0.1469 -0.1656 -0.2283
10106W        W12306  11.808   3.547  21.367 -0.1342 -0.2781  0.0142
10107W        W12307  19.168   4.246  16.662 -0.0324  0.0630 -0.2667
10108W        W12308  18.133   5.030  10.972  0.1442 -0.0036 -0.2582
10109W        W12309  20.908   1.002  33.711  0.0268  0.0265 -0.1132
10110W        W12310   0.171   3.997  38.637 -0.1215 -0.0181  0.0563
10111W        W12311   5.804   1.982  42.217 -0.1010 -0.2604 -0.0047
10112W        W12312   2.778   5.843   3.345  0.4519  0.0668  0.3408
10113W        W12313   3.366   3.402  27.329 -0.0842 -0.3798 -0.0416
10114W        W12314  19.664   3.653  33.892  0.0005 -0.1781 -0.1003
10115W        W12315  19.195   2.755  17.417  0.0672  0.0211 -0.1873
10116W        W12316  15.939   3.328   4.955  0.2068 -0.0761 -0.2625
10117W        W12317  17.231   2.959   3.646 -0.0142  0.0962 -0.0323
10118W        W12318   3.398   0.614  20.318  0.2015  0.0152  0.0801
10119W        W12319  21.142   2.446  16.421 -0.1827 -0.0287 -0.0288
10120W        W12320  17.784   0.604  29.404 -0.0319 -0.0825 -0.0499
10121W        W12321   9.206   6.032  33.402  0.3274 -0.3366  0.0657
10122W        W12322   1.763   4.857  38.705 -0.2400  0.0531 -0.1939
10123W        W12323  16.641   0.791   5.746 -0.1789 -0.1674  0.1684
10124W        W12324  18.709   2.869  40.231  0.0573  0.0055  0.3396
10125W        W12325  13.337   0.064   5.289  0.1224  0.1871  0.0640
10126W        W12326  11.073   0.930  37.548  0.0074  0.0094  0.1392
10127W        W12327   8.971   5.371  42.714 -0.2220  0.2628 -0.1175
10128W        W12328   1.612   2.207  31.368  0.0471 -0.2226  0.1244
10129W        W12329   0.565   0.822  43.585 -0.3465 -0.0714 -0.2189
10130W        W12330  20.787   3.705  17.913 -0.1345  0.0330  0.1892
10131W        W12331  10.147   3.858  39.416  0.0393  0.3200 -0.0866
10132W        W12332   7.570   1.234  41.959  0.1373 -0.0451  0.0085
10133W        W12333  13.223   4.233   6.044  0.4109 -0.1363 -0.2217
10134W        W12334  14.246   4.971  31.347 -0.1110 -0.2341  0.1374
10135W        W12335   3.497   4.673   1.459 -0.1094  0.2075  0.4252
10136W        W12336  16.432   2.769  19.757 -0.2614 -0.1235  0.1160
10137W        W12337  17.512   5.600   9.184  0.3320 -0.0087 -0.2562
10138W        W12338   5.656   2.389  23.439  0.1415  0.2014 -0.0531
10139W        W12339   5.858   4.426  39.394  0.0477 -0.3947 -0.0737
10140W        W12340  20.381   5.251   6.211  0.0047 -0.0392 -0.2023
10141W        W12341   4.932   1.006  28.662 -0.0065  0.0520 -0.0601
10142W        W12342  16.395   6.097  12.758  0.1328 -0.0164 -0.1316
10143W        W12343  15.933   2.176  39.494 -0.2977  0.0326 -0.0552
10144W        W12344   6.531   2.353  27.229 -0.0551 -0.1557  0.0955
10145W        W12345  10.468   5.986  18.406 -0.2142 -0.0351 -0.1114
10146W        W12346  15.338   4.817  37.984 -0.1648  0.1799 -0.0752
10147W        W12347  14.343   1.166  34.083  0.2305 -0.0762 -0.0379
10148W        W12348   5.705   5.659  34.719  0.1220  0.1063 -0.0518
10149W        W12349   9.159   1.165  40.168 -0.0008 -0.1483 -0.0455
10150W        W12350  12.917   1.535  33.479  0.0921  0.0159 -0.0194
10151W        W12351   8.975   0.478  30.083 -0.0902 -0.0734 -0.2906
10152W        W12352  19.843   0.266  16.790  0.0779 -0.0664 -0.3794
10153W        W12353  13.544   4.521  34.305  0.1626  0.1329 -0.2480
10154W        W12354  16.024   3.830   3.833 -0.0433  0.0524 -0.2792
10155W        W12355   0.859   3.756  12.814 -0.1626 -0.0147 -0.2645
10156W        W12356  14.750   0.869  37.252  0.0752  0.2388 -0.0718
10157W        W12357  14.836   4.704  43.828 -0.1015 -0.0606 -0.4460
10158W        W12358  12.133   6.115  43.641  0.1321  0.2299  0.1002
10159W        W12359   9.588   3.025  41.866  0.0409  0.0934  0.0822
10160W        W12360   4.136   3.315  27.235 -0.1599  0.1716  0.1758
10161W        W12361  13.978   5.962  38.123 -0.2684 -0.1923  0.1594
10162W        W12362  20.076   5.632   6.744 -0.2126 -0.2394 -0.0836
10163W        W12363  13.935   2.078  10.883 -0.1669  0.0487  0.4298
10164W        W12364  19.773   6.529  15.272 -0.1017  0.0411 -0.0494
10165W        W12365  13.380   3.478   9.394 -0.1132  0.1106  0.3789
10166W        W12366  20.517   4.367   6.058 -0.0208  0.2630 -0.3309
10167W        W12367   3.695   2.493   9.018 -0.0503 -0.1332  0.0649
10168W        W12368  15.106   4.209  39.232 -0.1313  0.2286  0.1282
10169W        W12369  17.956   5.262  33.225  0.0806  0.0056 -0.1514
10170W        W12370  20.645   3.765  24.535 -0.0224  0.5873 -0.3350
10171W        W12371  18.476   6.005  28.727  0.1942 -0.0753 -0.3139
10172W        W12372   2.962   2.428  36.575 -0.0438 -0.2855 -0.3114
10173W        W12373  11.100   1.263  45.141  0.2774 -0.0285  0.1955
10174W        W12374   0.770   4.375  28.014  0.1229 -0.0758 -0.0033
10175W        W12375  20.183   3.703   6.653 -0.0891 -0.1384  0.0279
10176W        W12376   6.771   6.171  12.836 -0.0921  0.2532  0.1210
10177W        W12377   0.519   1.439  31.098 -0.0919  0.2538 -0.0580
10178W        W12378   1.956   3.662   9.182  0.2814  0.1910  0.0764
10179W        W12379   8.038   4.992  35.553  0.1105 -0.2152 -0.1426
10180W        W12380   1.985   1.813  12.019  0.0308 -0.0067  0.1817
10181W        W12381  12.599   6.584  30.867  0.0680  0.3312  0.0819
10182W        W12382  18.605   0.104  31.671  0.1402  0.0881  0.3137
10183W        W12383   9.335   4.812  12.725 -0.1536  0.0653  0.0002
10184W        W12384  15.979   4.265  30.312 -0.0421  0.2688 -0.0416
10185W        W12385  21.051   0.245  43.040 -0.1302 -0.2702 -0.2052
10186W        W12386   0.914   2.877   7.214 -0.1677 -0.2183  0.1130
10187W        W12387   8.681   1.102  12.185 -0.0541  0.0876 -0.1586
10188W        W12388  18.971   3.991  16.333  0.1484 -0.0285 -0.0701
10189W        W12389   3.856   3.590   2.949  0.3807 -0.1957 -0.0739
10190W        W12390   8.076   3.251  41.831  0.0402 -0.0841 -0.1837
10191W        W12391   1.068   0.022  29.777  0.0627  0.0874  0.2452
10192W        W12392   1.522   1.764  11.407 -0.2777  0.1757  0.1562
10193W        W12393   1.657   3.097   7.811  0.0131  0.2151  0.1268
10194W        W12394  16.919   2.740   5.069  0.3448 -0.0656 -0.1391
10195W        W12395  13.607   1.494  16.591 -0.2081 -0.0636  0.2254
10196W        W12396  16.462   3.135  29.813 -0.1449  0.0094 -0.1710
10197W        W12397   9.106   3.152  13.708  0.2257  0.1990 -0.2171
10198W        W12398   2.864   1.373  43.937  0.2161  0.2627  0.0322
10199W        W12399  14.274   5.584  11.429  0.0312 -0.0621  0.1189
10200W        W12400   8.213   0.838   8.085  0.1290 -0.1766 -0.1624
10201W        W12401  16.871   0.111  34.612  0.1110  0.0657  0.2014
10202W        W12402   1.848   3.255   1.572  0.3579 -0.0580 -0.1712
10203W        W12403   9.540   1.937  43.250  0.0134  0.0369  0.2311
10204W        W12404   8.170   1.131   5.384  0.1723  0.2040 -0.3426
10205W        W12405  11.974   3.269  35.583  0.0155  0.4525  0.0208
10206W        W12406   3.044   1.500  26.842  0.0728 -0.2098  0.1806
10207W        W12407  16.862   1.810  31.342  0.1711  0.1191 -0.1368
10208W        W12408   1.560   3.675   8.434 -0.3090  0.0025 -0.1453
10209W        W12409  14.716   4.334  17.989  0.1957  0.0740  0.0574
10210W        W12410   2.985   0.497  29.759 -0.1326 -0.2644  0.1271
10211W        W12411  17.417   0.245  36.026  0.1571 -0.1736  0.1889
10212W        W12412  18.666   0.686   3.609 -0.3650  0.0050 -0.1325
10213W        W12413   8.740   4.611  39.046  0.2425 -0.0783 -0.0055
10214W        W12414  16.576   0.533  32.986 -0.0064  0.2223 -0.0878
10215W        W12415   2.860   5.329  14.690  0.1868 -0.0263 -0.1352
10216W        W12416   5.292   1.853  28.227 -0.3083  0.1256 -0.2587
10217W        W12417  18.471   0.944   8.486 -0.0435  0.2980  0.1772
10218W        W12418  16.339   5.975  30.285 -0.1361 -0.0127  0.1009
10219W        W12419  20.984   2.569  41.651  0.2255  0.0962  0.1799
10220W        W12420   6.830   5.741  33.905  0.1425  0.0682 -0.2320
10221W        W12421   5.675   0.233  35.511  0.0200 -0.1089  0.0531
10222W        W12422  17.125   5.903  16.095  0.0926 -0.0712 -0.2574
10223W        W12423   2.836   3.088  31.119  0.0708 -0.0094  0.4081
10224W        W12424  13.920   0.756  34.241  0.2408 -0.0906  0.0132
10225W        W12425  20.914   1.740  12.590 -0.0103 -0.1727 -0.2289
10226W        W12426  12.695   1.296   4.950 -0.3168 -0.0692 -0.0142
10227W        W12427  15.346   0.275  35.996 -0.1683  0.0678  0.1498
10228W        W12428   9.415   4.793   9.783 -0.0009  0.0437 -0.1706
10229W        W12429  15.585   2.558  32.712 -0.1235 -0.0535 -0.1663
10230W        W12430  11.929   3.168  45.050 -0.0218 -0.0119  0.2927
10231W        W12431   9.100   6.139  15.483 -0.0297 -0.1257  0.1125
10232W        W12432   1.264   2.104  13.145  0.0153  0.2538 -0.1512
10233W        W12433  18.022   3.045   2.488  0.1570 -0.2388 -0.0247
10234W        W12434  11.345   2.316  36.474 -0.0328 -0.1106 -0.0744
10235W        W12435   6.093   3.984  10.058  0.3285  0.2912 -0.5509
10236W        W12436   4.022   1.209  10.859 -0.1598 -0.0660 -0.3508
10237W        W12437  10.831   3.907  10.428 -0.1336  0.2240 -0.0458
10238W        W12438  15.736   2.416   6.479 -0.0665  0.0077 -0.1708
10239W        W12439  14.625   3.535   1.177 -0.0134  0.0396 -0.0074
10240W        W12440  16.218   1.140  19.735 -0.3559  0.2687  0.2483
10241W        W12441  12.370   0.490  41.630  0.1253  0.3270  0.0863
10242W        W12442   3.817   2.356  37.535 -0.2592  0.0590 -0.0593
10243W        W12443   8.464   1.291  43.779 -0.2776  0.2006 -0.2004
10244W        W12444  14.183   3.119  29.498 -0.0379  0.3168  0.2967
10245W        W12445  10.942   4.409  16.075  0.1170  0.0539 -0.1916
10246W        W12446  13.922   4.776   9.986  0.1219 -0.1041 -0.0241
10247W        W12447  18.523   2.035  40.357  0.2606 -0.0187 -0.0073
10248W        W12448  15.125   6.328  39.889  0.1994 -0.0807 -0.0906
10249W        W12449   8.389   0.835  26.601 -0.0186  0.3375  0.1448
10250W        W12450  20.197   6.064   8.885  0.0796  0.1068  0.0971
10251W        W12451  10.068   1.001   8.481  0.5028  0.0428 -0.1872
10252W        W12452  17.334   1.377  42.763  0.2813  0.1361 -0.3382
10253W        W12453   8.123   6.201   5.023 -0.0974  0.1816 -0.0670
10254W        W12454   1.952   6.124  25.049 -0.0677 -0.0193 -0.0353
10255W        W12455   6.573   3.254  36.865 -0.1636  0.0202  0.1582
10256W        W12456  14.034   5.775  40.454 -0.1136 -0.2317 -0.1035
10257W        W12457  14.510   2.295  38.160 -0.0468  0.2001 -0.1823
10258W        W12458  20.543   1.635  38.072 -0.0891 -0.1063  0.1334
10259W        W12459  19.187   1.113  42.175 -0.1439 -0.2828 -0.1755
10260W        W12460   1.957   5.260   0.458  0.0271 -0.0685  0.0967
10261W        W12461   6.355   3.459  44.352 -0.0072 -0.2445 -0.2070
10262W        W12462   0.741   6.097   7.378 -0.0202 -0.2180 -0.1232
10263W        W12463   1.807   2.613  31.580  0.2914 -0.2076 -0.0339
10264W        W12464  15.579   3.629  43.788  0.1090  0.2638  0.0770
10265W        W12465  17.069   2.219   7.063 -0.0681  0.1907  0.0450
10266W        W12466  16.294   0.064   5.812  0.0284  0.1289  0.0108
10267W        W12467   0.939   0.920  35.868 -0.0268 -0.0324  0.3033
10268W        W12468   2.721   3.139   7.697  0.0190  0.1009 -0.0243
10269W        W12469   6.962   2.359  31.234 -0.2594 -0.0210 -0.0235
10270W        W12470  15.804   0.638   1.167  0.1690 -0.2064  0.3875
10271W        W12471   4.110   6.495   0.079  0.0617 -0.3850  0.0529
10272W        W12472  13.173   5.747  15.714 -0.0019 -0.3491  0.3076
10273W        W12473  16.761   5.883  14.342 -0.0712  0.3012 -0.0729
10274W        W12474  15.434   4.079  30.254  0.0637  0.0519  0.2768
10275W        W12475  18.377   6.595  19.528  0.0943 -0.3147  0.1826
10276W        W12476  20.446   4.492  16.657  0.1896 -0.2626 -0.0546
10277W        W12477  15.446   1.144  36.013 -0.1686 -0.1339 -0.0682
10278W        W12478   6.626   0.770  24.442  0.0876 -0.0677 -0.0942
10279W        W12479   7.965   6.456  15.212 -0.1398 -0.0218 -0.0756
10280W        W12480   6.840   6.525   3.582  0.1684 -0.1815 -0.2126
10281W        W12481  19.889   1.126  30.253  0.0102 -0.0850 -0.0968
10282W        W12482  13.592   4.732  23.094  0.0882 -0.2041 -0.1309
10283W        W12483   5.959   2.325   5.499  0.2771  0.0492  0.0441
10284W        W12484  18.548   0.804  13.798 -0.1448 -0.0144  0.1475
10285W        W12485  16.889   6.247  39.657  0.0342 -0.2513 -0.0349
10286W        W12486  19.778   6.257   6.924  0.0465  0.1795  0.2322
10287W        W12487  17.396   1.195   5.213  0.0645 -0.1716 -0.4440
10288W        W12488   9.530   2.202  18.584  0.1811 -0.0500 -0.0031
10289W        W12489  19.619   4.062  12.597  0.0737  0.1361 -0.0707
10290W        W12490  11.134   5.007   4.153  0.0213 -0.0808  0.1398
10291W        W12491  17.982   4.327  38.654  0.0090  0.1687  0.0744
10292W        W12492  17.829   6.595  36.121 -0.1009  0.1538 -0.1120
10293W        W12493   0.655   4.544  33.444 -0.0089  0.0842 -0.0818
10294W        W12494   1.229   4.998  38.689  0.0191  0.1151  0.0461
10295W        W12495  11.369   2.175  42.622  0.1909 -0.0786 -0.2615
10296W        W12496  13.485   1.273  12.856  0.1195  0.0213  0.1504
10297W        W12497   6.791   2.706  40.664  0.1820  0.0642  0.1478
10298W        W12498  12.503   1.765   0.824 -0.0894  0.0132 -0.1459
10299W        W12499  11.285   2.154   9.790 -0.0834 -0.2363  0.0391
10300W        W12500  13.566   2.898  15.451 -0.1366 -0.2368 -0.0746
10301W        W12501  18.636   2.426  45.099 -0.1023 -0.1555  0.3129
10302W        W12502   5.262   4.367  41.659 -0.2047  0.1234  0.0817
10303W        W12503   6.609   2.311   9.485  0.0304  0.0825 -0.0105
10304W        W12504  15.190   1.400  29.399  0.0900  0.0159 -0.0712
10305W        W12505   2.424   3.571  14.044  0.2306 -0.0118 -0.0779
10306W        W12506  20.347   5.490   3.158  0.3421  0.1995  0.0622
10307W        W12507   4.026   6.109  21.547  0.2723  0.2738 -0.3793
10308W        W12508   7.306   3.162  39.458 -0.4290 -0.0187 -0.3591
10309W        W12509  19.505   4.463   2.713 -0.0684 -0.1071  0.0075
10310W        W12510   9.867   4.376  31.752 -0.0047  0.1659  0.0982
10311W        W12511  13.572   2.531  37.485 -0.0028  0.1545  0.0409
10312W        W12512   4.509   0.568   6.120  0.0152 -0.0642  0.0878
10313W        W12513   4.857   0.250  13.254 -0.0830 -0.1975 -0.0155
10314W        W12514  17.707   3.771  11.209 -0.1535 -0.0584  0.0247
10315W        W12515  11.510   1.935  30.870  0.0300 -0.0178 -0.0523
10316W        W12516   4.251   4.402  16.071  0.1909  0.1553 -0.1561
10317W        W12517  10.166   0.267  39.291 -0.0301 -0.0435 -0.1350
10318W        W12518  19.228   2.675  40.490  0.1727 -0.3352 -0.0361
10319W        W12519   1.808   0.597  32.762  0.2226 -0.0855 -0.3211
10320W        W12520   7.351   0.011  31.870 -0.1558  0.0528  0.0737
10321W        W12521   5.858   2.290  37.953  0.2413  0.2044  0.4170
10322W        W12522  10.599   2.068  19.333 -0.0952 -0.0890  0.1690
10323W        W12523  12.657   3.565  11.432 -0.0280  0.0883 -0.1985
10324W        W12524   3.065   5.383  27.471  0.0151 -0.1864 -0.4452
10325W        W12525  19.807   4.991  16.997  0.0855 -0.0889 -0.3321
10326W        W12526   8.172   5.288   2.410  0.0908 -0.2445 -0.2274
10327W        W12527  19.871   3.973  13.626 -0.0361 -0.0163  0.1003
10328W        W12528   9.664   3.477  38.953  0.3263 -0.2130  0.1496
10329W        W12529   3.532   1.034  33.634 -0.4287 -0.2184 -0.1556
10330W        W12530  16.618   3.187  36.819 -0.0330  0.2200  0.2152
10331W        W12531  20.379   4.469  42.861 -0.2492 -0.1715 -0.2096
10332W        W12532  20.126   5.325  15.680  0.0144 -0.0544  0.0426
10333W        W12533   7.479   0.410   1.613 -0.1259 -0.2302  0.0550
10334W        W12534   6.289   5.760  41.391  0.4401  0.4428 -0.1308
10335W        W12535  11.971   1.299  14.357 -0.3828 -0.1429 -0.1217
10336W        W12536   3.152   0.277  42.270  0.2156 -0.0064 -0.1998
10337W        W12537  19.015   4.294  34.204  0.2272 -0.4966  0.0862
10338W        W12538   0.979   5.393  15.601 -0.1641 -0.0018 -0.0293
10339W        W12539  20.108   4.288   6.339 -0.1009  0.1684 -0.3093
10340W        W12540  10.170   3.375  15.980 -0.0748  0.2541  0.0726
10341W        W12541   2.187   3.307  37.455 -0.2061  0.0661  0.0132
10342W        W12542   5.848   0.216   0.596  0.1434  0.0836 -0.0854
10343W        W12543  15.256   4.096   7.451 -0.4214  0.2057  0.0304
10344W        W12544   0.337   1.914  36.522  0.0704  0.1480 -0.0655
10345W        W12545   8.316   5.504  33.049 -0.1259 -0.3492 -0.3321
10346W        W12546   8.905   2.153  38.166  0.0548  0.0497  0.1757
10347W        W12547   9.462   0.608  38.118 -0.0995  0.1685  0.0374
10348W        W12548  20.709   3.951  16.467  0.0011  0.0158  0.0568
10349W        W12549   9.193   6.272  11.709  0.2276  0.0161 -0.0755
10350W        W12550  15.076   3.195   9.358  0.1366 -0.3026  0.0132
10351W        W12551   9.399   2.943  40.475  0.0790 -0.1802 -0.1515
10352W        W12552   4.777   0.976  14.730 -0.2727  0.0516 -0.1330
10353W        W12553   6.280   0.402  26.132  0.1119 -0.2898  0.0290
10354W        W12554  13.572   3.133  43.619  0.1740 -0.0969 -0.2373
10355W        W12555   1.041   5.232  43.880 -0.3489  0.0448  0.0733
10356W        W12556  12.466   1.407  36.037 -0.0678  0.6621 -0.1960
10357W        W12557  15.458   2.832  38.090  0.1162 -0.1285  0.1619
10358W        W12558  14.871   3.648   6.171 -0.0471 -0.0965 -0.1034
10359W        W12559  13.193   6.391  20.221  0.1159  0.1092  0.1153
10360W        W12560  14.017   3.563  11.272  0.0502 -0.1314 -0.0364
10361W        W12561   3.667   0.416  35.061 -0.2301 -0.0726  0.1150
10362W        W12562   8.951   4.917  30.682 -0.0636 -0.0705  0.2096
10363W        W12563   8.087   4.598  43.551 -0.0942  0.1770  0.1666
10364W        W12564  20.379   5.508  11.121 -0.1394 -0.3478 -0.0650
10365W        W12565   5.040   4.331  44.896  0.1310 -0.0255  0.0776
10366W        W12566   6.817   2.321   3.694 -0.1314  0.0064 -0.3588
10367W        W12567   0.153   6.127  43.685 -0.1228  0.2245  0.2748
10368W        W12568   4.468   4.341   2.621 -0.2482 -0.1116  0.1216
10369W        W12569   5.100   4.516  25.786  0.0954 -0.3849  0.2656
10370W        W12570  17.450   0.943  41.034 -0.0501 -0.1240 -0.0402
10371W        W12571  11.356   0.845  12.262  0.0989 -0.2331  0.1310
10372W        W12572   4.869   4.806  23.930 -0.2545 -0.1282  0.1921
10373W        W12573   5.237   6.397  25.176  0.0191  0.0430  0.0606
10374W        W12574  12.099   3.942  34.138 -0.0379  0.1324  0.0102
10375W        W12575  18.272   4.767   5.431  0.0860  0.2177  0.0406
10376W        W12576   5.607   4.855  10.734  0.0072  0.0246 -0.0765
10377W        W12577  19.031   3.063   7.300  0.0821  0.0031 -0.2742
10378W        W12578  18.005   5.920   4.989  0.1859  0.1213 -0.1723
10379W        W12579  10.235   5.071  10.862 -0.0667  0.2212  0.0972
10380W        W12580  19.043   2.321  11.399  0.1378  0.1025  0.2239
10381W        W12581   7.877   0.308  32.087 -0.1569  0.0898 -0.2154
10382W        W12582   2.295   3.446  41.541 -0.2449  0.0752  0.2797
10383W        W12583  11.153   2.195   2.679  0.4189 -0.2779 -0.0362
10384W        W12584   0.787   5.763  15.877  0.2826 -0.0764  0.0563
10385W        W12585   1.944   4.678  33.056 -0.1872 -0.0926  0.2937
10386W        W12586   2.097   4.527  15.671  0.0438  0.2241 -0.0634
10387W        W12587   9.412   1.435  41.436  0.0294 -0.0724  0.0143
10388W        W12588   2.914   3.590   7.638  0.0452 -0.1759 -0.0766
10389W        W12589   5.971   0.149  25.774  0.0439  0.0112 -0.3085
10390W        W12590  19.801   0.133  33.260  0.1761  0.1448 -0.3577
10391W        W12591   4.754   1.319  40.473 -0.3800  0.1284 -0.4243
10392W        W12592  12.344   6.283  10.227 -0.0584  0.1068  0.3840
10393W        W12593   1.877   0.941  41.604 -0.0265  0.1346  0.0864
10394W        W12594  14.289   5.249  42.482 -0.2179  0.0001 -0.1203
10395W        W12595   0.629   0.361   4.508 -0.0455  0.0130 -0.0586
10396W        W12596  16.190   5.081  35.143  0.1985  0.1341  0.1748
10397W        W12597  19.513   1.447  42.384  0.1384  0.0379  0.2163
10398W        W12598  12.339   2.096  36.554  0.1815  0.3213 -0.2667
10399W        W12599   5.826   3.179   6.381 -0.1061 -0.2338 -0.3205
10400W        W12600  18.159   1.761  44.836 -0.2191  0.2284  0.1758
10401W        W12601  20.107   5.857  38.016  0.2121  0.0833 -0.1323
10402W        W12602   3.060   1.562  38.567 -0.0953 -0.1217 -0.1661
10403W        W12603  15.263   1.408  20.640 -0.0082 -0.1622 -0.0469
10404W        W12604  15.029   4.705  11.659 -0.0336  0.4330 -0.4461
10405W        W12605  10.811   3.320  12.979 -0.1068 -0.1218  0.2155
10406W        W12606   1.434   2.089  31.812 -0.0222  0.0752 -0.1637
10407W        W12607   3.495   1.652  28.060 -0.3955  0.1192  0.1212
10408W        W12608  11.773   1.723  17.282 -0.1644  0.1533  0.2349
10409W        W12609   3.808   3.654  40.864 -0.1651  0.0601 -0.3196
10410W        W12610  12.005   3.374   8.853  0.0312 -0.0554 -0.2064
10411W        W12611  19.362   4.059  30.205 -0.0946  0.3226 -0.1472
10412W        W12612   1.100   6.477  40.089  0.1674 -0.0608  0.3662
10413W        W12613   3.349   0.196  23.537 -0.1372 -0.2993  0.1785
10414W        W12614   7.665   3.288  25.583  0.1199  0.0593 -0.0210
10415W        W12615  17.254   5.665  14.273  0.0556  0.1062 -0.2392
10416W        W12616  18.168   0.421  34.402  0.2766  0.0437  0.3982
10417W        W12617  17.674   5.224   1.115 -0.3139 -0.0429  0.2333
10418W        W12618  12.597   2.169  44.696  0.0826  0.1769 -0.1046
10419W        W12619  11.422   1.607   5.871 -0.0334 -0.1795  0.1228
10420W        W12620   6.967   1.650  44.883 -0.1465  0.1330  0.5001
10421W        W12621   5.729   6.247  15.384 -0.1883 -0.0919 -0.1301
10422W        W12622  13.104   0.230  21.141  0.1909  0.0835 -0.0618
10423W        W12623   5.900   2.800  38.728 -0.2732  0.0122  0.2626
10424W        W12624  15.305   3.043  19.342  0.1300  0.2831  0.2775
10425W        W12625   2.050   0.559  36.644 -0.0487  0.1248  0.0158
10426W        W12626   9.538   4.291   0.935  0.0386  0.1245 -0.0706
10427W        W12627  13.845   0.256  37.565  0.0780  0.0660  0.2720
10428W        W12628   5.141   5.713  16.525  0.0702  0.2479  0.0544
10429W        W12629  11.042   4.466  21.184  0.2342 -0.0152 -0.2386
10430W        W12630   5.359   3.388  23.689  0.0179  0.0278 -0.0961
10431W        W12631  12.250   4.989   0.530 -0.1341  0.3053 -0.0268
10432W        W12632   0.399   4.542  38.698 -0.1163 -0.0748  0.4502
10433W        W12633  19.138   4.086  17.494 -0.2387 -0.0649  0.0383
10434W        W12634  18.593   1.940  42.117 -0.2392  0.1791  0.3801
10435W        W12635   7.263   0.834  16.575 -0.1430  0.2162  0.0289
10436W        W12636   2.831   1.291  11.369  0.1907 -0.1733  0.1147
10437W        W12637   2.590   3.828  12.689  0.0789  0.0966 -0.0985
10438W        W12638  12.766   0.452  30.801  0.0300 -0.2143 -0.1094
10439W        W12639  16.265   4.709   6.274  0.1461  0.1732 -0.3063
10440W        W12640  14.898   4.321  44.653 -0.0636  0.0977  0.3124
10441W        W12641   4.996   5.702  36.978  0.1877  0.6130  0.2040
10442W        W12642   8.077   1.762  35.054  0.1021  0.2613  0.0528
10443W        W12643   7.556   0.649  14.899 -0.2114  0.0770 -0.0236
10444W        W12644   9.300   5.102   8.914  0.0948 -0.2007  0.1046
10445W        W12645  18.739   6.265  36.212 -0.1919 -0.0051 -0.0762
10446W        W12646   0.283   6.604  44.789  0.0304 -0.0718 -0.2175
10447W        W12647   1.158   5.443   5.998  0.1137  0.0999 -0.0510
10448W        W12648   3.580   4.440   6.706  0.1152 -0.1432  0.1330
10449W        W12649   0.801   6.077   4.780  0.1379  0.0537  0.1854
10450W        W12650  10.892   1.342  21.292  0.0322  0.1012  0.0662
10451W        W12651  19.801   6.512  44.284  0.0210 -0.0387 -0.0311
10452W        W12652  18.673   1.616  42.876  0.1067 -0.2709  0.0482
10453W        W12653  12.849   2.734  38.705  0.3601 -0.1123 -0.0058
10454W        W12654   3.068   0.619   9.594 -0.2224  0.0294 -0.2104
10455W        W12655   9.024   2.350  17.986 -0.1372 -0.1666  0.0291
10456W        W12656  12.174   5.392   7.952 -0.0861  0.0278 -0.0735
10457W        W12657  13.718   5.848  19.441 -0.1344 -0.3326  0.1381
10458W        W12658   6.869   1.807   8.321 -0.2854  0.4372 -0.0833
10459W        W12659  11.542   4.738   6.200  0.0554 -0.2393 -0.0092
10460W        W12660  10.647   5.132  21.589  0.1515  0.2464 -0.0923
10461W        W12661  16.446   4.058  41.142 -0.0644  0.1172 -0.1179
10462W        W12662   4.560   4.260  27.592 -0.1024 -0.2212  0.0724
10463W        W12663  10.817   3.769  11.291 -0.0101 -0.2752 -0.1541
10464W        W12664   0.156   4.738  39.062 -0.0574  0.2091 -0.0161
10465W        W12665  16.112   5.835  11.971  0.0478 -0.0455  0.1031
10466W        W12666  13.198   0.766   9.439 -0.1120 -0.1756  0.1130
10467W        W12667  14.316   0.312  20.463 -0.1374  0.2094  0.2204
10468W        W12668  17.853   3.575  43.175  0.1634  0.2455  0.1408
10469W        W12669   2.440   1.278  11.663  0.0431  0.0991 -0.1278
10470W        W12670  16.412   2.781  13.736  0.1003  0.1216 -0.0104
10471W        W12671  10.862   3.173  33.558 -0.0229 -0.0249  0.0445
10472W        W12672  13.135   5.347  44.180  0.0450 -0.0267 -0.1057
10473W        W12673  18.493   1.594  31.535 -0.2085  0.0867  0.0088
10474W        W12674   9.519   5.358   1.960 -0.1195 -0.0268  0.2211
10475W        W12675  13.188   1.077  17.562  0.0445 -0.0819 -0.0437
10476W        W12676   8.587   5.006   2.524  0.2049  0.1406  0.2468
10477W        W12677  16.549   1.780  14.612 -0.0584 -0.0345  0.0974
10478W        W12678  13.152   5.272  31.146 -0.3853  0.3567 -0.3046
10479W        W12679   9.441   1.031  34.800 -0.0245  0.0192  0.1243
10480W        W12680   4.589   0.945  43.131 -0.0122  0.0807 -0.1403
10481W        W12681   1.169   3.074  16.295  0.2099  0.1742 -0.2728
10482W        W12682  17.777   5.372   6.981 -0.2240  0.0422  0.2232
10483W        W12683  17.557   4.202  15.417  0.1330 -0.1325 -0.2510
10484W        W12684  13.719   3.452  43.190  0.1859 -0.1111 -0.1345
10485W        W12685  13.587   5.568   9.988  0.0203 -0.1974 -0.0818
10486W        W12686   7.490   0.112  14.956  0.1243  0.0456 -0.0763
10487W        W12687   5.847   3.543  38.357 -0.0542 -0.3113 -0.1932
10488W        W12688  17.114   0.713   2.619 -0.1008  0.0877  0.0538
10489W        W12689   6.148   5.644   5.180 -0.1814  0.0150 -0.1126
10490W        W12690  10.885   2.570  13.400 -0.1178  0.1481  0.0643
10491W        W12691   5.940   4.364  40.833  0.1318 -0.2291  0.1676
10492W        W12692   9.246   3.442   2.761 -0.3037  0.0306 -0.0244
10493W        W12693   1.699   4.273  15.488 -0.1468  0.1815 -0.1989
10494W        W12694   3.757   2.641  30.249  0.0714 -0.0941  0.0103
10495W        W12695   5.473   6.090  24.490 -0.2767  0.1800  0.4709
10496W        W12696   5.807   4.032  27.378 -0.1117 -0.1366  0.1887
10497W        W12697  20.129   1.818  13.091  0.1715  0.1456 -0.0636
10498W        W12698   6.555   6.548  40.126 -0.1522  0.1965  0.1135
10499W        W12699   7.328   6.152  44.537  0.1751  0.2193  0.1059
10500W        W12700   4.167   2.931  27.614 -0.1558  0.1188  0.1975
10501W        W12701  16.246   2.397   5.164 -0.1125  0.2365  0.4646
10502W        W12702  11.733   3.070  32.187  0.2322  0.0091 -0.1074
10503W        W12703   0.388   1.018  13.513 -0.0389 -0.2089  0.1896
10504W        W12704   9.922   3.546  31.660 -0.0358  0.2276  0.1956
10505W        W12705  19.842   4.616  32.086 -0.0419  0.0430 -0.1161
10506W        W12706   0.914   6.573  15.396 -0.0065  0.1494  0.1124
10507W        W12707  12.866   6.442  15.065 -0.1740 -0.1473 -0.1971
10508W        W12708   2.532   5.398  22.133 -0.1527 -0.2058  0.2109
10509W        W12709   5.109   1.033  31.413  0.1475  0.3867 -0.3429
10510W        W12710   9.216   1.297  31.587 -0.1943 -0.0295  0.0003
10511W        W12711   5.524   3.160  12.127 -0.1937 -0.0928 -0.2486
10512W        W12712   4.164   4.349  19.344 -0.0521  0.2335  0.1402
10513W        W12713   1.445   6.369  36.616 -0.0303  0.1766  0.0994
10514W        W12714  19.171   3.826   5.412  0.0731 -0.2874 -0.0686
10515W        W12715  13.886   6.401  19.205  0.0049  0.0167 -0.0762
10516W        W12716   6.746   0.385  13.111  0.2925  0.0917 -0.0742
10517W        W12717  14.848   2.803  28.887  0.0315 -0.0144  0.1728
10518W        W12718   2.644   1.445  33.352  0.0364 -0.0608  0.0754
10519W        W12719   6.052   2.292  25.143  0.2676 -0.0048  0.2639
10520W        W12720  11.211   0.763  40.524  0.2650 -0.0101 -0.2067
10521W        W12721  14.989   5.058   3.032 -0.1669  0.3325 -0.0762
10522W        W12722  11.918   2.614  43.736  0.0063  0.0834 -0.0718
10523W        W12723   4.590   4.680  12.940  0.2183 -0.3724 -0.1043
10524W        W12724  12.469   0.632  43.460  0.1448  0.0305 -0.2112
10525W        W12725   5.464   2.006  37.053 -0.1132 -0.0645 -0.0842
10526W        W12726  17.098   1.519   3.866 -0.3367 -0.3822 -0.0029
10527W        W12727   1.075   6.043   7.810  0.1837  0.2000 -0.0442
10528W        W12728   9.747   4.804  34.036  0.1470  0.0273  0.1533
10529W        W12729  19.612   6.241   7.745 -0.0846  0.1405  0.0766
10530W        W12730  13.589   6.021  20.103  0.4325  0.2089  0.0188
10531W        W12731   3.662   2.817  41.454  0.1063 -0.1222 -0.2790
10532W        W12732   1.200   1.680  16.577  0.0816  0.0292 -0.0005
10533W        W12733   3.299   0.444  23.091  0.0774 -0.0322  0.2141
10534W        W12734   9.348   2.386  15.442  0.0604 -0.0095  0.0993
10535W        W12735   1.224   0.306   4.921  0.2727 -0.1060 -0.1411
10536W        W12736   0.101   1.483  43.462 -0.2222 -0.1862  0.0386
10537W        W12737  13.729   0.579  39.423 -0.0038  0.0886 -0.1127
10538W        W12738  15.849   3.061   6.837  0.1281  0.0789  0.1236
10539W        W12739  17.231   2.019  33.278 -0.1732 -0.1394 -0.3654
10540W        W12740  14.025   1.444   9.897 -0.3893  0.0641  0.1988
10541W        W12741  15.901   5.862   6.872  0.1042 -0.0970 -0.0843
10542W        W12742   2.360   4.268   7.015 -0.0282 -0.0667 -0.0341
10543W        W12743   4.662   3.315  28.013  0.0410  0.1908  0.3233
10544W        W12744  12.732   4.953   4.468  0.2042 -0.1778 -0.1138
10545W        W12745  11.368   5.185   2.739  0.0624 -0.1755  0.1304
10546W        W12746   7.995   2.205  27.896  0.2089 -0.0463 -0.1522
10547W        W12747  19.166   6.598  35.420 -0.0958  0.3743  0.1713
10548W        W12748   9.338   3.776  26.977 -0.4128  0.0576  0.4866
10549W        W12749  13.354   5.822  35.071  0.0841  0.1098 -0.0812
10550W        W12750  19.044   6.016   3.394 -0.2663  0.0966 -0.0396
10551W        W12751   7.101   1.492   5.545  0.0881  0.0977  0.0159
10552W        W12752   7.144   1.632  24.895 -0.0693 -0.2217 -0.2409
10553W        W12753  16.860   1.929  19.698 -0.2751  0.0745 -0.1640
10554W        W12754  10.683   2.481   1.688 -0.0065  0.1062 -0.3058
10555W        W12755  18.733   4.679  19.427  0.3161 -0.0929  0.1406
10556W        W12756   5.215   3.897  12.970  0.2844 -0.0945  0.1664
10557W        W12757   1.648   1.253  35.323  0.2406 -0.0772 -0.0247
10558W        W12758   1.158   0.280   2.927 -0.2916  0.2130  0.1425
10559W        W12759   3.856   2.150  24.230 -0.2589 -0.2266  0.0200
10560W        W12760  13.037   5.301  20.114 -0.2133 -0.2747  0.0479
10561W        W12761   9.520   3.718  37.102  0.1750 -0.2363 -0.0878
10562W        W12762   1.152   6.376  29.382  0.4429  0.0461 -0.1697
10563W        W12763   8.532   5.736  43.965 -0.4062  0.0874 -0.0977
10564W        W12764  17.999   6.467  33.007  0.1463  0.0930  0.0267
10565W        W12765  19.710   1.546  27.868  0.2839  0.1200  0.2609
10566W        W12766  17.776   0.240  37.425  0.2300  0.1150  0.2679
10567W        W12767  17.117   3.113  36.122 -0.0075 -0.2220 -0.2933
10568W        W12768  21.156   4.584  36.077 -0.1509 -0.0315  0.3671
10569W        W12769   3.937   4.488  24.065 -0.1520 -0.0266  0.2124
10570W        W12770  15.710   4.447  21.724  0.1301  0.1263  0.1335
10571W        W12771  16.759   1.473   0.092  0.0704 -0.1481  0.2025
10572W        W12772  20.885   3.707   1.031 -0.0593 -0.1050  0.0116
10573W        W12773  13.025   1.420  16.370 -0.0581  0.3707 -0.2636
10574W        W12774   4.934   5.229  15.130  0.2565  0.2567 -0.1015
10575W        W12775   5.280   1.542  22.099 -0.0052  0.0473 -0.1166
10576W        W12776  10.267   5.885  41.688  0.3441 -0.1024  0.0018
10577W        W12777  19.292   1.989  19.174 -0.1372 -0.1190 -0.1323
10578W        W12778  14.706   5.564  15.434  0.2652 -0.0611 -0.0635
10579W        W12779  20.142   6.399   8.488  0.0927 -0.0439 -0.0935
10580W        W12780  20.511   4.763  16.179 -0.0631 -0.1775  0.1141
10581W        W12781  12.084   4.358  33.883 -0.1079 -0.0064  0.1819
10582W        W12782   5.666   3.409  42.449  0.1588  0.2250  0.0175
10583W        W12783   5.879   0.844   8.008 -0.3081 -0.2703  0.4602
10584W        W12784   6.557   2.877   0.763  0.0271 -0.0321 -0.2631
10585W        W12785  19.081   2.678  39.978 -0.0042  0.2197 -0.0009
10586W        W12786  17.996   5.286  28.781  0.1728 -0.0779  0.0813
10587W        W12787  20.709   2.551   0.187  0.3083 -0.3808  0.1490
10588W        W12788   2.577   1.808  12.816 -0.1416  0.0580 -0.1905
10589W        W12789  10.296   4.291  37.305  0.1783  0.2598  0.1899
10590W        W12790  11.327   1.734   0.216  0.0828  0.1244  0.0770
10591W        W12791   5.417   5.001  41.207 -0.0821  0.0906  0.2813
10592W        W12792  11.770   5.568  42.943  0.1492  0.1301 -0.2248
10593W        W12793  19.798   0.495  17.453 -0.2291 -0.0867  0.1501
10594W        W12794   3.272   3.122  26.714 -0.0678  0.2041  0.2118
10595W        W12795   1.708   1.560  28.159  0.2621 -0.0116  0.0703
10596W        W12796  10.971   3.624  28.522  0.1767  0.0724  0.0467
10597W        W12797  18.983   0.869  41.758  0.1014  0.0755  0.2008
10598W        W12798   1.949   5.909  31.685  0.0707 -0.1247  0.0747
10599W        W12799  12.160   3.330  12.001  0.0655  0.2631 -0.0541
10600W        W12800  12.571   2.401   5.909  0.4155  0.0691  0.1295
10601W        W12801  10.995   3.326   6.698 -0.0482 -0.0727 -0.1610
10602W        W12802   7.311   1.953  12.735  0.1117  0.1261 -0.0293
10603W        W12803   7.129   4.518   7.431  0.0036  0.0334 -0.0633
10604W        W12804   6.674   2.958  35.256  0.0317  0.0718  0.1648
10605W        W12805   9.819   4.398  41.748 -0.1954  0.0290 -0.0334
10606W        W12806  13.762   0.252   9.180  0.0025 -0.0070  0.1812
10607W        W12807   9.368   1.261  40.967  0.0926  0.0508 -0.4431
10608W        W12808   2.189   0.672   2.399  0.2635  0.1612  0.2687
10609W        W12809   6.338   4.388  28.929  0.2151  0.0515 -0.0547
10610W        W12810   8.640   4.155   5.357  0.0073 -0.3625 -0.0110
10611W        W12811  15.457   1.124  33.385  0.0376 -0.1708  0.0829
10612W        W12812   9.415   1.114  41.893  0.0189  0.0590 -0.0285
10613W        W12813   1.151   4.860  32.236 -0.2768  0.1655 -0.0355
10614W        W12814   7.227   3.245  15.302 -0.3741 -0.3783 -0.0294
10615W        W12815   3.879   0.913  18.384  0.0663  0.0203  0.3464
10616W        W12816  17.941   1.798   9.232 -0.3136 -0.0941  0.0386
10617W        W12817  14.410   3.735  18.671 -0.3085 -0.0217  0.1124
10618W        W12818  19.413   5.656  34.012  0.1475 -0.4143 -0.1560
10619W        W12819  17.763   5.178  13.209 -0.0844 -0.0027 -0.1444
10620W        W12820  12.718   1.762  18.745  0.2195  0.0377  0.1322
10621W        W12821   4.705   4.664  36.578  0.1569 -0.0944  0.0565
10622W        W12822  13.455   5.128  18.506 -0.1721 -0.2798  0.0942
10623W        W12823   5.161   6.099  38.486  0.0490 -0.0447  0.2852
10624W        W12824  15.602   5.156   2.206 -0.0619 -0.1693 -0.0397
10625W        W12825   0.154   3.194  31.819 -0.1425 -0.0678 -0.0403
10626W        W12826  15.051   4.568  17.728 -0.2620 -0.2067 -0.0198
10627W        W12827  11.805   6.074  14.749  0.0357  0.0677  0.1247
10628W        W12828  13.196   2.022  39.748  0.0719  0.0566 -0.0477
10629W        W12829   0.091   3.145  33.017 -0.0587 -0.1676  0.3124
10630W        W12830  12.805   2.113  29.267 -0.0290  0.1806  0.1826
10631W        W12831   2.809   6.351  31.733  0.2065 -0.1424 -0.0073
10632W        W12832  13.945   5.702   2.690  0.1986 -0.1560 -0.0380
10633W        W12833  14.105   2.990   7.275  0.0002 -0.0108 -0.2465
10634W        W12834  17.177   4.537  41.643 -0.0668 -0.0102 -0.0292
10635W        W12835  12.493   3.133  40.947  0.2088  0.2214 -0.0787
10636W        W12836  17.470   5.118  44.514  0.0957 -0.0081  0.1177
10637W        W12837   5.302   2.813  24.883 -0.0934 -0.2317  0.3499
10638W        W12838  19.350   0.825  29.806 -0.0859  0.3659 -0.1949
10639W        W12839  17.773   2.180   7.686 -0.2178  0.2229  0.0313
10640W        W12840   7.590   6.277   3.977  0.2443 -0.0779 -0.0842
10641W        W12841   7.318   1.752  13.992 -0.2429 -0.2662 -0.3567
10642W        W12842  11.192   4.916  28.044  0.2225 -0.0116  0.3148
10643W        W12843  14.878   2.422  32.334 -0.0372 -0.3312  0.0317
10644W        W12844  21.029   2.092  31.683  0.0246  0.0013  0.1125
10645W        W12845   1.113   6.299  32.068  0.0902 -0.0504 -0.0438
10646W        W12846  20.666   4.097  41.673  0.0795  0.3508  0.1059
10647W        W12847   1.471   6.263   8.622  0.1139  0.2318 -0.0052
10648W        W12848   9.843   2.844   8.013 -0.0671 -0.0555 -0.0229
10649W        W12849  17.624   5.679  39.552 -0.0660  0.3963 -0.2060
10650W        W12850  20.611   3.167  36.532 -0.1479  0.0777 -0.0916
10651W        W12851  16.404   2.074  21.753  0.1079 -0.0011  0.2556
10652W        W12852  20.753   6.522  24.609 -0.0329  0.0453  0.1781
10653W        W12853   1.770   2.326  15.870 -0.1458 -0.0675  0.0914
10654W        W12854  12.145   1.751  10.169 -0.1292 -0.1281  0.0152
10655W        W12855  20.818   1.184  36.755 -0.1651 -0.1086 -0.1102
10656W        W12856  13.508   0.963  35.395 -0.1119 -0.0816 -0.3611
10657W        W12857  11.454   6.434  35.939  0.3534 -0.4258 -0.1064
10658W        W12858   8.952   4.610  11.211  0.1797  0.0420  0.1429
10659W        W12859  10.622   2.392   4.449  0.0234  0.1740  0.2493
10660W        W12860  12.686   5.621   9.263  0.0952 -0.0975  0.1625
10661W        W12861   4.920   4.051  12.337 -0.5434  0.1890 -0.1900
10662W        W12862   7.139   3.360  37.617 -0.2099  0.2189 -0.3323
10663W        W12863  14.223   4.283  35.520 -0.2827  0.1564 -0.0449
10664W        W12864  11.482   1.923  12.810  0.1508 -0.0632 -0.2411
10665W        W12865  19.746   3.242  27.525  0.1964 -0.1938 -0.0569
10666W        W12866  12.681   1.679  30.734 -0.1633  0.1801 -0.0131
10667W        W12867   1.440   1.636  10.085 -0.1488 -0.3333 -0.1630
10668W        W12868  10.330   3.695  10.530  0.0296 -0.2368 -0.0416
10669W        W12869   0.602   3.855  37.570 -0.5144 -0.2545  0.1868
10670W        W12870  10.044   4.821  37.437  0.2462  0.0774  0.1513
10671W        W12871  12.648   3.050  11.650 -0.2129 -0.1439  0.0430
10672W        W12872  14.545   4.007   9.148  0.3946  0.0029 -0.0736
10673W        W12873   8.595   4.814   8.369 -0.0950 -0.2452  0.0468
10674W        W12874  12.164   4.484   4.080  0.2275  0.2090  0.4701
10675W        W12875   7.018   2.621   0.011  0.2960 -0.1233  0.1565
10676W        W12876   4.144   4.885   5.439 -0.0165 -0.1339 -0.1524
10677W        W12877   7.309   2.831  42.321  0.1030  0.1143 -0.0883
10678W        W12878   0.321   0.854  35.301  0.3028 -0.4372  0.0670
10679W        W12879  14.512   3.403  19.593 -0.2327 -0.4151  0.1645
10680W        W12880  17.830   0.269   3.416 -0.0774 -0.2942  0.0238
10681W        W12881  13.407   1.765   0.269 -0.1780  0.1731  0.1305
10682W        W12882   7.889   2.705  10.727  0.1053 -0.2806 -0.2168
10683W        W12883  11.529   3.812  14.943  0.1757  0.0071 -0.4337
10684W        W12884  17.507   4.466  31.843 -0.1939 -0.0587 -0.0556
10685W        W12885  16.332   3.983  37.547  0.0897  0.2226  0.1370
10686W        W12886   4.627   2.270  44.567  0.0166 -0.0523  0.0388
10687W        W12887  18.375   2.697   0.850  0.3584 -0.0972 -0.0119
10688W        W12888  20.092   1.932  10.577  0.1260 -0.0311 -0.3074
10689W        W12889   5.737   3.249  10.038  0.1936  0.1624 -0.1205
10690W        W12890   6.648   0.564  38.813 -0.1808 -0.2169 -0.0361
10691W        W12891   3.936   5.553  19.512  0.1682 -0.0741 -0.1117
10692W        W12892   9.860   5.635  38.433 -0.1342 -0.1029  0.1078
10693W        W12893  10.800   1.913  15.186  0.1947 -0.1487 -0.4264
10694W        W12894  10.092   2.088   2.169 -0.2417 -0.0887 -0.2089
10695W        W12895   9.876   3.343  17.294 -0.2139 -0.1952 -0.0008
10696W        W12896  18.857   5.716  44.016 -0.1952 -0.0729 -0.1439
10697W        W12897   0.820   0.098  31.933  0.2791 -0.0567  0.1217
10698W        W12898  13.282   5.358   9.109  0.0941  0.1248 -0.2568
10699W        W12899  20.863   6.197  17.327  0.1177  0.3550  0.2877
10700W        W12900  17.607   6.139  41.973  0.2101  0.2079 -0.4147
10701W        W12901   0.098   1.911  11.419  0.0112  0.1344  0.0444
10702W        W12902   6.757   5.719  14.729  0.2834 -0.0470 -0.0079
10703W        W12903   6.639   3.218   1.738  0.0488 -0.0478  0.3955
10704W        W12904  16.531   3.085  41.666 -0.1260 -0.1943  0.1346
10705W        W12905  13.133   0.220  43.463 -0.1555  0.0903  0.0101
10706W        W12906   5.066   0.416  24.299  0.0668  0.0717 -0.1187
10707W        W12907   9.124   1.856   4.071  0.1679 -0.0212  0.0676
10708W        W12908  19.797   2.638   4.769 -0.3917  0.0359  0.0027
10709W        W12909  11.392   6.272   4.141 -0.0627 -0.1868  0.1739
10710W        W12910  19.932   5.061  40.032 -0.1269  0.1089 -0.3931
10711W        W12911   5.683   0.127  12.197  0.1457  0.1690 -0.0675
10712W        W12912  15.400   2.014   6.534 -0.0513  0.0695  0.1794
10713W        W12913   2.528   5.749   2.460 -0.0054 -0.1550 -0.0523
10714W        W12914  10.327   3.405  17.076  0.0521 -0.1937  0.1525
10715W        W12915   0.276   1.283  25.315  0.1450  0.0808 -0.0903
10716W        W12916  15.997   5.317   4.895 -0.0960 -0.1888 -0.1981
10717W        W12917  15.760   3.787  21.365 -0.0944  0.0299  0.0188
10718W        W12918  14.778   6.472  38.572  0.2242  0.2293  0.2378
10719W        W12919   2.651   5.473  32.453 -0.2759 -0.5357 -0.0195
10720W        W12920  19.569   3.558  31.390  0.2116 -0.4500 -0.1134
10721W        W12921  13.892   2.640  12.410  0.0748  0.2080 -0.1521
10722W        W12922  19.782   3.751  35.290 -0.0351  0.2377  0.3493
10723W        W12923   0.238   3.436  41.926 -0.1922 -0.1752  0.3150
10724W        W12924  12.776   4.886   2.080 -0.3241 -0.4284  0.1174
10725W        W12925  18.056   5.825  38.189  0.0139 -0.2088 -0.0095
10726W        W12926   8.456   5.853   1.790  0.4619  0.0917 -0.2115
10727W        W12927  18.943   3.165  17.912  0.0408  0.3241  0.0103
10728W        W12928  15.754   0.963  15.324 -0.2556  0.3069 -0.0745
10729W        W12929   3.458   3.770   0.548 -0.0308 -0.1907 -0.0990
10730W        W12930  20.070   1.209  31.461 -0.2120  0.1860  0.1124
10731W        W12931   7.811   3.649  13.965  0.0242  0.0710 -0.0286
10732W        W12932   5.560   0.537   3.550 -0.0095  0.0503 -0.0962
10733W        W12933  15.241   3.002  16.597  0.2413 -0.0911  0.4046
10734W        W12934  11.417   0.860  32.765 -0.0836 -0.1824 -0.2102
10735W        W12935   0.709   3.359   4.544 -0.1637 -0.0714 -0.2075
10736W        W12936   8.692   0.182  38.582  0.1418 -0.2015 -0.1571
10737W        W12937   1.076   2.451  45.032  0.1731 -0.2546 -0.2000
10738W        W12938  11.386   4.062  35.329 -0.0170 -0.3170 -0.1647
10739W        W12939  15.227   2.379  12.373  0.0299  0.1137  0.2259
10740W        W12940  15.342   5.283  30.921 -0.4001 -0.1185 -0.0173
10741W        W12941  18.011   2.220  35.950 -0.2308 -0.0401 -0.0849
10742W        W12942  17.963   1.350  38.422  0.3986 -0.0590 -0.1804
10743W        W12943   7.295   5.288   2.392 -0.0973  0.1854 -0.0974
10744W        W12944   0.709   4.582   9.289 -0.0820 -0.0060 -0.1419
10745W        W12945   6.312   6.356  13.641  0.3353 -0.3135 -0.1810
10746W        W12946   3.939   0.279   8.663  0.1207  0.0801  0.1047
10747W        W12947  10.546   4.418  42.248 -0.0454 -0.0550 -0.0148
10748W        W12948   2.745   0.014  26.485 -0.1247 -0.2379 -0.0710
10749W        W12949   2.460   3.884  37.814  0.2900  0.0256  0.1750
10750W        W12950   8.481   5.819  30.447 -0.2007 -0.0676  0.2846
10751W        W12951   4.407   2.685   9.471 -0.0178  0.0914 -0.3239
10752W        W12952   9.857   1.319  36.277  0.0620  0.0977 -0.1595
10753W        W12953   1.428   0.303  26.657  0.0068  0.1214  0.1650
10754W        W12954  15.319   3.688  40.339  0.0293 -0.1148  0.0353
10755W        W12955   4.883   5.997   1.853 -0.0372 -0.2472 -0.0095
10756W        W12956   8.796   6.486  32.731 -0.3013 -0.4071 -0.1247
10757W        W12957  14.739   1.414  20.649  0.0526 -0.1518  0.1869
10758W        W12958  13.159   1.795  12.995 -0.1170  0.0937  0.0192
10759W        W12959  13.263   2.836  15.056 -0.0932  0.1052 -0.1467
10760W        W12960   3.477   4.551  24.797 -0.4562 -0.2200  0.0081
10761W        W12961   0.419   0.456  13.826 -0.0781  0.2715  0.0894
10762W        W12962   6.741   4.320  37.573 -0.0945  0.2242  0.5534
10763W        W12963   7.929   1.738  40.390  0.1072  0.1367  0.0306
10764W        W12964  10.185   4.366   6.756  0.0550  0.0691  0.1114
10765W        W12965  15.602   1.102   8.588 -0.0177  0.0093 -0.2788
10766W        W12966  15.604   5.182  37.632  0.0069 -0.3636 -0.1523
10767W        W12967   9.654   3.825   5.786 -0.2236  0.0558 -0.1171
10768W        W12968   5.558   2.201  39.430 -0.2746  0.3702 -0.0461
10769W        W12969  12.899   1.099  37.035  0.4530 -0.1182  0.0876
10770W        W12970   9.016   0.459   6.540  0.3207 -0.2800 -0.1879
10771W        W12971  10.293   2.591  42.730 -0.0297 -0.0303 -0.1383
10772W        W12972  12.539   4.178  10.416  0.1231  0.0748  0.0415
10773W        W12973   5.939   0.765  34.921  0.1193 -0.0090  0.6307
10774W        W12974  17.587   0.984  36.307  0.0203  0.1774  0.4016
10775W        W12975  10.037   1.995  36.820  0.1203 -0.1639 -0.1260
10776W        W12976   6.042   3.994  23.963 -0.1189  0.3180  0.1182
10777W        W12977  13.432   5.199  42.706 -0.2016 -0.0602  0.0318
10778W        W12978   9.473   1.615  33.620  0.0377 -0.3088  0.1269
10779W        W12979   6.479   4.992  34.619 -0.0262  0.0474 -0.2434
10780W        W12980   1.164   1.172  39.444  0.0717  0.0330 -0.0785
10781W        W12981  18.298   3.764  16.051 -0.0871 -0.1008  0.0432
10782W        W12982   1.188   6.336  34.952 -0.2408  0.0326 -0.0487
10783W        W12983   6.506   6.431   5.980 -0.2355 -0.1998 -0.3138
10784W        W12984  13.997   3.039  20.596 -0.1138  0.0392 -0.1028
10785W        W12985  16.407   5.594  17.297  0.0592 -0.1522 -0.0889
10786W        W12986   9.986   3.298  41.294 -0.1531  0.4747 -0.0414
10787W        W12987  16.258   6.274  16.924  0.2035  0.1108  0.0052
10788W        W12988   7.074   3.978   3.426 -0.2084  0.1210  0.1179
10789W        W12989  18.796   3.800  30.328  0.2315 -0.0669  0.3007
10790W        W12990   3.201   5.159  43.312  0.2067 -0.5184  0.1953
10791W        W12991  19.427   3.147  31.650 -0.0315 -0.0748 -0.0690
10792W        W12992  13.558   1.550   3.460 -0.1302 -0.0128  0.0731
10793W        W12993   9.496   1.078   2.287  0.1891 -0.0522 -0.1195
10794W        W12994  20.161   1.642  44.083  0.0574  0.2900  0.1763
10795W        W12995  10.175   3.252   3.177  0.1208  0.0399  0.5350
10796W        W12996   5.018   6.409  25.845  0.1551 -0.0037 -0.2268
10797W        W12997  20.278   6.337  38.340  0.0841  0.0890 -0.4398
10798W        W12998  17.090   4.514  22.004 -0.0013 -0.0606 -0.0899
10799W        W12999   6.678   6.587  23.940  0.3232 -0.2056  0.0982
10800W        W13000   2.702   5.059  21.786 -0.0899 -0.1055 -0.0631
10801W        W13001  17.093   3.463   9.650 -0.1614  0.5467 -0.0422
10802W        W13002   6.855   4.475   2.385 -0.0353 -0.2575 -0.1338
10803W        W13003  15.951   5.739  34.633 -0.0103  0.2347 -0.2729
10804W        W13004  15.338   5.344  42.779 -0.1556  0.1705 -0.0044
10805W        W13005  20.334   3.705  16.191  0.3646 -0.1529 -0.0319
10806W        W13006   8.795   1.673  38.261  0.0354 -0.0296  0.1857
10807W        W13007  15.646   5.473  31.749  0.0097  0.2159  0.1249
10808W        W13008   7.428   5.648  30.715  0.0783  0.1415 -0.0342
10809W        W13009  10.079   0.449  33.098  0.2652 -0.1400 -0.2940
10810W        W13010  15.317   4.302  34.098 -0.1800 -0.1009  0.0713
10811W        W13011   4.076   2.109  11.283 -0.0055 -0.2610 -0.0330
10812W        W13012  12.031   3.399   4.181 -0.1677 -0.0545  0.3337
10813W        W13013   0.552   3.843  15.272 -0.0866 -0.0397 -0.0139
10814W        W13014   3.685   6.310  23.966 -0.3009 -0.3656  0.1590
10815W        W13015   8.147   6.032  40.979 -0.0725  0.0502  0.0723
10816W        W13016  14.354   2.626  32.444 -0.3946 -0.2333 -0.2453
10817W        W13017   2.197   1.774  42.817 -0.3168 -0.0283 -0.0681
10818W        W13018   1.031   1.354  38.432 -0.1786  0.0976  0.1210
10819W        W13019  15.828   2.925   5.277  0.1240  0.0224 -0.0716
10820W        W13020   6.698   4.548  38.555 -0.0649 -0.4217 -0.0149
10821W        W13021  17.216   3.097  11.986  0.0436 -0.1748  0.0991
10822W        W13022  11.001   6.394  29.522  0.1032 -0.1833 -0.0331
10823W        W13023   0.993   5.761  23.078 -0.1800 -0.0678  0.0446
10824W        W13024   0.785   1.196  36.863 -0.1502  0.0482 -0.0946
10825W        W13025  20.651   0.262  34.195  0.0127  0.1138 -0.1915
10826W        W13026  20.682   0.838  17.342 -0.1086  0.1095  0.3462
10827W        W13027   4.780   6.264  11.656 -0.1558 -0.0507 -0.1081
10828W        W13028   5.941   3.497  31.705 -0.0305  0.3547  0.0115
10829W        W13029   3.612   5.798  42.401 -0.0651  0.1031  0.0444
10830W        W13030  18.313   1.094  13.402 -0.0603  0.1755  0.0694
10831W        W13031  17.730   5.384  15.524  0.1925 -0.1066 -0.2250
10832W        W13032   0.255   2.269  15.138  0.0140  0.4345  0.0028
10833W        W13033  18.977   2.412  17.943  0.1065  0.0159 -0.1293
10834W        W13034  14.491   1.351   0.245 -0.0294 -0.4151 -0.3941
10835W        W13035  13.183   0.544  15.511  0.1167 -0.0090  0.2335
10836W        W13036  10.441   2.133   3.402  0.0481  0.1266  0.2902
10837W        W13037   6.228   2.887  32.978 -0.0321  0.0929  0.0726
10838W        W13038  20.353   2.922  10.341  0.0275 -0.1555  0.0844
10839W        W13039   4.981   2.762  34.033 -0.0859 -0.1130  0.0996
10840W        W13040  15.191   0.794  33.132 -0.0418  0.2332 -0.3377
10841W        W13041   9.642   3.118  26.533 -0.2258 -0.1835 -0.1492
10842W        W13042   0.879   5.227  14.228 -0.0144 -0.0651 -0.4135
10843W        W13043   5.136   0.494   6.914 -0.1090 -0.2439  0.0282
10844W        W13044  18.043   4.788  12.938 -0.0682  0.0604  0.0754
10845W        W13045  10.285   3.265  12.627 -0.0958  0.0213 -0.1913
10846W        W13046   1.025   2.793  30.392  0.1548  0.0517  0.0540
10847W        W13047  16.490   2.431  28.488 -0.3410  0.2137  0.2799
10848W        W13048  18.522   3.455  35.800  0.3204  0.3874  0.2196
10849W        W13049  13.294   0.198   3.909 -0.3042  0.2828  0.1056
10850W        W13050   8.874   6.087  27.904 -0.0697  0.0597  0.0547
10851W        W13051   2.286   6.194   9.516  0.2550  0.0832 -0.1059
10852W        W13052   1.528   5.398   8.640  0.1539  0.1281 -0.3345
10853W        W13053   2.853   6.343  22.191 -0.1510  0.2575 -0.1484
10854W        W13054  14.254   2.805  44.336  0.2129 -0.0107  0.0334
10855W        W13055   6.812   0.547  44.110 -0.1717  0.0478 -0.1303
10856W        W13056   9.167   3.563   8.671 -0.1147  0.0754 -0.0139
10857W        W13057  15.440   5.929  21.519 -0.1050 -0.0194  0.1858
10858W        W13058  16.503   4.133   9.197 -0.1902  0.1436  0.1854
10859W        W13059   6.135   5.496  39.421 -0.1836  0.3500  0.0193
10860W        W13060   4.082   4.679  31.879 -0.0611  0.0008 -0.1313
10861W        W13061   3.923   4.909  14.662  0.2069 -0.1399 -0.1638
10862W        W13062  19.777   1.111   3.149 -0.1571  0.0456  0.0686
10863W        W13063   6.423   6.069   1.104 -0.3911  0.3062  0.2397
10864W        W13064   7.170   1.286   0.238  0.1505  0.0937  0.0793
10865W        W13065  10.247   0.854   5.376  0.3920 -0.0602  0.2143
10866W        W13066   9.195   0.955   4.847 -0.3468  0.1637 -0.0461
10867W        W13067  20.841   2.356   3.173 -0.2513 -0.1306 -0.0255
10868W        W13068  12.819   4.675  28.792  0.0631 -0.2167 -0.0115
10869W        W13069  16.952   4.011  16.083  0.0458  0.0613  0.2209
10870W        W13070  12.170   3.362  13.879  0.0358  0.0015 -0.0562
10871W        W13071  10.250   3.956  33.888 -0.0513  0.1677 -0.0360
10872W        W13072  12.913   1.980   9.056 -0.1336  0.1154 -0.0466
10873W        W13073   2.002   6.123  44.666  0.2268 -0.1962 -0.0436
10874W        W13074   7.850   4.281   2.526  0.2990  0.2365 -0.0864
10875W        W13075  12.738   1.057  43.554  0.0217 -0.3580 -0.1233
10876W        W13076  20.902   6.608  11.469 -0.5181  0.1076  0.3138
10877W        W13077   7.095   3.128  34.211  0.1821 -0.3648  0.0502
10878W        W13078  12.993   5.450  13.147  0.1529  0.1657  0.1057
10879W        W13079  13.280   5.093  19.454 -0.1846  0.2674 -0.0858
10880W        W13080   0.235   1.213  28.918  0.1574  0.0479 -0.1543
10881W        W13081  14.070   6.332   9.764 -0.2263 -0.0082 -0.3681
10882W        W13082   9.267   0.933   9.843 -0.0810  0.0580  0.0200
10883W        W13083  19.922   0.487  36.955  0.0339  0.1916  0.1407
10884W        W13084  10.605   6.009  37.744 -0.0360  0.0967  0.0920
10885W        W13085   3.818   3.626  30.974 -0.3634  0.1033 -0.0980
10886W        W13086  18.073   4.487  21.252 -0.4964  0.1775  0.1283
10887W        W13087   8.834   1.093  31.835  0.1807  0.0439 -0.3088
10888W        W13088   8.414   6.179  41.714  0.1422 -0.0505  0.0246
10889W        W13089   8.537   3.701  32.554  0.0382  0.2299  0.1632
10890W        W13090   0.628   5.923  42.407  0.2254 -0.0441  0.0562
10891W        W13091  17.658   4.337   1.264 -0.3949 -0.0235 -0.0977
10892W        W13092  10.652   5.237  38.499 -0.0750  0.0198  0.2887
10893W        W13093   5.480   6.307  29.799 -0.0176  0.0796  0.3191
10894W        W13094  18.719   1.608  12.672  0.0041 -0.1205  0.0184
10895W        W13095  15.775   1.340  18.476 -0.0827 -0.0374  0.0213
10896W        W13096   1.143   3.707  30.810 -0.1834 -0.3239 -0.1196
10897W        W13097   3.063   1.466  36.338  0.0079  0.1907 -0.1351
10898W        W13098   5.258   6.581  22.241  0.3630  0.0493 -0.1256
10899W        W13099   2.363   2.337  33.892 -0.0643 -0.0466 -0.0839
10900W        W13100  16.252   5.388  17.717  0.1088  0.0193  0.1477
10901W        W13101  19.162   0.441  11.336  0.1749 -0.1587 -0.4920
10902W        W13102  15.487   1.961   7.996  0.1856  0.1478 -0.1520
10903W        W13103  18.460   5.355  40.021  0.1551  0.0931  0.1390
10904W        W13104  17.789   5.761  14.912 -0.0322  0.1734 -0.1770
10905W        W13105   9.088   2.416  41.110 -0.0301  0.5553  0.0672
10906W        W13106  21.006   6.588   8.926  0.2543 -0.3548  0.3787
10907W        W13107   3.034   4.901   2.701 -0.3921 -0.0119 -0.1905
10908W        W13108   6.381   2.633  11.920  0.3738 -0.0968 -0.0675
10909W        W13109   7.539   5.179  42.864  0.2500 -0.0613 -0.0837
10910W        W13110  16.264   0.605  18.943 -0.1675  0.1687 -0.1073
10911W        W13111   9.609   2.121  28.797  0.0021 -0.0189  0.2417
10912W        W13112   0.361   0.310  15.554  0.4235 -0.1271 -0.3150
10913W        W13113   7.728   1.987   5.316  0.3638  0.0088  0.3157
10914W        W13114   8.708   3.018   0.248 -0.2314 -0.0568 -0.0954
10915W        W13115   2.727   6.446   7.127 -0.1248  0.0088 -0.3039
10916W        W13116  11.964   3.464  42.678  0.1334 -0.1037 -0.0316
10917W        W13117   3.486   1.262  33.160  0.0071 -0.3170 -0.0330
10918W        W13118  16.036   6.236  38.013 -0.2475  0.0130 -0.0569
10919W        W13119   6.493   3.163  30.904  0.0378  0.1252  0.1532
10920W        W13120   3.186   6.062  39.279 -0.2990  0.1326 -0.1845
10921W        W13121  15.714   4.195  29.861 -0.2278 -0.1039  0.1645
10922W        W13122   1.713   4.779  15.382  0.3026  0.2747  0.1668
10923W        W13123  15.945   6.152  45.016 -0.0361 -0.0300  0.0314
10924W        W13124   6.936   0.406  34.146  0.1691 -0.0715  0.1496
10925W        W13125  18.161   4.556  42.803  0.1144 -0.0220 -0.0595
10926W        W13126  18.690   2.395  35.003 -0.1404  0.0434 -0.0406
10927W        W13127  13.287   2.616  43.337 -0.0542  0.1102 -0.2311
10928W        W13128  13.601   1.233  39.578  0.0224  0.2675  0.0055
10929W        W13129  15.210   3.258   6.292 -0.3271  0.1764 -0.2725
10930W        W13130  13.089   1.924  41.137 -0.1250 -0.3541  0.0674
10931W        W13131   6.940   3.292  27.158  0.0652 -0.1567  0.1211
10932W        W13132  11.452   1.336  41.123 -0.0930 -0.0646  0.1147
10933W        W13133   4.327   5.012  25.257  0.2337  0.1314 -0.1417
10934W        W13134  21.088   2.492  33.674  0.0396  0.0311 -0.1128
10935W        W13135  17.446   1.933   4.070 -0.2481 -0.0478  0.0192
10936W        W13136  18.996   1.164   2.453 -0.0785 -0.2015 -0.0130
10937W        W13137   8.977   5.314   4.920  0.0034  0.0582 -0.0325
10938W        W13138  14.612   3.622  17.041 -0.4470 -0.0437 -0.1006
10939W        W13139  14.560   4.038  21.350 -0.2079 -0.0115 -0.1578
10940W        W13140  13.373   2.503  19.423  0.0847  0.0395  0.1229
10941W        W13141   6.862   1.090  33.155 -0.0459 -0.0356  0.0451
10942W        W13142   0.470   6.174  27.961  0.0169 -0.1644  0.1914
10943W        W13143  17.197   5.643  32.805  0.0694  0.2876 -0.1626
10944W        W13144   9.378   5.504   8.568  0.2044  0.0272 -0.1030
10945W        W13145   8.859   3.377  30.861 -0.0791 -0.0230 -0.1250
10946W        W13146  13.150   2.322  42.243 -0.0309 -0.0751  0.1703
10947W        W13147  15.670   1.595  42.282  0.2786 -0.1055  0.0183
10948W        W13148  12.688   1.182  16.008  0.1132 -0.0131  0.1984
10949W        W13149  17.528   1.206  16.034 -0.0945  0.1090 -0.0498
10950W        W13150   5.724   5.914  41.629  0.1066  0.0634  0.0823
10951W        W13151   9.756   3.668  15.733  0.0871  0.2802 -0.0182
10952W        W13152   4.261   5.663  43.115  0.0042 -0.1304  0.1108
10953W        W13153   7.995   2.696  40.265  0.0651  0.0666  0.0917
10954W        W13154   4.385   4.347  32.205 -0.1980 -0.0840  0.1727
10955W        W13155   6.888   3.812  37.593 -0.3350  0.0869  0.1920
10956W        W13156  10.249   6.493  10.609 -0.1916 -0.1750 -0.0203
10957W        W13157   0.355   1.203  10.655  0.1196 -0.2487 -0.0535
10958W        W13158  16.208   4.749   9.714 -0.1877 -0.0410  0.3108
10959W        W13159   8.988   5.747  10.318 -0.0965 -0.0037  0.0067
10960W        W13160   5.449   5.301  42.555  0.1884 -0.1378 -0.2714
10961W        W13161   9.966   1.813  36.311 -0.0920  0.1059  0.1701
10962W        W13162  10.618   2.987  17.122  0.1029  0.2513 -0.0127
10963W        W13163   3.585   1.300   7.914 -0.1204 -0.0967  0.0111
10964W        W13164   2.583   1.461  10.870  0.4076  0.0815  0.2023
10965W        W13165  17.228   4.419  11.018  0.1388  0.2133  0.0523
10966W        W13166  16.761   0.359  33.945  0.1326 -0.0361 -0.0246
10967W        W13167  19.259   4.069   6.463  0.3673  0.4331  0.0042
10968W        W13168   5.703   0.107  11.429 -0.2985 -0.1869 -0.1839
10969W        W13169  16.043   1.226  33.561  0.2079  0.4204  0.2138
10970W        W13170  16.190   0.940  16.733 -0.3262  0.0157  0.3522
10971W        W13171  14.474   2.071  34.825  0.0910 -0.4391  0.2800
10972W        W13172   6.547   5.153   1.459 -0.1651 -0.1083 -0.0773
10973W        W13173  12.232   5.429  14.068  0.1581  0.1735 -0.1564
10974W        W13174  18.004   2.003  40.354 -0.1321  0.0167 -0.0639
10975W        W13175   2.446   5.036  33.950  0.0945  0.1400 -0.1491
10976W        W13176  11.501   1.468  39.929 -0.0368  0.2317 -0.1651
10977W        W13177  19.589   1.176  33.309 -0.2595  0.1044 -0.1089
10978W        W13178   1.559   1.796   8.099 -0.0572 -0.2168  0.1632
10979W        W13179   0.361   4.988   7.155 -0.1919 -0.0000 -0.0461
10980W        W13180  19.289   3.926  37.819  0.0303 -0.4563  0.1004
10981W        W13181   3.004   5.808  35.774 -0.2550 -0.1389 -0.0588
10982W        W13182   1.412   0.755   5.124  0.1188 -0.0532 -0.3094
10983W        W13183  18.620   3.756   9.072  0.0879 -0.0119  0.0334
10984W        W13184   4.925   0.029  34.855  0.1438 -0.0608  0.2633
10985W        W13185   7.570   2.157  15.854 -0.1349  0.3503 -0.0581
10986W        W13186  10.738   0.263  11.212  0.1445 -0.1051  0.2626
10987W        W13187  18.291   0.123   3.041  0.1419  0.1021  0.1778
10988W        W13188   3.998   1.529   8.140  0.0030  0.0151  0.0726
10989W        W13189  10.764   1.076  42.219 -0.0683 -0.1577  0.0684
10990W        W13190  17.311   4.008  36.230  0.0210  0.1894  0.1400
10991W        W13191  16.760   0.196   8.063 -0.2241  0.0720 -0.0142
10992W        W13192  11.062   2.874  38.918  0.0365  0.1185  0.0280
10993W        W13193   7.506   4.084  32.200 -0.0347  0.0156  0.1583
10994W        W13194   7.201   6.436  42.888 -0.0918  0.0764 -0.1236
10995W        W13195  12.518   6.031  42.991 -0.2356  0.2148  0.0101
10996W        W13196  18.986   2.124  32.333 -0.1138 -0.2817 -0.0027
10997W        W13197  18.006   0.050  40.180 -0.1615  0.0370  0.4072
10998W        W13198  15.983   0.841   2.374 -0.1061  0.0103 -0.1385
10999W        W13199   6.459   1.599  32.689 -0.1873  0.2683  0.2526
11000W        W13200  12.647   4.481  30.170 -0.0720 -0.0752 -0.3240
11001W        W13201   0.346   2.949  26.637 -0.3148  0.1671 -0.0104
11002W        W13202  20.661   5.857   4.972  0.1630 -0.2050  0.1541
11003W        W13203  15.359   1.309  15.157 -0.0990 -0.0009  0.1942
11004W        W13204  17.083   4.335  30.589  0.1944 -0.1527 -0.0863
11005W        W13205   4.580   5.439  20.226 -0.0279  0.3749 -0.0123
11006W        W13206   7.051   0.565  34.612 -0.1314  0.1115 -0.0536
11007W        W13207   7.164   1.896  31.957  0.2249 -0.0054  0.0592
11008W        W13208  13.029   6.362   8.490 -0.0650  0.1845  0.0294
11009W        W13209   7.281   2.211   3.651  0.3672  0.2373  0.1887
11010W        W13210   0.119   1.527  12.410 -0.1111 -0.0865 -0.0680
11011W        W13211   6.781   3.659  35.926 -0.1818  0.2061  0.0349
11012W        W13212   0.959   0.949  27.848 -0.1027 -0.3074  0.1022
11013W        W13213  19.915   5.926  28.461 -0.3849  0.0180 -0.0789
11014W        W13214  11.889   3.970  30.577 -0.0075 -0.1898  0.1050
11015W        W13215   0.986   0.541  12.178  0.0257  0.2660 -0.1900
11016W        W13216   1.452   5.865   5.195 -0.0339  0.1158 -0.0519
11017W        W13217   6.509   2.991  13.481  0.0243  0.2392  0.3163
11018W        W13218   9.008   2.452  15.091 -0.0125 -0.0861 -0.2099
11019W        W13219  15.584   0.456   1.583 -0.2300  0.0463  0.3090
11020W        W13220  17.925   4.647   9.252 -0.1001 -0.1394 -0.0209
11021W        W13221   8.664   4.518  40.049  0.1793 -0.0449 -0.0240
11022W        W13222   2.152   6.458  36.817 -0.2983 -0.2981 -0.1507
11023W        W13223   8.449   5.452   8.473 -0.1468 -0.1175  0.1027
11024W        W13224  15.085   0.682  44.083 -0.0207  0.1343  0.0609
11025W        W13225  19.818   0.824   0.760 -0.0525 -0.2849  0.0219
11026W        W13226  14.504   1.001  39.868  0.1053 -0.1089 -0.0370
11027W        W13227   8.716   6.013  43.379 -0.2010  0.1531  0.1250
11028W        W13228  20.857   0.633  27.366 -0.0417 -0.1886 -0.2095
11029W        W13229  14.853   1.712   0.242 -0.1203 -0.0903 -0.0303
11030W        W13230   2.826   4.832  40.872 -0.1633 -0.1616 -0.0429
11031W        W13231   6.027   2.839   4.312 -0.0859  0.0600 -0.0964
11032W        W13232  18.229   4.626  16.555  0.1814 -0.1417 -0.1866
11033W        W13233  11.853   2.288  20.533  0.1231  0.0681  0.1108
11034W        W13234  18.694   1.282   3.448 -0.0528 -0.0513  0.0559
11035W        W13235   6.181   3.390  21.905  0.0927 -0.1303 -0.2835
11036W        W13236  20.166   1.904  40.125 -0.0613  0.0896 -0.0133
11037W        W13237   1.333   1.419  34.200 -0.0601 -0.2366  0.3331
11038W        W13238   4.613   1.956  43.504 -0.0317  0.2684 -0.2826
11039W        W13239  20.686   3.172  27.121 -0.1255  0.0879 -0.2466
11040W        W13240   9.572   2.778  15.046  0.0374  0.2408  0.0011
11041W        W13241  11.516   4.466   2.735  0.0330 -0.3261  0.0093
11042W        W13242   9.660   2.888  29.771 -0.1668  0.1349  0.1515
11043W        W13243   7.361   5.636   5.079  0.1568  0.0706  0.0806
11044W        W13244  15.668   2.461   5.770  0.2639  0.0410  0.2052
11045W        W13245  10.022   3.092   7.488 -0.1658 -0.4238 -0.2020
11046W        W13246   6.399   4.268   4.447 -0.2253 -0.0063 -0.2542
11047W        W13247   4.247   0.103  10.093 -0.0625 -0.3661  0.2251
11048W        W13248   6.317   3.008  37.163 -0.1189 -0.0488 -0.0081
11049W        W13249   5.580   6.573  43.676  0.1857 -0.3231 -0.0782
11050W        W13250  10.946   1.297  29.560  0.0052 -0.0603  0.1364
11051W        W13251   6.056   2.274  11.632 -0.0586  0.1175  0.0940
11052W        W13252  19.239   3.606  41.800 -0.0667  0.3221  0.0492
11053W        W13253   7.528   0.902  25.386 -0.1215 -0.3337 -0.1308
11054W        W13254   9.153   6.293  40.683  0.1242  0.1669 -0.2660
11055W        W13255   7.902   0.153  29.727  0.0811  0.1547 -0.1178
11056W        W13256   4.341   0.368  28.796 -0.0382 -0.0362 -0.3329
11057W        W13257   6.242   1.422  23.747  0.0303  0.0556  0.2324
11058W        W13258  14.632   4.129  29.307 -0.1682 -0.0874  0.0821
11059W        W13259   7.634   4.023   8.566  0.2864  0.1476 -0.0905
11060W        W13260   7.084   4.855  26.328 -0.0561  0.0640 -0.0622
11061W        W13261   8.308   1.207   7.095 -0.1193 -0.1747 -0.0014
11062W        W13262  11.702   2.928  11.689  0.0453 -0.0352 -0.2620
11063W        W13263  15.648   0.485  12.842 -0.1569 -0.3994  0.1607
11064W        W13264  17.824   5.275  16.097  0.3287  0.1174 -0.0433
11065W        W13265  20.331   3.086  43.459 -0.0696 -0.0056 -0.4545
11066W        W13266   5.752   6.603  27.686 -0.2192 -0.1429 -0.2935
11067W        W13267   9.672   5.219  28.647  0.0064 -0.2177 -0.0265
11068W        W13268  14.818   1.595  10.791 -0.1747 -0.1881 -0.0279
11069W        W13269  16.189   2.799  36.237  0.1766 -0.1093 -0.0846
11070W        W13270   5.078   1.603  13.836 -0.0589  0.2596 -0.2703
11071W        W13271   8.680   4.320  14.383  0.3924  0.0222  0.0199
11072W        W13272   4.528   0.466  39.997 -0.0555 -0.0099 -0.0488
11073W        W13273   0.581   2.330  37.281  0.0895  0.1352 -0.2582
11074W        W13274   6.957   0.232  44.845  0.0577  0.0923 -0.0006
11075W        W13275  13.732   6.511   4.329 -0.0418  0.0215 -0.0709
11076W        W13276  10.397   1.365  12.766  0.1159 -0.3373 -0.1526
11077W        W13277   6.841   4.395   1.226  0.0582  0.1257 -0.0408
11078W        W13278  20.311   1.492  42.045  0.2807 -0.0856  0.1327
11079W        W13279  14.009   1.682  18.609 -0.1401  0.1574  0.0114
11080W        W13280   1.745   0.013  23.193  0.1357 -0.1178 -0.1629
11081W        W13281   3.339   5.086  14.753 -0.0334 -0.1327 -0.2761
11082W        W13282  10.518   0.109  41.214  0.0933 -0.2424  0.0874
11083W        W13283   1.458   4.475  33.003  0.2283  0.0097 -0.0101
11084W        W13284   9.432   5.375  29.724  0.1615  0.4644 -0.1057
11085W        W13285  17.430   4.425  31.015 -0.2347 -0.0394 -0.2430
11086W        W13286  17.687   3.907  14.868  0.0796  0.1338  0.1166
11087W        W13287   3.122   1.902  43.089 -0.2156  0.2452  0.1075
11088W        W13288  13.804   2.373  22.362  0.1547 -0.2327 -0.0677
11089W        W13289   9.215   1.894  12.425 -0.1144 -0.1502 -0.3003
11090W        W13290  19.336   3.385  44.604  0.0645  0.0118 -0.0433
11091W        W13291  11.660   1.496  14.803  0.0647  0.1264 -0.0767
11092W        W13292  17.090   4.332  18.454 -0.3790  0.1566 -0.0091
11093W        W13293  15.670   3.872  41.237  0.1130 -0.0473  0.1489
11094W        W13294  13.012   5.257  32.727  0.0624 -0.0928  0.0413
11095W        W13295  11.280   4.165  12.451  0.0743  0.1149  0.0330
11096W        W13296   3.189   4.484   0.747  0.0231 -0.1049 -0.3266
11097W        W13297  17.171   5.401  17.440 -0.2994  0.0456  0.3144
11098W        W13298  17.291   2.218  33.824  0.3427 -0.1940  0.1416
11099W        W13299  13.060   1.815  22.059 -0.1921  0.0131  0.0033
11100W        W13300  15.230   4.642   8.680  0.0352  0.1744 -0.1704
11101W        W13301  10.572   6.551   3.692  0.0813 -0.1473 -0.0064
11102W        W13302  11.648   1.586  12.040  0.1433 -0.0295  0.0546
11103W        W13303   4.540   3.801  33.539  0.1874  0.2532  0.1916
11104W        W13304   0.994   2.957   2.318 -0.0925  0.0859  0.0973
11105W        W13305   7.595   1.805  36.460 -0.2098  0.1536  0.1369
11106W        W13306  17.112   6.007  31.993 -0.0876 -0.2819 -0.0553
11107W        W13307   6.376   2.874  33.925 -0.1264  0.1039 -0.2111
11108W        W13308   8.306   2.414   5.105 -0.2288 -0.1986 -0.0800
11109W        W13309  17.580   1.508  13.574 -0.2555  0.1344  0.1061
11110W        W13310  18.313   2.289  37.452  0.0475  0.1405 -0.2362
11111W        W13311   5.606   6.473   4.185  0.0772 -0.0715 -0.1797
11112W        W13312  17.802   1.326   5.472 -0.3465 -0.1300 -0.0701
11113W        W13313  20.722   1.855  44.175 -0.1326  0.0882 -0.1768
11114W        W13314  14.428   1.739  17.056 -0.0352  0.0340 -0.4183
11115W        W13315   2.428   4.572  24.546 -0.6023 -0.1285 -0.1076
11116W        W13316  11.415   2.603   2.701 -0.1466 -0.0932 -0.2914
11117W        W13317  17.358   1.719   3.522  0.2505 -0.3288  0.1549
11118W        W13318  20.612   1.552  33.153  0.1829  0.0927  0.2228
11119W        W13319  15.167   4.680  12.197 -0.1715 -0.1844  0.0746
11120W        W13320   7.093   0.903  32.413 -0.3154  0.0137  0.2711
11121W        W13321   6.663   6.575   4.872 -0.1552  0.0514 -0.2073
11122W        W13322  13.329   6.379   2.934 -0.1950 -0.1478  0.0576
11123W        W13323   4.879   3.245  22.345  0.1182  0.0996 -0.4937
11124W        W13324  15.762   2.868   7.671 -0.2663 -0.1857 -0.0840
11125W        W13325  17.106   4.241  38.155  0.3125  0.1326 -0.0165
11126W        W13326   0.118   2.407  10.568 -0.1932 -0.0115  0.0759
11127W        W13327   9.450   5.724  36.167 -0.0909  0.0112  0.2405
11128W        W13328   1.926   5.214   6.856 -0.0455  0.1565 -0.2336
11129W        W13329   7.612   0.457  42.477 -0.0909  0.0368 -0.1173
11130W        W13330  16.907   4.816  14.502 -0.0992  0.2540 -0.1202
11131W        W13331   7.800   5.396  37.301 -0.1579  0.0038 -0.1307
11132W        W13332   4.264   4.863  34.917 -0.0292 -0.1520  0.3262
11133W        W13333  19.725   6.051  40.699  0.2978 -0.0806 -0.1484
11134W        W13334  18.620   0.553  30.325 -0.0381 -0.2235 -0.0952
11135W        W13335   1.913   1.181  21.251  0.3817 -0.1882  0.0280
11136W        W13336   5.139   4.931   8.528  0.1002 -0.0058 -0.1883
11137W        W13337   0.253   4.558   8.534  0.1739 -0.2283 -0.1101
11138W        W13338  15.718   1.397   6.915 -0.2254  0.1913  0.0908
11139W        W13339   1.855   3.759  24.391  0.0756  0.0606  0.1370
11140W        W13340   1.117   5.770  26.774  0.1464 -0.2313 -0.0772
11141W        W13341   8.938   4.502  34.121 -0.0537 -0.3768  0.0810
11142W        W13342   2.369   2.026   9.440 -0.0640  0.0470  0.0143
11143W        W13343  10.189   1.258  39.458 -0.4916 -0.2463 -0.0767
11144W        W13344   3.111   0.107  32.830  0.0201  0.0240 -0.0081
11145W        W13345  16.430   0.408   4.549  0.0384 -0.1197  0.1543
11146W        W13346   4.053   0.532  22.228 -0.1247 -0.1075  0.1546
11147W        W13347   7.686   1.750   3.392  0.0074  0.2010 -0.1524
11148W        W13348   1.402   2.127  44.623 -0.2062 -0.2632 -0.2211
11149W        W13349  15.068   1.773  34.300 -0.0590 -0.0822  0.2815
11150W        W13350   3.681   1.992  37.824  0.1749 -0.0154  0.0482
11151W        W13351   8.736   0.131   4.605 -0.0404 -0.1747  0.2377
11152W        W13352  15.178   1.451   9.257  0.2793 -0.2916 -0.0106
11153W        W13353  17.625   5.124  17.439  0.2832 -0.2221  0.2150
11154W        W13354   4.172   0.840  24.175  0.2595  0.0146 -0.1502
11155W        W13355   2.481   0.308  37.522 -0.0863  0.0171  0.0292
11156W        W13356   3.898   4.821  10.417 -0.1690 -0.0542  0.0330
11157W        W13357  20.736   4.680  43.110 -0.1055 -0.2034 -0.2746
11158W        W13358  15.400   3.406   3.695 -0.0373  0.3567  0.0500
11159W        W13359  11.096   0.479  37.170  0.1641  0.1941  0.1041
11160W        W13360   3.370   1.424  43.368 -0.0046 -0.1505  0.2164
11161W        W13361  19.651   1.033   0.134 -0.1941  0.1987  0.2275
11162W        W13362   6.180   4.787  38.040  0.0722 -0.1652  0.1272
11163W        W13363   1.523   0.520  30.820 -0.2648 -0.2470  0.3025
11164W        W13364   0.564   6.384  27.511  0.0537 -0.1104 -0.0926
11165W        W13365   9.957   2.409  32.957 -0.2156 -0.3601 -0.0191
11166W        W13366  14.423   1.379  23.259 -0.2342 -0.0453 -0.0734
11167W        W13367  18.770   6.032   7.786  0.1607  0.1416  0.2134
11168W        W13368  12.591   4.762   6.258 -0.0529  0.1334 -0.1963
11169W        W13369   6.332   1.345  12.694  0.2462  0.0822  0.0325
11170W        W13370  11.546   1.170  29.338  0.0894  0.2714 -0.0917
11171W        W13371   3.822   2.246   4.779 -0.2425 -0.0709 -0.0738
11172W        W13372  18.377   3.575  44.419 -0.1427  0.2205  0.0742
11173W        W13373  18.847   1.577  40.157 -0.0633  0.4337  0.0774
11174W        W13374   2.101   5.971  37.015  0.0105 -0.2194 -0.0448
11175W        W13375   2.067   2.275  23.425  0.1862  0.0753  0.0067
11176W        W13376   1.312   3.655  13.560 -0.0280 -0.0051  0.0501
11177W        W13377  11.610   2.447  34.321 -0.2715 -0.1637 -0.0553
11178W        W13378  12.842   3.413  16.466 -0.2012  0.0903 -0.1829
11179W        W13379  12.555   1.930  37.004 -0.1209  0.5262  0.0489
11180W        W13380   5.647   2.109   5.092  0.2545 -0.0205  0.2350
11181W        W13381   4.882   4.407   0.265 -0.0556  0.2944  0.0151
11182W        W13382  20.759   2.703   5.084 -0.2752  0.0072 -0.0105
11183W        W13383  18.189   2.653  38.146 -0.3271  0.0315  0.2651
11184W        W13384   0.127   0.919  24.017  0.1535  0.2465  0.0470
11185W        W13385  19.515   1.325  12.746 -0.0376 -0.0209  0.1354
11186W        W13386  10.916   1.743  28.621  0.1838 -0.5265  0.1816
11187W        W13387   0.413   2.967  41.804  0.0062  0.2313  0.2591
11188W        W13388  15.739   2.713  16.654 -0.0085 -0.0040 -0.0559
11189W        W13389  12.443   5.094   7.641 -0.2577  0.0140  0.1575
11190W        W13390   0.528   3.309  37.418  0.0019 -0.1945 -0.0589
11191W        W13391   5.031   4.807  15.831  0.1192 -0.1275  0.0585
11192W        W13392   4.176   0.528  40.459  0.1751 -0.1288  0.0294
11193W        W13393   7.327   1.368  24.422  0.1599 -0.0494 -0.2031
11194W        W13394   3.364   2.491  23.254 -0.1383  0.1603  0.0538
11195W        W13395   4.096   2.911   5.225  0.4566  0.2203 -0.0814
11196W        W13396  10.530   1.523   2.825 -0.3887  0.0481 -0.2136
11197W        W13397   1.288   1.227  36.234  0.0081  0.0571  0.3649
11198W        W13398  16.080   5.369  41.798  0.1794  0.1739  0.0709
11199W        W13399  10.794   3.420  42.292 -0.0418  0.0479  0.1197
11200W        W13400  14.022   2.019   2.815  0.2214  0.1762  0.0424
11201W        W13401   3.827   3.373  44.737  0.1053  0.1432  0.0473
11202W        W13402  11.905   2.538  31.374 -0.1106  0.0260 -0.1151
11203W        W13403   5.316   1.214  15.588 -0.1331  0.1165 -0.0049
11204W        W13404  11.324   4.572  33.248 -0.1037 -0.1586 -0.2793
11205W        W13405   3.486   2.311  43.236 -0.1980 -0.0166  0.1020
11206W        W13406  20.262   3.592  36.557  0.1475 -0.0975  0.3907
11207W        W13407  17.015   2.140  12.678 -0.0755 -0.1849  0.0289
11208W        W13408  17.151   6.427  16.088 -0.1737 -0.1778 -0.0592
11209W        W13409   1.826   3.638   8.015 -0.0335  0.2730  0.0421
11210W        W13410  11.378   2.852  35.251 -0.1470  0.3097  0.0202
11211W        W13411  14.125   4.597   4.111 -0.0697 -0.0446  0.2877
11212W        W13412  17.777   3.141   7.921  0.0024  0.0156 -0.2632
11213W        W13413  10.180   5.426  13.576 -0.2875 -0.3061  0.0922
11214W        W13414   0.477   0.130  13.301 -0.0343 -0.1895  0.0380
11215W        W13415   8.179   1.285  34.848  0.2550 -0.2433  0.1546
11216W        W13416  13.440   3.217   0.537  0.2290 -0.1289 -0.0662
11217W        W13417   5.413   2.661  30.174 -0.0394 -0.0445 -0.3644
11218W        W13418  16.235   4.879  38.876  0.2847  0.1840 -0.0581
11219W        W13419   6.677   3.436  12.217 -0.1655  0.1266 -0.1471
11220W        W13420   9.465   1.605   7.400 -0.0474  0.1004  0.1542
11221W        W13421   3.786   5.379  33.583  0.1181  0.0053  0.2530
11222W        W13422   5.211   1.916  31.728  0.1179 -0.2431  0.1359
11223W        W13423   2.780   2.101  43.440 -0.1295 -0.3386 -0.1526
11224W        W13424   9.797   6.013   7.716 -0.0424  0.2678  0.3143
11225W        W13425   0.074   5.275  34.985  0.2583  0.2845  0.0065
11226W        W13426  15.008   0.861  34.281  0.1309 -0.0607  0.2535
11227W        W13427   8.329   1.342  31.009 -0.1464  0.0049  0.1295
11228W        W13428  20.270   4.376  27.025 -0.0268 -0.0141  0.1987
11229W        W13429   6.167   5.550  31.882 -0.1363 -0.2125 -0.2335
11230W        W13430   5.826   1.583  41.355 -0.0616  0.2210  0.0988
11231W        W13431   3.289   4.180  31.557  0.0401  0.1251  0.1147
11232W        W13432   2.711   5.549   3.806 -0.1715  0.2147  0.0099
11233W        W13433   5.039   3.092  32.742  0.2076  0.1656 -0.0203
11234W        W13434  11.920   1.394  20.624  0.0263  0.0099 -0.1013
11235W        W13435  11.789   2.793  20.477  0.0254  0.1388 -0.0427
11236W        W13436  14.895   4.141  33.682  0.0308  0.1023 -0.1707
11237W        W13437   4.010   6.104  40.010 -0.0450  0.0480 -0.0427
11238W        W13438   4.467   1.311   9.438  0.1536  0.1434 -0.2297
11239W        W13439   4.073   3.919  39.916 -0.0857 -0.1745  0.0593
11240W        W13440   0.253   2.564  12.385 -0.0926  0.1095  0.0812
11241W        W13441  19.110   0.354  13.201  0.2235 -0.0050 -0.0579
11242W        W13442  14.286   6.190  44.107 -0.0981 -0.1232  0.2030
11243W        W13443   1.701   2.424  39.481 -0.0406  0.1391  0.1043
11244W        W13444  20.654   4.110  33.682 -0.0735  0.1331  0.2745
11245W        W13445   2.983   2.149  44.346  0.0684 -0.3698 -0.0654
11246W        W13446  13.745   5.099  19.740 -0.1103 -0.3756 -0.2436
11247W        W13447   1.897   0.505  41.883 -0.0237 -0.1301  0.1109
11248W        W13448  18.032   3.975   6.781  0.2848  0.0920 -0.1276
11249W        W13449  19.937   2.135  44.634 -0.1183 -0.5506 -0.1236
11250W        W13450   2.176   4.649  11.414  0.0515  0.1630  0.2284
11251W        W13451   4.170   1.088  13.186 -0.2880  0.4163  0.0624
11252W        W13452   7.181   5.742  11.486 -0.3822 -0.0384 -0.1379
11253W        W13453   7.795   1.970  14.009 -0.0432 -0.2630  0.2660
11254W        W13454   3.683   0.295  43.454 -0.1836  0.3470 -0.1357
11255W        W13455   1.524   1.439  38.304 -0.3123 -0.3247 -0.3175
11256W        W13456   5.287   1.954   4.761 -0.0783 -0.2559 -0.1192
11257W        W13457   6.248   5.923  24.552  0.2510 -0.2258 -0.2635
11258W        W13458  11.436   6.470  12.996 -0.0083  0.0111  0.1561
11259W        W13459  17.196   5.453  28.194 -0.2355 -0.1324  0.2286
11260W        W13460   2.537   4.471  13.742 -0.1860 -0.4482 -0.3154
11261W        W13461  15.558   1.372  14.342  0.0003 -0.0290  0.0376
11262W        W13462   5.236   3.965  36.482 -0.0561  0.1685  0.0875
11263W        W13463   3.377   3.280   6.976 -0.0736  0.0702  0.2595
11264W        W13464   6.385   5.592  31.344  0.1264 -0.1275 -0.1859
11265W        W13465   1.647   1.932  33.144  0.0241  0.1727  0.0561
11266W        W13466   1.372   1.345   0.612  0.2434  0.0848 -0.0167
11267W        W13467  12.741   4.994   9.964  0.0441  0.1028 -0.0074
11268W        W13468   1.108   6.016  27.723  0.1457  0.0775 -0.0760
11269W        W13469   1.073   3.409   6.218 -0.1064  0.1626 -0.2169
11270W        W13470  12.755   5.960  14.929  0.3419 -0.1517  0.2079
11271W        W13471  19.077   5.113   4.373  0.1884  0.0404 -0.1623
11272W        W13472   8.888   4.259   3.253  0.3491 -0.0841  0.0626
11273W        W13473  10.845   1.738   9.343  0.1058  0.2644 -0.0683
11274W        W13474  15.685   0.373  38.130 -0.0739  0.0617  0.0092
11275W        W13475   0.179   4.756  43.633 -0.1418  0.3168 -0.0244
11276W        W13476  10.235   4.356  17.411  0.2325  0.2129 -0.0552
11277W        W13477   3.373   1.532  32.730  0.1049 -0.0986  0.1512
11278W        W13478   3.749   5.403  22.888  0.1553  0.0742  0.1289
11279W        W13479  14.102   5.253   2.889  0.0597  0.0195 -0.0736
11280W        W13480   5.799   1.768  45.030  0.0728  0.1393 -0.0328
11281W        W13481   4.629   2.684   6.353 -0.0438 -0.1108  0.3165
11282W        W13482  15.921   4.015  12.560 -0.1812  0.1707  0.0813
11283W        W13483   4.635   1.285   6.516 -0.0715 -0.1091 -0.2269
11284W        W13484   4.113   3.057  40.315  0.4518 -0.0982 -0.0696
11285W        W13485   4.458   5.713   7.082 -0.1260 -0.0420  0.1511
11286W        W13486  19.360   4.862  10.512 -0.0608  0.3612  0.2812
11287W        W13487  20.282   3.751  34.068 -0.2043  0.0602  0.2648
11288W        W13488  10.468   3.200   2.112 -0.0670 -0.0839 -0.1875
11289W        W13489   5.480   3.528  26.475  0.3190 -0.0214  0.2034
11290W        W13490   2.033   1.945  30.469  0.0493  0.3249 -0.1520
11291W        W13491  14.097   0.137  37.115  0.1597  0.1149 -0.0966
11292W        W13492   2.878   2.756  11.804 -0.1574 -0.1420  0.0154
11293W        W13493   4.374   1.423  24.193  0.1662 -0.1322  0.0938
11294W        W13494  15.580   3.062  39.831  0.2777 -0.4118  0.0113
11295W        W13495  19.219   1.881   8.671 -0.1043 -0.1994  0.0401
11296W        W13496  16.995   5.267  19.749  0.0218  0.1763 -0.4728
11297W        W13497  21.156   5.409  44.158 -0.0875 -0.1366 -0.0043
11298W        W13498  20.314   2.419  42.933 -0.0294 -0.1660 -0.0091
11299W        W13499  10.867   5.244  32.097 -0.1891 -0.0673 -0.0334
11300W        W13500   8.571   3.243  29.987 -0.2421  0.0031 -0.1666
11301W        W13501   2.491   4.824  37.282 -0.0233  0.1264 -0.0246
11302W        W13502  17.879   1.580  14.484  0.0426 -0.0447  0.1890
11303W        W13503  19.802   5.449  32.582  0.1870 -0.1140  0.0316
11304W        W13504  14.184   5.474  40.777 -0.1324  0.2020 -0.0749
11305W        W13505   7.569   0.476  11.083  0.1305 -0.0601 -0.0788
11306W        W13506   6.199   2.395  29.296 -0.0327  0.1189 -0.1414
11307W        W13507  15.757   4.189  15.762 -0.1848 -0.0071  0.2311
11308W        W13508  14.455   5.337  15.026 -0.0725 -0.0402 -0.1064
11309W        W13509   6.587   6.257  39.217  0.0656 -0.2432  0.1377
11310W        W13510   7.559   5.399  11.473 -0.0776  0.0046  0.0682
11311W        W13511   6.619   4.932  27.507 -0.2037  0.3463 -0.1744
11312W        W13512  15.472   6.015   0.063  0.1352 -0.0721 -0.0601
11313W        W13513  12.442   3.592  17.364  0.0509  0.3290  0.0806
11314W        W13514  20.668   2.869  28.136  0.1150  0.1848  0.1353
11315W        W13515   4.141   6.257  31.959 -0.0238 -0.1092  0.1437
11316W        W13516  13.718   3.485  19.978 -0.0604  0.0184  0.1126
11317W        W13517  15.192   0.992  36.949 -0.1032 -0.1317 -0.1403
11318W        W13518  19.085   6.594  12.831  0.1227 -0.0266  0.2806
11319W        W13519   7.813   2.875   0.512  0.2181 -0.1502  0.1797
11320W        W13520  14.303   0.077  40.602 -0.1457  0.3725  0.3622
11321W        W13521  13.245   5.773  40.559  0.2347  0.2842  0.0676
11322W        W13522   3.646   4.024   3.631 -0.0049  0.2314 -0.3333
11323W        W13523  18.144   2.643  35.748  0.3312 -0.4995  0.3073
11324W        W13524   1.905   5.178  43.775  0.0099  0.0030 -0.0154
11325W        W13525  18.856   3.092  30.374  0.0005  0.1005 -0.0963
11326W        W13526  10.102   4.414   0.960 -0.1912  0.2304 -0.1232
11327W        W13527   0.396   5.810  36.293 -0.4770  0.1191 -0.0539
11328W        W13528   9.441   0.428  13.799 -0.0642 -0.0577 -0.2904
11329W        W13529  19.765   4.029  11.211 -0.1285 -0.2420  0.1795
11330W        W13530   7.925   3.847  43.040 -0.1109  0.0382  0.1353
11331W        W13531   9.838   2.146   5.811  0.0910  0.2124  0.2934
11332W        W13532   3.867   3.131  37.095  0.2960  0.1502  0.1029
11333W        W13533   8.962   1.468  11.553 -0.3349  0.3250 -0.0139
11334W        W13534  16.665   5.287  42.608  0.0421 -0.3291 -0.2552
11335W        W13535   7.078   5.653  28.530  0.2474 -0.0582  0.0064
11336W        W13536  16.964   1.195   4.780  0.0201  0.0687 -0.1535
11337W        W13537   2.096   5.659  25.343  0.0489 -0.1318 -0.1621
11338W        W13538  11.972   2.300  32.610 -0.0279 -0.0323  0.2709
11339W        W13539  11.440   1.256   2.357 -0.3446 -0.0674  0.1228
11340W        W13540  11.752   5.102   1.902 -0.0342  0.0230 -0.0927
11341W        W13541  15.407   5.708  33.277 -0.1931 -0.5600 -0.0676
11342W        W13542  21.091   5.322  35.595  0.2499  0.0540  0.0183
11343W        W13543  11.969   3.289   1.225  0.0266  0.2037 -0.1336
11344W        W13544   3.390   6.375  22.245  0.2384  0.0705  0.0286
11345W        W13545  11.204   1.562   2.030  0.2988 -0.1350  0.0540
11346W        W13546  13.395   3.418  17.590  0.1487  0.1789  0.0336
11347W        W13547  21.116   6.265  37.440 -0.1469 -0.0008 -0.1912
11348W        W13548   0.818   0.032  30.748  0.0799  0.4638 -0.0715
11349W        W13549  12.508   5.376   8.344  0.2514  0.0662  0.1425
11350W        W13550  18.711   3.178   9.811 -0.0377 -0.1244 -0.3004
11351W        W13551  15.479   3.140  36.600 -0.1150  0.0325  0.0855
11352W        W13552  12.260   0.162  34.487  0.3082  0.0851 -0.2326
11353W        W13553  13.834   4.873  36.084 -0.1900 -0.0611  0.2814
11354W        W13554  12.519   5.734  39.253  0.0670 -0.3686 -0.0308
11355W        W13555  12.531   4.525  34.795  0.0672  0.1008 -0.0674
11356W        W13556  16.716   4.700   6.109  0.0764  0.3267 -0.0768
11357W        W13557  10.833   4.855  42.213  0.1226 -0.1375  0.1923
11358W        W13558  19.894   4.927  39.152  0.2262  0.1449 -0.0728
11359W        W13559  12.763   1.066  44.403  0.1159  0.1301 -0.0206
11360W        W13560  17.540   5.739  19.790  0.2375 -0.2042  0.1690
11361W        W13561   9.893   3.339   1.114 -0.0744  0.0400  0.2185
11362W        W13562  10.871   6.593  42.166  0.0907 -0.0595 -0.1443
11363W        W13563   8.320   4.901  10.508 -0.1971 -0.0005 -0.2211
11364W        W13564   1.928   5.985  15.036  0.0535  0.0227  0.1652
11365W        W13565  15.465   2.924  44.145 -0.1061  0.1094  0.0358
11366W        W13566  10.992   4.538  37.324 -0.2094  0.1754 -0.1450
11367W        W13567  13.041   1.848  35.730 -0.0822  0.0183 -0.1149
11368W        W13568  15.927   0.486  34.615  0.1210  0.1245  0.0201
11369W        W13569   7.413   0.704   5.561 -0.0569 -0.1813  0.2284
11370W        W13570   9.619   4.172  44.260 -0.3241  0.0372 -0.0836
11371W        W13571   5.697   3.412  35.209  0.1499 -0.1406  0.0483
11372W        W13572   8.047   6.065  14.509  0.1500  0.1302 -0.1210
11373W        W13573   2.778   4.825   3.144  0.0978  0.1760  0.3869
11374W        W13574   2.043   3.850  43.617  0.0578  0.1286 -0.0688
11375W        W13575  20.119   0.435   5.339  0.2669  0.1364 -0.0127
11376W        W13576   2.300   2.222  22.351  0.0177 -0.0518 -0.1288
11377W        W13577  18.407   5.396  17.197  0.3604 -0.0901 -0.2106
11378W        W13578  13.784   1.736  32.833  0.0206  0.1387  0.4122
11379W        W13579  17.475   6.285   3.119  0.1008 -0.1760 -0.2159
11380W        W13580   1.062   0.646  14.952 -0.1834 -0.1206 -0.3060
11381W        W13581  11.054   5.113  35.526  0.4013 -0.0761  0.1057
11382W        W13582  13.552   4.092  20.639 -0.2012 -0.0545  0.2611
11383W        W13583  10.643   5.421   7.141  0.1828  0.3486 -0.4263
11384W        W13584   3.159   0.524   2.432 -0.1825  0.1118  0.1664
11385W        W13585   5.313   0.532  16.392 -0.3402 -0.2325 -0.0766
11386W        W13586  14.780   1.853  37.340  0.2413 -0.1229  0.3756
11387W        W13587   6.047   1.766   2.956 -0.0715  0.3206 -0.3149
11388W        W13588   1.908   1.463  23.271  0.1672 -0.0843  0.0018
11389W        W13589   8.394   1.258  26.303 -0.1710  0.0575 -0.0665
11390W        W13590   7.998   2.357  24.296  0.1369  0.1209 -0.0082
11391W        W13591   6.700   0.400   1.036  0.0911 -0.2675  0.1512
11392W        W13592   9.155   1.846   7.833  0.2553  0.2356  0.0742
11393W        W13593   1.950   3.719  37.145  0.2459  0.1856 -0.2324
11394W        W13594  18.454   5.829  16.601  0.0250  0.2929 -0.1049
11395W        W13595  10.447   0.095   0.761 -0.0541 -0.0014 -0.0734
11396W        W13596   5.704   2.827  35.339  0.0323  0.0895 -0.0220
11397W        W13597   2.970   3.487   6.652 -0.0482 -0.0590 -0.2362
11398W        W13598  14.711   4.255  23.945 -0.0708  0.1916 -0.2606
11399W        W13599  14.418   0.826   2.135  0.1141 -0.2312 -0.1633
11400W        W13600   1.844   0.574  27.314  0.0059 -0.2801 -0.0214
11401W        W13601   1.987   1.280  14.422  0.7733 -0.2335  0.2370
11402W        W13602  12.150   0.585   0.376  0.1737  0.2972 -0.2025
11403W        W13603  20.937   4.671   8.365  0.0812  0.0822  0.0773
11404W        W13604   9.009   3.000  27.477  0.2406  0.1117 -0.0222
11405W        W13605   0.933   2.332  27.666 -0.0544 -0.1866  0.1103
11406W        W13606   2.596   3.350   2.541  0.0104 -0.1013  0.1260
11407W        W13607   3.224   5.063   3.231 -0.1828 -0.1079  0.0316
11408W        W13608   4.199   1.071  30.380  0.0989  0.2042  0.3270
11409W        W13609  18.569   4.641  38.516  0.0740  0.2800  0.0079
11410W        W13610  19.869   2.280  36.486 -0.1299 -0.0159 -0.0415
11411W        W13611  19.815   4.455  31.550  0.1413 -0.1812  0.1936
11412W        W13612   5.364   1.070  28.430  0.0972 -0.0831 -0.0750
11413W        W13613  19.687   4.024  13.103 -0.0221 -0.0642  0.0604
11414W        W13614  17.072   1.329  35.262  0.1532 -0.0030  0.1202
11415W        W13615  14.842   4.980  20.794 -0.1095  0.1184 -0.0221
11416W        W13616   7.794   2.381  36.571 -0.2111 -0.0233 -0.0090
11417W        W13617   5.783   6.036  23.162  0.0476  0.0960  0.1321
11418W        W13618  13.415   6.531  21.469 -0.0308  0.1962  0.3943
11419W        W13619   2.206   2.710  10.731 -0.2388 -0.1424 -0.0998
11420W        W13620  10.055   4.377  16.380 -0.0457 -0.1620  0.0532
11421W        W13621  14.222   5.763   1.799  0.0746 -0.1665 -0.1288
11422W        W13622   9.511   2.627  28.805 -0.0660  0.1257 -0.3561
11423W        W13623  10.349   6.074  44.941  0.2340 -0.0364 -0.1259
11424W        W13624   8.587   2.943   9.964 -0.0675 -0.2535 -0.2162
11425W        W13625   8.724   3.399  41.476  0.1189 -0.1470  0.2002
11426W        W13626  13.848   6.087   3.966 -0.0513 -0.1826 -0.2836
11427W        W13627   6.060   5.127  36.416  0.3073 -0.0793  0.2722
11428W        W13628  18.820   0.588   8.429  0.0035  0.2645  0.0600
11429W        W13629  17.318   0.988  44.731 -0.0429  0.0219  0.2697
11430W        W13630   8.064   2.913  33.690 -0.0088 -0.0844 -0.2102
11431W        W13631  12.284   2.090  14.770 -0.0060  0.0804  0.1719
11432W        W13632  19.077   0.145  12.375 -0.0952  0.1330  0.0808
11433W        W13633   4.420   1.195   6.069  0.0889  0.0750 -0.2089
11434W        W13634   0.047   6.574  37.836  0.4610 -0.1891  0.2021
11435W        W13635  12.316   4.797  19.747  0.1817  0.2892  0.0518
11436W        W13636  12.937   1.856  11.026 -0.3733  0.1643 -0.0274
11437W        W13637   1.956   1.129  28.150  0.0462 -0.4756  0.0630
11438W        W13638   3.047   4.755  10.608  0.0311 -0.2316  0.1028
11439W        W13639  18.427   6.229   6.498 -0.2699  0.0638  0.0165
11440W        W13640   7.672   0.538  13.070  0.1816 -0.2985 -0.1900
11441W        W13641  17.582   5.889  10.316 -0.1305  0.1175 -0.3563
11442W        W13642  16.603   1.560   2.404 -0.0829 -0.0456 -0.2170
11443W        W13643   9.627   6.354  17.306 -0.0022  0.3623 -0.5467
11444W        W13644  17.992   5.781   9.157  0.0923  0.1126 -0.0811
11445W        W13645  20.897   6.190   1.672  0.2224 -0.1639 -0.1672
11446W        W13646   2.392   5.590   9.090  0.0865 -0.2234 -0.0190
11447W        W13647   5.093   1.877  37.328 -0.1074 -0.1141  0.4043
11448W        W13648  13.844   4.430  35.208 -0.0110 -0.2443 -0.0439
11449W        W13649  17.855   0.104   2.335  0.3504 -0.0290 -0.1230
11450W        W13650   1.371   2.246  27.018  0.1178 -0.0242 -0.2925
11451W        W13651   3.925   5.682  43.568 -0.1457 -0.1717  0.1429
11452W        W13652   2.712   0.819   4.182 -0.1040 -0.1614 -0.0856
11453W        W13653  19.476   3.382   8.146  0.2899  0.1698 -0.0118
11454W        W13654  15.121   4.333  20.348  0.1165  0.0311 -0.2108
11455W        W13655   4.434   0.435  14.384 -0.2794  0.0353 -0.1376
11456W        W13656  14.110   3.253  32.060  0.0867 -0.1930 -0.0194
11457W        W13657  11.114   6.048   7.577  0.2196  0.1601 -0.0043
11458W        W13658  15.394   4.802   2.692  0.1189 -0.0373 -0.1957
11459W        W13659   5.897   3.365  36.136 -0.0889  0.0191 -0.4275
11460W        W13660  14.457   5.747  37.977  0.3227 -0.0554  0.1335
11461W        W13661  16.193   2.382  41.199 -0.1060  0.1872  0.1288
11462W        W13662   4.425   6.555  44.678 -0.2460  0.0584 -0.0038
11463W        W13663  11.984   5.876  22.108  0.2546 -0.0838  0.0459
11464W        W13664  14.070   4.686  38.803 -0.0832  0.3714  0.0199
11465W        W13665   1.947   1.358  24.923  0.1551  0.1884 -0.3353
11466W        W13666  17.785   3.522  37.438  0.0437 -0.1590  0.1154
11467W        W13667  16.076   5.792  12.472 -0.1769 -0.1144  0.0959
11468W        W13668  21.128   5.030   7.992 -0.3266  0.2093 -0.1195
11469W        W13669  18.937   1.187   4.461  0.0122 -0.0572  0.1826
11470W        W13670  10.535   3.204  37.885 -0.2815 -0.0971  0.1306
11471W        W13671  12.313   5.276  33.299  0.4680 -0.0574  0.2014
11472W        W13672   0.796   0.940  30.894  0.0943 -0.1879 -0.1093
11473W        W13673   7.814   4.932  37.001  0.0808  0.1268  0.0719
11474W        W13674  17.778   3.868  35.235 -0.3178  0.1673 -0.2446
11475W        W13675   7.903   2.235  43.043  0.1593 -0.2382 -0.1558
11476W        W13676  14.762   2.955  10.133 -0.0309 -0.0493 -0.1521
11477W        W13677  18.461   5.807  18.675  0.1120 -0.0060  0.1743
11478W        W13678  12.535   1.894  31.658  0.1567  0.0253  0.2538
11479W        W13679   2.025   2.695  14.104 -0.1187  0.0118  0.1518
11480W        W13680  11.013   3.051  21.059  0.0119 -0.1065 -0.0784
11481W        W13681   6.488   0.774   3.244  0.3268  0.1566  0.4713
11482W        W13682   3.661   5.601   4.377  0.2395 -0.0682  0.2873
11483W        W13683  17.819   1.108  44.792  0.1757  0.1524  0.3332
11484W        W13684  12.545   4.491  21.028  0.1587  0.0941 -0.1012
11485W        W13685   3.854   4.630   9.405 -0.2985 -0.1574 -0.4466
11486W        W13686  15.154   4.518   3.610  0.1053 -0.0099 -0.1498
11487W        W13687  11.476   4.742  29.944  0.2911  0.1004 -0.2188
11488W        W13688   8.923   5.093   6.696  0.2342 -0.1157  0.3194
11489W        W13689   1.810   3.230  10.978  0.3966  0.1934  0.1509
11490W        W13690  11.690   5.066   4.891 -0.5493  0.0519 -0.0969
11491W        W13691   3.687   4.646  26.303  0.1826 -0.0696  0.2234
11492W        W13692  12.224   4.199  30.232 -0.2875 -0.0682  0.0863
11493W        W13693  19.071   0.865  11.925  0.0832  0.2096  0.1464
11494W        W13694   9.324   3.766   1.704  0.0328  0.4212  0.1088
11495W        W13695  19.229   4.097  18.007 -0.0406 -0.0499 -0.0691
11496W        W13696   4.838   4.324  22.537  0.0115 -0.1678 -0.0186
11497W        W13697  14.542   6.467  30.458 -0.1165  0.1509  0.0569
11498W        W13698   4.296   0.935  36.739 -0.3452  0.0295  0.1133
11499W        W13699   4.987   1.816  40.455 -0.1997 -0.0277 -0.0072
11500W        W13700   6.013   0.027  40.061  0.0193  0.1667 -0.3909
11501W        W13701  20.720   5.723  30.826  0.3871 -0.1827  0.2716
11502W        W13702  10.724   3.834   1.425 -0.1879  0.3793 -0.0651
11503W        W13703   1.030   2.648  28.266 -0.3282  0.2747  0.0620
11504W        W13704  11.900   0.729  14.117  0.0088 -0.2473 -0.3510
11505W        W13705  10.240   5.396  14.093 -0.1400 -0.1498 -0.1209
11506W        W13706  11.236   0.503  11.545 -0.1096  0.1514 -0.0571
11507W        W13707  19.432   2.212  30.726  0.1910 -0.3194 -0.0146
11508W        W13708   2.691   4.734  22.707 -0.1138 -0.1460  0.2763
11509W        W13709  12.315   3.385  29.634  0.2121  0.0205  0.2653
11510W        W13710   3.032   0.683   2.008 -0.1229  0.0772  0.0566
11511W        W13711   0.200   0.528  44.818  0.4150 -0.1568 -0.0294
11512W        W13712   7.744   1.449  29.067 -0.0097 -0.0624  0.0875
11513W        W13713   4.002   5.346   9.557  0.3713 -0.0534  0.0324
11514W        W13714   8.556   4.960  37.040  0.2470 -0.1242  0.2141
11515W        W13715   6.020   4.337   1.689  0.2094  0.4385 -0.2355
11516W        W13716   2.768   6.076  28.219  0.0084  0.0037 -0.3977
11517W        W13717   4.220   5.165  10.297  0.0185 -0.1052  0.2126
11518W        W13718  10.660   4.689  39.970  0.0360 -0.0856  0.2070
11519W        W13719  16.143   6.533  37.626  0.0066 -0.3337 -0.1641
11520W        W13720   3.336   2.067  37.054  0.0976  0.0445 -0.0866
11521W        W13721  12.311   4.015  28.938  0.1588  0.0916 -0.4844
11522W        W13722  18.513   0.197  29.091  0.2771 -0.3284  0.1935
11523W        W13723   3.419   2.233  44.080 -0.2515  0.1371 -0.3575
11524W        W13724  20.607   4.759  34.245 -0.1085 -0.3478  0.2305
11525W        W13725   5.114   1.690  32.224 -0.1259 -0.0970  0.0950
11526W        W13726  21.151   4.213  41.725  0.0255 -0.2035 -0.0176
11527W        W13727   4.792   4.910  38.200 -0.1864 -0.0204  0.1692
11528W        W13728  17.035   5.675  15.642 -0.1704  0.1106  0.0519
11529W        W13729  11.906   2.935   2.127 -0.2615  0.1934  0.2496
11530W        W13730  16.897   1.140   2.360  0.1326 -0.2808  0.1932
11531W        W13731   4.762   5.461  13.528  0.2294  0.1459  0.0422
11532W        W13732   0.917   3.538   3.994 -0.0099 -0.2791 -0.2295
11533W        W13733   3.015   1.515   5.478 -0.0786  0.4295  0.0124
11534W        W13734   8.879   4.634   2.420  0.2852  0.1401 -0.2768
11535W        W13735   5.406   0.190  23.523  0.1982  0.2138 -0.1466
11536W        W13736  14.423   0.142  37.502 -0.2641  0.0436 -0.1078
11537W        W13737  10.063   4.972  27.896  0.0866 -0.1495 -0.0863
11538W        W13738  10.608   5.340  16.782 -0.1694  0.0882  0.0039
11539W        W13739  18.666   2.959  33.456  0.4304 -0.4654  0.0085
11540W        W13740  12.573   2.488  43.000 -0.2137  0.1186 -0.1644
11541W        W13741   6.744   1.129  25.106  0.1506 -0.0271  0.0285
11542W        W13742   7.466   0.169   8.202 -0.0913  0.0768 -0.0899
11543W        W13743  17.110   4.285  33.576  0.4152 -0.1607 -0.2047
11544W        W13744   9.003   2.532  29.887 -0.1528 -0.0410  0.0606
11545W        W13745   4.239   5.283  37.453  0.3034 -0.1343  0.0236
11546W        W13746  18.364   6.556  39.449  0.3316 -0.0305 -0.2331
11547W        W13747  11.460   5.171  34.576 -0.0680 -0.1551  0.1454
11548W        W13748   2.878   6.132   9.534 -0.2188 -0.0168 -0.2008
11549W        W13749  18.841   3.852  37.183  0.1019 -0.0736 -0.1219
11550W        W13750  18.428   6.045  37.262 -0.1200 -0.3238  0.2258
11551W        W13751   4.482   1.397  34.132 -0.1074  0.1928 -0.2204
11552W        W13752  14.405   0.480  24.300  0.1853  0.0456  0.0398
11553W        W13753  12.094   3.722  11.629 -0.0200 -0.0784  0.0986
11554W        W13754  17.777   1.884  10.525  0.1025 -0.2096 -0.0103
11555W        W13755   0.703   6.056  42.918 -0.1361 -0.0762  0.0385
11556W        W13756   6.291   0.080  11.574 -0.2158 -0.1830  0.1082
11557W        W13757  12.350   6.417   4.160  0.1873  0.0234  0.1489
11558W        W13758   1.619   6.409   4.731 -0.0688  0.1293  0.0222
11559W        W13759   5.024   2.576  26.059  0.0820  0.0007 -0.1349
11560W        W13760   3.701   2.471  11.439  0.3391  0.3479  0.1004
11561W        W13761  12.020   1.084  30.518  0.5576 -0.1219 -0.0514
11562W        W13762  19.788   0.168  42.726 -0.0659 -0.2074 -0.0911
11563W        W13763   3.780   1.758   2.609 -0.3487 -0.3120 -0.0858
11564W        W13764   2.018   4.681  23.141 -0.2214 -0.0228  0.1082
11565W        W13765  14.318   5.146  38.774 -0.1073 -0.0964 -0.1728
11566W        W13766   1.576   4.824  33.433 -0.0270  0.0044 -0.0085
11567W        W13767   6.066   1.592  26.375  0.0184  0.1562  0.0339
11568W        W13768   8.600   6.237  44.283 -0.1519  0.2318 -0.0580
11569W        W13769  11.134   5.368   8.487  0.0195 -0.0175  0.0444
11570W        W13770   9.051   5.629  15.484 -0.2634  0.1703 -0.4126
11571W        W13771  11.808   2.200  29.894  0.1561 -0.0665 -0.1031
11572W        W13772   2.540   0.119  37.022  0.0480 -0.0156 -0.3615
11573W        W13773  16.166   2.660  31.233  0.4803 -0.0688 -0.0691
11574W        W13774   6.597   0.159  39.366  0.0185  0.3469  0.0064
11575W        W13775   7.923   2.820   9.464 -0.1077  0.1254  0.0679
11576W        W13776   4.679   2.582   1.353 -0.3818  0.3135 -0.0407
11577W        W13777   5.045   2.125  10.109 -0.1438 -0.2092 -0.1873
11578W        W13778   7.378   4.756   3.831  0.1901  0.2474 -0.1578
11579W        W13779  20.056   1.840  32.269 -0.0153 -0.1915 -0.3151
11580W        W13780  17.224   5.745  28.664  0.1303 -0.1056  0.1800
11581W        W13781  20.269   2.500  31.197  0.0963 -0.3550  0.0965
11582W        W13782   4.795   5.861   0.199 -0.0293 -0.1915 -0.2225
11583W        W13783   0.144   4.041  39.671 -0.0752  0.1489  0.0559
11584W        W13784  12.033   3.017  36.450 -0.2697  0.0209 -0.0834
11585W        W13785   4.657   5.742  33.701  0.1214 -0.1019  0.2427
11586W        W13786   0.727   4.590  28.737  0.1449  0.0587 -0.0657
11587W        W13787  11.866   6.573  13.348  0.0139  0.0840 -0.1403
11588W        W13788   3.812   3.864  14.943 -0.1063 -0.1985 -0.0390
11589W        W13789  14.793   5.151   2.440  0.4693  0.0038  0.2889
11590W        W13790  17.523   3.914  35.751  0.1705  0.0061  0.3102
11591W        W13791  19.492   5.379  35.035  0.3713 -0.0295  0.1783
11592W        W13792  17.678   6.233   5.616  0.1546  0.2185 -0.2523
11593W        W13793  10.518   5.819  34.305  0.0314 -0.0044  0.1763
11594W        W13794   3.742   2.646  26.935  0.0250 -0.2912  0.0498
11595W        W13795   8.080   2.669  12.937  0.2701  0.0024  0.1437
11596W        W13796  14.908   1.461  44.661  0.0047  0.1539  0.1958
11597W        W13797   2.920   5.072  10.134 -0.0756 -0.0704  0.0642
11598W        W13798  15.821   0.069  13.152 -0.0755  0.0178 -0.0690
11599W        W13799  13.072   1.737  37.109 -0.1113 -0.4889  0.1186
11600W        W13800   6.241   4.214   8.206  0.1028 -0.2914 -0.1404
11601W        W13801  10.524   6.514  28.245 -0.2639 -0.0709 -0.0638
11602W        W13802   1.635   4.330  11.733 -0.1341  0.1023  0.1134
11603W        W13803  17.449   0.726  13.414  0.2536  0.0270 -0.0026
11604W        W13804  13.194   1.538  38.777 -0.1862 -0.2480 -0.1698
11605W        W13805  12.675   0.568  21.851  0.0817  0.0731 -0.0841
11606W        W13806  13.847   2.749  41.071 -0.2212 -0.2051 -0.2715
11607W        W13807  17.241   6.263  12.711  0.1085 -0.0924  0.1709
11608W        W13808  19.820   2.289  42.137  0.0553  0.2135  0.0196
11609W        W13809   8.917   0.527  25.858  0.0213  0.0451  0.1235
11610W        W13810   3.158   3.272  39.702 -0.0674  0.3862  0.0411
11611W        W13811   6.660   5.482  33.375 -0.1397  0.3504 -0.0686
11612W        W13812   6.330   1.386   4.509  0.1677 -0.0829  0.3388
11613W        W13813  11.817   4.072  38.672  0.0344  0.2479 -0.0150
11614W        W13814  13.116   2.636  37.211 -0.1898 -0.1261  0.1220
11615W        W13815  16.781   3.686  19.364  0.0643 -0.0303 -0.1588
11616W        W13816  20.455   4.923  38.759 -0.1040 -0.1833 -0.1380
11617W        W13817  15.384   2.793   5.519  0.0795 -0.2200 -0.3039
11618W        W13818   7.973   6.126  41.462 -0.0987 -0.0108  0.1820
11619W        W13819   9.354   4.362   8.461 -0.2126  0.0575 -0.1179
11620W        W13820  20.938   5.747  43.747 -0.1016  0.2173 -0.1501
11621W        W13821  20.291   1.812  44.535  0.0989 -0.1425  0.0365
11622W        W13822   2.766   3.577  20.760  0.1261  0.0416 -0.4293
11623W        W13823   2.647   4.535  44.536  0.1290 -0.1299 -0.0891
11624W        W13824   1.954   1.877  22.547 -0.4045 -0.2577 -0.1863
11625W        W13825   5.185   3.298  25.126 -0.1522 -0.2522  0.0013
11626W        W13826   8.959   2.603  43.758 -0.0343  0.1130  0.2462
11627W        W13827   2.226   4.905  14.182 -0.1058 -0.1133  0.1969
11628W        W13828   4.530   3.892  22.548  0.1137  0.0572  0.0023
11629W        W13829  15.371   3.519  21.597 -0.4144 -0.1645 -0.1698
11630W        W13830   8.004   5.155  36.080  0.2686 -0.0475 -0.0744
11631W        W13831  16.855   3.026   4.118 -0.0419 -0.0095  0.3015
11632W        W13832   1.138   1.383  41.316 -0.1514 -0.0859  0.1484
11633W        W13833  10.422   5.330   4.780  0.2102 -0.0486  0.2856
11634W        W13834  20.946   2.682  35.424  0.1610  0.1494 -0.1644
11635W        W13835  18.891   6.427  29.094 -0.2853  0.0244 -0.0617
11636W        W13836   7.498   0.378  15.831 -0.6245 -0.0719 -0.0131
11637W        W13837   4.478   4.964  30.024 -0.1179  0.0323 -0.1376
11638W        W13838   6.277   2.201  42.166 -0.0662  0.1008 -0.1409
11639W        W13839   6.330   5.693  35.610 -0.1686 -0.0301 -0.0831
11640W        W13840   2.241   3.324   7.883 -0.4118  0.1556  0.2631
11641W        W13841  20.454   5.735  38.340  0.3209 -0.2199  0.1374
11642W        W13842   9.719   0.431  36.448 -0.1138 -0.0096  0.2164
11643W        W13843  14.820   1.859   7.641  0.2160 -0.0680  0.0634
11644W        W13844  12.435   0.056   8.466 -0.1677  0.0772 -0.0238
11645W        W13845  15.770   6.071  17.922  0.1892 -0.0015 -0.2606
11646W        W13846   2.151   6.490  28.457 -0.1866 -0.1755 -0.1318
11647W        W13847   5.951   0.496   6.305  0.1611  0.2135  0.0190
11648W        W13848  20.465   1.224  32.269  0.0668  0.0055 -0.1280
11649W        W13849   9.879   6.175   5.280 -0.1485 -0.0771  0.2061
11650W        W13850  17.498   6.464  10.439 -0.0043  0.0314  0.2876
11651W        W13851   1.387   3.560   0.577 -0.2907  0.2323  0.2730
11652W        W13852   5.212   4.005  22.512  0.0433 -0.3939 -0.1906
11653W        W13853  15.241   3.137  10.229 -0.0785 -0.0020  0.1456
11654W        W13854   7.505   0.936  29.889  0.3505  0.2841  0.2335
11655W        W13855   0.253   6.167  29.731  0.2871 -0.0789 -0.0947
11656W        W13856  18.790   5.072  18.637  0.0354 -0.0735 -0.3692
11657W        W13857   1.518   5.936  34.303  0.1481  0.1478  0.0847
11658W        W13858  15.227   4.988  34.901  0.1652 -0.0143  0.1755
11659W        W13859  12.451   5.587  11.821  0.0532  0.0010  0.0933
11660W        W13860  13.833   4.326   7.436 -0.0835 -0.1785 -0.1076
11661W        W13861   9.527   1.380   1.836  0.0444  0.2832 -0.0360
11662W        W13862   9.059   1.988  32.267 -0.1128  0.3005  0.3031
11663W        W13863  10.903   3.830   3.206  0.3542 -0.0430 -0.0462
11664W        W13864   7.641   1.412  39.102 -0.1574 -0.0765  0.0375
11665W        W13865  11.580   6.119   3.192 -0.5035 -0.0182 -0.2074
11666W        W13866   2.596   2.047  27.801  0.1735 -0.0607 -0.4248
11667W        W13867  20.785   3.999  15.774  0.0235  0.0275 -0.0428
11668W        W13868   3.582   4.635  19.220 -0.2998 -0.1142  0.1887
11669W        W13869   4.661   0.575  15.446  0.1092  0.0443  0.0610
11670W        W13870  19.828   1.032  39.743 -0.1681 -0.0512 -0.2088
11671W        W13871   3.523   4.886  33.767  0.0213  0.2258 -0.4086
11672W        W13872  11.324   1.298  36.793  0.1739  0.3347 -0.1382
11673W        W13873  15.830   4.551  41.159  0.1788  0.1445 -0.0107
11674W        W13874  12.235   1.588  20.020  0.0694 -0.2703  0.1810
11675W        W13875  17.095   2.426   9.678  0.2190 -0.0602  0.0463
11676W        W13876  11.906   2.731  11.273  0.0824  0.1695  0.0378
11677W        W13877  21.065   3.992  14.021 -0.0293 -0.0482 -0.1557
11678W        W13878   0.680   1.686  41.294 -0.2288  0.1150 -0.2098
11679W        W13879  13.325   4.903   2.301  0.0014 -0.1145  0.0994
11680W        W13880   2.205   2.650   4.134 -0.0693 -0.0317  0.1245
11681W        W13881   0.608   1.992  34.191  0.0648  0.2172 -0.0389
11682W        W13882  17.413   5.786   8.316  0.1872  0.1057 -0.2108
11683W        W13883   7.288   1.920  44.602  0.0850  0.4429  0.0662
11684W        W13884   0.807   0.616   3.569 -0.0377 -0.0765 -0.3229
11685W        W13885  15.573   4.966  44.358  0.2979 -0.0333  0.2496
11686W        W13886   6.406   4.163   1.272 -0.1279 -0.2462 -0.2447
11687W        W13887   0.652   0.128   6.187  0.3282 -0.0450  0.1806
11688W        W13888   2.779   0.868   3.247  0.1743 -0.0458 -0.0575
11689W        W13889  11.411   2.373  36.003 -0.0849  0.0759 -0.3995
11690W        W13890   1.042   4.799  41.430  0.0189  0.1192 -0.0213
11691W        W13891  21.073   0.113  10.230 -0.2847  0.1761 -0.1623
11692W        W13892  16.303   5.900  43.456  0.1203  0.0801 -0.0657
11693W        W13893  17.336   3.843  16.358 -0.0851  0.4391  0.1546
11694W        W13894  14.006   1.511  21.041 -0.3434  0.0149  0.2049
11695W        W13895   4.514   5.092  13.953 -0.1812  0.0653 -0.2083
11696W        W13896  20.446   1.201  43.451  0.1312 -0.1052 -0.2869
11697W        W13897  12.414   5.018  21.105 -0.0285 -0.2811 -0.1701
11698W        W13898  14.055   0.522  36.488  0.0002 -0.0320 -0.1815
11699W        W13899  16.537   0.057  35.649 -0.0045 -0.0641 -0.1327
11700W        W13900   4.396   2.383  31.542 -0.2664 -0.0065 -0.1737
11701W        W13901  17.495   2.784   6.337  0.0113 -0.3894 -0.0008
11702W        W13902   6.873   2.103   0.092 -0.0269 -0.3403 -0.0804
11703W        W13903   5.282   3.635   9.753  0.0666 -0.1155 -0.0769
11704W        W13904  10.696   1.743  16.767 -0.2332 -0.1285 -0.1012
11705W        W13905  16.356   6.084   6.763  0.1379 -0.0455  0.0069
11706W        W13906   5.649   1.659  40.879  0.0677  0.0345 -0.1555
11707W        W13907  12.548   2.504   4.672  0.0207  0.3185  0.1700
11708W        W13908  10.466   0.377  42.482 -0.1109 -0.0405  0.2241
11709ION     NA13909  13.761   3.679   4.399  0.3526 -0.0856  0.0738
11710ION     NA13910  19.081   2.462  42.520  0.0587  0.0564  0.0331
11711ION     NA13911  11.108   0.766  41.526  0.1060  0.0016 -0.5310
11712ION     NA13912  12.329   6.594  39.534 -0.1641 -0.5348  0.0033
11713ION     NA13913  13.169   1.139  31.604  0.1201  0.2283  0.0456
11714ION     NA13914   2.232   6.341  28.870 -0.0283 -0.1340 -0.0862
11715ION     NA13915   6.150   5.072  13.723 -0.3062  0.1060 -0.2771
11716ION     NA13916   9.135   0.607  18.306 -0.1085  0.3987  0.5996
11717ION     NA13917  17.281   3.197  35.731  0.2331 -0.1324  0.4251
11718ION     NA13918   0.395   3.044  43.529  0.1726 -0.2691 -0.4418
11719ION     NA13919  10.800   0.331  33.701 -0.0582  0.1242  0.2462
11720ION     NA13920   6.285   5.440  27.012 -0.1344  0.2021  0.5004
11721ION     NA13921   3.962   1.857  25.211  0.1171  0.1192  0.0244
11722ION     NA13922   5.648   0.527  42.752  0.2206  0.0954 -0.3525
11723ION     NA13923  12.426   4.823  30.025 -0.0415  0.0012 -0.3603
11724ION     NA13924   6.250   3.304   6.313  0.0624  0.3764 -0.1102
11725ION     NA13925   3.330   2.885  28.055 -0.3624 -0.0122  0.0634
11726ION     NA13926  19.458   1.684   6.262 -0.0134  0.1191 -0.3927
11727ION     NA13927   6.240   1.735  15.093  0.2699 -0.2488  0.5289
11728ION     NA13928  19.341   1.983  43.452  0.2114  0.1466  0.0462
11729ION     NA13929   7.913   2.563   4.278  0.0757 -0.4253  0.1033
11730ION     NA13930   3.125   6.008   8.682  0.4452  0.1429  0.0219
11731ION     NA13931   1.482   2.534  43.161 -0.1120 -0.2571 -0.1278
11732ION     NA13932  16.448   4.013  10.072  0.1116 -0.1611  0.0146
11733ION     NA13933   1.516   0.262  34.041 -0.3972  0.0200  0.0386
11734ION     NA13934  17.297   2.261  31.941  0.1837  0.1742  0.0015
11735ION     NA13935  13.249   0.568  35.507  0.1248  0.3083  0.2330
11736ION     NA13936   8.651   3.606   8.073  0.0347  0.0695 -0.3083
11737ION     NA13937  17.401   3.677   2.300 -0.2928  0.2107 -0.3244
11738ION     NA13938   2.155   1.458  10.294  0.0233 -0.0392 -0.4486
11739ION     NA13939  20.701   4.800   6.677 -0.3103  0.0126  0.5759
11740ION     NA13940  20.122   5.163  35.684  0.0838  0.0025  0.0319
11741ION     NA13941   0.229   1.586  35.677  0.3762  0.1921  0.4880
11742ION     NA13942   3.183   3.065  11.889  0.0802  0.1327 -0.0366
11743ION     NA13943  12.299   1.831   6.143 -0.1573 -0.0609 -0.4827
11744ION     NA13944   9.705   1.082   6.809 -0.0894 -0.0881 -0.2993
11745ION     NA13945  15.772   3.359  18.397  0.2587  0.0355  0.7689
11746ION     NA13946   6.695   0.574  43.222  0.0796  0.1903  0.2481
11747ION     NA13947   0.205   1.446  28.101  0.1490  0.0461  0.0115
11748ION     NA13948  14.941   3.775  22.409  0.2262 -0.2555  0.3177
11749ION     NA13949   5.755   3.572  23.807  0.3848  0.0129 -0.0902
11750ION     NA13950  20.600   4.125   1.436 -0.1997 -0.0181  0.1371
11751ION     NA13951   5.066   1.311  34.502 -0.0384  0.2754 -0.1222
11752ION     NA13952   4.238   4.499  33.523  0.1995  0.0005  0.2097
11753ION     NA13953   5.319   0.865  12.309 -0.2588 -0.1807 -0.0611
11754ION     NA13954   4.208   2.805   4.276 -0.0059  0.0559  0.3198
11755ION     NA13955   8.636   6.099   5.665 -0.0232 -0.2107 -0.0624
11756ION     NA13956  19.304   5.389   1.039 -0.3432  0.2879 -0.1876
11757ION     NA13957   6.420   6.206  35.630  0.0024  0.0102 -0.0397
11758ION     NA13958   9.296   6.404   1.048 -0.0603 -0.1284  0.2856
11759ION     NA13959  10.304   2.105   4.406  0.0654 -0.0821 -0.1672
11760ION     NA13960   4.285   3.933  22.187 -0.0261 -0.0708  0.4624
11761ION     NA13961   6.963   0.565   6.239  0.5166 -0.0398  0.2835
11762ION     NA13962  16.908   0.358   2.056  0.1223 -0.1261 -0.0996
11763ION     NA13963   3.372   4.182  12.820 -0.1587 -0.0058 -0.1214
11764ION     NA13964  13.258   2.941  38.051  0.2716 -0.0940  0.6027
11765ION     NA13965  17.617   2.957  32.609  0.0036  0.1712  0.0100
11766ION     NA13966  16.300   0.963   8.582  0.0441 -0.1305 -0.1594
11767ION     NA13967   4.185   1.601  37.193  0.2415 -0.0105  0.1228
11768ION     NA13968  14.514   1.047  31.497 -0.2962  0.3585 -0.1313
11769ION     NA13969  14.999   4.555  22.547  0.5458 -0.0259 -0.3064
11770ION     NA13970   3.884   5.434  28.440  0.0105 -0.4484 -0.3349
11771ION     NA13971   0.206   2.852  15.259  0.2249 -0.2989  0.6280
11772ION     NA13972  13.196   5.246  37.776  0.0241  0.2939  0.1420
11773ION     NA13973   2.479   0.752   9.886  0.0050  0.2392  0.0746
11774ION     NA13974   4.920   3.687  14.550  0.0241 -0.3675  0.4889
11775ION     NA13975   5.518   1.124  11.456 -0.1618  0.0275 -0.2090
11776ION     NA13976   4.881   4.825  34.279  0.0357 -0.0143 -0.0271
11777ION     NA13977   9.687   3.552  33.124 -0.0164 -0.0440  0.0173
11778ION     NA13978   3.472   0.442   3.658 -0.7168  0.0802 -0.2141
11779ION     NA13979  17.972   3.463  16.008 -0.3384 -0.0168 -0.1433
11780ION     NA13980  19.602   0.911  15.954  0.0918  0.0975  0.0662
11781ION     NA13981  16.623   3.721  15.343  0.0338 -0.4262 -0.0823
11782ION     NA13982  18.135   1.237  13.759  0.3216 -0.0307  0.0335
11783ION     NA13983   4.867   2.557   5.972  0.2366  0.2668  0.1939
11784ION     NA13984   8.519   5.296  42.177 -0.1675  0.1265 -0.3127
11785ION     NA13985   2.359   3.013   2.310  0.5287  0.0952 -0.4517
11786ION     NA13986   3.243   3.299  15.377  0.3847 -0.1583 -0.0484
11787ION     NA13987   3.540   5.101  23.035  0.2324  0.5911 -0.1844
11788ION     NA13988  12.179   5.353  20.349  0.1487 -0.5466  0.3795
11789ION     NA13989   2.567   6.575   0.756 -0.0282 -0.0627 -0.1356
11790ION     NA13990  15.388   2.390   5.445  0.0910 -0.0091 -0.0246
11791ION     NA13991   4.206   1.360   2.227  0.1742  0.5509  0.3636
11792ION     NA13992  21.088   4.309  33.506  0.3638 -0.1165 -0.1799
11793ION     NA13993   7.658   2.460   0.586 -0.4134 -0.1163 -0.2327
11794ION     NA13994  15.402   3.213  37.025 -0.0662 -0.3140 -0.1003
11795ION     NA13995  14.325   5.861   9.715  0.0244  0.2677  0.5190
11796ION     NA13996   4.146   0.350  40.082 -0.0759  0.0101  0.0442
11797ION     NA13997  11.255   0.299  15.918  0.1236  0.3541 -0.3622
11798ION     NA13998   6.998   4.750  14.467  0.1143 -0.3453  0.1419
11799ION     NA13999  10.322   1.961  15.789  0.2860  0.4437  0.0387
11800ION     NA14000  19.600   2.655   0.691 -0.0061  0.0707 -0.0246
11801ION     NA14001   0.288   1.065   7.586 -0.1238  0.0893 -0.0424
11802ION     NA14002   6.222   6.526  10.618  0.1068 -0.4101  0.2012
11803ION     NA14003   1.755   1.121  11.330 -0.0950  0.3002 -0.3523
11804ION     NA14004   6.311   1.123  36.527 -0.1761 -0.1495 -0.1140
11805ION     NA14005   4.881   0.028  40.763 -0.0436  0.2283 -0.0736
11806ION     NA14006  15.169   6.305  45.095 -0.4503 -0.2983  0.1739
11807ION     NA14007   7.688   3.809  31.070 -0.2121  0.0271  0.1955
11808ION     NA14008   8.627   5.582   1.081 -0.3493  0.1737  0.1851
11809ION     NA14009  15.290   6.534  19.866  0.3507  0.0022 -0.2860
11810ION     NA14010   9.513   5.962   5.178  0.2142  0.0062 -0.0233
11811ION     NA14011   4.816   3.492  45.056  0.3268  0.1927 -0.2111
11812ION     NA14012  19.416   5.379  43.818  0.4869 -0.2639 -0.0734
11813ION     NA14013  18.741   6.449  39.241 -0.2716 -0.4157  0.0404
11814ION     NA14014   5.843   1.256  29.763 -0.3134 -0.3059  0.1833
11815ION     NA14015  13.340   1.051  38.742  0.0365 -0.3808  0.3675
11816ION     NA14016   7.830   2.292  31.742 -0.0046  0.4463 -0.2341
11817ION     NA14017  14.294   4.116  21.821 -0.0614 -0.1624 -0.3465
11818ION     NA14018   2.589   6.408  36.518  0.1380  0.1195 -0.1961
11819ION     NA14019  15.992   2.805  12.371  0.3105  0.1938 -0.2001
11820ION     NA14020  11.499   5.705  15.931 -0.2079 -0.0240 -0.4427
11821ION     NA14021   2.720   3.405  11.105 -0.2058 -0.1456  0.1342
11822ION     NA14022  12.353   3.494  15.232  0.0029  0.2846 -0.3184
11823ION     NA14023  20.604   5.736  32.781  0.0593  0.1617 -0.1683
11824ION     NA14024   1.980   3.447  27.061 -0.3956  0.0381 -0.2857
11825ION     NA14025  16.837   1.444  11.867 -0.0609 -0.2604 -0.4341
11826ION     NA14026   6.839   3.654  28.472  0.2214  0.0996 -0.4927
11827ION     NA14027  17.608   2.431  34.905 -0.1304  0.4487  0.1250
11828ION     NA14028  11.958   5.532   5.810  0.3883 -0.0417 -0.2089
11829ION     NA14029  20.192   2.205  13.973 -0.1225 -0.0625 -0.0372
11830ION     NA14030   6.349   1.966   3.160  0.2855 -0.2061  0.7608
11831ION     NA14031   0.835   6.558  29.120 -0.3948 -0.2874  0.3249
11832ION     NA14032  15.169   3.061   4.477  0.1711  0.2152 -0.1125
11833ION     NA14033  13.921   4.755  22.803  0.2703 -0.2874 -0.1769
11834ION     NA14034   8.631   0.207  40.561  0.1877 -0.0354 -0.3026
11835ION     NA14035   6.911   1.135   5.404  0.0284  0.0976 -0.7201
11836ION     NA14036  20.174   2.119   0.419 -0.3805  0.0850 -0.0323
11837ION     NA14037   1.796   1.599  12.811 -0.1669  0.4381 -0.0317
11838ION     NA14038   7.702   4.895  29.367  0.0830 -0.1024  0.1533
11839ION     NA14039   5.014   5.157  45.054  0.1329  0.0482 -0.2261
11840ION     NA14040  17.637   5.079   8.525  0.1176 -0.1794 -0.2984
11841ION     NA14041  11.433   5.087   9.220  0.2266 -0.4169  0.5913
11842ION     NA14042   2.544   4.763  34.485  0.0965  0.2206 -0.3814
11843ION     NA14043   8.476   1.661  34.089 -0.0778 -0.0104  0.3283
11844ION     NA14044   6.069   3.451  24.799  0.1648 -0.2268  0.1717
11845ION     NA14045   9.129   2.378  39.433  0.5364  0.2003 -0.3449
11846ION     NA14046   4.265   1.105  26.513 -0.0791  0.5484 -0.1246
11847ION     NA14047  13.633   3.341  41.585  0.1887 -0.4122 -0.3088
11848ION     NA14048  19.292   2.637   6.594  0.0849  0.1179  0.2433
11849ION     NA14049   0.695   4.116  10.026  0.4978  0.2121 -0.1184
11850ION     NA14050   2.539   3.303  43.086 -0.2076  0.0353  0.4131
11851ION     NA14051   3.727   0.798  34.219 -0.1529  0.0492 -0.4278
11852ION     NA14052   9.650   5.184  42.111 -0.1213  0.4086 -0.1173
11853ION     NA14053   3.842   1.179  25.635 -0.2639  0.1842  0.2221
11854ION     CL14054  20.178   4.184  27.615 -0.9103  0.0950 -0.1755
11855ION     CL14055  14.342   4.532   4.863 -0.3730  0.1642  0.0669
11856ION     CL14056   2.267   2.268  29.113 -0.1051 -0.1987  0.1319
11857ION     CL14057  20.849   0.884  10.040 -0.2196  0.1754  0.0844
11858ION     CL14058  14.691   5.901   9.643  0.3120  0.5461  0.1590
11859ION     CL14059  19.162   1.021   4.116  0.2932  0.1214  0.0544
11860ION     CL14060  15.933   1.923  32.975  0.0618  0.6676  0.1025
11861ION     CL14061  19.088   0.525   3.443  0.1890  0.1543  0.2472
11862ION     CL14062   2.909   5.380  28.875 -0.3045  0.4672  0.2108
11863ION     CL14063  16.343   2.460  32.885 -0.1668  0.1216 -0.2679
11864ION     CL14064   8.594   2.447  43.691  0.0279  0.0006  0.0992
11865ION     CL14065  19.306   2.303   6.437 -0.0549  0.1870  0.4715
11866ION     CL14066   2.343   3.089  14.831  0.1611  0.0212  0.7986
11867ION     CL14067   4.116   3.154  23.575  0.2343 -0.1949 -0.0303
11868ION     CL14068   5.366   1.349  23.242  0.1980  0.2465 -0.0394
11869ION     CL14069   3.562   3.905  25.278 -0.2046 -0.1676 -0.0658
11870ION     CL14070   1.248   3.772   0.160  0.0772 -0.4069 -0.0953
11871ION     CL14071   7.789   5.577  44.879 -0.1118  0.0849  0.2624
11872ION     CL14072  19.049   4.211  36.569 -0.0230  0.4492 -0.0444
11873ION     CL14073   8.933   5.773  42.808 -0.3422  0.4521  0.3983
11874ION     CL14074   3.481   1.352  25.083  0.0318 -0.3735 -0.1198
11875ION     CL14075  15.178   6.488   4.354  0.0093 -0.0405  0.4237
11876ION     CL14076  14.311   3.372   8.726  0.2013 -0.2553 -0.3400
11877ION     CL14077   9.954   6.541  10.306 -0.0266 -0.1612 -0.1829
11878ION     CL14078  10.849   3.162   7.048 -0.1159  0.0895  0.4528
11879ION     CL14079  11.675   6.124  32.238 -0.0047 -0.1198 -0.1343
11880ION     CL14080  14.477   2.364  40.927 -0.1045  0.0034 -0.1901
11881ION     CL14081  16.734   2.233  30.543  0.3038 -0.0814  0.2105
11882ION     CL14082  12.965   3.184  19.201 -0.2204  0.2435  0.3076
11883ION     CL14083  15.834   0.727  16.427 -0.2232  0.0319  0.2816
11884ION     CL14084  17.638   6.021   5.257  0.3460  0.1865  0.3074
11885ION     CL14085  16.107   1.066  37.245  0.0153  0.1396 -0.0134
11886ION     CL14086  14.163   2.288   7.750  0.1487 -0.1685  0.4791
11887ION     CL14087  13.720   5.308   3.835 -0.3871 -0.1829 -0.2122
11888ION     CL14088   4.673   4.565   5.972 -0.2870 -0.1411 -0.2698
11889ION     CL14089   8.609   1.082  30.347 -0.1948 -0.0151  0.2990
11890ION     CL14090   2.908   5.901   8.400 -0.3636  0.1934  0.0371
11891ION     CL14091  17.770   5.537   7.808 -0.3822 -0.1563 -0.3465
11892ION     CL14092   2.888   3.312  38.720 -0.0099  0.4161 -0.7154
11893ION     CL14093   9.245   5.052  35.149 -0.7133 -0.1535  0.0664
11894ION     CL14094   6.548   0.794  31.062  0.2764  0.3334 -0.1377
11895ION     CL14095  14.217   4.434  13.895 -0.0009 -0.1649 -0.2650
11896ION     CL14096   3.110   6.237   7.840  0.1653 -0.0161  0.1749
11897ION     CL14097   4.108   4.509  35.607  0.0444 -0.0540  0.0917
11898ION     CL14098  20.806   3.245  14.446  0.1562  0.1280  0.3050
11899ION     CL14099   4.006   1.832  31.127  0.1919 -0.4877 -0.0891
11900ION     CL14100   7.294   5.650  12.781  0.0877 -0.0381 -0.0473
11901ION     CL14101  14.978   4.310  22.846  0.1360 -0.1134  0.3785
11902ION     CL14102   9.196   0.514  40.528 -0.3211  0.2178 -0.2229
11903ION     CL14103   3.605   1.276   9.749 -0.1961 -0.5885 -0.0433
11904ION     CL14104  18.508   5.014  28.815 -0.2349 -0.0251 -0.1640
11905ION     CL14105   9.529   4.596  42.529 -0.1565  0.3095 -0.2605
11906ION     CL14106  15.134   5.856  39.204 -0.0075 -0.0549 -0.1111
11907ION     CL14107   4.794   3.172  41.608 -0.1220  0.1809 -0.1723
11908ION     CL14108  18.827   1.752  33.280 -0.1708 -0.1823 -0.1619
11909ION     CL14109   0.666   6.261   5.135 -0.0485 -0.2603 -0.1595
11910ION     CL14110  15.691   4.411  38.652 -0.2476  0.1432 -0.2002
11911ION     CL14111  18.617   3.578   2.013 -0.0564  0.2570  0.1537
11912ION     CL14112   9.723   1.861  32.000 -0.4314  0.4519 -0.0728
11913ION     CL14113   8.291   5.833  32.653 -0.0351  0.0857  0.0187
11914ION     CL14114  19.236   0.528  33.793 -0.1288  0.2037 -0.4989
11915ION     CL14115  15.837   0.620   3.576  0.0906 -0.1311  0.2309
11916ION     CL14116   5.891   0.088   4.958 -0.3482  0.0568  0.0764
11917ION     CL14117  15.957   1.088  32.024 -0.0063  0.0409 -0.1553
11918ION     CL14118   0.521   6.249  10.656  0.2666  0.2114 -0.1220
11919ION     CL14119   2.857   4.263  33.634 -0.3030  0.0936  0.0094
11920ION     CL14120  17.383   2.572   0.214  0.0273 -0.3593  0.2911
11921ION     CL14121  12.258   5.702  15.874 -0.0305  0.5353 -0.1929
11922ION     CL14122   6.898   4.044  31.162  0.5449  0.1869  0.1637
11923ION     CL14123   9.199   6.395  27.499 -0.0543  0.5816  0.2149
11924ION     CL14124  10.907   5.747  30.458  0.2439 -0.1329 -0.0504
11925ION     CL14125  17.618   5.454  17.768  0.5003  0.3044 -0.3827
11926ION     CL14126  11.747   6.241  40.066  0.2419 -0.2157 -0.1000
11927ION     CL14127  19.969   4.907   0.227  0.1088 -0.0054  0.1924
11928ION     CL14128  11.008   2.029  16.838  0.0106  0.3235 -0.1680
11929ION     CL14129   7.714   6.461   4.756  0.1382 -0.0969 -0.2894
11930ION     CL14130  12.458   5.638  40.938  0.0240  0.2111 -0.0770
11931ION     CL14131  20.059   4.702   8.010 -0.1351  0.1114 -0.3269
11932ION     CL14132  14.364   2.850   4.326 -0.2559  0.3507  0.1059
11933ION     CL14133   7.340   0.916   3.959 -0.1862  0.4608 -0.1197
11934ION     CL14134  11.757   2.984  20.833  0.4652 -0.4466 -0.1848
11935ION     CL14135   6.185   1.354  35.916 -0.0107 -0.5010 -0.2492
11936ION     CL14136   7.153   0.483   8.100  0.0855  0.3437 -0.0306
11937ION     CL14137  13.544   1.294  20.056  0.1958  0.1484  0.2235
11938ION     CL14138   6.733   0.069  12.864  0.0114  0.3185  0.1009
11939ION     CL14139  18.565   1.901  42.572  0.5133  0.5873  0.0104
11940ION     CL14140  14.694   0.946  32.995 -0.5361  0.0530  0.0629
11941ION     CL14141  15.491   3.536  22.032 -0.0492  0.2326  0.1120
11942ION     CL14142  20.609   0.882   4.232 -0.0691 -0.1822 -0.0332
11943ION     CL14143   7.297   5.490  11.803  0.7561 -0.0447 -0.2573
11944ION     CL14144   4.651   6.458   7.053  0.0688 -0.0189  0.0425
11945ION     CL14145   3.854   5.663   3.331 -0.2142  0.0225 -0.2587
11946ION     CL14146   4.771   0.682   4.348 -0.1254 -0.0151  0.0687
11947ION     CL14147   3.864   5.006   2.673  0.0817 -0.1947  0.3232
11948ION     CL14148   9.974   1.253   6.628  0.5237  0.0914 -0.2717
11949ION     CL14149   9.150   5.818   1.396 -0.0548  0.0089 -0.0066
11950ION     CL14150   1.671   3.636  29.736  0.0227 -0.1945 -0.0097
11951ION     CL14151  17.437   1.810  37.504 -0.1685  0.0976  0.2671
11952ION     CL14152  19.083   3.109   6.510  0.3058 -0.2426 -0.0807
11953ION     CL14153  12.809   6.578   7.704 -0.0724 -0.1715 -0.1415
11954ION     CL14154   4.883   0.052   5.914 -0.1372 -0.3067  0.1557
11955ION     CL14155  16.237   4.999  39.352  0.4838 -0.2213  0.5108
11956ION     CL14156  19.373   2.091  44.495  0.0076  0.0079  0.2952
11957ION     CL14157  14.349   2.454  34.190 -0.1826  0.1576  0.3434
11958ION     CL14158  20.733   5.478  43.433  0.1287 -0.3273  0.1389
11959ION     CL14159  10.377   6.238   7.056  0.0680 -0.1213  0.1988
11960ION     CL14160  14.836   3.014  33.025 -0.3857  0.3363  0.3325
11961ION     CL14161  13.751   2.472  22.757 -0.4948  0.2817  0.0231
11962ION     CL14162   4.117   1.920   6.384  0.0554  0.2189 -0.0558
11963ION     CL14163   1.198   6.118  40.285  0.3084 -0.0940  0.1950
11964ION     CL14164   3.614   1.601  38.966  0.2494  0.1973 -0.0993
11965ION     CL14165   8.547   6.043  31.778 -0.2033  0.0066  0.1471
11966ION     CL14166   5.874   2.000  32.348 -0.4793  0.3133  0.0256
11967ION     CL14167   2.823   3.333   7.291  0.3399  0.1278 -0.1762
11968ION     CL14168  16.926   0.820  30.283  0.0610 -0.0137  0.4116
11969ION     CL14169  12.171   6.350  42.771  0.0590 -0.0910 -0.1704
11970ION     CL14170   7.186   4.142  12.428 -0.0068  0.5021 -0.2462
11971ION     CL14171   8.999   1.351  44.829  0.4324 -0.2844 -0.3588
11972ION     CL14172  20.174   5.255  43.920  0.0316  0.4392 -0.3569
11973ION     CL14173   3.002   0.493  22.344  0.1350 -0.0535  0.2759
11974ION     CL14174   3.481   1.241  15.216  0.2959 -0.1490  0.1208
11975ION     CL14175  11.354   2.216   4.236  0.0363 -0.0726 -0.5244
11976ION     CL14176  15.956   2.433  30.963  0.0665 -0.1363  0.1233
11977ION     CL14177  10.512   2.530   4.843  0.0822 -0.1326  0.3067
11978ION     CL14178  13.291   1.851  31.233  0.1970  0.4679  0.0930
11979ION     CL14179   1.095   6.152  36.585 -0.2548 -0.1084  0.5643
11980ION     CL14180   0.840   0.321  11.627 -0.1017 -0.0338  0.1641
11981ION     CL14181  16.934   3.905   2.954  0.1948  0.2858 -0.0048
11982ION     CL14182  16.216   0.661   1.025 -0.0320  0.0319  0.1044
11983ION     CL14183  19.547   2.995  40.565 -0.0909 -0.0319  0.0322
11984ION     CL14184   8.618   1.332  33.618 -0.0717  0.0119 -0.0224
11985ION     CL14185  19.835   1.914  31.445  0.1755 -0.2182 -0.0468
11986ION     CL14186  10.804   5.562   5.756  0.0311 -0.1789 -0.5782
11987ION     CL14187   2.705   1.705  10.100  0.3452  0.3034  0.0740
11988ION     CL14188  16.187   0.728   2.717 -0.0338 -0.2708 -0.6415
11989ION     CL14189  10.600   0.684  14.473 -0.3988  0.0381  0.0245
11990ION     CL14190  13.978   4.912  13.536 -0.0118  0.1653 -0.0482
11991ION     CL14191   6.887   2.684  14.293  0.2721 -0.3366  0.1541
11992ION     CL14192   1.387   4.108  10.313 -0.0057  0.2652  0.2483
11993ION     CL14193   7.283   3.278   2.301  0.3075 -0.2343 -0.1123
11994ION     CL14194  10.971   4.312  16.499  0.3839 -0.1471 -0.0151
11995ION     CL14195  13.135   0.729  41.956  0.3152  0.3983  0.6640
11996ION     CL14196  18.836   6.594   0.436 -0.3816  0.3539  0.0245
11997ION     CL14197  15.999   6.287  13.965  0.1457  0.4541 -0.3654
11998ION     CL14198  19.259   6.605  39.397  0.2577  0.0624  0.0171
11999DPPC   NC314199   7.052   2.663  24.218  0.4243  0.2647 -0.1409
11999DPPC   PO414200   7.040   2.428  23.890  0.1413  0.1957  0.0110
11999DPPC   GL114201   7.244   2.428  23.626 -0.2427  0.2095 -0.2924
11999DPPC   GL214202   7.139   2.692  23.581 -0.0443 -0.4097 -0.3140
11999DPPC   C1A14203   7.631   2.396  23.581 -0.4651 -0.3070 -0.0125
11999DPPC   C2A14204   7.856   2.590  23.286 -0.1073 -0.2480 -0.0849
11999DPPC   C3A14205   8.083   2.734  22.890  0.1233 -0.1146 -0.2580
11999DPPC   C4A14206   8.363   2.716  22.529  0.0959  0.0182 -0.2801
11999DPPC   C1B14207   7.283   2.848  23.257 -0.1578 -0.2563 -0.0039
11999DPPC   C2B14208   7.564   2.809  22.887  0.0811  0.5056 -0.0575
11999DPPC   C3B14209   7.798   2.779  22.475 -0.3163 -0.5670  0.1288
11999DPPC   C4B14210   8.156   2.850  22.104 -0.0810  0.0275  0.0484
12000DPPC   NC314211   6.951   3.281  23.562 -0.0737  0.1111  0.1797
12000DPPC   PO414212   6.766   3.363  23.208  0.0558  0.2663 -0.3781
12000DPPC   GL114213   7.024   3.330  22.772 -0.1388  0.3266 -0.0649
12000DPPC   GL214214   7.141   3.630  22.867 -0.0660  0.2043  0.0920
12000DPPC   C1A14215   6.978   3.393  22.413  0.0820  0.1561  0.0527
12000DPPC   C2A14216   7.300   3.325  22.122 -0.2092 -0.3211 -0.0116
12000DPPC   C3A14217   7.587   3.393  21.783 -0.0396 -0.1036  0.0009
12000DPPC   C4A14218   7.842   3.375  21.376  0.1618  0.3143 -0.3291
12000DPPC   C1B14219   7.287   3.668  22.560 -0.3316  0.1035  0.0389
12000DPPC   C2B14220   7.569   3.748  22.260 -0.1935  0.3534  0.2458
12000DPPC   C3B14221   7.878   3.785  21.937 -0.4749 -0.0592  0.2798
12000DPPC   C4B14222   8.122   3.798  21.484  0.0808  0.1842 -0.3285
12001DPPC   NC314223   9.426   0.096  26.699 -0.0368 -0.3142 -0.3056
12001DPPC   PO414224   9.273  -0.098  26.399 -0.1201 -0.0622 -0.2510
12001DPPC   GL114225   9.516   0.024  26.017  0.0743 -0.1503  0.3048
12001DPPC   GL214226   9.732   0.184  26.174  0.2566  0.0466 -0.0514
12001DPPC   C1A14227   9.591  -0.114  25.717  0.0519  0.0152  0.1529
12001DPPC   C2A14228   9.782  -0.074  25.330 -0.1479  0.1027 -0.2984
12001DPPC   C3A14229  10.135  -0.117  24.966  0.1386 -0.2602 -0.2391
12001DPPC   C4A14230  10.427  -0.115  24.581 -0.1015  0.3363 -0.1491
12001DPPC   C1B14231   9.864   0.346  25.905 -0.0978 -0.0004  0.1018
12001DPPC   C2B14232  10.092   0.265  25.558 -0.1188  0.0480 -0.4189
12001DPPC   C3B14233  10.395   0.318  25.188  0.0170 -0.1421  0.0550
12001DPPC   C4B14234  10.622   0.351  24.797 -0.1494  0.0063  0.2408
12002DPPC   NC314235   9.719   2.012  26.994  0.0970  0.2856 -0.2852
12002DPPC   PO414236   9.747   1.612  27.103 -0.0099 -0.1490 -0.0200
12002DPPC   GL114237  10.186   1.571  27.149  0.0480  0.0864 -0.0958
12002DPPC   GL214238  10.127   1.810  26.975  0.2306 -0.1439  0.6365
12002DPPC   C1A14239  10.372   1.513  26.858  0.0341  0.0648  0.0176
12002DPPC   C2A14240  10.618   1.514  26.505  0.2099  0.0502 -0.1384
12002DPPC   C3A14241  10.945   1.541  26.111 -0.0424 -0.1837 -0.1941
12002DPPC   C4A14242  11.198   1.596  25.698 -0.1065  0.0433  0.1749
12002DPPC   C1B14243  10.344   1.882  26.636 -0.0426 -0.2537  0.0542
12002DPPC   C2B14244  10.580   1.975  26.313 -0.1359 -0.2880 -0.1059
12002DPPC   C3B14245  10.843   2.025  25.933 -0.0776  0.0081 -0.2318
12002DPPC   C4B14246  11.151   2.057  25.535  0.0923 -0.1810 -0.0561
12003DPPC   NC314247   6.404   3.660  23.065 -0.2216 -0.1076 -0.0535
12003DPPC   PO414248   6.369   3.949  22.776  0.2301  0.3221 -0.1739
12003DPPC   GL114249   6.706   4.010  22.495 -0.0679 -0.1897  0.0465
12003DPPC   GL214250   6.890   3.812  22.546 -0.1792  0.3702 -0.0300
12003DPPC   C1A14251   6.905   4.276  22.331 -0.0529 -0.2134 -0.4739
12003DPPC   C2A14252   7.007   4.354  21.965 -0.2738 -0.0235  0.0593
12003DPPC   C3A14253   7.344   4.234  21.597 -0.0265 -0.0919 -0.0673
12003DPPC   C4A14254   7.604   4.260  21.200 -0.0303 -0.0513 -0.0418
12003DPPC   C1B14255   7.079   3.792  22.214  0.1006  0.3459 -0.1656
12003DPPC   C2B14256   7.306   3.788  21.860  0.3618 -0.0235  0.2984
12003DPPC   C3B14257   7.633   3.803  21.511  0.0418  0.1121  0.3147
12003DPPC   C4B14258   7.837   3.870  21.110  0.2053 -0.0772  0.0671
12004DPPC   NC314259   8.030   0.854  25.566 -0.1328  0.0422 -0.0745
12004DPPC   PO414260   8.251   0.953  25.232  0.0436 -0.0330 -0.0240
12004DPPC   GL114261   8.644   0.983  25.045 -0.1605  0.0887 -0.1839
12004DPPC   GL214262   8.551   1.075  24.746  0.4294 -0.0658  0.0368
12004DPPC   C1A14263   8.976   1.124  24.987  0.2800  0.1857  0.2123
12004DPPC   C2A14264   9.167   1.255  24.612 -0.0528  0.0269 -0.2621
12004DPPC   C3A14265   9.474   1.344  24.260 -0.0390  0.4526 -0.0231
12004DPPC   C4A14266   9.735   1.413  23.773 -0.0000 -0.0462  0.3072
12004DPPC   C1B14267   8.801   1.016  24.494 -0.2562  0.4152 -0.1841
12004DPPC   C2B14268   9.068   1.030  24.150  0.2802  0.0420  0.2274
12004DPPC   C3B14269   9.337   1.030  23.827  0.0252 -0.2028  0.0007
12004DPPC   C4B14270   9.652   1.035  23.426  0.1914  0.0613  0.1003
12005DPPC   NC314271  11.054   3.929  28.177  0.0333  0.1241  0.2332
12005DPPC   PO414272  10.719   3.825  27.966 -0.0721 -0.0524  0.0796
12005DPPC   GL114273  10.927   3.585  27.740 -0.0987 -0.1663  0.4182
12005DPPC   GL214274  11.115   3.471  27.974  0.0979  0.0746 -0.0447
12005DPPC   C1A14275  11.113   3.701  27.457 -0.1985  0.0783  0.1683
12005DPPC   C2A14276  11.161   3.740  27.018 -0.1559  0.4907 -0.0247
12005DPPC   C3A14277  11.282   3.653  26.574 -0.0889  0.0373  0.1004
12005DPPC   C4A14278  11.602   3.663  26.240  0.0947 -0.0339  0.1519
12005DPPC   C1B14279  11.327   3.386  27.703  0.0890 -0.0359 -0.0770
12005DPPC   C2B14280  11.517   3.222  27.299  0.2018 -0.0754 -0.0894
12005DPPC   C3B14281  11.809   3.019  27.083  0.0001 -0.1798 -0.1488
12005DPPC   C4B14282  11.961   2.536  27.111  0.0137  0.2575 -0.1689
12006DPPC   NC314283   8.777   1.385  25.490  0.0560  0.2487 -0.6167
12006DPPC   PO414284   8.422   1.426  25.323 -0.0440 -0.0698 -0.4622
12006DPPC   GL114285   8.615   1.505  24.912  0.0357  0.2101 -0.5201
12006DPPC   GL214286   8.785   1.601  25.116  0.2921 -0.3048  0.0522
12006DPPC   C1A14287   8.728   1.431  24.598  0.3536 -0.0288 -0.0461
12006DPPC   C2A14288   8.867   1.509  24.193 -0.2677 -0.1252  0.0348
12006DPPC   C3A14289   9.180   1.501  23.841 -0.3062  0.1649  0.4083
12006DPPC   C4A14290   9.453   1.503  23.431  0.1035 -0.0418  0.1600
12006DPPC   C1B14291   9.090   1.588  24.901  0.2025 -0.3519 -0.4644
12006DPPC   C2B14292   9.427   1.712  24.713 -0.0172  0.1782  0.1459
12006DPPC   C3B14293   9.697   1.793  24.294  0.0618 -0.1314  0.1192
12006DPPC   C4B14294  10.013   1.816  23.917  0.0611  0.0606  0.1274
12007DPPC   NC314295   8.899   6.503  25.225  0.1397  0.0238  0.0989
12007DPPC   PO414296   8.923   6.865  25.391  0.0821 -0.3692  0.0333
12007DPPC   GL114297   9.330   6.976  25.195 -0.1084  0.1271 -0.1484
12007DPPC   GL214298   9.174   7.272  25.197 -0.0351 -0.1515  0.2774
12007DPPC   C1A14299   9.366   7.016  24.880 -0.0568 -0.1392  0.0388
12007DPPC   C2A14300   9.664   7.035  24.560 -0.1224 -0.0042  0.0561
12007DPPC   C3A14301  10.021   7.040  24.181  0.1452 -0.0223 -0.1740
12007DPPC   C4A14302  10.185   7.079  23.700 -0.0625  0.0353  0.0610
12007DPPC   C1B14303   9.303   7.431  24.893 -0.1896  0.1156 -0.0458
12007DPPC   C2B14304   9.475   7.535  24.526 -0.0345  0.0016  0.3857
12007DPPC   C3B14305   9.773   7.479  24.096 -0.1438 -0.0465 -0.2113
12007DPPC   C4B14306  10.029   7.551  23.649 -0.0071  0.2077  0.0902
12008DPPC   NC314307   7.534   5.454  24.340  0.2249  0.0000 -0.0851
12008DPPC   PO414308   7.535   5.061  24.279 -0.1202 -0.1793 -0.1704
12008DPPC   GL114309   7.802   4.808  24.180  0.0381  0.0676 -0.0007
12008DPPC   GL214310   7.688   4.848  23.837  0.0104 -0.2171  0.0103
12008DPPC   C1A14311   8.170   4.849  24.009 -0.1327 -0.3125  0.0832
12008DPPC   C2A14312   8.441   4.790  23.657  0.2095 -0.2103 -0.3341
12008DPPC   C3A14313   8.654   4.778  23.242  0.1777 -0.2640  0.2464
12008DPPC   C4A14314   8.954   4.794  22.840 -0.0778 -0.1308 -0.1399
12008DPPC   C1B14315   7.935   4.931  23.541 -0.0783 -0.3054 -0.0201
12008DPPC   C2B14316   8.160   4.876  23.222 -0.2215  0.2185 -0.0566
12008DPPC   C3B14317   8.415   4.874  22.817  0.0941 -0.1456  0.1425
12008DPPC   C4B14318   8.710   4.887  22.422  0.0389  0.2337 -0.3266
12009DPPC   NC314319   7.055   6.373  23.702 -0.0653  0.2208  0.0984
12009DPPC   PO414320   7.177   6.152  23.986  0.2448  0.0391 -0.2653
12009DPPC   GL114321   7.585   5.927  23.954 -0.0531 -0.3822  0.0649
12009DPPC   GL214322   7.799   6.177  23.946 -0.0458  0.1725  0.3403
12009DPPC   C1A14323   7.599   5.921  23.620 -0.2761 -0.0258  0.0967
12009DPPC   C2A14324   7.615   5.837  23.237 -0.0842  0.2983  0.0625
12009DPPC   C3A14325   7.933   5.753  22.878  0.1365 -0.2585 -0.0730
12009DPPC   C4A14326   8.259   5.835  22.482  0.2000 -0.0534 -0.2899
12009DPPC   C1B14327   7.996   6.136  23.641  0.1807  0.1170 -0.0467
12009DPPC   C2B14328   8.173   6.166  23.269 -0.1244  0.0001 -0.1422
12009DPPC   C3B14329   8.446   6.210  22.878 -0.2388 -0.1812  0.3126
12009DPPC   C4B14330   8.742   6.215  22.526 -0.1079  0.0188 -0.3220
12010DPPC   NC314331   6.703   1.161  23.640 -0.1821 -0.0199 -0.1428
12010DPPC   PO414332   6.923   0.823  23.642 -0.0664  0.3610  0.1193
12010DPPC   GL114333   7.321   0.632  23.735 -0.3544 -0.3450 -0.0082
12010DPPC   GL214334   7.214   0.534  23.449 -0.2449  0.1359  0.0547
12010DPPC   C1A14335   7.619   0.703  23.592  0.4058  0.0678 -0.0202
12010DPPC   C2A14336   8.006   0.879  23.425 -0.3839  0.1820  0.4343
12010DPPC   C3A14337   8.318   0.859  23.030  0.2295  0.2599  0.1344
12010DPPC   C4A14338   8.621   0.889  22.612  0.2373 -0.2296  0.0548
12010DPPC   C1B14339   7.345   0.474  23.165 -0.2259 -0.1081 -0.1027
12010DPPC   C2B14340   7.376   0.612  22.811  0.0892 -0.1029  0.2865
12010DPPC   C3B14341   7.732   0.635  22.477 -0.0377 -0.2692 -0.0627
12010DPPC   C4B14342   8.011   0.646  22.105  0.1473 -0.1704  0.1343
12011DPPC   NC314343   7.410   3.877  23.548  0.1880 -0.2604  0.3162
12011DPPC   PO414344   7.074   3.719  23.370 -0.0298  0.0794  0.2173
12011DPPC   GL114345   7.411   3.432  23.444 -0.0795 -0.2483 -0.0232
12011DPPC   GL214346   7.289   3.299  23.220 -0.0740  0.1814  0.0668
12011DPPC   C1A14347   7.660   3.636  23.222 -0.0256 -0.1364 -0.2444
12011DPPC   C2A14348   7.831   3.627  22.836 -0.0291 -0.1333  0.0314
12011DPPC   C3A14349   8.083   3.631  22.434  0.0129  0.0336 -0.2702
12011DPPC   C4A14350   8.328   3.630  22.040 -0.2068  0.0294 -0.0349
12011DPPC   C1B14351   7.441   3.317  22.877 -0.0005 -0.0750  0.0187
12011DPPC   C2B14352   7.637   3.283  22.514  0.1490  0.1142 -0.1796
12011DPPC   C3B14353   7.908   3.259  22.172 -0.1405 -0.0017 -0.2958
12011DPPC   C4B14354   8.116   3.314  21.744 -0.0753 -0.2050 -0.1435
12012DPPC   NC314355  10.285   6.320  27.234  0.1241  0.2003 -0.0627
12012DPPC   PO414356  10.009   6.091  27.033  0.1264  0.1280 -0.0331
12012DPPC   GL114357  10.196   5.943  26.652  0.0653  0.0231 -0.0239
12012DPPC   GL214358   9.972   6.081  26.534 -0.0702  0.1595  0.0070
12012DPPC   C1A14359  10.486   5.937  26.457  0.0847 -0.0423 -0.3406
12012DPPC   C2A14360  10.768   5.916  26.136  0.1237  0.1567  0.3192
12012DPPC   C3A14361  10.969   5.929  25.748 -0.0022  0.3205  0.0709
12012DPPC   C4A14362  11.283   5.954  25.352  0.0135 -0.3328  0.1809
12012DPPC   C1B14363  10.182   6.062  26.171 -0.0992 -0.2959 -0.0566
12012DPPC   C2B14364  10.365   6.000  25.812 -0.3661 -0.0674 -0.0405
12012DPPC   C3B14365  10.571   6.011  25.457 -0.0049  0.1725 -0.1568
12012DPPC   C4B14366  10.880   5.966  25.033  0.0189 -0.2450  0.0909
12013DPPC   NC314367   7.488   1.646  24.058 -0.1540 -0.1108  0.1455
12013DPPC   PO414368   7.244   1.870  24.186 -0.2346 -0.0290 -0.0873
12013DPPC   GL114369   7.461   2.175  23.913 -0.2021  0.1375 -0.1075
12013DPPC   GL214370   7.533   1.957  23.702  0.1806  0.1009 -0.4755
12013DPPC   C1A14371   7.764   2.404  23.953  0.0644 -0.0496 -0.0003
12013DPPC   C2A14372   8.106   2.565  23.730  0.0359 -0.1008 -0.1255
12013DPPC   C3A14373   8.447   2.553  23.413 -0.0725  0.2801 -0.2437
12013DPPC   C4A14374   8.740   2.551  22.977  0.1049 -0.3212 -0.0623
12013DPPC   C1B14375   7.812   1.960  23.506  0.1541  0.2064 -0.0361
12013DPPC   C2B14376   8.076   2.121  23.280 -0.0086  0.1734 -0.0212
12013DPPC   C3B14377   8.386   2.232  22.913  0.4753 -0.0631  0.0557
12013DPPC   C4B14378   8.661   2.253  22.548 -0.2214 -0.3235  0.1831
12014DPPC   NC314379   8.185   3.990  25.025 -0.0354 -0.1191 -0.2355
12014DPPC   PO414380   8.328   3.948  25.410  0.1422 -0.1163 -0.1229
12014DPPC   GL114381   8.692   3.767  25.179  0.1518  0.1347  0.1803
12014DPPC   GL214382   8.543   3.762  24.924 -0.0780 -0.0207 -0.0893
12014DPPC   C1A14383   8.868   4.046  25.092 -0.0000 -0.1129 -0.0497
12014DPPC   C2A14384   9.059   4.191  24.751  0.0164 -0.2717  0.1659
12014DPPC   C3A14385   9.268   4.132  24.251 -0.1584  0.1697 -0.0878
12014DPPC   C4A14386   9.581   4.111  23.910 -0.1860  0.4518 -0.0298
12014DPPC   C1B14387   8.739   3.767  24.601 -0.4505 -0.3067  0.1704
12014DPPC   C2B14388   9.005   3.677  24.275  0.2442 -0.2435  0.3261
12014DPPC   C3B14389   9.284   3.708  23.899 -0.2456 -0.3836  0.1219
12014DPPC   C4B14390   9.537   3.706  23.479  0.1596 -0.1686 -0.2384
12015DPPC   NC314391   8.814   5.439  25.908 -0.1942 -0.1090  0.2757
12015DPPC   PO414392   8.940   5.772  25.718  0.1384 -0.2180  0.0844
12015DPPC   GL114393   8.890   5.928  25.303 -0.1032 -0.2799  0.2094
12015DPPC   GL214394   9.219   5.816  25.334  0.3934  0.0778  0.0009
12015DPPC   C1A14395   8.985   6.085  24.980  0.0739  0.1039  0.0712
12015DPPC   C2A14396   9.311   6.226  24.750  0.0025 -0.1692  0.2181
12015DPPC   C3A14397   9.614   6.276  24.360 -0.0532 -0.0125 -0.1216
12015DPPC   C4A14398   9.900   6.254  24.007 -0.0540  0.1029  0.0081
12015DPPC   C1B14399   9.375   5.766  24.979  0.0275 -0.0302  0.0400
12015DPPC   C2B14400   9.629   5.795  24.623 -0.0447 -0.2450  0.0808
12015DPPC   C3B14401   9.879   5.816  24.275  0.0812 -0.3349  0.2393
12015DPPC   C4B14402  10.130   5.805  23.781 -0.3540 -0.1654 -0.2010
12016DPPC   NC314403   7.000   5.378  23.581  0.3009  0.2706 -0.0942
12016DPPC   PO414404   6.671   5.627  23.478  0.0511 -0.0875 -0.1237
12016DPPC   GL114405   6.762   5.875  23.072  0.1097  0.0270  0.0787
12016DPPC   GL214406   7.002   5.757  23.201  0.0667 -0.1853 -0.1089
12016DPPC   C1A14407   7.021   5.829  22.799  0.1660  0.2095  0.1137
12016DPPC   C2A14408   7.406   5.822  22.757  0.0735 -0.3493  0.2872
12016DPPC   C3A14409   7.743   5.906  22.462  0.2454  0.1080 -0.2026
12016DPPC   C4A14410   8.032   5.960  22.075  0.3086 -0.2694  0.2748
12016DPPC   C1B14411   7.225   5.547  23.165  0.0639  0.2910  0.0455
12016DPPC   C2B14412   7.549   5.403  22.932 -0.1179 -0.3091 -0.0084
12016DPPC   C3B14413   7.819   5.426  22.508  0.2066  0.1015 -0.2019
12016DPPC   C4B14414   8.108   5.470  22.136 -0.3857  0.1353  0.0438
12017DPPC   NC314415   9.021   4.620  25.812  0.1260 -0.1234 -0.6318
12017DPPC   PO414416   9.075   5.020  25.815  0.3491 -0.2509 -0.1813
12017DPPC   GL114417   9.276   5.274  25.548  0.2882 -0.1132  0.1775
12017DPPC   GL214418   9.302   5.502  25.639 -0.1799  0.2100  0.1853
12017DPPC   C1A14419   9.453   5.345  25.213 -0.0725  0.0344 -0.2924
12017DPPC   C2A14420   9.624   5.332  24.869 -0.0912 -0.1196 -0.0853
12017DPPC   C3A14421   9.852   5.348  24.459 -0.1298  0.2283  0.1174
12017DPPC   C4A14422  10.140   5.238  24.174 -0.1409 -0.1637 -0.1523
12017DPPC   C1B14423   9.587   5.662  25.508 -0.3781  0.1476  0.2667
12017DPPC   C2B14424   9.774   5.705  25.196 -0.1476  0.1962 -0.1085
12017DPPC   C3B14425  10.085   5.751  24.777 -0.1035 -0.0465  0.0321
12017DPPC   C4B14426  10.415   5.714  24.324 -0.1802  0.1390  0.0763
12018DPPC   NC314427  15.337   2.746  28.734 -0.1999 -0.0058  0.0702
12018DPPC   PO414428  15.197   2.415  28.819 -0.0084 -0.0761 -0.3911
12018DPPC   GL114429  15.351   2.185  28.567  0.0381 -0.2082 -0.1408
12018DPPC   GL214430  15.402   2.401  28.434 -0.2660  0.2037 -0.0695
12018DPPC   C1A14431  15.277   1.882  28.403 -0.1327 -0.0274  0.3042
12018DPPC   C2A14432  14.890   1.719  28.379 -0.1183  0.1060  0.3374
12018DPPC   C3A14433  14.671   1.505  28.027  0.0233 -0.1892 -0.0418
12018DPPC   C4A14434  14.398   1.355  27.687  0.1551 -0.0734  0.0329
12018DPPC   C1B14435  15.628   2.300  28.164 -0.0120 -0.1250  0.3081
12018DPPC   C2B14436  15.808   2.176  27.830 -0.0135  0.0517 -0.0745
12018DPPC   C3B14437  16.004   1.958  27.434  0.0086 -0.0309  0.1127
12018DPPC   C4B14438  16.245   1.805  27.017 -0.0784 -0.1894  0.2467
12019DPPC   NC314439  11.881   1.850  28.159 -0.0676  0.0522 -0.2427
12019DPPC   PO414440  12.248   2.021  28.078  0.1977 -0.0297 -0.1747
12019DPPC   GL114441  12.491   1.793  27.880 -0.2588  0.0587 -0.1487
12019DPPC   GL214442  12.339   1.796  27.648 -0.1703  0.0034  0.1929
12019DPPC   C1A14443  12.855   1.661  27.792  0.0762 -0.1362  0.1185
12019DPPC   C2A14444  13.201   1.471  27.848 -0.0392  0.1048  0.0854
12019DPPC   C3A14445  13.466   1.396  27.404  0.1807  0.0200  0.0168
12019DPPC   C4A14446  13.713   1.377  26.960 -0.0841  0.0839  0.1380
12019DPPC   C1B14447  12.536   1.932  27.354 -0.0689 -0.3186 -0.0303
12019DPPC   C2B14448  12.797   1.954  27.037 -0.1320 -0.0026  0.2290
12019DPPC   C3B14449  13.126   1.950  26.607  0.0491 -0.0056  0.2820
12019DPPC   C4B14450  13.346   2.074  26.235 -0.1355  0.1026 -0.1233
12020DPPC   NC314451   9.646   6.227  26.223  0.1065 -0.1039  0.2167
12020DPPC   PO414452   9.282   6.159  26.061  0.1631  0.2290  0.0899
12020DPPC   GL114453   9.364   6.117  25.595  0.0281 -0.2072  0.1136
12020DPPC   GL214454   9.577   6.007  25.754 -0.3766  0.0373 -0.2438
12020DPPC   C1A14455   9.449   6.154  25.235  0.0436 -0.1272  0.3212
12020DPPC   C2A14456   9.748   6.201  24.919  0.1786 -0.1910 -0.1436
12020DPPC   C3A14457  10.055   6.187  24.559 -0.1467  0.0259 -0.2436
12020DPPC   C4A14458  10.365   6.160  24.206 -0.0938 -0.0679  0.1470
12020DPPC   C1B14459   9.889   6.093  25.614  0.2671  0.1686 -0.1167
12020DPPC   C2B14460  10.129   6.116  25.276  0.0218  0.1463 -0.1841
12020DPPC   C3B14461  10.429   6.054  24.906  0.0173  0.2344  0.1621
12020DPPC   C4B14462  10.695   6.061  24.547  0.3019 -0.2296  0.3226
12021DPPC   NC314463   8.990   3.550  26.492  0.0837 -0.1267  0.0473
12021DPPC   PO414464   9.373   3.513  26.420 -0.0732 -0.3991  0.0611
12021DPPC   GL114465   9.480   3.319  26.048  0.0037  0.1420 -0.2745
12021DPPC   GL214466   9.186   3.333  26.013  0.1722  0.1270  0.1425
12021DPPC   C1A14467   9.702   3.319  25.743 -0.1451 -0.0831  0.0354
12021DPPC   C2A14468   9.976   3.366  25.416  0.0093  0.0952  0.3413
12021DPPC   C3A14469  10.233   3.395  25.050  0.0401  0.0409 -0.1795
12021DPPC   C4A14470  10.491   3.442  24.625 -0.5696 -0.4144  0.3513
12021DPPC   C1B14471   9.306   3.459  25.627 -0.1470  0.1302 -0.1521
12021DPPC   C2B14472   9.527   3.514  25.330  0.0642  0.0401 -0.1647
12021DPPC   C3B14473   9.690   3.543  24.903  0.2251  0.0140  0.0156
12021DPPC   C4B14474   9.947   3.494  24.561 -0.0336 -0.2032  0.0049
12022DPPC   NC314475   8.491   1.543  25.862 -0.0824 -0.2354 -0.0061
12022DPPC   PO414476   8.814   1.793  25.774 -0.2746 -0.2559 -0.1254
12022DPPC   GL114477   9.030   1.825  25.396  0.1278 -0.1149 -0.1823
12022DPPC   GL214478   9.171   2.040  25.589 -0.2271 -0.2046  0.1623
12022DPPC   C1A14479   9.333   1.813  25.193  0.1709  0.3481  0.2482
12022DPPC   C2A14480   9.623   2.041  25.021 -0.1915 -0.1342 -0.0479
12022DPPC   C3A14481   9.865   2.183  24.633 -0.2566 -0.2357  0.0359
12022DPPC   C4A14482  10.189   2.231  24.249 -0.0124  0.0444  0.3560
12022DPPC   C1B14483   9.318   2.263  25.385  0.1663 -0.1970  0.2228
12022DPPC   C2B14484   9.421   2.480  25.056 -0.1673  0.1844 -0.1799
12022DPPC   C3B14485   9.690   2.627  24.745  0.1218 -0.0265 -0.1728
12022DPPC   C4B14486   9.920   2.639  24.350  0.1911  0.0912  0.0428
12023DPPC   NC314487   8.198   0.658  24.873  0.0591 -0.3828  0.4910
12023DPPC   PO414488   8.300   0.454  25.259 -0.1173  0.0302 -0.0547
12023DPPC   GL114489   8.608   0.220  25.071  0.0351  0.0960 -0.2069
12023DPPC   GL214490   8.656   0.582  25.050 -0.1191 -0.0093  0.1348
12023DPPC   C1A14491   8.798   0.115  24.801 -0.0045 -0.1812 -0.1375
12023DPPC   C2A14492   9.157   0.099  24.577 -0.1825 -0.1516 -0.1057
12023DPPC   C3A14493   9.487   0.097  24.202 -0.3519 -0.0350 -0.0225
12023DPPC   C4A14494   9.804   0.104  23.820 -0.1879  0.0393  0.0184
12023DPPC   C1B14495   8.823   0.624  24.794 -0.1884 -0.2763 -0.2609
12023DPPC   C2B14496   9.086   0.603  24.521 -0.1017  0.1502 -0.0993
12023DPPC   C3B14497   9.389   0.555  24.149  0.3750  0.0085  0.1250
12023DPPC   C4B14498   9.664   0.577  23.709  0.2447 -0.1213  0.1154
12024DPPC   NC314499   6.448   1.077  22.803 -0.1092  0.1306 -0.1778
12024DPPC   PO414500   6.627   0.986  23.169  0.0302 -0.0337  0.1193
12024DPPC   GL114501   7.021   0.941  22.971 -0.0539 -0.2166  0.1096
12024DPPC   GL214502   7.140   0.897  23.192  0.1394  0.3500 -0.1797
12024DPPC   C1A14503   7.252   1.081  22.717  0.1196  0.1040 -0.0497
12024DPPC   C2A14504   7.540   1.122  22.405  0.4086  0.1658 -0.3296
12024DPPC   C3A14505   7.803   1.218  22.085  0.0218 -0.0636 -0.3960
12024DPPC   C4A14506   8.059   1.157  21.717 -0.0514  0.1332 -0.3381
12024DPPC   C1B14507   7.516   0.882  23.189  0.2791  0.0778  0.0523
12024DPPC   C2B14508   7.811   0.930  22.863 -0.2627 -0.1498 -0.1708
12024DPPC   C3B14509   8.126   1.037  22.454 -0.0954 -0.0406 -0.2297
12024DPPC   C4B14510   8.375   1.083  22.065 -0.1982  0.3902 -0.1775
12025DPPC   NC314511   7.453   4.802  24.704 -0.1208  0.0167  0.2741
12025DPPC   PO414512   7.432   4.486  24.507  0.1273 -0.2668  0.0186
12025DPPC   GL114513   7.815   4.496  24.535  0.1384 -0.1113 -0.2328
12025DPPC   GL214514   7.941   4.761  24.631  0.1094  0.1778  0.1762
12025DPPC   C1A14515   8.070   4.376  24.355 -0.0326  0.3285  0.2062
12025DPPC   C2A14516   8.286   4.376  24.029 -0.1230  0.3692  0.2376
12025DPPC   C3A14517   8.539   4.308  23.614  0.2245  0.3003 -0.2672
12025DPPC   C4A14518   8.797   4.309  23.226  0.1435 -0.0402 -0.1712
12025DPPC   C1B14519   8.260   4.761  24.394  0.1937  0.3360  0.1001
12025DPPC   C2B14520   8.641   4.678  24.188 -0.0509 -0.0571 -0.0419
12025DPPC   C3B14521   8.878   4.717  23.797 -0.2100  0.0770 -0.2640
12025DPPC   C4B14522   9.140   4.643  23.390  0.1809  0.1317  0.0323
12026DPPC   NC314523   8.036   6.214  24.879  0.3973  0.1135  0.2117
12026DPPC   PO414524   7.748   6.307  24.606 -0.4533  0.1124 -0.0274
12026DPPC   GL114525   7.999   6.453  24.293  0.2692 -0.0752 -0.0152
12026DPPC   GL214526   8.044   6.157  24.352 -0.0232  0.2161  0.0778
12026DPPC   C1A14527   8.149   6.529  23.902  0.0720  0.1433 -0.0801
12026DPPC   C2A14528   8.382   6.473  23.573 -0.1570 -0.3107  0.0498
12026DPPC   C3A14529   8.571   6.580  23.147  0.5289  0.2051  0.1021
12026DPPC   C4A14530   8.929   6.598  22.833  0.1684  0.0984  0.1227
12026DPPC   C1B14531   8.219   6.045  24.098 -0.0087  0.2365  0.1327
12026DPPC   C2B14532   8.441   6.062  23.768  0.0629 -0.1015  0.0019
12026DPPC   C3B14533   8.672   6.089  23.358  0.2271  0.0661 -0.1215
12026DPPC   C4B14534   8.964   6.102  23.028 -0.0757 -0.0597  0.1031
12027DPPC   NC314535  10.466   4.399  26.989 -0.1094 -0.0637  0.1502
12027DPPC   PO414536  10.093   4.332  27.071 -0.2612 -0.1684  0.0992
12027DPPC   GL114537  10.019   4.132  26.790 -0.2095  0.2219  0.0830
12027DPPC   GL214538  10.139   3.819  26.839  0.0299 -0.0134 -0.2933
12027DPPC   C1A14539  10.127   4.115  26.404  0.2878  0.0109  0.0722
12027DPPC   C2A14540  10.287   4.187  26.053 -0.0195  0.1958  0.2646
12027DPPC   C3A14541  10.595   4.290  25.661  0.0939 -0.0645 -0.1014
12027DPPC   C4A14542  10.914   4.340  25.303  0.2345 -0.1656 -0.2219
12027DPPC   C1B14543  10.254   3.693  26.476  0.0754 -0.1925 -0.3214
12027DPPC   C2B14544  10.437   3.672  26.132 -0.0300  0.1496 -0.0552
12027DPPC   C3B14545  10.719   3.809  25.782 -0.1688  0.0593  0.1738
12027DPPC   C4B14546  11.003   3.782  25.419 -0.2330 -0.1755  0.4077
12028DPPC   NC314547  10.012   5.478  26.856  0.0374 -0.0745  0.0563
12028DPPC   PO414548   9.978   5.114  26.721  0.4966 -0.2217  0.0404
12028DPPC   GL114549  10.171   5.023  26.319  0.2008  0.0511 -0.1901
12028DPPC   GL214550  10.044   5.191  26.164  0.2897 -0.0368 -0.0121
12028DPPC   C1A14551  10.460   5.092  26.372 -0.7494  0.4091  0.1193
12028DPPC   C2A14552  10.649   5.072  25.989 -0.2412 -0.0155 -0.2438
12028DPPC   C3A14553  10.961   5.082  25.657  0.0922  0.1499  0.1782
12028DPPC   C4A14554  11.222   5.115  25.283  0.2408  0.1380 -0.0203
12028DPPC   C1B14555  10.131   5.262  25.818 -0.3203  0.1263  0.1358
12028DPPC   C2B14556  10.343   5.237  25.470  0.0546  0.1278  0.0978
12028DPPC   C3B14557  10.668   5.237  25.150  0.1948 -0.1336 -0.1413
12028DPPC   C4B14558  10.976   5.108  24.767 -0.1171  0.1175 -0.0613
12029DPPC   NC314559   8.584   2.757  24.895  0.3539 -0.0507  0.2845
12029DPPC   PO414560   8.362   3.099  24.821  0.2519  0.4602 -0.1135
12029DPPC   GL114561   8.327   3.084  24.409  0.1295 -0.0204  0.1311
12029DPPC   GL214562   8.332   2.818  24.474  0.3190 -0.3465 -0.1120
12029DPPC   C1A14563   8.595   3.239  24.173  0.1611  0.3423  0.1732
12029DPPC   C2A14564   8.836   3.351  23.904  0.1243 -0.0657 -0.2488
12029DPPC   C3A14565   9.135   3.351  23.519 -0.2171  0.2102  0.0650
12029DPPC   C4A14566   9.359   3.410  23.074  0.0135 -0.1058  0.0321
12029DPPC   C1B14567   8.668   2.806  24.402  0.1843 -0.2316  0.1573
12029DPPC   C2B14568   8.930   2.870  24.121  0.0176 -0.1706  0.3531
12029DPPC   C3B14569   9.238   2.859  23.687  0.1269  0.1050  0.2022
12029DPPC   C4B14570   9.470   2.899  23.236 -0.0159  0.0153 -0.1372
12030DPPC   NC314571   9.789   1.112  27.431  0.1353  0.1049  0.0084
12030DPPC   PO414572   9.825   1.119  27.045  0.0336  0.0611  0.0174
12030DPPC   GL114573   9.992   1.289  26.667 -0.0913  0.1359 -0.2791
12030DPPC   GL214574   9.935   1.574  26.618  0.0942 -0.1117  0.3234
12030DPPC   C1A14575  10.160   1.071  26.392  0.3465 -0.4682 -0.1570
12030DPPC   C2A14576  10.432   1.092  26.093  0.3698  0.1524 -0.2199
12030DPPC   C3A14577  10.783   1.152  25.779  0.1207 -0.1563  0.1637
12030DPPC   C4A14578  11.077   1.147  25.358 -0.0462  0.1508  0.0688
12030DPPC   C1B14579  10.162   1.521  26.337  0.2452 -0.0722 -0.1080
12030DPPC   C2B14580  10.377   1.569  25.991  0.2480  0.1464  0.0588
12030DPPC   C3B14581  10.652   1.612  25.610 -0.2839 -0.0683 -0.0011
12030DPPC   C4B14582  10.976   1.703  25.229  0.1300  0.0594 -0.2777
12031DPPC   NC314583   7.003   4.020  23.810 -0.2014 -0.2066 -0.1556
12031DPPC   PO414584   6.794   4.133  23.461 -0.1379 -0.2264 -0.0903
12031DPPC   GL114585   7.019   4.264  23.073 -0.0929  0.2856  0.5248
12031DPPC   GL214586   7.222   4.128  23.221  0.3069  0.0945 -0.0002
12031DPPC   C1A14587   7.136   4.133  22.718  0.1854 -0.0113 -0.3532
12031DPPC   C2A14588   7.345   4.162  22.383 -0.1121 -0.0602  0.0664
12031DPPC   C3A14589   7.566   4.156  22.047 -0.2026 -0.0842 -0.0821
12031DPPC   C4A14590   7.838   4.221  21.699  0.1250  0.1066  0.0744
12031DPPC   C1B14591   7.506   4.013  22.991  0.4597  0.1243 -0.1891
12031DPPC   C2B14592   7.720   4.076  22.678 -0.0151  0.1056 -0.0944
12031DPPC   C3B14593   7.993   4.092  22.274  0.0686  0.3053  0.1078
12031DPPC   C4B14594   8.289   4.165  21.892  0.3908  0.0264 -0.0544
12032DPPC   NC314595   9.989   1.525  27.554 -0.0547 -0.0667  0.0690
12032DPPC   PO414596   9.968   1.890  27.470  0.0536  0.2854 -0.1528
12032DPPC   GL114597  10.093   2.207  27.197 -0.1668 -0.1187  0.0553
12032DPPC   GL214598  10.191   2.294  27.433  0.1599  0.3709 -0.0697
12032DPPC   C1A14599  10.357   2.235  26.936  0.0047  0.1662  0.2123
12032DPPC   C2A14600  10.613   2.371  26.679  0.0363 -0.1098  0.1990
12032DPPC   C3A14601  10.966   2.378  26.342  0.1328  0.2599  0.0208
12032DPPC   C4A14602  11.231   2.380  25.920 -0.0270 -0.3539 -0.0655
12032DPPC   C1B14603  10.571   2.332  27.428 -0.5041 -0.1621 -0.1422
12032DPPC   C2B14604  10.895   2.347  27.139  0.0219 -0.0369 -0.0125
12032DPPC   C3B14605  11.198   2.313  26.786  0.2098  0.1595 -0.2354
12032DPPC   C4B14606  11.491   2.320  26.395 -0.3429  0.0610  0.1638
12033DPPC   NC314607   9.631   5.282  26.337 -0.0842 -0.3708 -0.1811
12033DPPC   PO414608   9.511   5.256  25.981  0.2377 -0.0210 -0.1061
12033DPPC   GL114609   9.607   5.079  25.692  0.4668  0.0156  0.0093
12033DPPC   GL214610   9.818   4.935  25.870  0.0358  0.0997  0.1142
12033DPPC   C1A14611   9.865   5.254  25.417 -0.1807  0.0192  0.4154
12033DPPC   C2A14612  10.110   5.246  25.027  0.3414 -0.1647  0.3337
12033DPPC   C3A14613  10.354   5.248  24.608  0.1254 -0.1989  0.3313
12033DPPC   C4A14614  10.666   5.271  24.224 -0.1354 -0.0629 -0.2158
12033DPPC   C1B14615   9.934   4.763  25.535  0.1572  0.2148 -0.0249
12033DPPC   C2B14616  10.183   4.753  25.219 -0.4635  0.2647  0.1861
12033DPPC   C3B14617  10.429   4.787  24.849  0.1508 -0.0275 -0.1353
12033DPPC   C4B14618  10.585   4.798  24.426  0.0983 -0.1819 -0.1912
12034DPPC   NC314619   7.534   6.438  24.204 -0.2081  0.1415  0.5528
12034DPPC   PO414620   7.706   6.786  24.357 -0.0486 -0.2926  0.1839
12034DPPC   GL114621   7.778   6.814  24.006 -0.0905  0.4103  0.0430
12034DPPC   GL214622   7.796   7.044  23.884 -0.3022 -0.0971  0.1961
12034DPPC   C1A14623   7.825   6.645  23.664 -0.0233  0.0412  0.0029
12034DPPC   C2A14624   7.972   6.621  23.229 -0.0842  0.1330  0.0514
12034DPPC   C3A14625   8.235   6.706  22.801  0.2161 -0.1071 -0.1022
12034DPPC   C4A14626   8.612   6.641  22.440  0.1016 -0.0864  0.2040
12034DPPC   C1B14627   8.076   7.000  23.689  0.2622 -0.1603  0.0283
12034DPPC   C2B14628   8.329   7.015  23.347  0.2439 -0.0827 -0.0946
12034DPPC   C3B14629   8.582   7.031  22.975  0.1461 -0.1256 -0.0548
12034DPPC   C4B14630   8.867   7.011  22.596  0.1700  0.0795  0.2659
12035DPPC   NC314631   6.273   2.716  23.446  0.0082  0.0228 -0.1276
12035DPPC   PO414632   6.406   2.620  23.085 -0.2419 -0.0403 -0.3078
12035DPPC   GL114633   6.789   2.862  22.979  0.4180 -0.1295 -0.2946
12035DPPC   GL214634   6.664   3.032  22.798 -0.1332  0.3751  0.2610
12035DPPC   C1A14635   7.099   2.787  22.814  0.0735  0.0350  0.3118
12035DPPC   C2A14636   7.295   2.911  22.453  0.0806  0.0658  0.0625
12035DPPC   C3A14637   7.592   2.924  22.087  0.1148 -0.0662  0.0045
12035DPPC   C4A14638   7.805   2.928  21.697 -0.1891  0.1706  0.0089
12035DPPC   C1B14639   6.726   3.075  22.421 -0.3145 -0.0104  0.2436
12035DPPC   C2B14640   6.910   2.999  22.062 -0.0467 -0.1465 -0.3753
12035DPPC   C3B14641   7.179   2.937  21.709 -0.0355 -0.3642  0.1985
12035DPPC   C4B14642   7.448   3.040  21.313  0.1518  0.1620  0.3025
12036DPPC   NC314643   7.810   5.968  25.502 -0.2480 -0.0753  0.1733
12036DPPC   PO414644   8.139   5.974  25.312  0.2502 -0.1008  0.0376
12036DPPC   GL114645   8.398   5.890  25.051  0.1813 -0.0529  0.0916
12036DPPC   GL214646   8.577   5.736  25.086 -0.0402  0.0561 -0.1038
12036DPPC   C1A14647   8.382   5.882  24.678 -0.1563 -0.0488 -0.1920
12036DPPC   C2A14648   8.585   5.967  24.386 -0.2353  0.1673  0.0343
12036DPPC   C3A14649   8.897   6.021  23.997 -0.1875  0.0001  0.0129
12036DPPC   C4A14650   9.144   5.997  23.591 -0.1119  0.3238  0.0318
12036DPPC   C1B14651   8.800   5.766  24.814 -0.1267  0.0546 -0.0150
12036DPPC   C2B14652   9.071   5.848  24.485  0.1456  0.0593 -0.1273
12036DPPC   C3B14653   9.375   5.898  24.102  0.0583  0.0449 -0.3231
12036DPPC   C4B14654   9.627   5.932  23.660  0.3581 -0.1329  0.1030
12037DPPC   NC314655  10.377   4.390  27.548 -0.0492  0.0874 -0.1677
12037DPPC   PO414656  10.190   4.702  27.399  0.0301 -0.0814  0.0408
12037DPPC   GL114657  10.270   4.860  26.968 -0.1805 -0.0246 -0.0143
12037DPPC   GL214658  10.423   5.137  27.016  0.2786  0.0247 -0.3778
12037DPPC   C1A14659  10.414   4.754  26.657 -0.1964  0.2340  0.4301
12037DPPC   C2A14660  10.622   4.614  26.310 -0.0270 -0.2284 -0.1079
12037DPPC   C3A14661  10.912   4.636  25.913  0.1613  0.0575  0.1377
12037DPPC   C4A14662  11.197   4.684  25.498 -0.2890 -0.0543 -0.1966
12037DPPC   C1B14663  10.668   5.105  26.768 -0.0204  0.0670 -0.2042
12037DPPC   C2B14664  10.917   5.037  26.454  0.1089 -0.0600 -0.1782
12037DPPC   C3B14665  11.192   5.051  26.113  0.0780  0.2378  0.2996
12037DPPC   C4B14666  11.502   5.036  25.706  0.0857 -0.0893  0.2996
12038DPPC   NC314667   8.392   3.662  25.930 -0.2489  0.0721  0.0804
12038DPPC   PO414668   8.764   3.536  25.906  0.1798 -0.1279  0.0881
12038DPPC   GL114669   8.961   3.792  25.575 -0.1387  0.1427 -0.0000
12038DPPC   GL214670   8.960   3.455  25.393  0.0311  0.1207 -0.0806
12038DPPC   C1A14671   9.234   3.940  25.396  0.2219 -0.0894 -0.2419
12038DPPC   C2A14672   9.463   4.059  25.078 -0.1356  0.0652 -0.2080
12038DPPC   C3A14673   9.652   4.028  24.633  0.0366  0.0345 -0.1076
12038DPPC   C4A14674   9.991   4.055  24.248 -0.2237  0.0779  0.2516
12038DPPC   C1B14675   9.128   3.659  25.109 -0.0808  0.1406  0.0813
12038DPPC   C2B14676   9.219   3.645  24.716 -0.1263  0.3111 -0.0630
12038DPPC   C3B14677   9.483   3.597  24.329 -0.0449 -0.2273 -0.0886
12038DPPC   C4B14678   9.795   3.584  23.920 -0.3957  0.1304 -0.2868
12039DPPC   NC314679   8.353   2.691  25.569  0.0157  0.1800 -0.0411
12039DPPC   PO414680   8.581   2.888  25.354  0.2262  0.2968 -0.0532
12039DPPC   GL114681   8.943   2.927  25.176  0.0864  0.1901  0.0896
12039DPPC   GL214682   9.112   3.095  25.257  0.0090  0.2053  0.0215
12039DPPC   C1A14683   8.936   3.011  24.792 -0.4732  0.0707  0.1135
12039DPPC   C2A14684   9.056   3.214  24.485  0.2680  0.1364  0.0965
12039DPPC   C3A14685   9.254   3.243  24.059  0.4739  0.1840 -0.1823
12039DPPC   C4A14686   9.589   3.244  23.675 -0.0624 -0.1088  0.3977
12039DPPC   C1B14687   9.322   3.212  24.961 -0.0998  0.0122 -0.2377
12039DPPC   C2B14688   9.526   3.152  24.598  0.3928 -0.0785  0.1858
12039DPPC   C3B14689   9.800   3.114  24.186  0.2186  0.1758 -0.0740
12039DPPC   C4B14690  10.059   3.163  23.782 -0.3497  0.2858  0.1242
12040DPPC   NC314691  10.297   3.908  27.760  0.0622 -0.0190  0.1281
12040DPPC   PO414692  10.244   3.957  27.402  0.0789 -0.0852  0.3171
12040DPPC   GL114693  10.470   4.004  27.159 -0.1443 -0.2661 -0.1106
12040DPPC   GL214694  10.675   3.825  27.242  0.1686 -0.1707  0.1865
12040DPPC   C1A14695  10.533   4.000  26.803 -0.0559  0.2152  0.0716
12040DPPC   C2A14696  10.584   4.153  26.422  0.1917 -0.0094  0.0928
12040DPPC   C3A14697  10.874   4.181  26.084  0.2586  0.1355 -0.0559
12040DPPC   C4A14698  11.131   4.203  25.715  0.1472 -0.2063  0.0273
12040DPPC   C1B14699  10.749   3.655  26.929  0.1856 -0.0291  0.2411
12040DPPC   C2B14700  10.777   3.677  26.516 -0.1598 -0.1372 -0.2813
12040DPPC   C3B14701  10.975   3.626  26.126 -0.0269 -0.1466  0.2372
12040DPPC   C4B14702  11.339   3.672  25.807  0.0324  0.0976 -0.4607
12041DPPC   NC314703   7.461   3.671  24.807  0.3168  0.0082 -0.0745
12041DPPC   PO414704   7.409   3.927  24.526  0.2016 -0.1133  0.1400
12041DPPC   GL114705   7.695   4.151  24.328 -0.0937  0.2257  0.1633
12041DPPC   GL214706   7.619   4.349  24.122 -0.0724 -0.0271 -0.1857
12041DPPC   C1A14707   7.931   4.058  24.042  0.2344 -0.2687 -0.3736
12041DPPC   C2A14708   8.212   3.954  23.750 -0.0999 -0.1309 -0.0715
12041DPPC   C3A14709   8.385   3.923  23.309  0.0590 -0.1535  0.0714
12041DPPC   C4A14710   8.686   3.925  22.966 -0.3128 -0.0014 -0.0692
12041DPPC   C1B14711   7.774   4.394  23.801 -0.0205 -0.2668 -0.0183
12041DPPC   C2B14712   8.015   4.419  23.516  0.1884  0.1078  0.1735
12041DPPC   C3B14713   8.335   4.402  23.122  0.0470  0.1496  0.0259
12041DPPC   C4B14714   8.661   4.381  22.775  0.1745 -0.2888  0.0736
12042DPPC   NC314715   6.761   4.776  24.076  0.0600  0.2931 -0.0158
12042DPPC   PO414716   6.894   4.564  23.729 -0.0735  0.1641 -0.1567
12042DPPC   GL114717   7.339   4.370  23.613  0.1326 -0.1586  0.1540
12042DPPC   GL214718   7.324   4.611  23.583 -0.0907 -0.1087  0.1431
12042DPPC   C1A14719   7.622   4.248  23.403  0.1265  0.0874  0.2203
12042DPPC   C2A14720   7.906   4.034  23.176 -0.0188 -0.2427  0.0704
12042DPPC   C3A14721   8.220   3.965  22.813  0.0574 -0.0445  0.0971
12042DPPC   C4A14722   8.474   3.991  22.393  0.3748 -0.2131 -0.0549
12042DPPC   C1B14723   7.555   4.659  23.245  0.1005 -0.3343  0.0934
12042DPPC   C2B14724   7.839   4.515  23.010  0.1129 -0.1710  0.0218
12042DPPC   C3B14725   8.140   4.503  22.665 -0.3636  0.0464 -0.0748
12042DPPC   C4B14726   8.394   4.517  22.220 -0.0053  0.1054 -0.1023
12043DPPC   NC314727   8.462   5.675  25.566 -0.2281 -0.1654 -0.0643
12043DPPC   PO414728   8.246   5.418  25.318 -0.2845  0.1212 -0.3365
12043DPPC   GL114729   8.437   5.318  25.030 -0.6148 -0.4152  0.3436
12043DPPC   GL214730   8.209   5.513  24.827  0.0609 -0.1079  0.2072
12043DPPC   C1A14731   8.767   5.338  24.873  0.3286 -0.1584  0.0572
12043DPPC   C2A14732   9.154   5.402  24.721  0.3276 -0.0162 -0.0254
12043DPPC   C3A14733   9.394   5.443  24.299  0.0688 -0.1712 -0.1681
12043DPPC   C4A14734   9.706   5.454  23.968  0.0826 -0.0345  0.1606
12043DPPC   C1B14735   8.480   5.482  24.565 -0.1552  0.0860  0.0030
12043DPPC   C2B14736   8.786   5.552  24.277 -0.0069  0.2560 -0.0050
12043DPPC   C3B14737   9.042   5.507  23.834  0.0947 -0.0121 -0.3658
12043DPPC   C4B14738   9.434   5.512  23.516  0.0823  0.2445  0.1776
12044DPPC   NC314739   8.654   0.774  25.490 -0.0664  0.0848  0.1599
12044DPPC   PO414740   9.016   0.958  25.587  0.1185 -0.0439 -0.1010
12044DPPC   GL114741   9.534   0.937  25.628  0.4831 -0.0584  0.0867
12044DPPC   GL214742   9.449   0.722  25.551  0.3933  0.4139  0.0569
12044DPPC   C1A14743   9.808   1.096  25.371 -0.2561 -0.1116 -0.2123
12044DPPC   C2A14744  10.073   1.274  25.100 -0.0081  0.3393  0.0760
12044DPPC   C3A14745  10.310   1.318  24.687  0.1757 -0.1454  0.1845
12044DPPC   C4A14746  10.537   1.312  24.333 -0.0453 -0.0455  0.1164
12044DPPC   C1B14747   9.594   0.726  25.222 -0.2239 -0.2932  0.2943
12044DPPC   C2B14748   9.812   0.839  24.885 -0.0296  0.1637 -0.2319
12044DPPC   C3B14749  10.038   0.886  24.530 -0.0660 -0.1307 -0.2744
12044DPPC   C4B14750  10.288   0.833  24.144 -0.0753 -0.1744  0.0269
12045DPPC   NC314751   6.221   5.264  23.394 -0.2159 -0.0047  0.1703
12045DPPC   PO414752   6.364   5.462  23.061 -0.2215  0.0479  0.0099
12045DPPC   GL114753   6.758   5.432  22.948 -0.4327 -0.2735 -0.2244
12045DPPC   GL214754   6.792   5.217  23.214  0.3653 -0.1407 -0.2288
12045DPPC   C1A14755   7.013   5.470  22.606  0.2521  0.3108 -0.4192
12045DPPC   C2A14756   7.291   5.456  22.386 -0.1033 -0.0378 -0.3545
12045DPPC   C3A14757   7.654   5.590  22.061  0.2856  0.3696 -0.3170
12045DPPC   C4A14758   7.887   5.656  21.671 -0.1403 -0.0294  0.0501
12045DPPC   C1B14759   7.086   5.125  22.972 -0.0461 -0.3858  0.1642
12045DPPC   C2B14760   7.379   5.015  22.670 -0.0966 -0.0288 -0.1434
12045DPPC   C3B14761   7.615   4.982  22.246 -0.0585  0.2320 -0.3592
12045DPPC   C4B14762   7.886   5.113  21.870 -0.1334  0.0627 -0.1843
12046DPPC   NC314763   7.887   1.853  24.888  0.0323  0.1815  0.0492
12046DPPC   PO414764   7.740   1.828  24.510 -0.2294  0.0458 -0.1012
12046DPPC   GL114765   7.973   1.816  24.216  0.0785 -0.1242 -0.1284
12046DPPC   GL214766   7.802   1.972  24.078 -0.0967 -0.0679 -0.1477
12046DPPC   C1A14767   8.252   1.756  24.077 -0.4164 -0.1388  0.1958
12046DPPC   C2A14768   8.517   1.578  23.779 -0.0269 -0.0418  0.0762
12046DPPC   C3A14769   8.772   1.576  23.383  0.0083  0.0446  0.2452
12046DPPC   C4A14770   9.123   1.625  23.049  0.2584  0.1694 -0.0828
12046DPPC   C1B14771   8.033   2.093  23.810  0.2935 -0.0571  0.0175
12046DPPC   C2B14772   8.420   2.103  23.710 -0.0306  0.3059  0.1230
12046DPPC   C3B14773   8.710   2.072  23.306 -0.0540  0.2233 -0.1550
12046DPPC   C4B14774   8.959   2.062  22.895  0.0277 -0.2363 -0.1030
12047DPPC   NC314775  11.129   5.728  27.881  0.2273  0.2763  0.0181
12047DPPC   PO414776  11.386   5.468  28.075  0.0797  0.0156  0.1704
12047DPPC   GL114777  11.415   5.378  27.668 -0.0037 -0.1240 -0.2019
12047DPPC   GL214778  11.435   5.682  27.549 -0.3923  0.0358 -0.3137
12047DPPC   C1A14779  11.621   5.244  27.409  0.4206 -0.0285  0.4899
12047DPPC   C2A14780  11.655   5.289  26.985 -0.0305 -0.3159 -0.1873
12047DPPC   C3A14781  11.873   5.284  26.586  0.0436  0.0069 -0.1929
12047DPPC   C4A14782  12.116   5.262  26.131  0.3186  0.1733  0.0796
12047DPPC   C1B14783  11.312   5.778  27.193 -0.1197  0.7801 -0.0442
12047DPPC   C2B14784  11.478   5.716  26.823  0.0755  0.1442 -0.2971
12047DPPC   C3B14785  11.743   5.757  26.446  0.1233 -0.1563  0.5236
12047DPPC   C4B14786  12.017   5.730  25.962  0.0930  0.1493 -0.0546
12048DPPC   NC314787   7.700   1.012  24.427 -0.0115 -0.0782  0.1087
12048DPPC   PO414788   7.879   1.345  24.247  0.1242  0.0184 -0.0890
12048DPPC   GL114789   8.111   1.289  24.067  0.0174  0.2705  0.0556
12048DPPC   GL214790   8.357   1.353  24.199 -0.2713  0.1906  0.0064
12048DPPC   C1A14791   8.193   1.190  23.743 -0.3127 -0.2565 -0.1679
12048DPPC   C2A14792   8.432   1.207  23.384  0.0516 -0.4196 -0.2371
12048DPPC   C3A14793   8.680   1.243  23.009  0.0393 -0.2985  0.4057
12048DPPC   C4A14794   8.930   1.350  22.631 -0.0614  0.0913  0.1232
12048DPPC   C1B14795   8.625   1.161  24.060 -0.1332 -0.1073  0.1943
12048DPPC   C2B14796   8.854   1.153  23.701 -0.1722  0.1220  0.2637
12048DPPC   C3B14797   9.117   1.154  23.290 -0.4793 -0.1586  0.2104
12048DPPC   C4B14798   9.421   1.289  22.912 -0.3958 -0.2353  0.1830
12049DPPC   NC314799   9.530   2.332  26.676 -0.4396 -0.2940 -0.0031
12049DPPC   PO414800   9.468   2.725  26.750 -0.0584  0.0983  0.2361
12049DPPC   GL114801   9.523   2.719  26.349 -0.2823  0.0917  0.3948
12049DPPC   GL214802   9.554   2.892  26.182  0.0135 -0.0197 -0.1811
12049DPPC   C1A14803   9.678   2.407  26.164 -0.1983  0.0172  0.0326
12049DPPC   C2A14804  10.043   2.408  25.924 -0.0204  0.1322 -0.2154
12049DPPC   C3A14805  10.284   2.487  25.459 -0.1326 -0.2992 -0.1432
12049DPPC   C4A14806  10.589   2.464  25.095 -0.0353  0.1238  0.1818
12049DPPC   C1B14807   9.853   3.024  26.094 -0.0830  0.2565  0.1759
12049DPPC   C2B14808  10.135   3.287  25.975  0.0178 -0.1513  0.0449
12049DPPC   C3B14809  10.465   3.435  25.638  0.3404  0.4095 -0.0934
12049DPPC   C4B14810  10.756   3.346  25.227 -0.1643 -0.0825  0.0823
12050DPPC   NC314811   8.183   4.476  25.284 -0.2434  0.1071  0.2904
12050DPPC   PO414812   8.213   4.438  24.895  0.2457 -0.0911 -0.0408
12050DPPC   GL114813   8.551   4.192  24.817  0.0527  0.1016 -0.2230
12050DPPC   GL214814   8.671   4.479  24.896 -0.1846  0.1291  0.0285
12050DPPC   C1A14815   8.626   4.174  24.451  0.1650 -0.0431 -0.0323
12050DPPC   C2A14816   8.819   4.261  23.994  0.1106 -0.2902 -0.2006
12050DPPC   C3A14817   9.148   4.228  23.669  0.0751  0.0569  0.2501
12050DPPC   C4A14818   9.390   4.182  23.266 -0.0577 -0.2168 -0.0387
12050DPPC   C1B14819   8.903   4.629  24.711 -0.1203  0.1782 -0.2054
12050DPPC   C2B14820   9.127   4.583  24.350 -0.0872 -0.1118 -0.0034
12050DPPC   C3B14821   9.399   4.602  23.943 -0.1294 -0.0357  0.0635
12050DPPC   C4B14822   9.651   4.560  23.459  0.0631 -0.0005  0.2047
12051DPPC   NC314823   7.769   2.326  24.777  0.0849 -0.1936 -0.2320
12051DPPC   PO414824   8.185   2.355  24.721 -0.0798 -0.1515  0.2172
12051DPPC   GL114825   8.348   2.137  24.308 -0.0842  0.0280  0.0633
12051DPPC   GL214826   8.453   2.453  24.265 -0.2943  0.2706 -0.0930
12051DPPC   C1A14827   8.639   1.999  24.113 -0.3332  0.1375 -0.1121
12051DPPC   C2A14828   8.891   1.913  23.801  0.2237 -0.0189 -0.0010
12051DPPC   C3A14829   9.216   1.926  23.455 -0.3514 -0.0822 -0.3290
12051DPPC   C4A14830   9.549   2.006  23.119 -0.2097  0.2042  0.0791
12051DPPC   C1B14831   8.637   2.471  23.994  0.0299  0.1868 -0.2104
12051DPPC   C2B14832   8.905   2.483  23.654 -0.2607  0.1401 -0.0889
12051DPPC   C3B14833   9.161   2.431  23.277  0.3415  0.1928  0.0662
12051DPPC   C4B14834   9.330   2.500  22.868 -0.1568 -0.0471 -0.3182
12052DPPC   NC314835   9.924   4.549  26.600 -0.1547  0.2043 -0.0559
12052DPPC   PO414836   9.584   4.346  26.513 -0.1864 -0.0120 -0.0455
12052DPPC   GL114837   9.599   4.098  26.173  0.1091  0.3160  0.0393
12052DPPC   GL214838   9.635   4.370  26.049 -0.3611 -0.3105  0.2334
12052DPPC   C1A14839   9.915   3.880  26.005 -0.3363  0.1658 -0.1109
12052DPPC   C2A14840  10.193   3.865  25.702 -0.3802 -0.2744  0.1543
12052DPPC   C3A14841  10.482   3.891  25.314 -0.0215  0.2365 -0.0559
12052DPPC   C4A14842  10.695   3.792  24.928 -0.2796 -0.2156  0.1884
12052DPPC   C1B14843   9.887   4.316  25.814 -0.3261 -0.0420 -0.2978
12052DPPC   C2B14844  10.112   4.340  25.458  0.0443  0.2222 -0.1672
12052DPPC   C3B14845  10.350   4.312  25.064 -0.5221  0.0248  0.1005
12052DPPC   C4B14846  10.766   4.355  24.731 -0.0778 -0.0304 -0.0527
12053DPPC   NC314847  12.416   6.555  28.741 -0.1606 -0.0734  0.2471
12053DPPC   PO414848  12.664   6.290  28.636  0.1177 -0.1035 -0.1547
12053DPPC   GL114849  12.668   6.351  28.276 -0.3468 -0.1602 -0.1902
12053DPPC   GL214850  12.643   6.665  28.224 -0.0814  0.0864 -0.0717
12053DPPC   C1A14851  12.917   6.204  28.043  0.1135  0.2236  0.1687
12053DPPC   C2A14852  13.300   6.165  27.975 -0.0935 -0.2393  0.2480
12053DPPC   C3A14853  13.581   6.186  27.603 -0.3284 -0.3293 -0.2841
12053DPPC   C4A14854  13.835   6.232  27.177  0.1346 -0.0554 -0.0664
12053DPPC   C1B14855  12.628   6.600  27.915 -0.0534  0.2886  0.1867
12053DPPC   C2B14856  12.721   6.356  27.600 -0.0913  0.1376 -0.1269
12053DPPC   C3B14857  13.066   6.308  27.237  0.1052  0.2408  0.1247
12053DPPC   C4B14858  13.334   6.392  26.934  0.1130 -0.2364 -0.1963
12054DPPC   NC314859  17.206   1.203  28.820 -0.2409  0.0475 -0.2843
12054DPPC   PO414860  16.849   1.080  28.652  0.2883 -0.1226  0.0484
12054DPPC   GL114861  16.652   0.912  28.258  0.4106 -0.0317 -0.0332
12054DPPC   GL214862  16.533   0.784  28.417  0.3103 -0.1537  0.4428
12054DPPC   C1A14863  16.657   1.201  27.961 -0.1963 -0.2585 -0.2654
12054DPPC   C2A14864  16.777   1.351  27.604  0.2396 -0.0251 -0.1759
12054DPPC   C3A14865  16.587   1.793  27.459 -0.0965 -0.4092 -0.2087
12054DPPC   C4A14866  16.427   2.268  27.464 -0.1715 -0.1397 -0.2792
12054DPPC   C1B14867  16.223   0.629  28.212  0.1776 -0.1031  0.2368
12054DPPC   C2B14868  15.920   0.698  27.956 -0.0654 -0.1917  0.1155
12054DPPC   C3B14869  15.487   0.888  28.027  0.1809  0.0786 -0.2233
12054DPPC   C4B14870  15.081   1.205  27.933 -0.0288 -0.2019  0.0404
12055DPPC   NC314871   9.148   0.869  26.101  0.1223  0.2187 -0.1527
12055DPPC   PO414872   9.329   1.127  26.307  0.0944 -0.2841  0.0119
12055DPPC   GL114873   9.673   1.071  26.114 -0.2050  0.1595  0.0963
12055DPPC   GL214874   9.625   0.818  25.995  0.4609 -0.1997 -0.1947
12055DPPC   C1A14875  10.004   1.178  25.947  0.1111 -0.2180 -0.0788
12055DPPC   C2A14876  10.295   1.221  25.613 -0.0278 -0.3145  0.3287
12055DPPC   C3A14877  10.579   1.241  25.252 -0.1258 -0.0632  0.1503
12055DPPC   C4A14878  10.866   1.276  24.882 -0.1990  0.0243  0.0386
12055DPPC   C1B14879   9.887   0.751  25.713 -0.0869  0.0707  0.2084
12055DPPC   C2B14880  10.104   0.749  25.366  0.1918  0.2328 -0.2037
12055DPPC   C3B14881  10.314   0.749  24.974 -0.3949 -0.0419  0.1583
12055DPPC   C4B14882  10.580   0.917  24.629 -0.2254  0.3107  0.1831
12056DPPC   NC314883   7.051   1.957  23.674  0.0220 -0.2207 -0.0992
12056DPPC   PO414884   7.169   1.583  23.640  0.3193 -0.2016 -0.2666
12056DPPC   GL114885   7.332   1.694  23.327 -0.2032 -0.0210  0.0169
12056DPPC   GL214886   7.552   1.536  23.299 -0.0024 -0.1648  0.1180
12056DPPC   C1A14887   7.319   1.824  22.975  0.0437 -0.1332 -0.0972
12056DPPC   C2A14888   7.547   1.909  22.699 -0.1106 -0.2415 -0.2049
12056DPPC   C3A14889   7.810   2.005  22.282  0.1212  0.0212 -0.1512
12056DPPC   C4A14890   8.141   1.986  21.851  0.0113 -0.2486  0.1621
12056DPPC   C1B14891   7.804   1.672  23.057 -0.0871  0.1962  0.2955
12056DPPC   C2B14892   8.070   1.823  22.792 -0.2552  0.0687 -0.0143
12056DPPC   C3B14893   8.323   1.929  22.446  0.2295 -0.2714  0.2038
12056DPPC   C4B14894   8.627   1.916  22.018  0.1926 -0.2598  0.1847
12057DPPC   NC314895  11.814   3.418  28.621 -0.0400 -0.0835  0.4361
12057DPPC   PO414896  11.884   3.111  28.390  0.1574  0.1667 -0.1576
12057DPPC   GL114897  12.145   3.122  27.959  0.1795 -0.1733  0.2077
12057DPPC   GL214898  11.845   3.288  27.942 -0.3620  0.2963 -0.1646
12057DPPC   C1A14899  12.182   2.824  27.811  0.4607  0.1683 -0.1059
12057DPPC   C2A14900  12.116   2.484  27.597  0.2202 -0.0719  0.0405
12057DPPC   C3A14901  12.081   2.070  27.359 -0.0313 -0.0000  0.0215
12057DPPC   C4A14902  12.006   1.724  27.039 -0.0015 -0.0708  0.2286
12057DPPC   C1B14903  11.751   3.425  27.624 -0.2738 -0.1728 -0.2944
12057DPPC   C2B14904  11.563   3.681  27.361 -0.1155 -0.3246 -0.2876
12057DPPC   C3B14905  11.591   3.968  26.979 -0.3583 -0.1904 -0.0328
12057DPPC   C4B14906  11.768   3.964  26.529 -0.0267  0.3591 -0.0384
12058DPPC   NC314907  11.501   2.646  28.469 -0.1419 -0.1377 -0.1829
12058DPPC   PO414908  11.786   2.559  28.200 -0.1250 -0.1105 -0.0852
12058DPPC   GL114909  11.716   2.226  27.960  0.3095 -0.1646  0.1686
12058DPPC   GL214910  11.441   2.233  28.042  0.2286  0.1635 -0.0865
12058DPPC   C1A14911  11.697   2.194  27.562 -0.1612 -0.3063  0.1100
12058DPPC   C2A14912  11.578   2.165  27.181  0.1122  0.0164 -0.0794
12058DPPC   C3A14913  11.778   2.203  26.791  0.1228  0.0871  0.0746
12058DPPC   C4A14914  11.996   2.157  26.362  0.1742 -0.0842 -0.2764
12058DPPC   C1B14915  11.333   1.990  27.744  0.0114 -0.0291  0.0803
12058DPPC   C2B14916  11.206   1.883  27.372  0.0255  0.1845  0.3319
12058DPPC   C3B14917  11.301   1.780  26.919 -0.1282 -0.0051  0.0519
12058DPPC   C4B14918  11.640   1.868  26.540 -0.1564 -0.0150  0.5107
12059DPPC   NC314919   7.036   3.648  24.188  0.0164  0.1137  0.0278
12059DPPC   PO414920   7.193   3.542  23.852 -0.2333  0.0555 -0.0329
12059DPPC   GL114921   7.590   3.494  23.947  0.2790  0.0707  0.2535
12059DPPC   GL214922   7.688   3.230  23.897 -0.0848 -0.2964 -0.0470
12059DPPC   C1A14923   7.812   3.686  23.712 -0.1664 -0.2352  0.2364
12059DPPC   C2A14924   8.037   3.561  23.416 -0.1964  0.0144 -0.0647
12059DPPC   C3A14925   8.295   3.492  23.030 -0.2337 -0.1144  0.0239
12059DPPC   C4A14926   8.577   3.537  22.626 -0.0459 -0.0017  0.0190
12059DPPC   C1B14927   8.005   3.039  23.728  0.4832 -0.2786 -0.1274
12059DPPC   C2B14928   8.241   3.001  23.477 -0.1076 -0.0227  0.2042
12059DPPC   C3B14929   8.479   3.076  23.101 -0.1398  0.0217 -0.1519
12059DPPC   C4B14930   8.751   3.049  22.714  0.3719  0.1039  0.0088
12060DPPC   NC314931   8.834   5.460  25.312 -0.1864  0.2190 -0.1855
12060DPPC   PO414932   8.668   5.164  25.493 -0.2305  0.1820  0.1043
12060DPPC   GL114933   9.003   4.840  25.362 -0.0575  0.1769 -0.0350
12060DPPC   GL214934   8.928   4.826  25.094  0.5820  0.0265  0.1540
12060DPPC   C1A14935   9.351   4.846  25.396  0.0283  0.1350 -0.2350
12060DPPC   C2A14936   9.665   4.960  25.156 -0.1531  0.1991 -0.2232
12060DPPC   C3A14937   9.895   4.891  24.734 -0.1692 -0.0195 -0.0697
12060DPPC   C4A14938  10.108   4.759  24.338  0.0749 -0.0937  0.2254
12060DPPC   C1B14939   9.220   4.984  24.940 -0.1015  0.1216 -0.1087
12060DPPC   C2B14940   9.403   4.995  24.530  0.3632  0.0774  0.0496
12060DPPC   C3B14941   9.669   4.974  24.152  0.1009  0.0250 -0.1859
12060DPPC   C4B14942   9.915   5.027  23.699 -0.0821  0.2134  0.0896
12061DPPC   NC314943   8.835   1.176  26.411 -0.4088  0.0756  0.1044
12061DPPC   PO414944   8.863   1.249  26.020  0.1818  0.2151  0.0477
12061DPPC   GL114945   9.150   1.448  25.755  0.2233 -0.0404  0.1105
12061DPPC   GL214946   9.369   1.265  25.873 -0.1596  0.2166 -0.2744
12061DPPC   C1A14947   9.238   1.425  25.373 -0.0879  0.0404 -0.1480
12061DPPC   C2A14948   9.440   1.257  25.084  0.1723  0.1114  0.1253
12061DPPC   C3A14949   9.732   1.296  24.694  0.1389 -0.2498 -0.2538
12061DPPC   C4A14950   9.983   1.320  24.185  0.0288 -0.1898 -0.0186
12061DPPC   C1B14951   9.648   1.325  25.728  0.2283 -0.4632  0.1001
12061DPPC   C2B14952   9.987   1.569  25.690  0.0255 -0.0371  0.0349
12061DPPC   C3B14953  10.278   1.650  25.328  0.1598 -0.1631 -0.0901
12061DPPC   C4B14954  10.561   1.707  24.945  0.0485 -0.2743  0.0808
12062DPPC   NC314955   9.167   3.068  26.396  0.0354 -0.0003  0.2664
12062DPPC   PO414956   8.988   2.836  26.151  0.4354 -0.3713 -0.0513
12062DPPC   GL114957   9.250   2.840  25.820  0.1386 -0.3253 -0.0481
12062DPPC   GL214958   9.346   2.600  25.927 -0.2823  0.1455 -0.2952
12062DPPC   C1A14959   9.524   2.971  25.450 -0.2210  0.1449 -0.0722
12062DPPC   C2A14960   9.721   3.031  25.099 -0.1997  0.3973  0.0096
12062DPPC   C3A14961   9.994   3.005  24.707  0.1171  0.0159  0.0310
12062DPPC   C4A14962  10.317   3.068  24.353 -0.1083  0.1367  0.1874
12062DPPC   C1B14963   9.676   2.734  25.827  0.1967  0.0574  0.2535
12062DPPC   C2B14964   9.998   2.914  25.639  0.1280  0.1453  0.1782
12062DPPC   C3B14965  10.260   2.965  25.249  0.1098  0.0970  0.1519
12062DPPC   C4B14966  10.562   3.021  24.907 -0.1143 -0.2670 -0.3707
12063DPPC   NC314967   9.486   0.006  27.179  0.3570  0.1318  0.3710
12063DPPC   PO414968   9.877   0.009  27.089  0.5608 -0.0080  0.3562
12063DPPC   GL114969  10.020  -0.111  26.778 -0.0521  0.0599 -0.0691
12063DPPC   GL214970   9.855  -0.077  26.530 -0.1312 -0.1016  0.2385
12063DPPC   C1A14971  10.314  -0.241  26.635  0.0447 -0.1000 -0.1585
12063DPPC   C2A14972  10.450  -0.233  26.300 -0.0072  0.1312  0.1563
12063DPPC   C3A14973  10.698  -0.155  25.859 -0.0600 -0.1673  0.2244
12063DPPC   C4A14974  11.033  -0.168  25.488 -0.2580 -0.0001  0.2185
12063DPPC   C1B14975  10.006  -0.139  26.220  0.0623  0.4057 -0.2354
12063DPPC   C2B14976  10.164  -0.168  25.791 -0.1619 -0.1933 -0.1631
12063DPPC   C3B14977  10.384  -0.113  25.416  0.3759  0.2542  0.0343
12063DPPC   C4B14978  10.699  -0.108  25.002 -0.2271 -0.1300 -0.0132
12064DPPC   NC314979   9.509   1.353  26.704  0.0657  0.0450  0.0527
12064DPPC   PO414980   9.458   1.758  26.682  0.1052 -0.0306 -0.1919
12064DPPC   GL114981   9.611   2.001  26.283 -0.0338 -0.0400 -0.0104
12064DPPC   GL214982   9.870   2.029  26.476 -0.1117 -0.1048  0.1584
12064DPPC   C1A14983   9.830   1.951  25.910  0.1904 -0.3066  0.2571
12064DPPC   C2A14984   9.951   2.097  25.513 -0.1456  0.2429  0.1568
12064DPPC   C3A14985  10.172   2.079  25.096  0.1979  0.1130  0.0695
12064DPPC   C4A14986  10.428   2.129  24.678 -0.3496 -0.0319  0.1909
12064DPPC   C1B14987  10.139   2.054  26.167 -0.3382  0.0582 -0.2921
12064DPPC   C2B14988  10.363   2.026  25.787 -0.0017 -0.1207 -0.0650
12064DPPC   C3B14989  10.641   2.046  25.389  0.0092 -0.2857  0.1236
12064DPPC   C4B14990  10.938   2.077  24.963  0.2772  0.1276  0.3552
12065DPPC   NC314991   7.848   5.628  25.059 -0.4152  0.0517 -0.0216
12065DPPC   PO414992   7.835   5.745  24.666  0.1660  0.0079 -0.1122
12065DPPC   GL114993   7.899   5.716  24.216 -0.1955  0.0816  0.0986
12065DPPC   GL214994   8.185   5.593  24.283  0.0418 -0.2908 -0.2020
12065DPPC   C1A14995   7.973   5.718  23.883 -0.1154  0.1502  0.2645
12065DPPC   C2A14996   8.119   5.688  23.477 -0.0590 -0.2156  0.3901
12065DPPC   C3A14997   8.381   5.759  23.096 -0.0447 -0.1988 -0.1209
12065DPPC   C4A14998   8.706   5.745  22.741  0.5150 -0.2085 -0.2152
12065DPPC   C1B14999   8.413   5.637  24.036  0.0346 -0.0958  0.0585
12065DPPC   C2B15000   8.607   5.645  23.624  0.2074  0.1382  0.1770
12065DPPC   C3B15001   8.875   5.628  23.205 -0.2273  0.5315 -0.1487
12065DPPC   C4B15002   9.226   5.668  22.816 -0.0402  0.3470  0.1484
12066DPPC   NC315003   6.580   6.279  22.918  0.1820 -0.0720  0.0842
12066DPPC   PO415004   6.796   6.286  23.276 -0.0676  0.2658 -0.3640
12066DPPC   GL115005   7.173   6.246  23.124  0.2017 -0.4358 -0.2606
12066DPPC   GL215006   7.092   6.260  22.850  0.0576  0.0144  0.4760
12066DPPC   C1A15007   7.519   6.248  23.104  0.1558 -0.0048  0.0672
12066DPPC   C2A15008   7.842   6.208  22.814  0.0221  0.1411  0.1951
12066DPPC   C3A15009   8.103   6.322  22.401 -0.0674  0.0251 -0.0493
12066DPPC   C4A15010   8.450   6.311  22.061  0.0057  0.1034 -0.0863
12066DPPC   C1B15011   7.361   6.391  22.698  0.1073  0.1217  0.0223
12066DPPC   C2B15012   7.600   6.402  22.352  0.0544  0.1259  0.0449
12066DPPC   C3B15013   7.883   6.434  22.004  0.0224  0.0796  0.2119
12066DPPC   C4B15014   8.173   6.501  21.579 -0.0796  0.1766  0.1972
12067DPPC   NC315015   7.450   3.045  24.803 -0.2611  0.2207 -0.1704
12067DPPC   PO415016   7.402   2.886  24.443  0.3295 -0.0709 -0.2184
12067DPPC   GL115017   7.675   2.724  24.179 -0.0293  0.0318 -0.0517
12067DPPC   GL215018   7.418   2.624  23.983  0.1238 -0.0718  0.1309
12067DPPC   C1A15019   8.019   2.807  24.132  0.1769  0.0012  0.0570
12067DPPC   C2A15020   8.417   2.861  23.958  0.1045 -0.0689  0.0035
12067DPPC   C3A15021   8.712   2.967  23.597  0.0493  0.1375 -0.0812
12067DPPC   C4A15022   8.932   2.941  23.172  0.1671 -0.1928  0.2341
12067DPPC   C1B15023   7.548   2.810  23.685  0.3424  0.2282  0.0205
12067DPPC   C2B15024   7.659   3.033  23.363 -0.2889  0.1704 -0.1744
12067DPPC   C3B15025   7.896   3.185  23.015  0.1446  0.0482 -0.0753
12067DPPC   C4B15026   8.124   3.190  22.612 -0.0047  0.3752 -0.3477
12068DPPC   NC315027   8.535   1.898  25.418  0.0449  0.1683 -0.0612
12068DPPC   PO415028   8.387   1.860  25.023 -0.0318 -0.0400 -0.0264
12068DPPC   GL115029   8.598   2.015  24.679  0.0028 -0.2896 -0.0515
12068DPPC   GL215030   8.652   2.328  24.744 -0.2274  0.3353  0.0874
12068DPPC   C1A15031   8.908   1.928  24.499 -0.0611  0.0875  0.4186
12068DPPC   C2A15032   9.229   1.819  24.259  0.2229 -0.0656 -0.1397
12068DPPC   C3A15033   9.549   1.868  23.831  0.3295 -0.1261  0.3780
12068DPPC   C4A15034   9.864   1.853  23.407  0.0788 -0.0944 -0.3034
12068DPPC   C1B15035   8.880   2.360  24.465 -0.3404 -0.2082 -0.1861
12068DPPC   C2B15036   9.115   2.317  24.086  0.2311  0.1167 -0.2462
12068DPPC   C3B15037   9.400   2.345  23.693  0.1425  0.3290  0.2608
12068DPPC   C4B15038   9.687   2.448  23.367 -0.1011 -0.0870 -0.0539
12069DPPC   NC315039  10.395   0.183  27.854 -0.1045 -0.1830  0.0349
12069DPPC   PO415040  10.444  -0.192  27.759 -0.1916  0.0679  0.1830
12069DPPC   GL115041  10.688  -0.268  27.395 -0.0707 -0.2022 -0.0554
12069DPPC   GL215042  10.751  -0.014  27.447 -0.2995 -0.1732 -0.0147
12069DPPC   C1A15043  10.781  -0.278  27.030  0.0340  0.0530 -0.0964
12069DPPC   C2A15044  10.818  -0.314  26.601  0.0600  0.1321  0.0861
12069DPPC   C3A15045  11.051  -0.223  26.162  0.2140 -0.0848  0.1582
12069DPPC   C4A15046  11.439  -0.260  25.792  0.2199 -0.1508  0.1847
12069DPPC   C1B15047  10.990   0.079  27.215 -0.3917 -0.0089  0.0972
12069DPPC   C2B15048  11.181   0.013  26.856 -0.0680  0.1048  0.1340
12069DPPC   C3B15049  11.307   0.130  26.426 -0.0742 -0.0952 -0.0258
12069DPPC   C4B15050  11.592   0.175  25.998 -0.2261  0.1938 -0.2239
12070DPPC   NC315051   9.239   3.778  26.042  0.2888  0.0342 -0.2153
12070DPPC   PO415052   9.091   4.167  25.993 -0.0356  0.0677 -0.2099
12070DPPC   GL115053   9.405   4.195  25.656  0.2001  0.0265 -0.3928
12070DPPC   GL215054   9.199   4.367  25.477  0.3376  0.1546 -0.5439
12070DPPC   C1A15055   9.678   4.099  25.485 -0.1807 -0.1116  0.0267
12070DPPC   C2A15056   9.983   3.932  25.230 -0.0102  0.1617 -0.0962
12070DPPC   C3A15057  10.189   3.882  24.802  0.1169 -0.0772 -0.4236
12070DPPC   C4A15058  10.501   3.947  24.425 -0.0725 -0.0638 -0.0605
12070DPPC   C1B15059   9.205   4.484  25.123 -0.2630  0.2850 -0.1832
12070DPPC   C2B15060   9.448   4.582  24.772 -0.4574  0.0398 -0.1407
12070DPPC   C3B15061   9.640   4.515  24.383 -0.0478 -0.1831  0.2462
12070DPPC   C4B15062   9.926   4.490  23.958 -0.0241  0.0912  0.0713
12071DPPC   NC315063   9.262   5.524  26.496  0.1329  0.0754 -0.2365
12071DPPC   PO415064   9.582   5.730  26.573 -0.0815  0.0188 -0.1817
12071DPPC   GL115065   9.904   5.755  26.304 -0.2392  0.1842  0.4320
12071DPPC   GL215066  10.054   5.569  26.413  0.1445 -0.1437 -0.4153
12071DPPC   C1A15067   9.980   5.683  25.934 -0.0898 -0.3181  0.0382
12071DPPC   C2A15068  10.067   5.669  25.558 -0.1927 -0.2062 -0.0031
12071DPPC   C3A15069  10.370   5.664  25.186  0.1464  0.1192 -0.3407
12071DPPC   C4A15070  10.667   5.605  24.757 -0.0930 -0.2384 -0.1246
12071DPPC   C1B15071  10.324   5.558  26.157 -0.0770  0.2904  0.4219
12071DPPC   C2B15072  10.559   5.572  25.791 -0.2023 -0.1842  0.3029
12071DPPC   C3B15073  10.857   5.548  25.417  0.3599 -0.2868 -0.1107
12071DPPC   C4B15074  11.157   5.534  25.019  0.1359 -0.0370  0.2297
12072DPPC   NC315075  16.446   6.104  29.210  0.2287  0.0902 -0.1145
12072DPPC   PO415076  16.805   6.322  29.119  0.3056 -0.1169 -0.2618
12072DPPC   GL115077  16.712   6.434  28.835  0.0497 -0.0078  0.1772
12072DPPC   GL215078  16.734   6.700  28.764 -0.0730  0.1986 -0.1899
12072DPPC   C1A15079  16.488   6.170  28.578  0.1451  0.1724 -0.0342
12072DPPC   C2A15080  16.119   5.886  28.421  0.0854  0.1232  0.3268
12072DPPC   C3A15081  15.717   5.758  28.185 -0.2084 -0.0039 -0.0725
12072DPPC   C4A15082  15.619   5.470  27.820 -0.0323  0.1196  0.2971
12072DPPC   C1B15083  16.707   6.655  28.389  0.0423  0.0239  0.0188
12072DPPC   C2B15084  16.837   6.658  27.977  0.0945  0.1885  0.2097
12072DPPC   C3B15085  16.644   6.493  27.552 -0.2039 -0.1690  0.1688
12072DPPC   C4B15086  16.366   6.477  27.155  0.0217 -0.0443  0.0519
12073DPPC   NC315087   9.197   4.764  26.786 -0.2098  0.0050  0.0746
12073DPPC   PO415088   9.508   4.857  26.581 -0.0342 -0.1068 -0.4167
12073DPPC   GL115089   9.592   4.788  26.211 -0.1942 -0.0377  0.0329
12073DPPC   GL215090   9.441   4.752  26.001 -0.0617 -0.3345 -0.1305
12073DPPC   C1A15091   9.986   4.664  26.151  0.2308  0.1060 -0.2075
12073DPPC   C2A15092  10.307   4.704  25.875 -0.1617  0.1047  0.0835
12073DPPC   C3A15093  10.613   4.741  25.478 -0.1012  0.2945  0.1238
12073DPPC   C4A15094  10.866   4.763  25.063 -0.0825  0.0460 -0.0511
12073DPPC   C1B15095   9.556   4.634  25.688  0.0372  0.3778 -0.0295
12073DPPC   C2B15096   9.619   4.518  25.313 -0.2822  0.0381  0.1501
12073DPPC   C3B15097   9.892   4.386  24.943 -0.3751  0.0690 -0.0539
12073DPPC   C4B15098  10.247   4.325  24.586  0.3529 -0.2803 -0.0458
12074DPPC   NC315099   9.561   0.414  27.449 -0.0702  0.1945 -0.0495
12074DPPC   PO415100   9.892   0.634  27.435  0.1137 -0.0047 -0.1686
12074DPPC   GL115101  10.230   0.839  27.287 -0.0122  0.1065  0.1188
12074DPPC   GL215102  10.240   1.167  27.281  0.0204 -0.1585 -0.0222
12074DPPC   C1A15103  10.509   0.654  27.077  0.1289 -0.0071  0.0130
12074DPPC   C2A15104  10.878   0.508  26.915  0.1912 -0.1371 -0.0391
12074DPPC   C3A15105  11.131   0.635  26.462 -0.0612 -0.0849  0.1240
12074DPPC   C4A15106  11.300   0.602  25.993  0.0514 -0.1217  0.1419
12074DPPC   C1B15107  10.539   1.201  27.043 -0.0436 -0.1811 -0.1135
12074DPPC   C2B15108  10.760   1.060  26.713  0.0772  0.2755 -0.1493
12074DPPC   C3B15109  11.009   1.062  26.271 -0.1482  0.1566  0.0182
12074DPPC   C4B15110  11.272   1.069  25.815 -0.0581  0.1295  0.0226
12075DPPC   NC315111   7.308   4.702  24.039  0.3222 -0.3291 -0.0134
12075DPPC   PO415112   7.175   4.986  23.815 -0.0635  0.1172 -0.2579
12075DPPC   GL115113   7.107   4.953  23.371 -0.1280  0.1037 -0.1655
12075DPPC   GL215114   7.339   5.140  23.380  0.0629 -0.0871 -0.2599
12075DPPC   C1A15115   7.183   4.715  23.105 -0.3665  0.2638 -0.0305
12075DPPC   C2A15116   7.356   4.522  22.787  0.2630  0.2998 -0.0998
12075DPPC   C3A15117   7.679   4.536  22.465 -0.0484  0.0178 -0.2560
12075DPPC   C4A15118   7.916   4.589  22.093 -0.0655  0.3262 -0.1332
12075DPPC   C1B15119   7.685   5.053  23.206  0.1842  0.2280  0.1132
12075DPPC   C2B15120   7.869   4.985  22.816  0.2031 -0.0826 -0.1900
12075DPPC   C3B15121   8.075   4.973  22.412 -0.1966 -0.3243  0.0797
12075DPPC   C4B15122   8.364   5.076  21.999 -0.0242 -0.0294 -0.2465
12076DPPC   NC315123   9.975   2.214  27.835 -0.0165  0.0028  0.0369
12076DPPC   PO415124  10.377   2.169  27.906  0.0632 -0.1003 -0.1327
12076DPPC   GL115125  10.570   1.963  27.603  0.1258 -0.0231  0.1038
12076DPPC   GL215126  10.413   1.955  27.419 -0.0154  0.2414  0.2402
12076DPPC   C1A15127  10.870   2.102  27.578  0.0215 -0.3179  0.0777
12076DPPC   C2A15128  11.175   2.422  27.642  0.0995 -0.1439 -0.3083
12076DPPC   C3A15129  11.577   2.653  27.587 -0.1721  0.0729 -0.0192
12076DPPC   C4A15130  11.884   3.025  27.580  0.0410  0.0246  0.1058
12076DPPC   C1B15131  10.649   1.903  27.177 -0.1094 -0.3980 -0.2200
12076DPPC   C2B15132  10.738   1.930  26.805 -0.1144 -0.1576  0.0601
12076DPPC   C3B15133  11.084   1.901  26.379  0.2120  0.3760 -0.1627
12076DPPC   C4B15134  11.383   1.943  25.982  0.0985 -0.1617  0.0341
12077DPPC   NC315135   8.294   6.547  25.325  0.3688 -0.1294 -0.0363
12077DPPC   PO415136   8.538   6.226  25.392  0.1923  0.0105 -0.1597
12077DPPC   GL115137   8.630   6.262  24.874  0.3386 -0.0878  0.1631
12077DPPC   GL215138   8.440   6.462  24.886  0.0857 -0.1055  0.1349
12077DPPC   C1A15139   8.853   6.373  24.569 -0.1946  0.0014 -0.1359
12077DPPC   C2A15140   9.132   6.345  24.212 -0.2606  0.0140 -0.0051
12077DPPC   C3A15141   9.362   6.404  23.834 -0.3622  0.0748 -0.0218
12077DPPC   C4A15142   9.651   6.374  23.391 -0.1577  0.0656 -0.0597
12077DPPC   C1B15143   8.379   6.466  24.534  0.1336  0.0253 -0.0830
12077DPPC   C2B15144   8.568   6.418  24.146 -0.1140  0.3784  0.3170
12077DPPC   C3B15145   8.869   6.414  23.758 -0.1011 -0.0262  0.3567
12077DPPC   C4B15146   9.099   6.481  23.320 -0.0262 -0.4098 -0.2324
12078DPPC   NC315147   6.843   5.791  24.052 -0.0662  0.0782 -0.0889
12078DPPC   PO415148   7.171   5.602  24.065  0.3149  0.2043 -0.0750
12078DPPC   GL115149   7.422   5.430  23.744  0.4468  0.0088 -0.0147
12078DPPC   GL215150   7.563   5.311  23.917  0.2464  0.1481 -0.1122
12078DPPC   C1A15151   7.709   5.441  23.483  0.0654  0.3355 -0.4959
12078DPPC   C2A15152   7.990   5.352  23.168 -0.0224 -0.2630  0.0956
12078DPPC   C3A15153   8.290   5.365  22.790 -0.1325  0.0592 -0.2230
12078DPPC   C4A15154   8.590   5.412  22.375 -0.1210  0.3161  0.0366
12078DPPC   C1B15155   7.879   5.236  23.845  0.0834  0.1434 -0.0321
12078DPPC   C2B15156   8.232   5.287  23.663 -0.0156  0.3349  0.1052
12078DPPC   C3B15157   8.505   5.272  23.208 -0.0507 -0.1504  0.1268
12078DPPC   C4B15158   8.751   5.261  22.799 -0.0693  0.0767 -0.2308
12079DPPC   NC315159   9.398   0.451  25.928  0.0613 -0.0071 -0.0200
12079DPPC   PO415160   9.469   0.510  26.324  0.3111 -0.0728  0.0069
12079DPPC   GL115161   9.877   0.422  26.525 -0.0409  0.2111  0.0294
12079DPPC   GL215162   9.926   0.684  26.440 -0.0879  0.2108 -0.0676
12079DPPC   C1A15163  10.202   0.310  26.398  0.1110 -0.3613 -0.4584
12079DPPC   C2A15164  10.393   0.178  26.012 -0.0411 -0.0353 -0.0921
12079DPPC   C3A15165  10.635   0.282  25.641  0.1064 -0.0251 -0.0613
12079DPPC   C4A15166  10.945   0.253  25.267  0.1472  0.4162 -0.3127
12079DPPC   C1B15167  10.051   0.744  26.146  0.0620  0.1972  0.1155
12079DPPC   C2B15168  10.337   0.683  25.829  0.0758  0.1238  0.1296
12079DPPC   C3B15169  10.599   0.776  25.438  0.0373 -0.1361 -0.1762
12079DPPC   C4B15170  10.910   0.745  25.068  0.0450 -0.0282  0.0640
12080DPPC   NC315171  10.903   4.628  28.375 -0.0647  0.3788 -0.4527
12080DPPC   PO415172  11.149   4.402  28.128  0.2348 -0.1055 -0.0878
12080DPPC   GL115173  11.325   4.570  27.771  0.1430 -0.4247  0.1276
12080DPPC   GL215174  11.070   4.665  27.672 -0.3710 -0.4182 -0.1180
12080DPPC   C1A15175  11.386   4.391  27.444 -0.1187 -0.0578  0.1332
12080DPPC   C2A15176  11.358   4.390  27.035 -0.4226  0.0015  0.1133
12080DPPC   C3A15177  11.585   4.436  26.629 -0.1315  0.3697 -0.1890
12080DPPC   C4A15178  11.829   4.354  26.239  0.1028  0.2488  0.1422
12080DPPC   C1B15179  10.954   4.514  27.382  0.1179  0.0976  0.0782
12080DPPC   C2B15180  10.906   4.190  27.116 -0.2275  0.3115 -0.2370
12080DPPC   C3B15181  11.056   4.099  26.669  0.1607 -0.0341  0.0422
12080DPPC   C4B15182  11.314   4.061  26.249 -0.2196  0.1506  0.0014
12081DPPC   NC315183  10.180   2.701  27.123  0.0489  0.0964 -0.1619
12081DPPC   PO415184   9.807   2.521  27.063  0.1940  0.2631 -0.3619
12081DPPC   GL115185   9.951   2.684  26.722  0.0535  0.2075 -0.2152
12081DPPC   GL215186  10.032   2.388  26.674 -0.1052  0.1424  0.0903
12081DPPC   C1A15187  10.041   2.815  26.400 -0.4278  0.0408  0.1790
12081DPPC   C2A15188  10.279   2.844  26.030 -0.0565 -0.2719  0.0914
12081DPPC   C3A15189  10.511   2.881  25.676 -0.1132  0.0680  0.3034
12081DPPC   C4A15190  10.824   2.891  25.401 -0.1310 -0.1930 -0.0779
12081DPPC   C1B15191  10.218   2.426  26.400 -0.0668  0.3813  0.2194
12081DPPC   C2B15192  10.540   2.451  26.088 -0.0235  0.0360 -0.1511
12081DPPC   C3B15193  10.728   2.447  25.660  0.0609 -0.2367  0.2604
12081DPPC   C4B15194  11.085   2.464  25.252  0.3114 -0.2748  0.1137
12082DPPC   NC315195   6.456   2.152  23.250  0.1592 -0.0901  0.0886
12082DPPC   PO415196   6.798   2.321  23.424  0.2042  0.2693 -0.3142
12082DPPC   GL115197   7.100   2.254  23.180 -0.0932  0.1873  0.1251
12082DPPC   GL215198   7.280   2.103  23.312  0.3621 -0.1911 -0.4944
12082DPPC   C1A15199   7.266   2.368  22.854 -0.0255  0.1498  0.2160
12082DPPC   C2A15200   7.495   2.393  22.518 -0.2208  0.0686 -0.2983
12082DPPC   C3A15201   7.770   2.470  22.111 -0.0215 -0.0278 -0.0892
12082DPPC   C4A15202   8.036   2.425  21.647 -0.1229  0.0045  0.0616
12082DPPC   C1B15203   7.580   2.128  23.204 -0.2070  0.1573  0.1255
12082DPPC   C2B15204   7.774   2.270  22.909 -0.1018  0.0644  0.1759
12082DPPC   C3B15205   8.022   2.340  22.563 -0.1021 -0.1302 -0.0101
12082DPPC   C4B15206   8.332   2.375  22.138 -0.1496  0.1931 -0.1733
12083DPPC   NC315207  15.567   1.906  28.847 -0.0415 -0.0332  0.0192
12083DPPC   PO415208  15.401   1.599  28.948  0.2070  0.1023  0.0087
12083DPPC   GL115209  15.224   1.446  28.549 -0.2608  0.1200  0.0722
12083DPPC   GL215210  15.526   1.522  28.518  0.0818 -0.0761 -0.2561
12083DPPC   C1A15211  15.062   1.088  28.440 -0.2012 -0.1068 -0.3918
12083DPPC   C2A15212  15.140   0.688  28.419  0.0989  0.3039 -0.1546
12083DPPC   C3A15213  15.188   0.211  28.488 -0.0518 -0.1256 -0.1006
12083DPPC   C4A15214  15.314  -0.123  28.817 -0.1925  0.1681  0.0625
12083DPPC   C1B15215  15.378   1.463  28.177 -0.0835  0.1883  0.0809
12083DPPC   C2B15216  15.450   1.829  27.964  0.0204  0.1454  0.1953
12083DPPC   C3B15217  15.324   2.251  27.876  0.0848 -0.2991  0.0574
12083DPPC   C4B15218  15.175   2.611  27.502  0.2967 -0.1869 -0.0510
12084DPPC   NC315219   8.154   1.319  24.931  0.0064  0.1511  0.2882
12084DPPC   PO415220   8.130   1.157  24.610  0.1354 -0.2969  0.0528
12084DPPC   GL115221   8.345   0.933  24.394 -0.1033 -0.0787 -0.0349
12084DPPC   GL215222   8.514   0.750  24.511 -0.1251 -0.2421  0.2981
12084DPPC   C1A15223   8.284   0.801  24.094  0.0949 -0.0014  0.3800
12084DPPC   C2A15224   8.464   0.774  23.664 -0.2308 -0.0783 -0.0103
12084DPPC   C3A15225   8.723   0.731  23.331  0.1286 -0.0003  0.0263
12084DPPC   C4A15226   9.003   0.855  22.924  0.0031 -0.0137 -0.0134
12084DPPC   C1B15227   8.687   0.692  24.164  0.0538  0.2473  0.0401
12084DPPC   C2B15228   8.944   0.634  23.821  0.1277 -0.1005  0.0301
12084DPPC   C3B15229   9.206   0.726  23.420  0.1462 -0.1249  0.0788
12084DPPC   C4B15230   9.469   0.776  22.997 -0.1789 -0.0127 -0.1317
12085DPPC   NC315231   5.752   0.860  22.458  0.1589  0.0628 -0.0835
12085DPPC   PO415232   6.132   0.788  22.537  0.1721  0.0145 -0.1775
12085DPPC   GL115233   6.458   0.702  22.244 -0.2935  0.1604  0.2729
12085DPPC   GL215234   6.635   0.886  22.404  0.0904  0.0727 -0.3337
12085DPPC   C1A15235   6.481   0.800  21.886 -0.0920 -0.5463 -0.2010
12085DPPC   C2A15236   6.469   0.810  21.471 -0.3847 -0.0644 -0.2105
12085DPPC   C3A15237   6.780   0.951  21.175  0.0152  0.0762  0.1321
12085DPPC   C4A15238   7.063   0.894  20.799 -0.2443  0.1670 -0.2507
12085DPPC   C1B15239   6.848   0.862  22.117 -0.1463 -0.1163  0.1258
12085DPPC   C2B15240   6.941   0.899  21.678 -0.1078  0.3118  0.1199
12085DPPC   C3B15241   7.273   0.824  21.262  0.1188 -0.0824  0.0075
12085DPPC   C4B15242   7.610   0.898  20.885  0.0299 -0.0015 -0.1676
12086DPPC   NC315243   9.187   1.589  26.179 -0.0339  0.0188  0.1155
12086DPPC   PO415244   9.117   1.938  26.284 -0.0814  0.0108  0.1087
12086DPPC   GL115245   9.324   2.200  25.995  0.2732  0.3871 -0.1167
12086DPPC   GL215246   9.423   1.859  25.916 -0.2420 -0.1546 -0.2989
12086DPPC   C1A15247   9.579   2.301  25.762 -0.1451  0.1159 -0.0213
12086DPPC   C2A15248   9.758   2.523  25.422 -0.0581  0.3151  0.0532
12086DPPC   C3A15249  10.110   2.555  24.951  0.1629  0.1074  0.0135
12086DPPC   C4A15250  10.342   2.605  24.593 -0.0465 -0.4536  0.0170
12086DPPC   C1B15251   9.553   1.848  25.587  0.1537 -0.0469 -0.0776
12086DPPC   C2B15252   9.769   1.598  25.248 -0.0320 -0.2810  0.1546
12086DPPC   C3B15253  10.022   1.692  24.844 -0.1487 -0.1474  0.3261
12086DPPC   C4B15254  10.192   1.701  24.369 -0.2115  0.2325 -0.1443
12087DPPC   NC315255   7.014   0.322  23.952 -0.4193 -0.1252  0.1153
12087DPPC   PO415256   7.329   0.128  23.892 -0.2565  0.1195 -0.0325
12087DPPC   GL115257   7.454   0.131  23.497  0.1352  0.1185 -0.1451
12087DPPC   GL215258   7.258  -0.014  23.373  0.0652  0.2716  0.1120
12087DPPC   C1A15259   7.687   0.329  23.306 -0.1699 -0.0656  0.0017
12087DPPC   C2A15260   7.957   0.495  23.003 -0.1187 -0.0080  0.2456
12087DPPC   C3A15261   8.249   0.527  22.592  0.1846  0.0425  0.1588
12087DPPC   C4A15262   8.541   0.628  22.216 -0.2516 -0.0463  0.0191
12087DPPC   C1B15263   7.426   0.031  23.062  0.3688 -0.4371  0.1561
12087DPPC   C2B15264   7.743   0.078  22.748 -0.0491  0.1046  0.1313
12087DPPC   C3B15265   7.954   0.196  22.365 -0.0637 -0.0382  0.1484
12087DPPC   C4B15266   8.272   0.211  21.980  0.2364  0.1113  0.1147
12088DPPC   NC315267  10.863   0.158  28.566 -0.1622  0.0472 -0.1718
12088DPPC   PO415268  10.758   0.365  28.209 -0.0224  0.2334  0.5013
12088DPPC   GL115269  10.702   0.454  27.720 -0.2468 -0.1435 -0.1863
12088DPPC   GL215270  10.531   0.645  27.818 -0.0308  0.1735  0.4838
12088DPPC   C1A15271  10.940   0.491  27.438 -0.0145 -0.0001  0.2527
12088DPPC   C2A15272  11.272   0.457  27.172  0.0195  0.0019 -0.0682
12088DPPC   C3A15273  11.552   0.423  26.759  0.0774  0.1916 -0.2115
12088DPPC   C4A15274  11.724   0.508  26.349  0.1460 -0.1035  0.0967
12088DPPC   C1B15275  10.597   0.770  27.523 -0.0078 -0.2199  0.6102
12088DPPC   C2B15276  10.902   0.931  27.221 -0.0967 -0.0124  0.0577
12088DPPC   C3B15277  11.206   0.932  26.902 -0.0569  0.0685 -0.3115
12088DPPC   C4B15278  11.622   0.757  27.115 -0.3198  0.1108  0.0549
12089DPPC   NC315279   7.577   0.128  24.837 -0.0052 -0.2493 -0.0138
12089DPPC   PO415280   7.987   0.145  24.892 -0.1640  0.0395 -0.0109
12089DPPC   GL115281   8.184   0.285  24.575 -0.0427  0.0142 -0.1154
12089DPPC   GL215282   8.448   0.349  24.647 -0.0826  0.0632 -0.1214
12089DPPC   C1A15283   8.323   0.282  24.222  0.0889  0.0080  0.0783
12089DPPC   C2A15284   8.540   0.258  23.849 -0.0693  0.4894 -0.1886
12089DPPC   C3A15285   8.831   0.265  23.457  0.2663  0.2324 -0.0100
12089DPPC   C4A15286   9.143   0.389  23.078 -0.1268 -0.1116 -0.0880
12089DPPC   C1B15287   8.659   0.178  24.433 -0.1452  0.1139  0.0797
12089DPPC   C2B15288   8.974   0.224  24.141 -0.0729  0.0036  0.2864
12089DPPC   C3B15289   9.286   0.259  23.767  0.2772  0.1036 -0.0427
12089DPPC   C4B15290   9.544   0.253  23.344  0.3048  0.1585 -0.3948
12090DPPC   NC315291  10.434   5.953  27.543  0.6695 -0.1918  0.1517
12090DPPC   PO415292  10.118   5.706  27.396 -0.0464  0.0047  0.2086
12090DPPC   GL115293  10.392   5.671  27.072 -0.2307  0.2488 -0.0948
12090DPPC   GL215294  10.501   5.954  27.076  0.1444  0.3122 -0.1413
12090DPPC   C1A15295  10.543   5.486  26.717 -0.1186 -0.3188  0.3654
12090DPPC   C2A15296  10.717   5.460  26.345  0.2553 -0.0135  0.0226
12090DPPC   C3A15297  11.031   5.491  26.008 -0.0874 -0.2186  0.1987
12090DPPC   C4A15298  11.313   5.503  25.633  0.3072 -0.1229 -0.1083
12090DPPC   C1B15299  10.762   5.849  26.851  0.0432  0.5153 -0.0881
12090DPPC   C2B15300  11.016   5.807  26.510  0.0947 -0.2438 -0.3570
12090DPPC   C3B15301  11.325   5.854  26.150  0.0931 -0.0455  0.1018
12090DPPC   C4B15302  11.536   5.896  25.815 -0.2328 -0.0332  0.0104
12091DPPC   NC315303   7.295   1.122  23.615 -0.1382 -0.0477 -0.0164
12091DPPC   PO415304   7.440   1.087  23.992  0.1273 -0.0690 -0.2379
12091DPPC   GL115305   7.752   1.257  23.580  0.1844  0.0290  0.1288
12091DPPC   GL215306   7.786   1.473  23.781 -0.2665 -0.3144 -0.0438
12091DPPC   C1A15307   7.995   1.306  23.270  0.2459  0.3088  0.0074
12091DPPC   C2A15308   8.130   1.329  22.923 -0.2351  0.0445 -0.3281
12091DPPC   C3A15309   8.405   1.419  22.537  0.1867 -0.2458 -0.1966
12091DPPC   C4A15310   8.740   1.456  22.160 -0.1057 -0.0047  0.1327
12091DPPC   C1B15311   8.086   1.603  23.584 -0.2600  0.4056 -0.0166
12091DPPC   C2B15312   8.311   1.648  23.264  0.0749  0.2161 -0.2509
12091DPPC   C3B15313   8.612   1.744  22.924  0.0700 -0.0383  0.0299
12091DPPC   C4B15314   8.873   1.795  22.503 -0.3273 -0.0570 -0.0629
12092DPPC   NC315315   6.147   0.281  23.060 -0.1838  0.2664  0.1929
12092DPPC   PO415316   6.539   0.138  23.078  0.2527  0.1374 -0.2234
12092DPPC   GL115317   6.789   0.006  22.711 -0.1548 -0.0670 -0.1758
12092DPPC   GL215318   6.985   0.050  22.993  0.0467 -0.0130 -0.0013
12092DPPC   C1A15319   6.955  -0.020  22.450  0.0527 -0.6291  0.1216
12092DPPC   C2A15320   7.178  -0.034  22.078 -0.1395 -0.1149  0.0863
12092DPPC   C3A15321   7.471  -0.106  21.675 -0.1918  0.1102 -0.1038
12092DPPC   C4A15322   7.791  -0.023  21.303 -0.1803  0.0896 -0.0026
12092DPPC   C1B15323   7.154   0.238  22.784  0.0049  0.1965 -0.3327
12092DPPC   C2B15324   7.390   0.266  22.441 -0.2244 -0.1064  0.2710
12092DPPC   C3B15325   7.589   0.343  22.041  0.0140 -0.1034 -0.0579
12092DPPC   C4B15326   7.882   0.273  21.683 -0.1817 -0.0182  0.0091
12093DPPC   NC315327   7.954   4.991  25.045 -0.1769  0.1054  0.0923
12093DPPC   PO415328   7.790   5.242  24.767 -0.0378 -0.0116  0.1614
12093DPPC   GL115329   8.147   5.153  24.593 -0.1723 -0.0168  0.0710
12093DPPC   GL215330   8.053   5.151  24.336 -0.1254 -0.1652 -0.1984
12093DPPC   C1A15331   8.512   5.029  24.603  0.1017  0.0555  0.0959
12093DPPC   C2A15332   8.890   5.088  24.467  0.2243 -0.0816 -0.1246
12093DPPC   C3A15333   9.167   5.054  24.051  0.1041 -0.2093  0.1843
12093DPPC   C4A15334   9.411   5.009  23.648  0.2303  0.0397  0.1055
12093DPPC   C1B15335   8.386   5.218  24.205  0.4380  0.1381 -0.2601
12093DPPC   C2B15336   8.695   5.198  23.959  0.0614 -0.1376 -0.3502
12093DPPC   C3B15337   8.932   5.133  23.542 -0.1550  0.1144 -0.0592
12093DPPC   C4B15338   9.182   5.189  23.087  0.0363  0.4339 -0.4454
12094DPPC   NC315339   6.307   1.976  23.717 -0.1011 -0.0406 -0.0604
12094DPPC   PO415340   6.648   1.705  23.636  0.4644  0.0439 -0.0099
12094DPPC   GL115341   6.715   1.456  23.224  0.0290 -0.1900 -0.0007
12094DPPC   GL215342   6.921   1.334  23.317 -0.3435  0.4613  0.0949
12094DPPC   C1A15343   6.793   1.395  22.921 -0.2107 -0.2337  0.1787
12094DPPC   C2A15344   6.845   1.287  22.515 -0.3762  0.1969 -0.1461
12094DPPC   C3A15345   7.115   1.196  22.062 -0.0250  0.0151 -0.0508
12094DPPC   C4A15346   7.344   1.233  21.635  0.0968 -0.0410  0.2351
12094DPPC   C1B15347   7.241   1.332  23.090 -0.4564  0.1990 -0.3220
12094DPPC   C2B15348   7.568   1.373  22.826 -0.0589  0.2593  0.4869
12094DPPC   C3B15349   7.889   1.512  22.504 -0.1193  0.1893 -0.0903
12094DPPC   C4B15350   8.213   1.583  22.145 -0.0873 -0.1449  0.1065
12095DPPC   NC315351   8.861   2.392  25.977 -0.0271  0.3218 -0.2514
12095DPPC   PO415352   8.716   2.274  25.651 -0.1298 -0.4100  0.1150
12095DPPC   GL115353   8.867   2.310  25.284 -0.4653 -0.1208  0.1261
12095DPPC   GL215354   8.885   2.089  25.109 -0.0666  0.0708  0.2029
12095DPPC   C1A15355   8.938   2.536  24.978  0.1667  0.0763  0.3161
12095DPPC   C2A15356   9.130   2.638  24.645 -0.0812 -0.0178  0.3351
12095DPPC   C3A15357   9.454   2.720  24.273 -0.0220 -0.1349 -0.3204
12095DPPC   C4A15358   9.690   2.749  23.871 -0.2457 -0.0843  0.2360
12095DPPC   C1B15359   9.100   2.132  24.835 -0.1084 -0.1189 -0.0884
12095DPPC   C2B15360   9.353   2.182  24.541 -0.0041  0.0382  0.0658
12095DPPC   C3B15361   9.686   2.270  24.134  0.0241  0.1634  0.1579
12095DPPC   C4B15362   9.975   2.280  23.785  0.2824 -0.4293 -0.0228
12096DPPC   NC315363   9.814   3.806  27.117  0.0301 -0.0648  0.1714
12096DPPC   PO415364   9.851   3.436  26.895  0.0014  0.0014  0.0504
12096DPPC   GL115365  10.086   3.271  26.632 -0.1105 -0.0626  0.1473
12096DPPC   GL215366  10.088   3.079  26.809  0.1973 -0.0092  0.0244
12096DPPC   C1A15367  10.400   3.260  26.391 -0.3534  0.1627 -0.1873
12096DPPC   C2A15368  10.692   3.212  26.036 -0.1678  0.2185 -0.2439
12096DPPC   C3A15369  10.972   3.322  25.696  0.0522  0.1498  0.1895
12096DPPC   C4A15370  11.254   3.321  25.262  0.0404 -0.1139  0.2401
12096DPPC   C1B15371  10.376   2.884  26.729 -0.5312 -0.0776 -0.0080
12096DPPC   C2B15372  10.635   2.830  26.379  0.2083  0.0468 -0.0502
12096DPPC   C3B15373  10.932   2.782  25.959  0.0277  0.2743 -0.1429
12096DPPC   C4B15374  11.291   2.814  25.610  0.0245 -0.1243 -0.1239
12097DPPC   NC315375   7.833   3.192  24.344  0.3962 -0.3562 -0.0595
12097DPPC   PO415376   7.887   3.389  24.681  0.1673  0.1646  0.2022
12097DPPC   GL115377   7.923   3.769  24.610 -0.1780 -0.3048  0.1555
12097DPPC   GL215378   7.772   3.690  24.303 -0.2110 -0.2700 -0.1418
12097DPPC   C1A15379   8.163   3.955  24.436  0.0732  0.2876 -0.2503
12097DPPC   C2A15380   8.517   3.825  24.160  0.1323 -0.0017  0.1416
12097DPPC   C3A15381   8.732   3.841  23.745 -0.0820  0.0859 -0.1955
12097DPPC   C4A15382   9.019   3.834  23.382 -0.1028  0.0239 -0.2748
12097DPPC   C1B15383   8.028   3.507  24.096 -0.0640 -0.1131  0.2348
12097DPPC   C2B15384   8.312   3.402  23.801  0.0004  0.1117 -0.0244
12097DPPC   C3B15385   8.638   3.462  23.376 -0.1042  0.2438 -0.0568
12097DPPC   C4B15386   8.893   3.488  23.045 -0.1090  0.4061 -0.0715
12098DPPC   NC315387   8.967   6.271  25.724 -0.0559 -0.4124  0.4432
12098DPPC   PO415388   9.048   6.657  25.858  0.1952 -0.1578 -0.1902
12098DPPC   GL115389   9.323   6.791  25.614 -0.0827 -0.2860  0.0530
12098DPPC   GL215390   9.281   6.515  25.450  0.3530  0.2224  0.2776
12098DPPC   C1A15391   9.634   6.967  25.499 -0.0506 -0.3549 -0.2902
12098DPPC   C2A15392   9.858   6.987  25.108  0.0488  0.1626  0.1325
12098DPPC   C3A15393  10.132   7.001  24.677 -0.3128 -0.0672  0.1169
12098DPPC   C4A15394  10.541   6.971  24.322 -0.1851  0.1751  0.4452
12098DPPC   C1B15395   9.322   6.554  25.065  0.0139 -0.2397  0.2925
12098DPPC   C2B15396   9.607   6.646  24.792 -0.0568  0.0462  0.2552
12098DPPC   C3B15397   9.947   6.600  24.385 -0.4783 -0.1970 -0.2306
12098DPPC   C4B15398  10.273   6.625  24.027  0.0426  0.1796 -0.0351
12099DPPC   NC315399  12.028   1.654  22.346  0.3313 -0.1697  0.3101
12099DPPC   PO415400  12.043   1.876  22.698 -0.0567  0.4014 -0.4988
12099DPPC   GL115401  11.881   1.933  23.071 -0.2158 -0.2154  0.3107
12099DPPC   GL215402  11.758   1.632  23.057 -0.2641 -0.1118 -0.3125
12099DPPC   C1A15403  11.500   2.034  23.107 -0.2238 -0.2395 -0.2916
12099DPPC   C2A15404  11.306   2.178  23.426 -0.0527 -0.0137 -0.0811
12099DPPC   C3A15405  11.078   2.146  23.848 -0.2448  0.1832  0.0805
12099DPPC   C4A15406  10.767   2.182  24.220  0.0525 -0.1003  0.2884
12099DPPC   C1B15407  11.650   1.732  23.429 -0.3585 -0.2035  0.2830
12099DPPC   C2B15408  11.349   1.715  23.739  0.0410 -0.0133  0.3018
12099DPPC   C3B15409  11.105   1.675  24.126  0.1265  0.3117  0.2161
12099DPPC   C4B15410  10.773   1.735  24.503  0.1588  0.2730 -0.1100
12100DPPC   NC315411   9.192   5.630  18.471  0.1936 -0.0064 -0.2652
12100DPPC   PO415412   8.892   5.467  18.729  0.0927 -0.1166  0.4203
12100DPPC   GL115413   8.601   5.263  18.920  0.3133  0.2571  0.7223
12100DPPC   GL215414   8.424   5.258  18.742  0.0158 -0.0810 -0.3437
12100DPPC   C1A15415   8.489   5.228  19.311  0.0208 -0.0480 -0.0453
12100DPPC   C2A15416   8.144   5.286  19.630 -0.2392  0.3329  0.0055
12100DPPC   C3A15417   7.926   5.310  20.067 -0.0684  0.3705 -0.3864
12100DPPC   C4A15418   7.648   5.349  20.463  0.0458  0.2017 -0.2825
12100DPPC   C1B15419   8.150   5.440  18.929 -0.2327 -0.1184  0.0717
12100DPPC   C2B15420   7.890   5.414  19.240  0.1876 -0.2010  0.4269
12100DPPC   C3B15421   7.636   5.433  19.632  0.0311 -0.1944  0.1115
12100DPPC   C4B15422   7.308   5.347  19.919 -0.0163  0.2236  0.0875
12101DPPC   NC315423  10.348   6.578  20.595 -0.1766 -0.1241  0.4365
12101DPPC   PO415424  10.605   6.601  20.873  0.1750 -0.1984 -0.1268
12101DPPC   GL115425  10.305   6.913  21.154 -0.1767 -0.1648  0.1410
12101DPPC   GL215426  10.529   6.909  21.314 -0.2209 -0.0666 -0.2514
12101DPPC   C1A15427  10.044   6.938  21.400  0.0004 -0.3128 -0.1806
12101DPPC   C2A15428   9.909   6.911  21.807 -0.3076 -0.0935  0.0551
12101DPPC   C3A15429   9.621   6.948  22.260 -0.2153 -0.0214  0.4063
12101DPPC   C4A15430   9.384   6.993  22.651 -0.1127  0.0369  0.1515
12101DPPC   C1B15431  10.397   6.796  21.640  0.4696  0.0502 -0.1460
12101DPPC   C2B15432  10.366   6.862  22.069 -0.0487 -0.0755  0.1270
12101DPPC   C3B15433  10.061   6.885  22.507 -0.0397  0.1898 -0.2073
12101DPPC   C4B15434   9.794   6.938  22.928  0.2537 -0.1992  0.2332
12102DPPC   NC315435   9.875   4.446  19.990  0.0307  0.0793  0.0284
12102DPPC   PO415436  10.001   4.217  20.308 -0.0803 -0.1285  0.2091
12102DPPC   GL115437   9.736   3.915  20.412 -0.1454 -0.0613 -0.0897
12102DPPC   GL215438   9.762   3.946  20.715 -0.1511 -0.0523 -0.3117
12102DPPC   C1A15439   9.388   3.806  20.492 -0.2451 -0.0021  0.1018
12102DPPC   C2A15440   9.165   3.712  20.837  0.3156 -0.0731  0.2184
12102DPPC   C3A15441   8.905   3.680  21.223  0.1244 -0.1978 -0.1684
12102DPPC   C4A15442   8.634   3.739  21.627 -0.3658  0.0110  0.1566
12102DPPC   C1B15443   9.577   4.088  20.976 -0.2088 -0.2398 -0.2328
12102DPPC   C2B15444   9.294   4.053  21.293 -0.0273 -0.0834  0.1474
12102DPPC   C3B15445   9.031   4.111  21.630  0.0998 -0.1273 -0.2592
12102DPPC   C4B15446   8.748   4.121  22.034 -0.1346  0.3919 -0.3976
12103DPPC   NC315447   9.033   4.081  19.432  0.0967  0.1364  0.2111
12103DPPC   PO415448   9.185   4.471  19.359 -0.0471 -0.0629 -0.3010
12103DPPC   GL115449   8.941   4.696  19.598 -0.2738 -0.0424 -0.2208
12103DPPC   GL215450   9.020   4.433  19.775  0.3220 -0.1066 -0.2039
12103DPPC   C1A15451   8.813   4.770  19.943  0.1297  0.0535 -0.0886
12103DPPC   C2A15452   8.549   4.784  20.264  0.0489  0.3442  0.1861
12103DPPC   C3A15453   8.308   4.759  20.707  0.1889  0.2852 -0.3911
12103DPPC   C4A15454   8.046   4.709  21.136  0.3369 -0.0912 -0.0768
12103DPPC   C1B15455   8.912   4.352  20.109 -0.3086  0.1249  0.0478
12103DPPC   C2B15456   8.662   4.349  20.469 -0.3006 -0.0556  0.0810
12103DPPC   C3B15457   8.389   4.319  20.870  0.0728 -0.0196 -0.1718
12103DPPC   C4B15458   8.145   4.297  21.326  0.0471 -0.0724  0.0905
12104DPPC   NC315459  12.038   0.161  22.724  0.3103 -0.1613  0.2076
12104DPPC   PO415460  12.265   0.116  23.047 -0.0562  0.1604  0.0648
12104DPPC   GL115461  12.265   0.198  23.456  0.0169  0.1460  0.3236
12104DPPC   GL215462  12.145   0.470  23.424 -0.1100 -0.1750 -0.0579
12104DPPC   C1A15463  11.952  -0.021  23.527  0.2533 -0.0999 -0.3242
12104DPPC   C2A15464  11.591  -0.025  23.771 -0.0203  0.2551  0.1546
12104DPPC   C3A15465  11.299  -0.107  24.191 -0.2943 -0.0304  0.2580
12104DPPC   C4A15466  10.982  -0.133  24.539 -0.3890  0.1676  0.4031
12104DPPC   C1B15467  11.963   0.387  23.737 -0.0676  0.0013  0.0161
12104DPPC   C2B15468  11.817   0.318  24.090 -0.1481 -0.0854 -0.0016
12104DPPC   C3B15469  11.502   0.230  24.487 -0.1171  0.1354  0.0843
12104DPPC   C4B15470  11.150   0.244  24.833  0.1649  0.1904  0.1540
12105DPPC   NC315471  11.424   2.270  22.190 -0.2295  0.2329  0.2700
12105DPPC   PO415472  11.554   1.888  22.140 -0.0351  0.0598  0.0030
12105DPPC   GL115473  11.572   1.865  22.599  0.1425  0.0656  0.2493
12105DPPC   GL215474  11.587   2.173  22.622  0.0724  0.1311  0.3474
12105DPPC   C1A15475  11.364   1.765  22.844  0.1751  0.1903  0.4578
12105DPPC   C2A15476  11.105   1.767  23.211 -0.0855  0.0454 -0.1558
12105DPPC   C3A15477  10.861   1.767  23.641 -0.4255 -0.0882 -0.1878
12105DPPC   C4A15478  10.552   1.766  24.051 -0.0143  0.3359  0.1175
12105DPPC   C1B15479  11.251   2.215  22.785 -0.0815 -0.3421  0.2160
12105DPPC   C2B15480  10.981   2.261  23.075 -0.2431  0.1355 -0.0332
12105DPPC   C3B15481  10.710   2.244  23.484 -0.2217 -0.0836 -0.1095
12105DPPC   C4B15482  10.483   2.285  23.843  0.2853  0.1230  0.2717
12106DPPC   NC315483  11.200   2.862  21.511  0.0617  0.0616 -0.0374
12106DPPC   PO415484  11.448   3.156  21.596  0.3374  0.0024  0.1710
12106DPPC   GL115485  11.191   3.294  21.876 -0.4015  0.0360  0.3230
12106DPPC   GL215486  10.954   3.265  21.776 -0.0694  0.0768  0.0328
12106DPPC   C1A15487  11.105   3.243  22.253  0.4259  0.1684  0.0689
12106DPPC   C2A15488  11.003   3.168  22.581  0.0784 -0.0153  0.1445
12106DPPC   C3A15489  10.661   3.181  22.950 -0.2946  0.0110 -0.2452
12106DPPC   C4A15490  10.347   3.161  23.334 -0.0155  0.1433 -0.0633
12106DPPC   C1B15491  10.683   3.219  22.035 -0.2470 -0.2784  0.0880
12106DPPC   C2B15492  10.469   3.288  22.396  0.1478 -0.0026  0.2623
12106DPPC   C3B15493  10.187   3.294  22.805 -0.0385 -0.0983  0.1974
12106DPPC   C4B15494   9.923   3.283  23.211  0.2294  0.1631  0.0773
12107DPPC   NC315495  11.177   0.657  21.746 -0.2805  0.0405  0.2122
12107DPPC   PO415496  11.280   0.277  21.753  0.4594 -0.3932 -0.1465
12107DPPC   GL115497  11.083   0.107  21.998  0.3342  0.2242 -0.2111
12107DPPC   GL215498  11.138  -0.123  22.119 -0.1139 -0.0609 -0.0500
12107DPPC   C1A15499  10.754   0.216  22.263 -0.1941 -0.2296  0.0969
12107DPPC   C2A15500  10.569   0.162  22.619 -0.1132 -0.1687 -0.0150
12107DPPC   C3A15501  10.356   0.099  22.979 -0.2848 -0.2039  0.0331
12107DPPC   C4A15502  10.016   0.130  23.324 -0.3573  0.1220 -0.0102
12107DPPC   C1B15503  10.903  -0.192  22.436  0.1836 -0.2460  0.2052
12107DPPC   C2B15504  10.698  -0.294  22.749  0.4230 -0.0057 -0.4344
12107DPPC   C3B15505  10.397  -0.339  23.167  0.1915  0.0683 -0.3011
12107DPPC   C4B15506  10.114  -0.315  23.570 -0.2163 -0.0477 -0.0033
12108DPPC   NC315507  10.424   4.451  21.012  0.0642  0.1509 -0.1426
12108DPPC   PO415508  10.623   4.259  21.253 -0.4294  0.0759 -0.2091
12108DPPC   GL115509  10.384   3.969  21.534 -0.2644 -0.0858 -0.1468
12108DPPC   GL215510  10.270   4.290  21.502  0.0490  0.2241  0.1433
12108DPPC   C1A15511  10.084   3.868  21.770  0.0788  0.0656 -0.0555
12108DPPC   C2A15512   9.885   3.838  22.119  0.0472  0.1042  0.0701
12108DPPC   C3A15513   9.665   3.902  22.516 -0.1422 -0.1499  0.1814
12108DPPC   C4A15514   9.341   3.875  22.860 -0.0513  0.1227 -0.0574
12108DPPC   C1B15515  10.014   4.382  21.727  0.1783 -0.4315 -0.0006
12108DPPC   C2B15516   9.731   4.351  22.048  0.2345  0.1359  0.0618
12108DPPC   C3B15517   9.414   4.316  22.459  0.1192 -0.2845 -0.0042
12108DPPC   C4B15518   9.151   4.351  22.892 -0.0941 -0.3148  0.2001
12109DPPC   NC315519   8.676   3.311  18.906  0.0417  0.1474 -0.2747
12109DPPC   PO415520   8.941   3.459  18.655  0.1381 -0.2735 -0.0039
12109DPPC   GL115521   8.790   3.793  18.932 -0.1873  0.1149 -0.0245
12109DPPC   GL215522   8.842   3.630  19.169 -0.0071  0.0695 -0.0621
12109DPPC   C1A15523   8.448   3.599  19.080 -0.0335  0.3437  0.1904
12109DPPC   C2A15524   8.141   3.564  19.325 -0.0836 -0.3679 -0.0272
12109DPPC   C3A15525   7.843   3.616  19.689 -0.1298 -0.0891  0.2343
12109DPPC   C4A15526   7.543   3.630  20.116  0.1783  0.0295 -0.0456
12109DPPC   C1B15527   8.805   3.752  19.586 -0.1159  0.2052  0.1167
12109DPPC   C2B15528   8.669   3.912  19.887 -0.0424 -0.4649 -0.0192
12109DPPC   C3B15529   8.417   3.911  20.240  0.1154  0.0717 -0.0384
12109DPPC   C4B15530   8.166   3.924  20.703  0.0791 -0.0602  0.1932
12110DPPC   NC315531   9.904   5.166  19.940 -0.0930  0.0946 -0.1523
12110DPPC   PO415532   9.588   5.384  19.835  0.2233 -0.1345  0.0895
12110DPPC   GL115533   9.279   5.482  20.147  0.2094  0.0717  0.2514
12110DPPC   GL215534   9.347   5.766  20.171  0.0957 -0.1788  0.0180
12110DPPC   C1A15535   9.172   5.460  20.510  0.2517 -0.0558 -0.2032
12110DPPC   C2A15536   8.918   5.506  20.855 -0.1948 -0.0073  0.0013
12110DPPC   C3A15537   8.686   5.517  21.275  0.3646 -0.2116 -0.1647
12110DPPC   C4A15538   8.379   5.504  21.657  0.0723 -0.1931 -0.0181
12110DPPC   C1B15539   9.080   5.944  20.362  0.2482 -0.3109 -0.2512
12110DPPC   C2B15540   8.838   6.003  20.696 -0.2218 -0.1622 -0.0506
12110DPPC   C3B15541   8.555   5.975  21.081  0.4605 -0.1473 -0.1000
12110DPPC   C4B15542   8.297   5.982  21.534 -0.1873  0.1345 -0.2714
12111DPPC   NC315543  10.068   2.345  20.625  0.1009  0.1082  0.4898
12111DPPC   PO415544  10.443   2.418  20.641  0.0255 -0.3868  0.0015
12111DPPC   GL115545  10.554   2.393  21.099 -0.5394 -0.0153 -0.3022
12111DPPC   GL215546  10.246   2.287  21.067  0.1652  0.3894  0.1939
12111DPPC   C1A15547  10.390   2.514  21.390 -0.3495 -0.0849  0.3312
12111DPPC   C2A15548  10.160   2.607  21.706 -0.0918 -0.0635 -0.0236
12111DPPC   C3A15549   9.915   2.614  22.095 -0.4017 -0.0965 -0.1705
12111DPPC   C4A15550   9.631   2.530  22.460 -0.0078 -0.1517 -0.0557
12111DPPC   C1B15551  10.008   2.239  21.290 -0.0241  0.0826 -0.1942
12111DPPC   C2B15552   9.882   2.184  21.654  0.0475  0.0759 -0.0469
12111DPPC   C3B15553   9.579   2.193  21.992  0.0670 -0.0023 -0.0966
12111DPPC   C4B15554   9.290   2.173  22.363  0.2760 -0.2387  0.0118
12112DPPC   NC315555  10.942   5.935  21.584 -0.4498 -0.0960 -0.0566
12112DPPC   PO415556  10.946   5.558  21.664 -0.3177 -0.0698 -0.0894
12112DPPC   GL115557  10.933   5.460  22.035  0.1298 -0.2362  0.0448
12112DPPC   GL215558  10.891   5.165  21.996 -0.3187 -0.3240  0.1631
12112DPPC   C1A15559  10.691   5.530  22.317 -0.4379  0.3126 -0.2307
12112DPPC   C2A15560  10.480   5.441  22.686 -0.0789 -0.2131 -0.0899
12112DPPC   C3A15561  10.191   5.497  23.065  0.0543  0.0355 -0.0843
12112DPPC   C4A15562   9.895   5.483  23.476 -0.1627 -0.3343  0.1334
12112DPPC   C1B15563  10.517   5.035  22.084 -0.0090 -0.2038 -0.2297
12112DPPC   C2B15564  10.248   5.098  22.404  0.1187  0.1334  0.4410
12112DPPC   C3B15565   9.997   5.118  22.811 -0.0977 -0.4711 -0.2155
12112DPPC   C4B15566   9.700   5.048  23.159 -0.0067  0.0772  0.0117
12113DPPC   NC315567  11.999   5.426  21.923  0.1735  0.2915 -0.0557
12113DPPC   PO415568  11.729   5.143  21.963  0.1258  0.2097  0.1974
12113DPPC   GL115569  11.275   5.219  22.136  0.2355  0.1633 -0.1776
12113DPPC   GL215570  11.425   5.034  22.275  0.3788 -0.4021 -0.2156
12113DPPC   C1A15571  11.118   5.334  22.447  0.2233 -0.0157  0.1944
12113DPPC   C2A15572  10.976   5.316  22.841  0.0833  0.0271 -0.0998
12113DPPC   C3A15573  10.682   5.338  23.267 -0.1862  0.0914 -0.2065
12113DPPC   C4A15574  10.373   5.331  23.668 -0.2717  0.1132  0.2564
12113DPPC   C1B15575  11.420   5.124  22.619 -0.1698  0.0086  0.0470
12113DPPC   C2B15576  11.407   5.179  22.991 -0.0476 -0.2206 -0.0280
12113DPPC   C3B15577  11.226   5.285  23.394  0.1173  0.2649 -0.2190
12113DPPC   C4B15578  10.918   5.206  23.761 -0.0627  0.1322 -0.1939
12114DPPC   NC315579  10.553   2.828  21.090  0.1464 -0.2523  0.3105
12114DPPC   PO415580  10.559   3.191  20.914 -0.1056 -0.0061 -0.1494
12114DPPC   GL115581  10.113   3.306  20.991  0.4331  0.1727 -0.1214
12114DPPC   GL215582  10.201   3.093  21.103  0.3387 -0.2418 -0.1612
12114DPPC   C1A15583   9.821   3.304  21.203 -0.0636 -0.4673  0.3255
12114DPPC   C2A15584   9.602   3.142  21.440  0.0774  0.2459  0.0070
12114DPPC   C3A15585   9.313   3.095  21.843 -0.1287 -0.0881  0.0105
12114DPPC   C4A15586   9.018   3.050  22.248  0.0323  0.0231  0.0741
12114DPPC   C1B15587  10.078   3.109  21.484  0.0044  0.1381  0.0456
12114DPPC   C2B15588   9.837   3.055  21.879  0.0721 -0.1372 -0.1863
12114DPPC   C3B15589   9.593   3.043  22.284  0.0967 -0.1131 -0.0909
12114DPPC   C4B15590   9.316   2.974  22.670  0.3885 -0.0436 -0.1823
12115DPPC   NC315591  12.764   0.217  23.173 -0.1072  0.2171 -0.4481
12115DPPC   PO415592  12.640  -0.170  23.231  0.1295 -0.3310  0.0454
12115DPPC   GL115593  12.288  -0.355  23.399  0.1842 -0.1617  0.1262
12115DPPC   GL215594  12.342  -0.242  23.677 -0.2203  0.1019  0.1284
12115DPPC   C1A15595  11.959  -0.529  23.432  0.2191  0.2207  0.3143
12115DPPC   C2A15596  11.698  -0.542  23.792 -0.1564 -0.0482  0.0615
12115DPPC   C3A15597  11.431  -0.591  24.254 -0.0229  0.1542  0.2032
12115DPPC   C4A15598  11.227  -0.571  24.601  0.1115 -0.0704 -0.2312
12115DPPC   C1B15599  12.089  -0.253  23.962 -0.0797  0.0436  0.1498
12115DPPC   C2B15600  11.781  -0.203  24.245 -0.1081 -0.0911 -0.3142
12115DPPC   C3B15601  11.578  -0.225  24.655  0.2428  0.1759 -0.0650
12115DPPC   C4B15602  11.256  -0.192  25.041  0.1960 -0.0697 -0.1638
12116DPPC   NC315603   9.362   4.876  19.558 -0.2399 -0.2158 -0.1321
12116DPPC   PO415604   9.429   4.610  19.870 -0.1625  0.4463  0.0879
12116DPPC   GL115605   9.201   4.701  20.133 -0.2152  0.0251  0.1297
12116DPPC   GL215606   9.146   4.982  20.022  0.1047 -0.2194 -0.3027
12116DPPC   C1A15607   9.012   4.713  20.448 -0.2540 -0.0045  0.2925
12116DPPC   C2A15608   8.848   4.668  20.825  0.2019  0.0621  0.0643
12116DPPC   C3A15609   8.577   4.690  21.220 -0.2434 -0.2725 -0.1918
12116DPPC   C4A15610   8.202   4.682  21.655  0.3446 -0.0164 -0.2746
12116DPPC   C1B15611   8.950   5.145  20.296  0.0960 -0.1760 -0.0478
12116DPPC   C2B15612   8.698   5.139  20.614 -0.0005  0.0103 -0.0476
12116DPPC   C3B15613   8.431   5.173  21.016 -0.2396 -0.0593 -0.1284
12116DPPC   C4B15614   8.119   5.163  21.406 -0.1680  0.0415 -0.0701
12117DPPC   NC315615  10.836   2.123  20.858  0.1452 -0.2065  0.1799
12117DPPC   PO415616  10.832   1.715  20.863 -0.1817 -0.1735  0.0473
12117DPPC   GL115617  10.554   1.591  21.078  0.3250 -0.0710  0.0112
12117DPPC   GL215618  10.405   1.859  21.110 -0.3926  0.1899 -0.0375
12117DPPC   C1A15619  10.434   1.386  21.400 -0.0439 -0.0948  0.0451
12117DPPC   C2A15620  10.299   1.200  21.755 -0.1081 -0.2037 -0.1720
12117DPPC   C3A15621   9.930   1.193  22.108  0.0054  0.0737  0.1252
12117DPPC   C4A15622   9.652   1.158  22.554  0.1281  0.1025  0.0685
12117DPPC   C1B15623  10.194   1.755  21.380  0.2074 -0.0312 -0.1487
12117DPPC   C2B15624  10.028   1.633  21.777  0.0549 -0.0045 -0.2020
12117DPPC   C3B15625   9.666   1.679  22.144 -0.0735 -0.0304 -0.0234
12117DPPC   C4B15626   9.397   1.693  22.608 -0.0035 -0.1295 -0.1555
12118DPPC   NC315627   9.353   1.044  19.827 -0.1074  0.0922 -0.3798
12118DPPC   PO415628   9.713   1.039  20.029  0.2367 -0.0044  0.1124
12118DPPC   GL115629   9.492   0.899  20.300  0.1570 -0.3127  0.3627
12118DPPC   GL215630   9.222   0.815  20.210 -0.2651  0.3221 -0.5347
12118DPPC   C1A15631   9.502   1.011  20.666  0.1910 -0.1036  0.2438
12118DPPC   C2A15632   9.166   1.097  20.901  0.2218 -0.0076 -0.2171
12118DPPC   C3A15633   8.949   1.132  21.277  0.1712 -0.1647 -0.0747
12118DPPC   C4A15634   8.696   1.162  21.686 -0.0190  0.0363 -0.1155
12118DPPC   C1B15635   9.139   0.707  20.522 -0.0121  0.2256  0.0894
12118DPPC   C2B15636   8.891   0.700  20.925  0.0329  0.0825 -0.0398
12118DPPC   C3B15637   8.630   0.693  21.329  0.2179 -0.1732 -0.3214
12118DPPC   C4B15638   8.382   0.684  21.716 -0.1187  0.1694 -0.3672
12119DPPC   NC315639  10.409   5.828  20.869  0.0256 -0.2211 -0.1219
12119DPPC   PO415640  10.107   5.985  20.672  0.3407  0.1079  0.1436
12119DPPC   GL115641   9.790   5.773  20.820 -0.0926 -0.1303 -0.0243
12119DPPC   GL215642   9.537   5.770  20.625 -0.3797  0.1031 -0.2329
12119DPPC   C1A15643   9.653   5.681  21.155  0.1603 -0.3054  0.0414
12119DPPC   C2A15644   9.530   5.703  21.537 -0.2971  0.2977  0.0163
12119DPPC   C3A15645   9.224   5.745  21.923  0.1935  0.0523  0.0742
12119DPPC   C4A15646   8.996   5.700  22.318 -0.0655 -0.2396 -0.2290
12119DPPC   C1B15647   9.290   5.862  20.867  0.1631 -0.1880  0.0977
12119DPPC   C2B15648   9.064   5.829  21.229  0.3363 -0.2753 -0.1715
12119DPPC   C3B15649   8.827   5.807  21.659  0.1932  0.1577 -0.2158
12119DPPC   C4B15650   8.516   5.817  22.023 -0.1167  0.1362  0.0516
12120DPPC   NC315651  13.556   1.431  24.219  0.3625 -0.4164 -0.1487
12120DPPC   PO415652  13.243   1.623  24.171  0.0139  0.3416  0.1957
12120DPPC   GL115653  12.852   1.547  24.396 -0.2775  0.0467 -0.2323
12120DPPC   GL215654  12.808   1.783  24.261  0.2292 -0.2771 -0.0286
12120DPPC   C1A15655  12.591   1.457  24.731  0.0444  0.4904 -0.1921
12120DPPC   C2A15656  12.287   1.398  25.037  0.0527  0.0453  0.2769
12120DPPC   C3A15657  12.022   1.441  25.424 -0.0359  0.0621 -0.0926
12120DPPC   C4A15658  11.705   1.459  25.798  0.0505  0.1164  0.1730
12120DPPC   C1B15659  12.523   1.866  24.477  0.0636  0.0404  0.0507
12120DPPC   C2B15660  12.267   1.860  24.782  0.0145 -0.1790  0.0125
12120DPPC   C3B15661  12.004   1.919  25.152  0.1031  0.2264 -0.0136
12120DPPC   C4B15662  11.715   1.876  25.533  0.1056 -0.0509  0.0359
12121DPPC   NC315663  10.780   5.265  20.352  0.2519 -0.0267 -0.3894
12121DPPC   PO415664  10.612   5.320  20.736 -0.4304  0.1476 -0.1110
12121DPPC   GL115665  10.307   5.366  21.042 -0.1100 -0.0589 -0.1518
12121DPPC   GL215666  10.391   5.145  21.230 -0.1351 -0.3606 -0.3606
12121DPPC   C1A15667  10.059   5.558  21.244 -0.1431 -0.2818  0.2199
12121DPPC   C2A15668   9.974   5.635  21.635  0.1169  0.0921 -0.1563
12121DPPC   C3A15669   9.726   5.685  22.018 -0.0039 -0.0032 -0.0277
12121DPPC   C4A15670   9.484   5.688  22.426  0.3482 -0.2660  0.0657
12121DPPC   C1B15671  10.218   5.229  21.495 -0.1165  0.2212 -0.2643
12121DPPC   C2B15672  10.064   5.180  21.870  0.2457  0.0315  0.0558
12121DPPC   C3B15673   9.787   5.248  22.271  0.0224  0.1210  0.0003
12121DPPC   C4B15674   9.497   5.232  22.688  0.1673  0.0180  0.1283
12122DPPC   NC315675   9.766   2.252  19.710 -0.0038 -0.5269 -0.0876
12122DPPC   PO415676   9.441   2.024  19.778  0.2616  0.2055  0.0636
12122DPPC   GL115677   9.345   2.215  20.078  0.0050  0.1845 -0.0382
12122DPPC   GL215678   9.638   2.249  20.171 -0.0626 -0.0634 -0.0310
12122DPPC   C1A15679   9.188   2.139  20.399  0.2045 -0.0703  0.1187
12122DPPC   C2A15680   8.950   2.018  20.721  0.0283  0.0507  0.0239
12122DPPC   C3A15681   8.594   2.064  21.008  0.0954 -0.0251  0.0023
12122DPPC   C4A15682   8.356   2.071  21.428  0.2015  0.0482  0.1628
12122DPPC   C1B15683   9.614   2.003  20.466  0.0454 -0.3311 -0.1082
12122DPPC   C2B15684   9.437   1.949  20.859  0.1548  0.2321  0.3459
12122DPPC   C3B15685   9.114   1.963  21.203  0.2371  0.1337 -0.1041
12122DPPC   C4B15686   8.824   1.915  21.534  0.1058  0.4878 -0.4752
12123DPPC   NC315687  12.761   1.498  23.094 -0.2215 -0.2851  0.1210
12123DPPC   PO415688  12.706   1.683  23.452  0.1270 -0.1518 -0.0257
12123DPPC   GL115689  12.318   1.665  23.596  0.0396 -0.0293 -0.1154
12123DPPC   GL215690  12.386   1.558  23.905  0.0602 -0.0679  0.3612
12123DPPC   C1A15691  12.020   1.703  23.678  0.0945  0.1937  0.1483
12123DPPC   C2A15692  11.761   1.640  23.985 -0.0005 -0.0027  0.0654
12123DPPC   C3A15693  11.537   1.571  24.387 -0.2411 -0.1631 -0.0503
12123DPPC   C4A15694  11.241   1.548  24.788 -0.0327  0.3168  0.0024
12123DPPC   C1B15695  12.246   1.856  24.006  0.2546  0.1023 -0.1335
12123DPPC   C2B15696  12.010   2.047  24.302 -0.0331 -0.0495 -0.2614
12123DPPC   C3B15697  11.720   2.020  24.721  0.1010  0.0678  0.2686
12123DPPC   C4B15698  11.374   1.997  25.064  0.0064 -0.1623  0.1221
12124DPPC   NC315699  12.834   1.460  23.940 -0.0174  0.0846 -0.1196
12124DPPC   PO415700  12.766   1.114  23.779  0.0124  0.1329 -0.1710
12124DPPC   GL115701  12.650   0.944  24.119 -0.1246 -0.3715 -0.0854
12124DPPC   GL215702  12.750   1.114  24.209 -0.2899 -0.3690  0.3927
12124DPPC   C1A15703  12.404   0.908  24.369 -0.1379 -0.1220 -0.0872
12124DPPC   C2A15704  12.149   0.996  24.713 -0.2716 -0.1529 -0.0051
12124DPPC   C3A15705  11.868   1.065  25.090 -0.2024 -0.0853  0.2131
12124DPPC   C4A15706  11.538   1.047  25.429 -0.0251 -0.0557  0.1425
12124DPPC   C1B15707  12.472   1.353  24.321  0.2490  0.1471 -0.0431
12124DPPC   C2B15708  12.103   1.544  24.360  0.1753 -0.2298 -0.0530
12124DPPC   C3B15709  11.796   1.489  24.789  0.0374  0.2867 -0.2003
12124DPPC   C4B15710  11.511   1.512  25.215  0.1220  0.1290  0.0687
12125DPPC   NC315711  11.439   1.427  21.865  0.0981 -0.1582  0.0795
12125DPPC   PO415712  11.705   1.371  22.157  0.2348 -0.1629  0.0893
12125DPPC   GL115713  11.339   1.286  22.342 -0.1358 -0.0033 -0.1885
12125DPPC   GL215714  11.273   1.525  22.452  0.2037 -0.3903  0.5286
12125DPPC   C1A15715  11.352   1.007  22.561 -0.0725 -0.0878  0.0928
12125DPPC   C2A15716  11.189   0.925  22.893 -0.2355 -0.2214  0.0091
12125DPPC   C3A15717  10.895   0.880  23.284  0.0770  0.0171  0.3067
12125DPPC   C4A15718  10.581   0.891  23.665 -0.0135 -0.0283 -0.4272
12125DPPC   C1B15719  11.098   1.455  22.787 -0.0599 -0.0277 -0.1432
12125DPPC   C2B15720  10.856   1.327  23.080 -0.0676 -0.2643 -0.1816
12125DPPC   C3B15721  10.568   1.397  23.456 -0.2081 -0.2539 -0.2243
12125DPPC   C4B15722  10.326   1.375  23.851 -0.1452  0.1127 -0.3864
12126DPPC   NC315723  12.880   6.002  23.363  0.2378 -0.1769 -0.1637
12126DPPC   PO415724  12.884   5.631  23.574  0.0844  0.0424  0.2846
12126DPPC   GL115725  12.534   5.435  23.699 -0.1124  0.0432 -0.2744
12126DPPC   GL215726  12.748   5.416  23.965  0.2208 -0.1628  0.1956
12126DPPC   C1A15727  12.269   5.482  23.961  0.2591  0.3391  0.1186
12126DPPC   C2A15728  12.141   5.467  24.299  0.0454 -0.0164 -0.0957
12126DPPC   C3A15729  11.902   5.491  24.770  0.0983  0.3925  0.0289
12126DPPC   C4A15730  11.676   5.484  25.166  0.1152 -0.0017  0.0119
12126DPPC   C1B15731  12.606   5.344  24.355 -0.1661 -0.0661  0.0380
12126DPPC   C2B15732  12.449   5.346  24.754  0.0564  0.2083 -0.0297
12126DPPC   C3B15733  12.206   5.355  25.177  0.2277 -0.1797  0.0327
12126DPPC   C4B15734  11.907   5.381  25.584 -0.0158  0.0967  0.0623
12127DPPC   NC315735  10.639   0.622  20.964 -0.4027  0.3205 -0.0589
12127DPPC   PO415736  10.449   0.435  20.665 -0.0481 -0.1380  0.0612
12127DPPC   GL115737  10.060   0.553  20.833 -0.3132 -0.3066 -0.0579
12127DPPC   GL215738  10.183   0.732  21.034  0.2316 -0.3734  0.1771
12127DPPC   C1A15739   9.812   0.502  21.014  0.2927  0.0648 -0.3213
12127DPPC   C2A15740   9.592   0.434  21.369 -0.1278 -0.0127  0.0606
12127DPPC   C3A15741   9.404   0.477  21.753 -0.1447 -0.2465  0.1071
12127DPPC   C4A15742   9.148   0.495  22.151  0.1331 -0.1296 -0.0773
12127DPPC   C1B15743   9.988   0.803  21.359  0.1566  0.5729  0.0822
12127DPPC   C2B15744   9.812   0.803  21.729  0.1179 -0.0757  0.0433
12127DPPC   C3B15745   9.516   0.869  22.110  0.0377 -0.2207 -0.3338
12127DPPC   C4B15746   9.235   0.830  22.498  0.2170 -0.1400  0.0375
12128DPPC   NC315747  11.833   2.980  22.602 -0.1008  0.3682  0.0867
12128DPPC   PO415748  12.060   2.860  22.927  0.1339  0.0287  0.2165
12128DPPC   GL115749  11.867   2.788  23.277  0.3696  0.1372 -0.1966
12128DPPC   GL215750  11.967   2.959  23.469 -0.2565  0.0933  0.2865
12128DPPC   C1A15751  11.598   2.652  23.547 -0.0905  0.2674 -0.0805
12128DPPC   C2A15752  11.406   2.511  23.878 -0.2710 -0.1621  0.1320
12128DPPC   C3A15753  11.143   2.556  24.280 -0.1820  0.0730 -0.0494
12128DPPC   C4A15754  10.868   2.454  24.677  0.0006  0.0892  0.1283
12128DPPC   C1B15755  11.813   2.928  23.844  0.3216  0.3730 -0.2132
12128DPPC   C2B15756  11.570   2.883  24.207 -0.1082  0.2641  0.2467
12128DPPC   C3B15757  11.359   2.888  24.598  0.2120  0.1252  0.1984
12128DPPC   C4B15758  11.006   2.861  24.942 -0.1002 -0.4244  0.0074
12129DPPC   NC315759  11.335   2.344  21.526 -0.0860 -0.0425  0.1194
12129DPPC   PO415760  11.328   1.957  21.695  0.0436 -0.0931  0.1318
12129DPPC   GL115761  11.088   1.969  21.993  0.0917  0.1069 -0.2023
12129DPPC   GL215762  11.122   1.684  22.047 -0.1135  0.2170  0.2378
12129DPPC   C1A15763  11.071   1.985  22.387  0.1438  0.1167  0.1547
12129DPPC   C2A15764  10.900   1.861  22.731 -0.1219  0.1699 -0.1809
12129DPPC   C3A15765  10.607   1.820  23.102 -0.1323 -0.1636 -0.1218
12129DPPC   C4A15766  10.364   1.864  23.518 -0.2796  0.3427 -0.4358
12129DPPC   C1B15767  10.890   1.537  22.255  0.1254 -0.0200 -0.3925
12129DPPC   C2B15768  10.605   1.477  22.606 -0.3399 -0.2636  0.2545
12129DPPC   C3B15769  10.324   1.427  22.952  0.1715  0.1745 -0.0155
12129DPPC   C4B15770  10.074   1.424  23.363 -0.2732  0.2337  0.1951
12130DPPC   NC315771  12.417   5.613  22.642 -0.2451 -0.1284  0.0105
12130DPPC   PO415772  12.107   5.472  22.410 -0.2456  0.0520  0.0724
12130DPPC   GL115773  11.843   5.503  22.645  0.0091 -0.1641 -0.0597
12130DPPC   GL215774  11.971   5.312  22.815  0.5281 -0.1568 -0.3241
12130DPPC   C1A15775  11.450   5.636  22.781 -0.2434 -0.0785 -0.2105
12130DPPC   C2A15776  11.219   5.735  23.114 -0.1524  0.0304 -0.1899
12130DPPC   C3A15777  10.973   5.709  23.513  0.0525 -0.1026 -0.1975
12130DPPC   C4A15778  10.683   5.658  23.844  0.1670 -0.1195  0.0968
12130DPPC   C1B15779  11.941   5.257  23.175  0.0384 -0.0337 -0.1164
12130DPPC   C2B15780  11.749   5.168  23.508 -0.0094 -0.2082 -0.0241
12130DPPC   C3B15781  11.463   5.143  23.891 -0.0540  0.2600 -0.2444
12130DPPC   C4B15782  11.212   5.138  24.309  0.0352 -0.1900 -0.2982
12131DPPC   NC315783  11.944   0.690  21.345  0.2296 -0.1162 -0.2490
12131DPPC   PO415784  11.643   0.747  21.621  0.2598 -0.1566 -0.2715
12131DPPC   GL115785  11.534   0.927  21.936  0.3534 -0.0832 -0.1514
12131DPPC   GL215786  11.543   0.904  22.217  0.0993  0.1730  0.4677
12131DPPC   C1A15787  11.190   1.052  22.019  0.0047  0.0479 -0.1016
12131DPPC   C2A15788  10.924   1.105  22.366  0.0994  0.2398 -0.0731
12131DPPC   C3A15789  10.657   0.976  22.772 -0.1452  0.1673  0.2101
12131DPPC   C4A15790  10.402   0.962  23.133 -0.0622 -0.0155  0.0868
12131DPPC   C1B15791  11.377   0.600  22.356 -0.2223  0.1457 -0.0622
12131DPPC   C2B15792  10.997   0.561  22.593 -0.2751 -0.0372 -0.2513
12131DPPC   C3B15793  10.771   0.453  23.000  0.2410  0.0390 -0.1160
12131DPPC   C4B15794  10.566   0.489  23.391  0.1363  0.0057 -0.1996
12132DPPC   NC315795  10.197   3.803  20.537  0.1784 -0.2675  0.1495
12132DPPC   PO415796  10.193   4.097  20.809 -0.0657  0.2405  0.3067
12132DPPC   GL115797  10.078   4.109  21.187  0.1709 -0.2288  0.2993
12132DPPC   GL215798  10.008   4.421  21.167 -0.2805  0.0246  0.1420
12132DPPC   C1A15799   9.802   4.025  21.399 -0.1273 -0.0089 -0.3777
12132DPPC   C2A15800   9.572   3.982  21.701 -0.2281  0.1124  0.1077
12132DPPC   C3A15801   9.307   3.990  22.080 -0.0628  0.0139 -0.1076
12132DPPC   C4A15802   9.027   3.921  22.514 -0.0766  0.1594 -0.3522
12132DPPC   C1B15803   9.676   4.457  21.297  0.1432  0.0291 -0.4923
12132DPPC   C2B15804   9.432   4.455  21.623  0.0731  0.0466 -0.0947
12132DPPC   C3B15805   9.179   4.442  21.985 -0.1799 -0.1353 -0.1234
12132DPPC   C4B15806   8.948   4.473  22.415  0.3666  0.4545  0.3844
12133DPPC   NC315807  13.354   4.788  23.926  0.1556  0.0366 -0.0429
12133DPPC   PO415808  13.078   4.522  24.000 -0.0769 -0.1245 -0.2110
12133DPPC   GL115809  12.602   4.498  24.116 -0.0841  0.0292 -0.3875
12133DPPC   GL215810  12.869   4.410  24.330  0.1702  0.2165  0.0961
12133DPPC   C1A15811  12.363   4.619  24.346  0.1020  0.5123 -0.1320
12133DPPC   C2A15812  12.242   4.543  24.729 -0.3009 -0.0311  0.0853
12133DPPC   C3A15813  11.942   4.582  25.110  0.2044  0.3417  0.2574
12133DPPC   C4A15814  11.681   4.526  25.519 -0.0578  0.0003  0.1238
12133DPPC   C1B15815  12.690   4.475  24.660  0.1056  0.0079  0.1334
12133DPPC   C2B15816  12.635   4.446  25.065 -0.0887  0.3044 -0.2842
12133DPPC   C3B15817  12.429   4.398  25.474 -0.1296 -0.1696 -0.1370
12133DPPC   C4B15818  12.073   4.373  25.825 -0.0442 -0.1758  0.2320
12134DPPC   NC315819  10.281   5.171  20.300 -0.1874  0.1805  0.3060
12134DPPC   PO415820  10.102   4.809  20.245 -0.0587 -0.1678 -0.2459
12134DPPC   GL115821   9.660   4.781  20.233  0.0859 -0.1513  0.1383
12134DPPC   GL215822   9.594   4.536  20.335  0.0002  0.1332 -0.2553
12134DPPC   C1A15823   9.408   4.978  20.395 -0.1427  0.2970  0.1262
12134DPPC   C2A15824   9.204   4.988  20.739  0.1141 -0.1425  0.3370
12134DPPC   C3A15825   8.916   5.051  21.113 -0.1397 -0.1870 -0.0320
12134DPPC   C4A15826   8.668   5.051  21.567  0.0821 -0.1054 -0.1065
12134DPPC   C1B15827   9.456   4.520  20.679  0.1475  0.1667  0.0195
12134DPPC   C2B15828   9.301   4.473  21.098  0.0796 -0.5527 -0.1110
12134DPPC   C3B15829   8.981   4.571  21.444  0.1187 -0.0654 -0.1433
12134DPPC   C4B15830   8.698   4.654  21.854  0.1422  0.1231  0.0569
12135DPPC   NC315831   9.928   0.045  19.976  0.2003 -0.1806  0.2629
12135DPPC   PO415832   9.657  -0.243  19.872  0.3342  0.2336  0.0790
12135DPPC   GL115833   9.358  -0.397  20.138  0.1951 -0.1695  0.0350
12135DPPC   GL215834   9.250  -0.431  19.892  0.2779  0.0576  0.0711
12135DPPC   C1A15835   9.392  -0.453  20.522 -0.0555 -0.1670  0.4877
12135DPPC   C2A15836   9.239  -0.273  20.830  0.3057 -0.0943  0.2188
12135DPPC   C3A15837   8.933  -0.217  21.196  0.2149 -0.1218 -0.1802
12135DPPC   C4A15838   8.677  -0.314  21.583 -0.1024  0.0435 -0.0257
12135DPPC   C1B15839   8.832  -0.432  19.928 -0.2512  0.3501  0.2918
12135DPPC   C2B15840   8.589  -0.479  20.269  0.0366  0.0540 -0.4232
12135DPPC   C3B15841   8.354  -0.459  20.628 -0.1077  0.3780 -0.0563
12135DPPC   C4B15842   8.065  -0.442  21.057  0.0952  0.3298 -0.0910
12136DPPC   NC315843   8.486   0.104  18.154  0.1356  0.1360  0.2410
12136DPPC   PO415844   8.676  -0.084  18.457  0.0106 -0.3361 -0.0396
12136DPPC   GL115845   8.540  -0.198  18.874  0.4197 -0.1463  0.4242
12136DPPC   GL215846   8.528  -0.466  18.808  0.0799 -0.0712 -0.1525
12136DPPC   C1A15847   8.436  -0.105  19.217  0.1112  0.2772 -0.0200
12136DPPC   C2A15848   8.293   0.050  19.533 -0.2555  0.0223  0.2746
12136DPPC   C3A15849   8.040   0.109  19.939 -0.3119  0.1120  0.1520
12136DPPC   C4A15850   7.769   0.003  20.289 -0.1562  0.1058 -0.1071
12136DPPC   C1B15851   8.364  -0.759  18.958 -0.0335  0.0127  0.0353
12136DPPC   C2B15852   8.228  -0.841  19.354 -0.1486  0.2236  0.1439
12136DPPC   C3B15853   8.021  -0.865  19.802 -0.3907 -0.1460 -0.2521
12136DPPC   C4B15854   7.782  -0.751  20.182  0.0811 -0.0842 -0.1574
12137DPPC   NC315855  10.474   1.296  20.406 -0.0474  0.1709  0.2841
12137DPPC   PO415856  10.357   0.930  20.497  0.0057  0.0312  0.0178
12137DPPC   GL115857  10.118   1.035  20.763 -0.2858 -0.0931  0.3880
12137DPPC   GL215858  10.165   1.375  20.786 -0.3140 -0.2851 -0.0068
12137DPPC   C1A15859   9.825   0.960  20.960  0.2242  0.1332 -0.1233
12137DPPC   C2A15860   9.544   0.955  21.307 -0.1384 -0.1178  0.0193
12137DPPC   C3A15861   9.165   0.951  21.680  0.0210  0.2236 -0.0554
12137DPPC   C4A15862   8.880   0.971  22.115  0.0406 -0.0880 -0.1206
12137DPPC   C1B15863   9.987   1.388  21.067 -0.0290  0.3806  0.2757
12137DPPC   C2B15864   9.924   1.291  21.458  0.1625  0.0254  0.1913
12137DPPC   C3B15865   9.564   1.267  21.784  0.1263 -0.1029 -0.0924
12137DPPC   C4B15866   9.282   1.336  22.216  0.1223  0.1170  0.1106
12138DPPC   NC315867   9.952   0.712  20.397 -0.1662  0.0269 -0.2833
12138DPPC   PO415868  10.078   0.339  20.361 -0.1178  0.0702  0.1024
12138DPPC   GL115869   9.850   0.147  20.722  0.0058 -0.0419  0.0947
12138DPPC   GL215870  10.046   0.055  20.884 -0.1197  0.1358  0.1051
12138DPPC   C1A15871   9.552   0.137  20.918 -0.0910 -0.2000 -0.1820
12138DPPC   C2A15872   9.319   0.053  21.238 -0.1526  0.1212  0.0799
12138DPPC   C3A15873   9.060   0.038  21.669 -0.1067  0.1375  0.1710
12138DPPC   C4A15874   8.752   0.134  21.994  0.0294  0.0232 -0.0498
12138DPPC   C1B15875   9.863  -0.030  21.190  0.1878 -0.0823  0.0184
12138DPPC   C2B15876   9.693  -0.057  21.549  0.1197 -0.0673 -0.0695
12138DPPC   C3B15877   9.468  -0.033  21.941  0.0815  0.1002  0.2178
12138DPPC   C4B15878   9.147   0.030  22.340 -0.0827  0.0444  0.1069
12139DPPC   NC315879   9.880   1.853  20.020  0.1380  0.0277  0.0748
12139DPPC   PO415880   9.849   1.481  19.947  0.0004  0.0362  0.1309
12139DPPC   GL115881   9.481   1.431  20.144  0.2730 -0.2621  0.1889
12139DPPC   GL215882   9.452   1.735  20.171 -0.3928 -0.4714 -0.3883
12139DPPC   C1A15883   9.212   1.204  20.289 -0.0217  0.0876 -0.0106
12139DPPC   C2A15884   8.873   1.201  20.519 -0.0954 -0.1749  0.1340
12139DPPC   C3A15885   8.604   1.205  20.908  0.4003  0.2207 -0.1655
12139DPPC   C4A15886   8.346   1.153  21.317  0.1735 -0.3355  0.0398
12139DPPC   C1B15887   9.228   1.688  20.501 -0.1119 -0.1218  0.1345
12139DPPC   C2B15888   8.951   1.573  20.836 -0.2675 -0.2243 -0.1224
12139DPPC   C3B15889   8.721   1.541  21.294 -0.0993  0.2078 -0.1900
12139DPPC   C4B15890   8.405   1.551  21.649  0.0756  0.0874 -0.2011
12140DPPC   NC315891  12.292   0.917  22.800 -0.0974 -0.0741  0.1680
12140DPPC   PO415892  12.516   1.093  23.028  0.0336  0.2944 -0.2335
12140DPPC   GL115893  12.276   1.398  23.293  0.0446  0.4220  0.0798
12140DPPC   GL215894  12.463   1.220  23.450 -0.0404 -0.2050 -0.1754
12140DPPC   C1A15895  11.936   1.276  23.312  0.2839 -0.2237  0.0829
12140DPPC   C2A15896  11.664   1.306  23.630  0.2266  0.0762 -0.1901
12140DPPC   C3A15897  11.390   1.255  24.015 -0.0568 -0.0181 -0.0467
12140DPPC   C4A15898  11.103   1.223  24.419 -0.0894 -0.0581  0.0546
12140DPPC   C1B15899  12.174   1.230  23.734 -0.1055  0.3460  0.4012
12140DPPC   C2B15900  11.941   1.139  24.051  0.0695 -0.1569 -0.0781
12140DPPC   C3B15901  11.644   1.108  24.482  0.1227 -0.1669 -0.3052
12140DPPC   C4B15902  11.367   1.052  24.910 -0.0045  0.1744 -0.1477
12141DPPC   NC315903   9.988   3.011  20.325  0.2974 -0.1988 -0.4314
12141DPPC   PO415904  10.163   2.879  20.691 -0.1168 -0.1607  0.2018
12141DPPC   GL115905   9.883   2.657  20.888 -0.1136  0.3031 -0.1736
12141DPPC   GL215906  10.046   2.682  21.144  0.1316  0.1472 -0.2516
12141DPPC   C1A15907   9.646   2.392  21.000  0.3349  0.0938  0.1098
12141DPPC   C2A15908   9.447   2.292  21.367  0.0734  0.0373  0.1096
12141DPPC   C3A15909   9.171   2.308  21.728  0.2512  0.0598 -0.0758
12141DPPC   C4A15910   8.880   2.345  22.092  0.0970 -0.3442 -0.0928
12141DPPC   C1B15911   9.795   2.689  21.410 -0.0948 -0.0260 -0.3084
12141DPPC   C2B15912   9.579   2.662  21.732  0.2596 -0.2368 -0.1202
12141DPPC   C3B15913   9.302   2.675  22.133  0.0782  0.0297  0.3579
12141DPPC   C4B15914   8.992   2.628  22.485 -0.0071 -0.2224  0.2557
12142DPPC   NC315915  12.692   0.013  23.903 -0.0921  0.1036 -0.2614
12142DPPC   PO415916  12.976   0.264  24.024 -0.0271 -0.3093 -0.1131
12142DPPC   GL115917  12.754   0.353  24.359 -0.0244 -0.3600  0.1566
12142DPPC   GL215918  12.989   0.288  24.546  0.2147 -0.1446  0.2699
12142DPPC   C1A15919  12.501   0.534  24.556  0.1847 -0.2232 -0.0384
12142DPPC   C2A15920  12.205   0.532  24.801  0.0364  0.0399 -0.0826
12142DPPC   C3A15921  11.944   0.575  25.203 -0.0282 -0.1641 -0.2228
12142DPPC   C4A15922  11.649   0.574  25.626  0.0563  0.1577 -0.0135
12142DPPC   C1B15923  12.828   0.344  24.843 -0.0384  0.0079  0.0689
12142DPPC   C2B15924  12.581   0.419  25.131 -0.2619 -0.4112  0.0851
12142DPPC   C3B15925  12.335   0.476  25.503 -0.0150 -0.3223  0.1899
12142DPPC   C4B15926  12.047   0.506  25.882  0.0264 -0.1479  0.0522
12143DPPC   NC315927   9.137   3.001  18.792  0.1525  0.4353  0.2851
12143DPPC   PO415928   9.116   3.219  19.095  0.0704  0.2973 -0.3107
12143DPPC   GL115929   8.820   3.224  19.370 -0.0110 -0.0523 -0.0529
12143DPPC   GL215930   8.791   2.990  19.507 -0.1102 -0.0987 -0.0982
12143DPPC   C1A15931   8.523   3.420  19.523 -0.1237 -0.0153 -0.3903
12143DPPC   C2A15932   8.311   3.574  19.827 -0.1345 -0.2703  0.3758
12143DPPC   C3A15933   8.047   3.555  20.213 -0.0220  0.2875  0.0187
12143DPPC   C4A15934   7.754   3.547  20.674 -0.1746  0.2145  0.1870
12143DPPC   C1B15935   8.549   3.032  19.753 -0.0062 -0.0941  0.0774
12143DPPC   C2B15936   8.288   3.099  20.111 -0.0691  0.0829  0.2233
12143DPPC   C3B15937   7.960   3.115  20.486 -0.2892 -0.1612  0.1403
12143DPPC   C4B15938   7.748   3.082  20.904  0.0915 -0.3650  0.0888
12144DPPC   NC315939  11.891   5.054  22.469  0.1364 -0.1059  0.0210
12144DPPC   PO415940  11.755   4.682  22.451 -0.1822 -0.0132 -0.0551
12144DPPC   GL115941  11.309   4.685  22.564  0.2027  0.5379  0.2311
12144DPPC   GL215942  11.374   4.391  22.667  0.2513 -0.2957 -0.1122
12144DPPC   C1A15943  11.107   4.832  22.799  0.4010 -0.0014 -0.3988
12144DPPC   C2A15944  10.930   4.855  23.179  0.4063  0.0203  0.3233
12144DPPC   C3A15945  10.642   4.847  23.518 -0.0340 -0.0251  0.1271
12144DPPC   C4A15946  10.450   4.902  23.940  0.1738 -0.3718 -0.2662
12144DPPC   C1B15947  11.214   4.348  23.024 -0.1512  0.0104  0.1271
12144DPPC   C2B15948  10.950   4.361  23.334  0.0781 -0.1799  0.2619
12144DPPC   C3B15949  10.710   4.383  23.762 -0.0387  0.1337 -0.0811
12144DPPC   C4B15950  10.407   4.394  24.101 -0.1084 -0.1515 -0.1420
12145DPPC   NC315951  12.794   5.208  23.368  0.2137 -0.0302  0.1029
12145DPPC   PO415952  13.090   5.008  23.533  0.1582 -0.1661 -0.1502
12145DPPC   GL115953  12.794   4.903  23.868  0.1708  0.3365  0.0615
12145DPPC   GL215954  12.569   4.982  23.769 -0.1723 -0.0527 -0.0659
12145DPPC   C1A15955  12.821   5.069  24.170  0.1793  0.1943 -0.0525
12145DPPC   C2A15956  12.662   4.915  24.575  0.0355  0.0792  0.0231
12145DPPC   C3A15957  12.463   4.974  25.024  0.2491 -0.0950 -0.0146
12145DPPC   C4A15958  12.190   4.899  25.427  0.0012 -0.2814 -0.0289
12145DPPC   C1B15959  12.406   4.949  24.068  0.2355  0.3093 -0.1802
12145DPPC   C2B15960  12.243   5.014  24.442  0.1409  0.0570 -0.0433
12145DPPC   C3B15961  12.028   4.989  24.871 -0.1735 -0.0078  0.0734
12145DPPC   C4B15962  11.733   4.999  25.265 -0.3577  0.3020 -0.2565
12146DPPC   NC315963  10.381   1.431  19.855  0.4372 -0.2488  0.0692
12146DPPC   PO415964  10.325   1.698  20.106  0.0329 -0.1172 -0.2102
12146DPPC   GL115965  10.044   1.702  20.416 -0.0563  0.0040 -0.2108
12146DPPC   GL215966  10.194   1.904  20.551 -0.1046  0.0241 -0.0556
12146DPPC   C1A15967   9.662   1.559  20.526  0.0359 -0.2441  0.0267
12146DPPC   C2A15968   9.518   1.455  20.896  0.2254  0.0537  0.1921
12146DPPC   C3A15969   9.331   1.440  21.321 -0.0348  0.0298  0.1025
12146DPPC   C4A15970   9.113   1.481  21.743  0.1344  0.0515  0.1583
12146DPPC   C1B15971  10.004   1.841  20.901 -0.2649  0.3249  0.4255
12146DPPC   C2B15972   9.722   1.806  21.220  0.1417 -0.0752  0.0608
12146DPPC   C3B15973   9.502   1.755  21.654 -0.1256 -0.1372 -0.3235
12146DPPC   C4B15974   9.182   1.874  21.999  0.2301  0.1084  0.2129
12147DPPC   NC315975  11.857   2.906  21.671  0.3509  0.1876  0.2509
12147DPPC   PO415976  11.543   2.634  21.796  0.0902 -0.0524 -0.1163
12147DPPC   GL115977  11.124   2.567  21.964 -0.1827 -0.0504  0.0873
12147DPPC   GL215978  11.063   2.849  21.986 -0.2626  0.1472 -0.1493
12147DPPC   C1A15979  10.963   2.450  22.224  0.1644 -0.0846 -0.1199
12147DPPC   C2A15980  10.732   2.344  22.523  0.3438 -0.1412 -0.1199
12147DPPC   C3A15981  10.480   2.320  22.909  0.2166  0.3302 -0.1406
12147DPPC   C4A15982  10.140   2.255  23.317 -0.3614 -0.2089 -0.1524
12147DPPC   C1B15983  10.797   2.836  22.328  0.3065  0.0922 -0.0925
12147DPPC   C2B15984  10.570   2.804  22.671 -0.0131  0.0524 -0.0572
12147DPPC   C3B15985  10.257   2.748  22.993 -0.1665  0.2795 -0.3669
12147DPPC   C4B15986   9.942   2.837  23.403  0.1522  0.3339  0.2069
12148DPPC   NC315987  10.776   3.873  21.096  0.3775  0.0997 -0.2372
12148DPPC   PO415988  10.426   3.699  20.999 -0.0046  0.2690  0.0495
12148DPPC   GL115989  10.052   3.721  21.306 -0.0843 -0.1795  0.3054
12148DPPC   GL215990   9.957   3.719  21.050 -0.4349  0.2086  0.2938
12148DPPC   C1A15991   9.808   3.585  21.499 -0.1265  0.1778  0.2595
12148DPPC   C2A15992   9.634   3.466  21.895  0.0369 -0.1066  0.0382
12148DPPC   C3A15993   9.295   3.463  22.230  0.1055  0.2257 -0.3026
12148DPPC   C4A15994   9.110   3.458  22.640  0.2167 -0.0743 -0.1133
12148DPPC   C1B15995   9.593   3.665  21.091 -0.1772  0.2510  0.0703
12148DPPC   C2B15996   9.377   3.576  21.406  0.1608  0.1708 -0.4338
12148DPPC   C3B15997   9.114   3.583  21.808  0.0276  0.0079  0.2071
12148DPPC   C4B15998   8.827   3.576  22.190  0.0836 -0.1544  0.1355
12149DPPC   NC315999   9.238   3.090  19.597  0.1630  0.4535 -0.3201
12149DPPC   PO416000   9.577   3.159  19.824  0.0500 -0.0868  0.0193
12149DPPC   GL116001   9.312   3.014  20.089 -0.3230  0.0059 -0.2219
12149DPPC   GL216002   9.486   3.108  20.367  0.0040 -0.0148 -0.0266
12149DPPC   C1A16003   8.971   2.972  20.220 -0.3106  0.1233 -0.4908
12149DPPC   C2A16004   8.637   2.987  20.512  0.0344 -0.1304 -0.0973
12149DPPC   C3A16005   8.324   2.990  20.864 -0.1176 -0.0723 -0.2194
12149DPPC   C4A16006   8.040   2.902  21.279  0.0288 -0.0332 -0.0826
12149DPPC   C1B16007   9.319   2.930  20.620 -0.0797 -0.1585 -0.1587
12149DPPC   C2B16008   9.016   2.878  20.860  0.0334 -0.1252 -0.0026
12149DPPC   C3B16009   8.641   2.884  21.233  0.1554  0.0268 -0.1367
12149DPPC   C4B16010   8.374   2.891  21.671  0.0019  0.1906 -0.2352
12150DPPC   NC316011  10.887   2.630  20.740  0.2444 -0.1384 -0.1331
12150DPPC   PO416012  11.038   2.555  21.136  0.0844  0.1073 -0.1193
12150DPPC   GL116013  10.819   2.593  21.480  0.0123  0.3869  0.3375
12150DPPC   GL216014  10.891   2.266  21.526  0.3008  0.0580  0.3259
12150DPPC   C1A16015  10.716   2.656  21.842 -0.3662 -0.1098 -0.2486
12150DPPC   C2A16016  10.460   2.442  22.082  0.4045  0.2626  0.0014
12150DPPC   C3A16017  10.241   2.467  22.482  0.1738 -0.0021 -0.0423
12150DPPC   C4A16018   9.918   2.432  22.889 -0.2290  0.0236  0.1034
12150DPPC   C1B16019  10.753   2.142  21.806 -0.0559  0.2735  0.0065
12150DPPC   C2B16020  10.622   1.962  22.167 -0.0804 -0.2537 -0.1131
12150DPPC   C3B16021  10.402   1.930  22.614 -0.0421 -0.0189  0.0022
12150DPPC   C4B16022  10.105   1.934  22.918 -0.2550 -0.1878  0.1459
12151DPPC   NC316023  13.529   0.047  23.661 -0.1498  0.1925 -0.0525
12151DPPC   PO416024  13.300  -0.137  23.958 -0.0039  0.0057  0.2181
12151DPPC   GL116025  12.959  -0.117  24.297 -0.2049  0.1233  0.4795
12151DPPC   GL216026  12.947  -0.376  24.244 -0.1168  0.0469  0.2405
12151DPPC   C1A16027  12.635  -0.058  24.386 -0.1066  0.0681 -0.2214
12151DPPC   C2A16028  12.427   0.089  24.732  0.0244 -0.1993 -0.3719
12151DPPC   C3A16029  12.211   0.070  25.079  0.0754 -0.1111 -0.2120
12151DPPC   C4A16030  12.019   0.137  25.490  0.2161 -0.2517  0.0288
12151DPPC   C1B16031  12.697  -0.462  24.520 -0.3138 -0.3336  0.0752
12151DPPC   C2B16032  12.490  -0.419  24.913  0.2802 -0.1941 -0.1598
12151DPPC   C3B16033  12.273  -0.416  25.324  0.2473 -0.2204 -0.3034
12151DPPC   C4B16034  11.998  -0.421  25.739 -0.1288 -0.0804 -0.2291
12152DPPC   NC316035  12.463   2.148  22.697  0.3113  0.1027  0.0035
12152DPPC   PO416036  12.519   2.419  23.041  0.1611 -0.0885  0.1337
12152DPPC   GL116037  12.113   2.427  23.217  0.0413 -0.0252  0.0382
12152DPPC   GL216038  12.199   2.606  23.379  0.2369 -0.0178 -0.0157
12152DPPC   C1A16039  11.857   2.269  23.384  0.2261 -0.0867 -0.1988
12152DPPC   C2A16040  11.708   2.071  23.729  0.2246 -0.0453 -0.2862
12152DPPC   C3A16041  11.477   2.061  24.145 -0.1026  0.0993  0.1953
12152DPPC   C4A16042  11.149   2.100  24.499  0.0151  0.2077 -0.1829
12152DPPC   C1B16043  12.055   2.557  23.687  0.0393  0.1440 -0.1741
12152DPPC   C2B16044  11.886   2.482  24.068  0.3011  0.0828  0.2215
12152DPPC   C3B16045  11.655   2.433  24.473  0.0307 -0.1325 -0.0510
12152DPPC   C4B16046  11.367   2.475  24.833 -0.1895  0.0050  0.0709
12153DPPC   NC316047   8.624   2.559  18.350 -0.1125 -0.2181  0.3363
12153DPPC   PO416048   8.799   2.592  18.768  0.1040  0.1102  0.2825
12153DPPC   GL116049   8.608   2.542  19.143  0.0199  0.0638  0.0769
12153DPPC   GL216050   8.662   2.897  19.106  0.3207  0.0238 -0.0039
12153DPPC   C1A16051   8.525   2.641  19.454  0.2387  0.0853  0.1729
12153DPPC   C2A16052   8.226   2.662  19.751 -0.0365 -0.0487 -0.3546
12153DPPC   C3A16053   7.901   2.696  20.096  0.0756  0.3474  0.0313
12153DPPC   C4A16054   7.554   2.662  20.447  0.1581 -0.0846 -0.2424
12153DPPC   C1B16055   8.379   3.098  19.259 -0.2695 -0.0461  0.4040
12153DPPC   C2B16056   8.087   3.163  19.548 -0.3827 -0.1041 -0.2704
12153DPPC   C3B16057   7.843   3.167  19.943 -0.0007  0.0151  0.3100
12153DPPC   C4B16058   7.505   3.208  20.346 -0.1893  0.0069  0.1511
12154DPPC   NC316059  13.388   0.316  24.309 -0.0551  0.3537  0.4287
12154DPPC   PO416060  13.500   0.085  24.556 -0.0739 -0.0698  0.0564
12154DPPC   GL116061  13.236   0.103  24.844  0.0617 -0.2441 -0.0922
12154DPPC   GL216062  13.351   0.302  25.038 -0.3701 -0.0169  0.0088
12154DPPC   C1A16063  12.886  -0.090  24.784 -0.0083  0.0699  0.1004
12154DPPC   C2A16064  12.700  -0.091  25.173  0.0788 -0.3510 -0.1845
12154DPPC   C3A16065  12.468  -0.059  25.626 -0.0768 -0.2092  0.0809
12154DPPC   C4A16066  12.161  -0.047  25.946 -0.1666 -0.0351 -0.0595
12154DPPC   C1B16067  13.033   0.274  25.237 -0.2655  0.1504  0.1072
12154DPPC   C2B16068  12.827   0.329  25.608  0.1471  0.1174 -0.3158
12154DPPC   C3B16069  12.508   0.323  25.964  0.0406 -0.0023 -0.1484
12154DPPC   C4B16070  12.203   0.427  26.337 -0.0777 -0.0242  0.0768
12155DPPC   NC316071  12.512   3.966  23.473  0.0221  0.1767  0.1161
12155DPPC   PO416072  12.533   4.221  23.152 -0.0493  0.1858 -0.1146
12155DPPC   GL116073  12.156   4.216  23.213  0.3615  0.1591  0.2756
12155DPPC   GL216074  11.948   3.997  23.101  0.0167  0.5431  0.0107
12155DPPC   C1A16075  11.966   4.280  23.553 -0.2084  0.0460 -0.3405
12155DPPC   C2A16076  11.766   4.221  23.920 -0.1324  0.5024  0.0868
12155DPPC   C3A16077  11.533   4.192  24.322 -0.0676 -0.0565 -0.1993
12155DPPC   C4A16078  11.244   4.197  24.768 -0.2575  0.0893 -0.1617
12155DPPC   C1B16079  11.799   3.748  23.307 -0.0890 -0.0517  0.2147
12155DPPC   C2B16080  11.578   3.787  23.681  0.2138  0.1632 -0.0375
12155DPPC   C3B16081  11.300   3.783  24.079 -0.0202  0.0795 -0.1285
12155DPPC   C4B16082  11.059   3.832  24.482  0.2948 -0.0768 -0.1219
12156DPPC   NC316083   9.593   2.444  19.306  0.3627 -0.3337  0.0733
12156DPPC   PO416084   9.571   2.718  19.606 -0.2100  0.1778 -0.0507
12156DPPC   GL116085   9.269   2.654  19.783  0.2198  0.2941 -0.3771
12156DPPC   GL216086   9.158   2.428  19.680  0.0877  0.0872  0.3761
12156DPPC   C1A16087   8.940   2.774  19.866  0.2630 -0.0420  0.2996
12156DPPC   C2A16088   8.588   2.714  20.064  0.3812  0.0691 -0.0546
12156DPPC   C3A16089   8.276   2.628  20.444  0.0104  0.1197  0.0656
12156DPPC   C4A16090   7.921   2.595  20.754 -0.2940 -0.0289 -0.3231
12156DPPC   C1B16091   8.956   2.357  20.025  0.1609  0.1088 -0.0498
12156DPPC   C2B16092   8.693   2.199  20.273 -0.1213  0.1378 -0.1119
12156DPPC   C3B16093   8.368   2.074  20.554 -0.1984 -0.1159 -0.3560
12156DPPC   C4B16094   8.102   2.125  20.996 -0.1325 -0.1348 -0.0170
12157DPPC   NC316095   9.126   1.046  19.112  0.1865  0.0356 -0.1101
12157DPPC   PO416096   9.090   1.257  19.509  0.2386 -0.2101  0.2847
12157DPPC   GL116097   8.759   1.361  19.677 -0.0964 -0.3662  0.0693
12157DPPC   GL216098   8.757   1.631  19.617 -0.0985  0.0881  0.4882
12157DPPC   C1A16099   8.582   1.281  20.015 -0.0272  0.1604 -0.0752
12157DPPC   C2A16100   8.327   1.249  20.394  0.2535  0.1157  0.2632
12157DPPC   C3A16101   8.069   1.248  20.854 -0.0962  0.1607  0.1079
12157DPPC   C4A16102   7.815   1.276  21.319  0.2277  0.2222 -0.0113
12157DPPC   C1B16103   8.538   1.785  19.851  0.0250 -0.0729 -0.0498
12157DPPC   C2B16104   8.257   1.798  20.195  0.0003 -0.3154  0.0792
12157DPPC   C3B16105   7.929   1.786  20.545 -0.2442  0.0296  0.3962
12157DPPC   C4B16106   7.697   1.732  21.009  0.1549  0.2992 -0.2311
12158DPPC   NC316107  11.463   3.627  22.081  0.2260 -0.0480  0.0527
12158DPPC   PO416108  11.687   3.859  22.270  0.2683  0.0498 -0.0977
12158DPPC   GL116109  11.299   3.887  22.457 -0.3285  0.0992  0.1585
12158DPPC   GL216110  11.222   3.593  22.574  0.2002 -0.1984  0.2800
12158DPPC   C1A16111  11.090   4.068  22.742 -0.1330  0.0209  0.1449
12158DPPC   C2A16112  10.783   3.930  23.018 -0.3895  0.1402  0.3721
12158DPPC   C3A16113  10.522   4.085  23.390  0.0539 -0.0942  0.1081
12158DPPC   C4A16114  10.202   4.092  23.773 -0.0734  0.1359 -0.4007
12158DPPC   C1B16115  11.071   3.517  22.874 -0.4802  0.2762  0.2017
12158DPPC   C2B16116  10.892   3.493  23.238 -0.0011 -0.2361 -0.1120
12158DPPC   C3B16117  10.603   3.556  23.559  0.1343  0.0389  0.0512
12158DPPC   C4B16118  10.320   3.494  23.971 -0.1024  0.3906  0.0855
12159DPPC   NC316119  10.038   6.508  19.199  0.1022 -0.0714 -0.0901
12159DPPC   PO416120   9.817   6.679  19.501 -0.0780 -0.2217  0.1339
12159DPPC   GL116121   9.318   6.614  19.648 -0.0271 -0.0516  0.1808
12159DPPC   GL216122   9.305   6.878  19.562  0.1018  0.0812 -0.1376
12159DPPC   C1A16123   9.106   6.530  19.943  0.1601 -0.2741  0.1410
12159DPPC   C2A16124   8.994   6.430  20.340  0.3816 -0.1377 -0.1979
12159DPPC   C3A16125   8.681   6.508  20.729 -0.0667  0.4118 -0.1103
12159DPPC   C4A16126   8.433   6.464  21.157 -0.0619  0.0883  0.2509
12159DPPC   C1B16127   8.985   6.930  19.623  0.1812 -0.1184  0.0689
12159DPPC   C2B16128   8.617   7.001  19.795  0.2146 -0.0898 -0.2039
12159DPPC   C3B16129   8.329   7.046  20.194 -0.2302  0.0169  0.1999
12159DPPC   C4B16130   8.068   7.055  20.594  0.2047  0.1012  0.1289
12160DPPC   NC316131   9.828   3.783  19.547  0.0541 -0.1012 -0.2902
12160DPPC   PO416132   9.945   3.870  19.962  0.0485  0.0634  0.1175
12160DPPC   GL116133   9.587   4.130  20.079  0.0516 -0.0732 -0.0368
12160DPPC   GL216134   9.432   4.064  19.767 -0.4070  0.0676 -0.0175
12160DPPC   C1A16135   9.296   4.176  20.300  0.0186  0.0922  0.0601
12160DPPC   C2A16136   9.113   4.235  20.699  0.0655  0.1485 -0.0418
12160DPPC   C3A16137   8.839   4.234  21.099 -0.0905 -0.1858  0.0153
12160DPPC   C4A16138   8.581   4.285  21.515 -0.0582 -0.3063 -0.2527
12160DPPC   C1B16139   9.100   3.967  19.932  0.1533  0.0015  0.2638
12160DPPC   C2B16140   8.917   3.865  20.338 -0.0774 -0.3430 -0.2173
12160DPPC   C3B16141   8.703   3.864  20.737  0.0816  0.0483  0.1806
12160DPPC   C4B16142   8.404   3.918  21.136 -0.1716  0.0758  0.2694
12161DPPC   NC316143   9.748   5.999  20.266  0.0116 -0.0845 -0.0119
12161DPPC   PO416144   9.887   5.633  20.149 -0.1807 -0.4675  0.2244
12161DPPC   GL116145   9.624   5.373  20.419  0.3115 -0.1809  0.0024
12161DPPC   GL216146   9.806   5.174  20.395  0.1247  0.0137 -0.1218
12161DPPC   C1A16147   9.495   5.375  20.782 -0.1422  0.1960 -0.2504
12161DPPC   C2A16148   9.323   5.385  21.164 -0.1148 -0.1187 -0.3786
12161DPPC   C3A16149   9.079   5.382  21.543  0.1898  0.2704  0.0769
12161DPPC   C4A16150   8.812   5.340  21.940 -0.3546  0.0212  0.0920
12161DPPC   C1B16151   9.736   4.868  20.653  0.0677 -0.1389  0.0488
12161DPPC   C2B16152   9.626   4.818  21.036  0.1601 -0.0121 -0.0615
12161DPPC   C3B16153   9.330   4.947  21.431  0.1095 -0.1562 -0.3580
12161DPPC   C4B16154   9.091   4.908  21.860  0.0337 -0.2882  0.1973
12162DPPC   NC316155  10.521   4.591  20.238  0.1584  0.0467 -0.0642
12162DPPC   PO416156  10.538   4.822  20.538 -0.0794 -0.0374  0.3518
12162DPPC   GL116157  10.303   4.871  20.946 -0.3691  0.0806 -0.1519
12162DPPC   GL216158  10.128   5.004  20.779 -0.1447 -0.3542 -0.3182
12162DPPC   C1A16159  10.067   4.879  21.246 -0.1625  0.1827 -0.0827
12162DPPC   C2A16160   9.789   4.786  21.598 -0.1327 -0.1339 -0.1385
12162DPPC   C3A16161   9.583   4.819  22.017  0.1493 -0.0973  0.2090
12162DPPC   C4A16162   9.294   4.854  22.402  0.2502  0.0907  0.1677
12162DPPC   C1B16163   9.894   5.182  20.962 -0.0773  0.1666  0.0309
12162DPPC   C2B16164   9.750   5.221  21.378 -0.2186 -0.0126  0.0970
12162DPPC   C3B16165   9.531   5.244  21.774  0.1194  0.0713 -0.2054
12162DPPC   C4B16166   9.256   5.324  22.169  0.1334 -0.1195  0.0608
12163DPPC   NC316167  11.962   0.982  22.066 -0.3074  0.0688  0.3043
12163DPPC   PO416168  12.170   1.140  22.377  0.0809  0.0382 -0.0675
12163DPPC   GL116169  11.775   1.201  22.571 -0.1190 -0.0618 -0.2077
12163DPPC   GL216170  11.739   0.985  22.696  0.1321  0.2736 -0.2014
12163DPPC   C1A16171  11.565   1.419  22.746 -0.2584 -0.0613 -0.0399
12163DPPC   C2A16172  11.409   1.359  23.101  0.0199  0.0894  0.0769
12163DPPC   C3A16173  11.101   1.295  23.489  0.1404  0.1639  0.0868
12163DPPC   C4A16174  10.902   1.305  23.866  0.3925 -0.0111 -0.1019
12163DPPC   C1B16175  11.707   0.957  23.064  0.1198  0.1005  0.1394
12163DPPC   C2B16176  11.423   0.915  23.405 -0.2321 -0.1093  0.1289
12163DPPC   C3B16177  11.105   0.838  23.793 -0.0257 -0.1255  0.3138
12163DPPC   C4B16178  10.760   0.926  24.130 -0.1322 -0.0171 -0.2308
12164DPPC   NC316179   9.014   5.441  19.203  0.1844 -0.0591  0.1692
12164DPPC   PO416180   9.355   5.344  19.380 -0.0633  0.4583  0.0678
12164DPPC   GL116181   9.108   5.194  19.670 -0.1531 -0.2326  0.1401
12164DPPC   GL216182   8.884   5.133  19.544  0.1750  0.3463  0.0082
12164DPPC   C1A16183   8.941   5.449  19.941 -0.0627  0.3136  0.0264
12164DPPC   C2A16184   8.791   5.580  20.295  0.2816  0.0201 -0.0567
12164DPPC   C3A16185   8.516   5.616  20.700  0.2380 -0.1437 -0.0057
12164DPPC   C4A16186   8.193   5.600  21.148 -0.1028 -0.1253 -0.0170
12164DPPC   C1B16187   8.577   5.206  19.758  0.1336 -0.1577 -0.3251
12164DPPC   C2B16188   8.393   5.292  20.143  0.1519  0.0163 -0.2271
12164DPPC   C3B16189   8.177   5.261  20.565  0.1514  0.1059  0.1655
12164DPPC   C4B16190   7.860   5.172  20.877 -0.0095 -0.3153 -0.1434
12165DPPC   NC316191  10.750   6.159  20.961  0.0286 -0.1286 -0.0806
12165DPPC   PO416192  10.726   6.271  21.320 -0.0558  0.0425  0.1418
12165DPPC   GL116193  10.413   6.313  21.557 -0.0148 -0.1881  0.0796
12165DPPC   GL216194  10.493   6.128  21.766 -0.1195  0.0958  0.4391
12165DPPC   C1A16195  10.166   6.458  21.773 -0.1855  0.0743 -0.0037
12165DPPC   C2A16196   9.975   6.537  22.107 -0.2215  0.0421  0.0521
12165DPPC   C3A16197   9.689   6.527  22.516 -0.1778  0.1712  0.3496
12165DPPC   C4A16198   9.397   6.543  22.910 -0.1079 -0.0735 -0.0312
12165DPPC   C1B16199  10.174   6.021  21.999 -0.0878  0.1591 -0.0279
12165DPPC   C2B16200   9.926   6.025  22.347 -0.1710 -0.0614 -0.0940
12165DPPC   C3B16201   9.739   6.057  22.767  0.0861  0.0846  0.3461
12165DPPC   C4B16202   9.471   5.937  23.169 -0.2166 -0.0356 -0.0706
12166DPPC   NC316203  12.775   3.208  23.575  0.2172 -0.0252  0.2022
12166DPPC   PO416204  12.601   3.498  23.359 -0.2151 -0.1778  0.0595
12166DPPC   GL116205  12.196   3.396  23.419 -0.4804 -0.1837  0.0470
12166DPPC   GL216206  12.125   3.638  23.546  0.0170 -0.1424  0.0003
12166DPPC   C1A16207  12.159   3.234  23.743 -0.1600  0.0123 -0.2564
12166DPPC   C2A16208  12.014   3.216  24.125  0.2450 -0.2885  0.0400
12166DPPC   C3A16209  11.725   3.284  24.432  0.1772 -0.0164  0.0795
12166DPPC   C4A16210  11.512   3.365  24.846  0.1872  0.0604 -0.0516
12166DPPC   C1B16211  12.027   3.617  23.885  0.2625 -0.5088 -0.0026
12166DPPC   C2B16212  11.803   3.787  24.189  0.2095 -0.2016 -0.3064
12166DPPC   C3B16213  11.550   3.774  24.597  0.2410 -0.0866  0.1673
12166DPPC   C4B16214  11.236   3.775  24.976 -0.1604  0.0946 -0.1142
12167DPPC   NC316215  11.243   4.433  21.626  0.1591  0.0093  0.0448
12167DPPC   PO416216  11.348   4.105  21.791  0.0654  0.3974  0.3773
12167DPPC   GL116217  11.139   3.953  22.041  0.5759 -0.1904 -0.0006
12167DPPC   GL216218  11.007   3.712  21.949  0.2786  0.0987  0.0120
12167DPPC   C1A16219  10.850   4.057  22.232 -0.3190  0.0640  0.4123
12167DPPC   C2A16220  10.540   4.131  22.498  0.1334  0.3458  0.1026
12167DPPC   C3A16221  10.215   4.145  22.881 -0.0690 -0.1855 -0.0068
12167DPPC   C4A16222   9.959   4.155  23.299  0.1386  0.2473  0.0758
12167DPPC   C1B16223  10.835   3.644  22.266  0.2964  0.0069  0.2431
12167DPPC   C2B16224  10.641   3.617  22.660 -0.1604 -0.2029 -0.2560
12167DPPC   C3B16225  10.391   3.665  23.112 -0.0354 -0.0179  0.3339
12167DPPC   C4B16226  10.116   3.668  23.531  0.0465 -0.0324  0.0168
12168DPPC   NC316227   9.690   0.579  19.464 -0.0270  0.2018  0.0785
12168DPPC   PO416228   9.556   0.547  19.821  0.1211 -0.0069 -0.2750
12168DPPC   GL116229   9.404   0.288  20.006 -0.1087  0.1599 -0.0685
12168DPPC   GL216230   9.661   0.332  20.257 -0.1252  0.1313  0.2322
12168DPPC   C1A16231   9.082   0.296  20.217  0.1050 -0.1663  0.1150
12168DPPC   C2A16232   8.749   0.346  20.508 -0.0100 -0.0468  0.2193
12168DPPC   C3A16233   8.404   0.362  20.883 -0.2920 -0.0416 -0.3868
12168DPPC   C4A16234   8.214   0.297  21.311 -0.0495 -0.2056  0.0003
12168DPPC   C1B16235   9.573   0.506  20.599  0.1600  0.1383 -0.0066
12168DPPC   C2B16236   9.375   0.575  20.982 -0.0337 -0.0730  0.3324
12168DPPC   C3B16237   9.071   0.510  21.367  0.0148  0.1323 -0.0512
12168DPPC   C4B16238   8.841   0.564  21.769  0.0560 -0.2519  0.0870
12169DPPC   NC316239   9.273   3.675  19.013 -0.1187 -0.3467  0.3510
12169DPPC   PO416240   9.437   3.606  19.391  0.0181  0.2859  0.5777
12169DPPC   GL116241   9.211   3.577  19.731 -0.0289  0.0347 -0.1838
12169DPPC   GL216242   9.407   3.593  19.988  0.0657 -0.3106 -0.0698
12169DPPC   C1A16243   8.917   3.389  19.824  0.2515  0.2921  0.2422
12169DPPC   C2A16244   8.666   3.488  20.125  0.0733  0.1887  0.1762
12169DPPC   C3A16245   8.391   3.464  20.555 -0.2231 -0.0882 -0.1753
12169DPPC   C4A16246   8.137   3.416  20.962 -0.2523 -0.0770 -0.1755
12169DPPC   C1B16247   9.228   3.473  20.261  0.2675  0.0951  0.0419
12169DPPC   C2B16248   8.996   3.326  20.528  0.0439  0.0551  0.0167
12169DPPC   C3B16249   8.742   3.271  20.926 -0.0561 -0.2150  0.1597
12169DPPC   C4B16250   8.417   3.326  21.352 -0.0671  0.0058  0.0469
12170DPPC   NC316251  11.273   5.190  21.700  0.0403 -0.1126 -0.0194
12170DPPC   PO416252  11.077   4.925  21.499  0.0186  0.1448  0.0982
12170DPPC   GL116253  10.742   4.680  21.448  0.1466 -0.2135 -0.3027
12170DPPC   GL216254  10.462   4.762  21.348 -0.2619 -0.1210 -0.2588
12170DPPC   C1A16255  10.651   4.571  21.787 -0.3432 -0.3900  0.1369
12170DPPC   C2A16256  10.582   4.611  22.209 -0.0082  0.1094  0.0584
12170DPPC   C3A16257  10.327   4.639  22.602  0.0572 -0.0725 -0.2479
12170DPPC   C4A16258  10.056   4.640  22.995  0.0479 -0.0620  0.0439
12170DPPC   C1B16259  10.309   4.769  21.684 -0.0249  0.2473 -0.1092
12170DPPC   C2B16260  10.149   4.690  22.077 -0.1205  0.2163 -0.1044
12170DPPC   C3B16261   9.817   4.766  22.498  0.0118 -0.1736 -0.2901
12170DPPC   C4B16262   9.490   4.703  22.866  0.3146 -0.0301 -0.2385
12171DPPC   NC316263  12.870   3.615  24.080 -0.3632 -0.2764 -0.0229
12171DPPC   PO416264  13.021   3.958  24.224 -0.0699  0.0608 -0.0690
12171DPPC   GL116265  12.740   4.004  24.490 -0.0245  0.0438 -0.0686
12171DPPC   GL216266  12.466   4.125  24.422 -0.1852 -0.1388 -0.1550
12171DPPC   C1A16267  12.766   4.016  24.868  0.2461 -0.2548  0.0488
12171DPPC   C2A16268  12.722   4.027  25.263  0.1098 -0.0218 -0.1692
12171DPPC   C3A16269  12.411   3.950  25.608  0.0814  0.1627 -0.2145
12171DPPC   C4A16270  12.155   3.961  26.020 -0.2995 -0.3660  0.1215
12171DPPC   C1B16271  12.368   4.048  24.743  0.2257 -0.1807 -0.1822
12171DPPC   C2B16272  12.196   4.058  25.114 -0.2877  0.0943 -0.4299
12171DPPC   C3B16273  11.941   4.014  25.503  0.1616  0.0698  0.2146
12171DPPC   C4B16274  11.680   4.044  25.886 -0.1244  0.2119 -0.2826
12172DPPC   NC316275  12.475   0.746  23.654 -0.2944 -0.2876 -0.1067
12172DPPC   PO416276  12.610   0.407  23.652  0.1811 -0.5029 -0.0097
12172DPPC   GL116277  12.365   0.354  23.832  0.1594 -0.0766 -0.3258
12172DPPC   GL216278  12.234   0.129  23.960  0.1819  0.2233  0.1813
12172DPPC   C1A16279  12.182   0.588  24.065 -0.1075 -0.1278  0.1544
12172DPPC   C2A16280  11.922   0.737  24.318  0.1641 -0.4307  0.0344
12172DPPC   C3A16281  11.701   0.707  24.759 -0.1130  0.0060 -0.0727
12172DPPC   C4A16282  11.376   0.576  25.167 -0.0603 -0.0190 -0.2460
12172DPPC   C1B16283  12.225   0.125  24.318 -0.3319  0.1313  0.0628
12172DPPC   C2B16284  11.962   0.148  24.639 -0.0252  0.2859  0.1114
12172DPPC   C3B16285  11.707   0.199  25.060 -0.1790  0.1984  0.1445
12172DPPC   C4B16286  11.469   0.096  25.449  0.1797  0.0959  0.1140
12173DPPC   NC316287   9.807   3.471  20.283 -0.2381  0.1405  0.1590
12173DPPC   PO416288   9.864   3.472  20.647  0.0531  0.0440  0.0497
12173DPPC   GL116289   9.412   3.379  20.727  0.3502  0.2439  0.3518
12173DPPC   GL216290   9.625   3.133  20.824 -0.0888  0.2074 -0.0551
12173DPPC   C1A16291   9.190   3.273  21.011 -0.1942 -0.0299 -0.0784
12173DPPC   C2A16292   8.974   3.245  21.413 -0.2626 -0.0047  0.0439
12173DPPC   C3A16293   8.698   3.314  21.818  0.1443 -0.2575 -0.0117
12173DPPC   C4A16294   8.438   3.240  22.268 -0.0084  0.1255  0.1024
12173DPPC   C1B16295   9.509   2.878  21.024 -0.0916  0.1680 -0.1320
12173DPPC   C2B16296   9.274   2.752  21.278  0.3101  0.0580  0.0821
12173DPPC   C3B16297   8.973   2.790  21.627 -0.1690 -0.0307 -0.0132
12173DPPC   C4B16298   8.661   2.780  22.079  0.1501  0.1103  0.1898
12174DPPC   NC316299  11.945   2.157  22.353 -0.2123  0.1239  0.5086
12174DPPC   PO416300  11.803   2.559  22.362  0.2245  0.0705  0.0231
12174DPPC   GL116301  11.532   2.703  22.721 -0.1571  0.0588 -0.1727
12174DPPC   GL216302  11.279   2.642  22.544  0.0197  0.3288 -0.3173
12174DPPC   C1A16303  11.416   2.662  23.039  0.0671 -0.1889  0.0088
12174DPPC   C2A16304  11.160   2.685  23.371  0.0772  0.1237 -0.0397
12174DPPC   C3A16305  10.940   2.645  23.746  0.1178  0.0672  0.1082
12174DPPC   C4A16306  10.684   2.640  24.195  0.2360 -0.0801  0.1923
12174DPPC   C1B16307  11.020   2.733  22.796  0.1793  0.0925 -0.4687
12174DPPC   C2B16308  10.786   2.756  23.100  0.1750  0.1310 -0.0038
12174DPPC   C3B16309  10.408   2.674  23.487 -0.1493  0.1546 -0.0337
12174DPPC   C4B16310  10.220   2.704  23.947 -0.3008  0.0020  0.2653
12175DPPC   NC316311  13.023   0.704  23.896  0.1481 -0.1134 -0.0521
12175DPPC   PO416312  13.057   0.722  24.303 -0.1164  0.0237  0.0102
12175DPPC   GL116313  12.789   0.934  24.609 -0.1888 -0.0547  0.1612
12175DPPC   GL216314  12.945   0.712  24.800  0.0637 -0.2650 -0.0508
12175DPPC   C1A16315  12.564   0.874  24.840 -0.0071  0.1554 -0.1166
12175DPPC   C2A16316  12.362   0.870  25.191 -0.0002 -0.0253 -0.2840
12175DPPC   C3A16317  12.053   0.915  25.530  0.2835  0.0330 -0.0420
12175DPPC   C4A16318  11.766   0.975  25.906 -0.0061  0.2319 -0.1859
12175DPPC   C1B16319  12.870   0.723  25.182 -0.0331 -0.2374  0.0829
12175DPPC   C2B16320  12.759   0.807  25.559 -0.1555  0.1026  0.2953
12175DPPC   C3B16321  12.473   0.825  25.905  0.1331  0.0084 -0.0406
12175DPPC   C4B16322  12.106   0.880  26.252 -0.0353  0.4326 -0.2342
12176DPPC   NC316323  12.010   6.397  22.414  0.0662 -0.1716  0.3435
12176DPPC   PO416324  11.971   6.729  22.204  0.0557  0.4159  0.1013
12176DPPC   GL116325  11.699   6.911  22.426  0.2527 -0.1194  0.1032
12176DPPC   GL216326  11.433   6.779  22.250 -0.0871 -0.1684 -0.5065
12176DPPC   C1A16327  11.634   7.013  22.780  0.0266  0.2264 -0.5345
12176DPPC   C2A16328  11.324   7.098  23.054 -0.1444 -0.0228  0.2818
12176DPPC   C3A16329  11.073   7.061  23.436 -0.1478  0.2398  0.3720
12176DPPC   C4A16330  10.758   7.020  23.866 -0.2049 -0.1478 -0.2392
12176DPPC   C1B16331  11.185   6.751  22.436  0.1403  0.0842 -0.5577
12176DPPC   C2B16332  11.089   6.654  22.774  0.1114 -0.3042  0.0999
12176DPPC   C3B16333  10.818   6.627  23.174 -0.0456  0.0147 -0.0154
12176DPPC   C4B16334  10.487   6.660  23.556 -0.1072  0.1788 -0.0307
12177DPPC   NC316335  11.312   0.879  20.744 -0.0290  0.6008 -0.1203
12177DPPC   PO416336  11.075   0.933  21.099 -0.2865 -0.4433 -0.0979
12177DPPC   GL116337  10.686   0.961  21.341  0.0579  0.1236 -0.0999
12177DPPC   GL216338  10.852   0.936  21.599 -0.2941 -0.3852  0.2011
12177DPPC   C1A16339  10.458   0.742  21.441 -0.2448  0.0118 -0.1690
12177DPPC   C2A16340  10.270   0.680  21.815 -0.1987 -0.1664  0.0891
12177DPPC   C3A16341   9.959   0.696  22.199 -0.2107  0.0392 -0.0588
12177DPPC   C4A16342   9.833   0.702  22.615 -0.0367  0.1575 -0.0096
12177DPPC   C1B16343  10.699   0.993  21.885 -0.1028  0.2731  0.0781
12177DPPC   C2B16344  10.452   1.052  22.168  0.2701 -0.3020 -0.2009
12177DPPC   C3B16345  10.177   1.037  22.598  0.0340  0.1833  0.0702
12177DPPC   C4B16346   9.913   1.143  22.989  0.0031 -0.1275 -0.1843
12178DPPC   NC316347  10.365   2.671  20.097 -0.0586  0.0984  0.1685
12178DPPC   PO416348  10.027   2.441  20.126  0.1783 -0.0311  0.2292
12178DPPC   GL116349   9.738   2.631  20.394 -0.4496 -0.3831 -0.0659
12178DPPC   GL216350   9.606   2.686  20.086  0.0652 -0.1861  0.2453
12178DPPC   C1A16351   9.484   2.468  20.629 -0.1932 -0.3321  0.4171
12178DPPC   C2A16352   9.203   2.421  20.912 -0.1630 -0.0943 -0.1617
12178DPPC   C3A16353   8.859   2.429  21.275 -0.1734 -0.2124 -0.2834
12178DPPC   C4A16354   8.542   2.408  21.694 -0.1444 -0.1589 -0.1630
12178DPPC   C1B16355   9.294   2.588  20.210  0.0090  0.0297 -0.1302
12178DPPC   C2B16356   8.984   2.584  20.484 -0.1307 -0.0116 -0.2564
12178DPPC   C3B16357   8.598   2.517  20.786  0.1802 -0.0413 -0.1531
12178DPPC   C4B16358   8.292   2.518  21.192 -0.1981  0.2580 -0.1056
12179DPPC   NC316359  12.928   2.218  23.362 -0.1746 -0.0821  0.2435
12179DPPC   PO416360  12.925   2.384  23.738 -0.0835 -0.0958  0.1531
12179DPPC   GL116361  12.635   2.522  23.893 -0.2411  0.0977  0.0984
12179DPPC   GL216362  12.651   2.295  24.149  0.2060 -0.1383  0.0254
12179DPPC   C1A16363  12.456   2.727  24.128  0.0585 -0.0467  0.0130
12179DPPC   C2A16364  12.094   2.793  24.352 -0.3430  0.0396  0.0988
12179DPPC   C3A16365  11.828   2.879  24.737  0.0008 -0.0996  0.2136
12179DPPC   C4A16366  11.523   2.886  25.117 -0.0223 -0.1704 -0.0666
12179DPPC   C1B16367  12.413   2.326  24.445  0.2967  0.0302 -0.3724
12179DPPC   C2B16368  12.104   2.344  24.690  0.3398  0.0342 -0.0870
12179DPPC   C3B16369  11.815   2.434  25.004  0.3579  0.0709 -0.1038
12179DPPC   C4B16370  11.512   2.411  25.380 -0.0788 -0.1465  0.0867
12180DPPC   NC316371  10.920   0.112  21.221  0.0032  0.4483  0.1729
12180DPPC   PO416372  10.990   0.482  21.307  0.0234 -0.2672 -0.4243
12180DPPC   GL116373  10.827   0.202  21.669  0.1395 -0.2058  0.4838
12180DPPC   GL216374  10.712   0.446  21.721 -0.3467  0.1284 -0.0264
12180DPPC   C1A16375  10.736  -0.083  21.892 -0.0879  0.3313  0.1285
12180DPPC   C2A16376  10.507  -0.208  22.189  0.0221 -0.0615 -0.2670
12180DPPC   C3A16377  10.165  -0.194  22.558 -0.2043  0.4979 -0.0459
12180DPPC   C4A16378   9.914  -0.180  22.948 -0.1144 -0.0537 -0.0945
12180DPPC   C1B16379  10.724   0.615  22.035  0.1677  0.0425 -0.2486
12180DPPC   C2B16380  10.498   0.616  22.413  0.0988  0.1989 -0.0098
12180DPPC   C3B16381  10.261   0.615  22.832 -0.0753 -0.0123  0.0316
12180DPPC   C4B16382  10.000   0.643  23.258  0.0307 -0.0122  0.0292
12181DPPC   NC316383  11.857   5.871  21.626  0.2706  0.1046  0.2150
12181DPPC   PO416384  11.537   6.105  21.689  0.0222 -0.0444  0.1899
12181DPPC   GL116385  11.385   5.973  22.161  0.0513 -0.3762  0.4815
12181DPPC   GL216386  11.119   6.082  22.048  0.0465  0.0405  0.0895
12181DPPC   C1A16387  11.298   5.785  22.399 -0.0980 -0.0686 -0.5441
12181DPPC   C2A16388  10.985   5.766  22.638  0.0679  0.1554  0.1426
12181DPPC   C3A16389  10.661   5.844  22.997  0.2328 -0.2565  0.0174
12181DPPC   C4A16390  10.413   5.784  23.395 -0.2156  0.2121  0.2762
12181DPPC   C1B16391  10.801   5.951  22.113  0.4977  0.1720 -0.2101
12181DPPC   C2B16392  10.557   5.964  22.451 -0.0729  0.1399 -0.2829
12181DPPC   C3B16393  10.222   5.969  22.796  0.3350 -0.1685 -0.1879
12181DPPC   C4B16394   9.970   5.944  23.225  0.1478  0.0947  0.0749
12182DPPC   NC316395   8.809   2.127  19.006  0.0085 -0.3309 -0.2991
12182DPPC   PO416396   9.149   2.204  19.253  0.1786  0.1127  0.3583
12182DPPC   GL116397   8.790   2.070  19.504 -0.1942 -0.1393 -0.4086
12182DPPC   GL216398   8.981   2.028  19.753  0.4552  0.2860 -0.2345
12182DPPC   C1A16399   8.494   2.249  19.726 -0.1418  0.0327 -0.2519
12182DPPC   C2A16400   8.242   2.255  20.021 -0.1752  0.1655  0.1485
12182DPPC   C3A16401   7.933   2.255  20.416 -0.0729 -0.1317  0.2069
12182DPPC   C4A16402   7.649   2.164  20.795  0.2643  0.3077 -0.0984
12182DPPC   C1B16403   8.977   1.877  20.067  0.2187 -0.0792 -0.3580
12182DPPC   C2B16404   8.686   1.686  20.388 -0.0648 -0.0094 -0.0710
12182DPPC   C3B16405   8.400   1.607  20.770 -0.1016  0.1975 -0.1466
12182DPPC   C4B16406   8.204   1.630  21.154 -0.1440 -0.1216  0.2793
12183DPPC   NC316407  11.217   4.077  20.903  0.0866 -0.0852  0.3349
12183DPPC   PO416408  11.177   3.998  21.299 -0.0119 -0.1473  0.1178
12183DPPC   GL116409  10.876   4.050  21.640  0.2685  0.1203  0.0481
12183DPPC   GL216410  10.798   3.800  21.528  0.1495  0.3321 -0.0206
12183DPPC   C1A16411  10.601   4.137  21.863 -0.0513 -0.2313 -0.3643
12183DPPC   C2A16412  10.247   4.225  22.043  0.0797  0.0630 -0.1027
12183DPPC   C3A16413  10.006   4.287  22.447  0.0496 -0.0265  0.0476
12183DPPC   C4A16414   9.731   4.287  22.846 -0.0244  0.2815 -0.1615
12183DPPC   C1B16415  10.603   3.684  21.801  0.0558 -0.2725 -0.2097
12183DPPC   C2B16416  10.409   3.779  22.176  0.0816  0.1695  0.1086
12183DPPC   C3B16417  10.173   3.783  22.568 -0.0222  0.0359 -0.0244
12183DPPC   C4B16418   9.944   3.732  22.983  0.1103 -0.0570 -0.1368
12184DPPC   NC316419  11.358   3.627  21.602 -0.1361  0.2353  0.0818
12184DPPC   PO416420  11.065   3.464  21.363 -0.1919 -0.0211 -0.0819
12184DPPC   GL116421  10.678   3.372  21.396  0.1401 -0.0139 -0.1206
12184DPPC   GL216422  10.744   3.058  21.425  0.4100 -0.0749  0.0164
12184DPPC   C1A16423  10.359   3.498  21.495  0.3647  0.4846  0.0170
12184DPPC   C2A16424  10.184   3.399  21.867  0.1068  0.0264 -0.0902
12184DPPC   C3A16425  10.000   3.387  22.289  0.2833  0.1138 -0.1998
12184DPPC   C4A16426   9.719   3.388  22.663 -0.0155  0.2781  0.1405
12184DPPC   C1B16427  10.450   2.974  21.618 -0.0856 -0.2636 -0.1280
12184DPPC   C2B16428  10.307   2.913  22.011  0.3524  0.2020 -0.1936
12184DPPC   C3B16429  10.102   2.933  22.486 -0.0259  0.0556 -0.2223
12184DPPC   C4B16430   9.794   2.919  22.869 -0.0473  0.1824  0.2314
12185DPPC   NC316431  10.243   5.934  20.014 -0.0325  0.1077 -0.2314
12185DPPC   PO416432  10.147   6.259  20.198  0.4508 -0.1340 -0.0403
12185DPPC   GL116433   9.863   6.360  20.583  0.3746 -0.2212 -0.0642
12185DPPC   GL216434   9.700   6.457  20.330  0.2045 -0.0213  0.1363
12185DPPC   C1A16435   9.758   6.241  20.982 -0.2213 -0.3669  0.0832
12185DPPC   C2A16436   9.482   6.150  21.272  0.0352  0.3786  0.0146
12185DPPC   C3A16437   9.218   6.173  21.624 -0.0045 -0.2836  0.1150
12185DPPC   C4A16438   8.954   6.257  22.045 -0.1462 -0.2281  0.0432
12185DPPC   C1B16439   9.411   6.574  20.455 -0.2051  0.0865 -0.0880
12185DPPC   C2B16440   9.185   6.842  20.658 -0.0110 -0.0333  0.3976
12185DPPC   C3B16441   8.883   6.859  21.060 -0.0661  0.1766  0.0454
12185DPPC   C4B16442   8.628   6.778  21.499  0.0068  0.1041 -0.3028
12186DPPC   NC316443  12.744   0.681  22.851  0.0571 -0.0676  0.0870
12186DPPC   PO416444  12.458   0.607  23.136  0.1979  0.1591 -0.0282
12186DPPC   GL116445  12.010   0.667  23.069 -0.0418 -0.2661 -0.1922
12186DPPC   GL216446  12.136   0.886  23.255 -0.0541 -0.4004  0.0936
12186DPPC   C1A16447  11.774   0.383  23.202 -0.2288 -0.2762  0.2197
12186DPPC   C2A16448  11.554   0.414  23.517 -0.1389 -0.1043 -0.2821
12186DPPC   C3A16449  11.292   0.350  23.942 -0.0313  0.0396  0.1715
12186DPPC   C4A16450  11.032   0.347  24.343 -0.1397 -0.0726  0.0832
12186DPPC   C1B16451  11.890   0.854  23.485 -0.2841  0.0119 -0.0115
12186DPPC   C2B16452  11.697   0.754  23.840  0.0303  0.0318  0.0313
12186DPPC   C3B16453  11.336   0.788  24.210 -0.0985  0.2863 -0.0576
12186DPPC   C4B16454  11.079   0.782  24.613  0.0405 -0.2620 -0.1614
12187DPPC   NC316455  11.454   4.280  22.245  0.0169 -0.5644 -0.1694
12187DPPC   PO416456  11.457   4.601  22.045  0.0450 -0.0250 -0.1102
12187DPPC   GL116457  11.103   4.771  21.917 -0.0000  0.0018  0.0338
12187DPPC   GL216458  10.990   4.466  22.009 -0.2909 -0.1741  0.1613
12187DPPC   C1A16459  10.980   4.866  22.208 -0.1590 -0.1982 -0.3192
12187DPPC   C2A16460  10.717   5.023  22.481  0.5032  0.0521  0.0273
12187DPPC   C3A16461  10.507   5.030  22.893 -0.1419  0.0056  0.1788
12187DPPC   C4A16462  10.234   5.013  23.311 -0.0501 -0.0973 -0.3300
12187DPPC   C1B16463  10.997   4.425  22.383 -0.2011 -0.1693 -0.2627
12187DPPC   C2B16464  10.809   4.468  22.775  0.0101 -0.1744  0.1551
12187DPPC   C3B16465  10.536   4.548  23.160 -0.0565  0.2336  0.0391
12187DPPC   C4B16466  10.143   4.522  23.514 -0.0108  0.1519 -0.3175
12188DPPC   NC316467  12.397   5.192  23.073  0.0023 -0.0047 -0.0238
12188DPPC   PO416468  12.335   5.068  22.680  0.0515 -0.0830  0.1083
12188DPPC   GL116469  12.033   4.830  22.871 -0.2042 -0.2760 -0.0777
12188DPPC   GL216470  12.105   4.701  23.079 -0.0086  0.0104 -0.0978
12188DPPC   C1A16471  11.714   4.875  22.974  0.1879  0.0270  0.0096
12188DPPC   C2A16472  11.415   4.753  23.278  0.1174 -0.0071 -0.1221
12188DPPC   C3A16473  11.174   4.765  23.665 -0.0450 -0.0981  0.1424
12188DPPC   C4A16474  10.957   4.730  24.068  0.0104  0.1668  0.0908
12188DPPC   C1B16475  11.957   4.746  23.424  0.3067 -0.2295 -0.0916
12188DPPC   C2B16476  11.710   4.714  23.741 -0.1330  0.1803 -0.0479
12188DPPC   C3B16477  11.445   4.740  24.151 -0.2254 -0.0517  0.2750
12188DPPC   C4B16478  11.157   4.664  24.563 -0.4134 -0.0881  0.4816
12189DPPC   NC316479  12.343   3.393  22.075  0.0010 -0.2911 -0.1723
12189DPPC   PO416480  12.004   3.459  22.343  0.0265  0.2909 -0.1821
12189DPPC   GL116481  11.606   3.428  22.456  0.0948  0.0505 -0.1879
12189DPPC   GL216482  11.626   3.604  22.678  0.0026  0.0182  0.2014
12189DPPC   C1A16483  11.480   3.163  22.714  0.2092  0.0947 -0.3454
12189DPPC   C2A16484  11.180   3.094  23.027 -0.0486  0.2508  0.1538
12189DPPC   C3A16485  10.854   3.074  23.450 -0.0748  0.1526  0.2012
12189DPPC   C4A16486  10.586   3.036  23.835  0.0389 -0.0939  0.2037
12189DPPC   C1B16487  11.502   3.483  22.985  0.2006 -0.0918  0.0253
12189DPPC   C2B16488  11.343   3.462  23.410 -0.1881 -0.1243  0.1686
12189DPPC   C3B16489  11.037   3.404  23.787 -0.0812 -0.3474 -0.6253
12189DPPC   C4B16490  10.774   3.423  24.168  0.0141 -0.0156 -0.1645
12190DPPC   NC316491  12.486   5.977  22.997  0.0532 -0.2001  0.2278
12190DPPC   PO416492  12.690   5.642  23.061  0.3085 -0.2822 -0.1495
12190DPPC   GL116493  12.419   5.614  23.365  0.1181  0.1126 -0.0900
12190DPPC   GL216494  12.449   5.886  23.461 -0.0014  0.1179  0.2658
12190DPPC   C1A16495  12.095   5.584  23.532  0.2227 -0.0842 -0.0681
12190DPPC   C2A16496  11.867   5.585  23.830 -0.0805  0.1725  0.2319
12190DPPC   C3A16497  11.648   5.574  24.214 -0.0062  0.0332 -0.4257
12190DPPC   C4A16498  11.400   5.556  24.600  0.1780  0.0971  0.1585
12190DPPC   C1B16499  12.269   5.909  23.781 -0.3426 -0.0114  0.0201
12190DPPC   C2B16500  12.104   5.950  24.149  0.1643 -0.0057  0.1334
12190DPPC   C3B16501  11.873   5.914  24.564  0.1816 -0.1245  0.0930
12190DPPC   C4B16502  11.633   5.966  24.938  0.5681  0.0120  0.1504
12191DPPC   NC316503  11.315   1.392  21.040  0.0170  0.0105 -0.0011
12191DPPC   PO416504  11.374   1.605  21.373 -0.0730  0.2240  0.4121
12191DPPC   GL116505  10.998   1.658  21.589 -0.1180  0.0551  0.1127
12191DPPC   GL216506  10.956   1.386  21.754  0.1671  0.2675  0.1474
12191DPPC   C1A16507  10.696   1.818  21.532 -0.0971 -0.0761  0.0774
12191DPPC   C2A16508  10.342   1.977  21.761  0.0159  0.0928  0.2146
12191DPPC   C3A16509  10.063   2.030  22.164  0.0720  0.0052 -0.1486
12191DPPC   C4A16510   9.748   2.030  22.582 -0.1189 -0.1638 -0.1431
12191DPPC   C1B16511  10.653   1.480  21.940 -0.1570  0.0768  0.1896
12191DPPC   C2B16512  10.357   1.578  22.209 -0.3543 -0.0933  0.4485
12191DPPC   C3B16513   9.992   1.553  22.562 -0.1700 -0.1795 -0.0325
12191DPPC   C4B16514   9.755   1.589  22.946  0.4110  0.0027 -0.1649
12192DPPC   NC316515  12.031   3.829  22.647 -0.1678  0.0193 -0.0373
12192DPPC   PO416516  12.189   4.172  22.700  0.0736  0.0448 -0.0514
12192DPPC   GL116517  11.849   4.410  22.802  0.3102  0.1427 -0.7556
12192DPPC   GL216518  11.753   4.169  22.688  0.4340 -0.0258  0.1288
12192DPPC   C1A16519  11.735   4.397  23.155 -0.1880  0.3020 -0.1368
12192DPPC   C2A16520  11.461   4.296  23.451  0.2164  0.1379 -0.0507
12192DPPC   C3A16521  11.282   4.296  23.864  0.1211  0.0494 -0.1332
12192DPPC   C4A16522  10.942   4.240  24.242 -0.4917 -0.2440  0.0623
12192DPPC   C1B16523  11.489   4.024  22.926 -0.1137 -0.0215  0.0246
12192DPPC   C2B16524  11.237   3.913  23.208  0.2737  0.1135  0.2832
12192DPPC   C3B16525  10.957   3.940  23.581 -0.1218  0.0485 -0.2559
12192DPPC   C4B16526  10.654   3.939  23.941  0.2785 -0.1011  0.1979
12193DPPC   NC316527  11.615   6.561  21.832 -0.1015  0.1678 -0.0894
12193DPPC   PO416528  11.653   6.346  22.127  0.2108 -0.0417  0.1063
12193DPPC   GL116529  11.490   6.333  22.494  0.2183 -0.0524 -0.1241
12193DPPC   GL216530  11.622   6.502  22.640 -0.0830 -0.0689  0.0755
12193DPPC   C1A16531  11.229   6.174  22.629 -0.0654  0.0021 -0.3103
12193DPPC   C2A16532  11.113   6.214  22.992  0.0312  0.0219  0.2328
12193DPPC   C3A16533  10.906   6.172  23.375 -0.1807 -0.1283 -0.0803
12193DPPC   C4A16534  10.576   6.156  23.719 -0.2427 -0.0579  0.0734
12193DPPC   C1B16535  11.505   6.476  22.965 -0.1200 -0.1450 -0.3570
12193DPPC   C2B16536  11.322   6.607  23.360 -0.2777 -0.0654 -0.0416
12193DPPC   C3B16537  10.998   6.582  23.672 -0.0694 -0.3275 -0.0218
12193DPPC   C4B16538  10.735   6.554  24.058 -0.1144 -0.2937  0.0336
12194DPPC   NC316539  11.709   5.959  22.530  0.0182 -0.0199  0.2696
12194DPPC   PO416540  12.079   5.970  22.650  0.0992  0.3326 -0.0756
12194DPPC   GL116541  11.937   5.844  22.979 -0.2426  0.3136 -0.1394
12194DPPC   GL216542  12.058   5.720  23.114 -0.0740 -0.2974  0.0307
12194DPPC   C1A16543  11.610   5.981  23.030  0.2998  0.1861  0.0870
12194DPPC   C2A16544  11.414   6.132  23.369 -0.2373 -0.1927  0.1042
12194DPPC   C3A16545  11.231   6.134  23.833 -0.1738  0.0671  0.2324
12194DPPC   C4A16546  10.908   6.064  24.077 -0.3159  0.0173 -0.1769
12194DPPC   C1B16547  11.783   5.660  23.304  0.1096 -0.1363  0.1216
12194DPPC   C2B16548  11.490   5.654  23.556  0.0265 -0.0661 -0.1486
12194DPPC   C3B16549  11.255   5.570  23.964  0.2408  0.0738 -0.0278
12194DPPC   C4B16550  10.994   5.632  24.370 -0.0515  0.3324  0.2208
12195DPPC   NC316551  13.363   6.018  24.186  0.1134  0.3351  0.1208
12195DPPC   PO416552  13.539   5.685  24.015  0.1968  0.0938 -0.3419
12195DPPC   GL116553  13.150   5.619  24.013  0.1613 -0.3929 -0.3470
12195DPPC   GL216554  13.181   5.340  24.185 -0.1883 -0.0980  0.1065
12195DPPC   C1A16555  12.946   5.689  24.332 -0.1284  0.1934 -0.0165
12195DPPC   C2A16556  12.874   5.693  24.768 -0.1111 -0.1282 -0.0413
12195DPPC   C3A16557  12.590   5.730  25.120 -0.0891  0.0788 -0.1961
12195DPPC   C4A16558  12.458   5.739  25.525  0.0750 -0.2380  0.1931
12195DPPC   C1B16559  13.014   5.304  24.524 -0.0584 -0.2423 -0.0326
12195DPPC   C2B16560  12.913   5.203  24.932 -0.3480  0.3261  0.0175
12195DPPC   C3B16561  12.711   5.297  25.339  0.1516 -0.0572 -0.0807
12195DPPC   C4B16562  12.432   5.300  25.749 -0.2167  0.3157 -0.1205
12196DPPC   NC316563  12.545   4.700  22.935  0.3370  0.0329  0.0329
12196DPPC   PO416564  12.575   4.789  23.295 -0.1054  0.0128 -0.0145
12196DPPC   GL116565  12.349   4.725  23.530 -0.2222  0.1122  0.0746
12196DPPC   GL216566  12.360   4.489  23.607 -0.1774  0.1261  0.3233
12196DPPC   C1A16567  12.122   4.976  23.712  0.1311  0.1053 -0.2529
12196DPPC   C2A16568  11.948   5.107  24.043  0.2178 -0.0482  0.2049
12196DPPC   C3A16569  11.713   5.095  24.446 -0.0472 -0.2521  0.0878
12196DPPC   C4A16570  11.501   5.065  24.855  0.3881 -0.2790 -0.1344
12196DPPC   C1B16571  12.151   4.547  23.871  0.5621  0.2482 -0.4070
12196DPPC   C2B16572  11.946   4.583  24.228  0.2101 -0.2464 -0.2981
12196DPPC   C3B16573  11.605   4.597  24.602 -0.2933 -0.1766 -0.0857
12196DPPC   C4B16574  11.423   4.624  25.052  0.0935 -0.1220  0.0376
12197DPPC   NC316575  12.288   3.685  23.030  0.0632 -0.0450 -0.2301
12197DPPC   PO416576  12.026   3.431  22.858 -0.2668  0.1785 -0.0088
12197DPPC   GL116577  11.843   3.279  23.202 -0.0838 -0.1727  0.3730
12197DPPC   GL216578  11.705   3.103  23.045  0.1855 -0.1261  0.0842
12197DPPC   C1A16579  11.781   3.360  23.577  0.3924 -0.1026  0.1496
12197DPPC   C2A16580  11.530   3.327  23.943 -0.2276  0.0598 -0.0664
12197DPPC   C3A16581  11.225   3.362  24.319 -0.0101  0.0581 -0.0689
12197DPPC   C4A16582  10.965   3.390  24.762 -0.4111 -0.0503 -0.0889
12197DPPC   C1B16583  11.496   3.050  23.313  0.1655 -0.0884 -0.2597
12197DPPC   C2B16584  11.329   2.981  23.657  0.1031 -0.1065  0.2180
12197DPPC   C3B16585  11.082   2.974  24.066 -0.1003  0.0675 -0.2151
12197DPPC   C4B16586  10.796   3.027  24.474  0.0432  0.0715 -0.0633
12198DPPC   NC316587  10.984   5.367  21.094 -0.0346  0.2606 -0.3518
12198DPPC   PO416588  10.765   5.664  21.200  0.0001  0.0286  0.2165
12198DPPC   GL116589  10.498   5.675  21.526 -0.0686  0.0790  0.1099
12198DPPC   GL216590  10.351   5.926  21.356 -0.0094 -0.1033 -0.0838
12198DPPC   C1A16591  10.452   5.539  21.884  0.0566 -0.1696 -0.1389
12198DPPC   C2A16592  10.241   5.591  22.218  0.1497 -0.0735 -0.1316
12198DPPC   C3A16593   9.952   5.576  22.639  0.2431 -0.0408 -0.0568
12198DPPC   C4A16594   9.624   5.530  23.048 -0.0015  0.1002  0.1289
12198DPPC   C1B16595  10.016   6.115  21.496  0.0157  0.1680  0.0622
12198DPPC   C2B16596   9.767   6.133  21.793 -0.1300  0.1041 -0.4166
12198DPPC   C3B16597   9.454   6.120  22.166  0.1595  0.1840 -0.1349
12198DPPC   C4B16598   9.291   6.115  22.602  0.1887  0.1995 -0.4936
12199W        W16599  10.119   2.309  11.580 -0.2823  0.0877 -0.0194
12200W        W16600  14.155   1.117  45.133  0.0453 -0.1136 -0.1378
12201W        W16601   5.881   2.694  29.029 -0.0425 -0.3070  0.2331
12202W        W16602  18.726   5.752  44.510 -0.1656 -0.0012 -0.1711
12203W        W16603   5.213   5.300   7.325 -0.0829 -0.1867 -0.0630
12204W        W16604   6.142   1.452  40.925 -0.1999  0.0436 -0.4683
12205W        W16605  11.771   3.507   8.398 -0.2184  0.2152 -0.0654
12206W        W16606  14.347   5.029  11.461 -0.0800  0.1570  0.0877
12207W        W16607  15.007   5.858   0.785  0.0068  0.1320  0.1612
12208W        W16608   4.278   2.060  28.335 -0.1624  0.2841  0.2501
12209W        W16609  14.888   0.042  13.209 -0.0795 -0.4486 -0.1843
12210W        W16610   4.040   5.626  41.644 -0.0943 -0.2307  0.2516
12211W        W16611  13.756   0.534  22.205  0.0143  0.2228 -0.0826
12212W        W16612  20.987   4.621  12.953 -0.2200  0.0482  0.3237
12213W        W16613  13.457   5.537  35.850  0.1721 -0.4301 -0.1222
12214W        W16614   2.995   2.656  32.803 -0.2676 -0.1742 -0.1525
12215W        W16615   2.903   5.926  11.420  0.0480  0.1749  0.0416
12216W        W16616   4.315   5.058  41.018  0.2340 -0.2883  0.2492
12217W        W16617   7.229   6.355  24.761 -0.1340  0.0834  0.0063
12218W        W16618  13.426   3.177  36.738  0.0432  0.1951 -0.0356
12219W        W16619   0.910   2.085  35.229  0.0543 -0.0204 -0.1201
12220W        W16620  15.169   5.766   1.789  0.0765 -0.0081 -0.4668
12221W        W16621  19.482   3.548  43.389 -0.1846 -0.0698 -0.3803
12222W        W16622   1.547   1.635  37.051  0.2047  0.0009  0.0728
12223W        W16623  18.900   4.733  17.515  0.3184  0.0766  0.1445
12224W        W16624   1.381   2.767  44.707 -0.1340  0.0328  0.1099
12225W        W16625  13.952   4.688  43.670  0.0449 -0.1077  0.0322
12226W        W16626  15.222   4.069  35.932  0.0204 -0.0098  0.0975
12227W        W16627   0.881   4.533   4.906 -0.0593  0.0009  0.0730
12228W        W16628   7.564   3.150  38.298 -0.1558 -0.0862  0.1844
12229W        W16629  11.115   2.116  13.819 -0.1324 -0.0120  0.1895
12230W        W16630   8.540   3.089   0.915 -0.0620  0.0101  0.1825
12231W        W16631  13.525   4.590  10.249 -0.1015  0.2732  0.0523
12232W        W16632   8.282   0.526  40.580 -0.1235  0.1686 -0.0749
12233W        W16633   1.837   6.127  32.791 -0.1434  0.1832  0.1003
12234W        W16634   4.592   1.108   7.052  0.3697  0.0737  0.0598
12235W        W16635   8.854   2.449   2.972 -0.0966  0.3116 -0.1037
12236W        W16636  21.050   1.638   9.650 -0.3512 -0.1296  0.3830
12237W        W16637  20.595   1.091  13.137 -0.1778 -0.1494  0.2222
12238W        W16638   0.656   5.294  13.089 -0.0029  0.1309 -0.4269
12239W        W16639   2.698   3.547   0.411  0.2867  0.1146 -0.1789
12240W        W16640   3.431   2.844  10.266 -0.2332 -0.3812 -0.1227
12241W        W16641  15.467   0.061  39.196  0.0422 -0.2364  0.1084
12242W        W16642   3.092   2.626  40.171 -0.1596  0.1178  0.4552
12243W        W16643  12.468   1.661   3.829  0.0603 -0.0174 -0.0209
12244W        W16644   5.072   0.911  40.461 -0.1752  0.0388 -0.0849
12245W        W16645  20.512   4.274  34.191 -0.0894  0.0633 -0.1500
12246W        W16646   6.749   3.028  27.938 -0.0069 -0.0887  0.1474
12247W        W16647   2.573   5.674   7.367 -0.2076 -0.1400  0.2349
12248W        W16648   0.922   4.072  15.649 -0.4339  0.1655 -0.0813
12249W        W16649  15.578   6.446  39.990 -0.0690  0.0807 -0.1915
12250W        W16650   6.738   3.265   7.904  0.0373 -0.0523 -0.1153
12251W        W16651   7.405   4.213  42.984  0.1415  0.2022  0.1447
12252W        W16652   5.974   5.235   7.997 -0.0993 -0.1997  0.0987
12253W        W16653  19.202   1.115  33.691  0.0752 -0.3709 -0.0275
12254W        W16654  19.403   0.113   1.135  0.0378  0.1035 -0.0795
12255W        W16655  16.282   0.171  32.790 -0.1496 -0.2032  0.2365
12256W        W16656   4.302   1.264  42.880 -0.2745 -0.3385 -0.1256
12257W        W16657  14.526   2.228  32.676  0.0023 -0.2834  0.0745
12258W        W16658  19.003   1.993  17.661  0.4101 -0.1285 -0.0092
12259W        W16659  20.596   2.248  31.876 -0.2508 -0.2492 -0.3133
12260W        W16660  18.436   1.098   1.161  0.3495  0.0835  0.0469
12261W        W16661  14.187   3.472  15.203 -0.1673  0.3385 -0.0908
12262W        W16662   2.973   6.000  44.997  0.2981  0.0599  0.0579
12263W        W16663   2.776   0.300   0.622  0.1570 -0.2986 -0.1985
12264W        W16664  13.644   1.821   2.611 -0.3402 -0.0809 -0.0194
12265W        W16665   6.540   3.383  44.949  0.1923  0.0381 -0.0040
12266W        W16666   1.713   6.556  25.091 -0.3486 -0.1814  0.1817
12267W        W16667  12.308   5.940   0.028 -0.0025 -0.0408 -0.0279
12268W        W16668  18.519   1.548   8.130 -0.1030  0.0774 -0.1459
12269W        W16669  11.805   5.282  12.399 -0.2456  0.1539  0.2854
12270W        W16670  18.989   3.144  13.364 -0.1751  0.0662  0.0130
12271W        W16671   4.038   1.656   9.091  0.3970  0.2107 -0.1363
12272W        W16672   7.207   1.944   7.939 -0.3564  0.1654 -0.0113
12273W        W16673  12.714   5.377  15.589  0.0513 -0.2402 -0.0451
12274W        W16674  15.085   3.781   1.323  0.1418 -0.0292 -0.4219
12275W        W16675  20.566   4.383  41.199  0.1500 -0.3682 -0.1485
12276W        W16676  14.135   6.593   4.773  0.1097 -0.3272  0.0656
12277W        W16677  14.007   1.801   3.427  0.0427  0.0396  0.1557
12278W        W16678  10.044   1.286  31.112  0.3973 -0.0500  0.1151
12279W        W16679  11.858   1.189   7.071 -0.2039 -0.1193  0.1866
12280W        W16680  12.272   4.208   6.635  0.1054 -0.2487  0.0098
12281W        W16681   0.025   3.311  40.020  0.0037 -0.1628  0.1716
12282W        W16682  12.843   0.967   1.638  0.1915 -0.0635  0.0059
12283W        W16683   3.006   6.295   1.872 -0.1010  0.0273 -0.0501
12284W        W16684  10.508   2.359  14.986  0.0039  0.2439  0.0055
12285W        W16685   2.533   2.474   6.471 -0.1951 -0.0103 -0.0523
12286W        W16686   1.400   0.150  15.358  0.3867  0.1334 -0.1237
12287W        W16687   2.500   1.838  24.432  0.0791  0.1277 -0.0488
12288W        W16688   5.964   3.399   8.081  0.0297 -0.0202 -0.0993
12289W        W16689   8.912   4.271  41.499 -0.0710  0.2751 -0.0317
12290W        W16690   7.128   4.935  15.237  0.1426  0.0354  0.1537
12291W        W16691   4.509   5.204  23.934 -0.1547 -0.0560  0.1832
12292W        W16692  20.347   1.121   0.773  0.2330  0.0618  0.0205
12293W        W16693  10.818   3.821   3.811 -0.0231 -0.2276  0.1432
12294W        W16694   2.566   1.712   0.230 -0.1658  0.1226  0.1724
12295W        W16695  15.534   5.095   3.115  0.0632 -0.0408  0.0641
12296W        W16696   5.939   1.330  39.462  0.0471  0.5066  0.1178
12297W        W16697  12.722   1.528  32.032 -0.0062 -0.0674 -0.0073
12298W        W16698  19.973   3.178  36.164  0.2755  0.0342  0.0399
12299W        W16699  17.405   3.929   8.211 -0.1340 -0.0826 -0.1243
12300W        W16700   9.163   4.162  44.316  0.0330  0.0989  0.1804
12301W        W16701  14.504   2.040  10.008  0.0224  0.0188 -0.2258
12302W        W16702  20.928   1.954  40.867  0.1728  0.0981  0.0193
12303W        W16703   9.757   2.212  39.063  0.1079  0.2115  0.1975
12304W        W16704  19.978   0.107  43.580  0.0687 -0.2818 -0.0761
12305W        W16705   4.416   5.594  39.740  0.0778  0.1937 -0.2693
12306W        W16706   1.418   0.500  27.112 -0.2828 -0.0842  0.0211
12307W        W16707   7.913   2.936  35.881 -0.2131 -0.2304 -0.0797
12308W        W16708   5.631   5.831   2.482  0.2994 -0.0560 -0.1583
12309W        W16709   3.589   5.136  39.458  0.1195  0.1279  0.2783
12310W        W16710  13.247   3.677   8.675 -0.0691  0.1478  0.0676
12311W        W16711  20.752   1.273  38.282  0.0499  0.0151  0.0653
12312W        W16712  15.533   5.172  33.872  0.0362  0.0252  0.1230
12313W        W16713   1.888   1.862  36.119  0.1368 -0.1497  0.0398
12314W        W16714  16.825   0.697  36.511  0.0954  0.2492 -0.0099
12315W        W16715  15.085   4.594   7.570 -0.1848 -0.3295  0.2391
12316W        W16716  16.860   1.060  43.456 -0.1031  0.3479 -0.3175
12317W        W16717  16.592   5.221   3.154  0.0535  0.2120 -0.0561
12318W        W16718  19.002   3.318   4.171 -0.1567 -0.2056 -0.0458
12319W        W16719  12.278   6.319  12.540  0.1029  0.3713 -0.1200
12320W        W16720  12.413   1.337  31.694 -0.1229  0.0497 -0.0895
12321W        W16721  11.620   5.039  17.250  0.0299 -0.0208 -0.2015
12322W        W16722  12.386   0.203  19.282 -0.0534 -0.1087  0.1400
12323W        W16723  12.466   4.561  39.684  0.2253  0.2341  0.0367
12324W        W16724  10.217   2.646  32.004  0.0294  0.3618  0.0275
12325W        W16725  13.360   3.535  22.049  0.0138 -0.0152 -0.2262
12326W        W16726   0.407   4.494  35.287 -0.1215  0.1520  0.1208
12327W        W16727  13.148   6.361   8.972 -0.3032  0.3252  0.2911
12328W        W16728  18.559   5.801  19.426  0.0837 -0.0412  0.0505
12329W        W16729   7.802   0.694  13.945 -0.2632  0.2596 -0.1247
12330W        W16730  14.791   1.079  23.007  0.0921 -0.0508  0.1694
12331W        W16731   7.455   6.607   2.025 -0.0955 -0.4520 -0.0109
12332W        W16732   9.125   1.440   1.590  0.0136 -0.0846  0.2655
12333W        W16733  11.290   3.829   4.010  0.0014 -0.1919  0.2450
12334W        W16734   2.531   3.545   4.117 -0.1589  0.2243 -0.1724
12335W        W16735  19.084   4.313  32.664  0.0843 -0.0142 -0.2304
12336W        W16736  10.764   3.960  19.490  0.2816 -0.2722  0.1058
12337W        W16737   3.897   2.173  30.376 -0.2062 -0.2635 -0.4269
12338W        W16738   6.559   3.254  34.829  0.0141 -0.1105 -0.2634
12339W        W16739  10.640   3.381   7.645 -0.3051 -0.4203  0.1347
12340W        W16740  15.635   2.481   1.918  0.1076 -0.2371  0.1707
12341W        W16741   3.268   0.511   6.099  0.0727 -0.3125  0.0836
12342W        W16742  16.787   3.775   3.912  0.0655  0.0238  0.1211
12343W        W16743  10.530   3.191  36.553 -0.1980 -0.1600 -0.1321
12344W        W16744  15.516   6.452  18.110  0.0041 -0.5087 -0.0131
12345W        W16745  16.953   0.343   5.930 -0.3356  0.0304  0.3646
12346W        W16746  18.280   1.420  10.015  0.2783 -0.0166 -0.2022
12347W        W16747   4.659   0.640  43.524  0.4400 -0.2794 -0.2894
12348W        W16748   4.712   5.489   1.868 -0.0644 -0.0101  0.0947
12349W        W16749   5.611   4.880   6.470 -0.1689 -0.2230  0.0005
12350W        W16750  11.718   3.756   4.278  0.0614  0.2374 -0.3550
12351W        W16751   9.976   2.139  30.087 -0.1778  0.0589  0.2825
12352W        W16752   3.669   5.083   5.740  0.2006  0.0146  0.1895
12353W        W16753  11.518   0.265  20.729 -0.3405 -0.1147  0.2533
12354W        W16754  11.430   2.465   7.015 -0.2960  0.1187  0.2593
12355W        W16755   1.846   3.053  41.574 -0.0894  0.1002 -0.0055
12356W        W16756  15.931   1.030  17.159 -0.0126  0.1182 -0.1002
12357W        W16757  10.601   5.506   6.578 -0.1940 -0.5105  0.3172
12358W        W16758  20.902   0.050  14.903  0.0729  0.0136  0.2381
12359W        W16759   2.056   0.886   5.704 -0.0017  0.2392 -0.2634
12360W        W16760  13.962   2.923  12.018  0.0186  0.1689  0.1865
12361W        W16761   3.121   2.605   5.438  0.0049  0.0945 -0.0275
12362W        W16762   0.368   1.635  36.087  0.1087 -0.0254  0.3067
12363W        W16763   9.126   1.529  19.907  0.3088  0.0781 -0.0422
12364W        W16764   7.150   3.250  36.914 -0.1478 -0.1282  0.0499
12365W        W16765  18.381   1.589  38.673  0.2115 -0.1178  0.3209
12366W        W16766  17.005   3.428  39.409 -0.2299 -0.3889  0.1559
12367W        W16767  15.356   2.890  10.667  0.5023  0.0025  0.0565
12368W        W16768  18.667   1.144   6.422  0.1332  0.5215  0.0054
12369W        W16769  20.447   4.765  33.450 -0.0884 -0.0320  0.0223
12370W        W16770  13.809   5.988  44.231 -0.3576 -0.2976 -0.0187
12371W        W16771   3.172   5.143  43.975 -0.0439  0.1507  0.3116
12372W        W16772  14.546   4.567  11.647 -0.1713  0.0105 -0.3043
12373W        W16773   4.295   1.926   7.861 -0.1963 -0.0345  0.0919
12374W        W16774  17.287   6.069  19.098 -0.0221  0.0575  0.0046
12375W        W16775  20.552   5.553  38.864  0.3113 -0.3905 -0.0780
12376W        W16776   1.224   0.718  43.293  0.1665  0.0291  0.1042
12377W        W16777  19.123   6.316  38.094  0.2891 -0.2099 -0.0571
12378W        W16778   1.592   6.497  35.808  0.3253  0.0122 -0.1529
12379W        W16779   5.055   0.881  12.717 -0.1963 -0.0939  0.1254
12380W        W16780  13.529   3.606  42.347  0.0789  0.0299  0.0702
12381W        W16781  19.788   1.499  38.482  0.3563  0.1064  0.1671
12382W        W16782   2.180   5.621  12.231  0.1383 -0.3172  0.0824
12383W        W16783   9.358   5.976   6.419  0.0338  0.2129 -0.3765
12384W        W16784  11.797   0.670  37.952  0.3894 -0.0372  0.2907
12385W        W16785  16.396   1.675   8.575  0.1350 -0.3118  0.0668
12386W        W16786  20.780   4.373  36.954  0.1711 -0.2533 -0.1329
12387W        W16787  16.856   2.800  37.003  0.1053  0.3217 -0.1584
12388W        W16788   1.389   4.505  29.427 -0.0112 -0.0928  0.0558
12389W        W16789  19.487   1.554   4.459  0.3513  0.1050  0.0048
12390W        W16790  14.322   5.999  29.190 -0.0747  0.1917 -0.1299
12391W        W16791   7.798   2.008   6.476 -0.0163  0.0435  0.0801
12392W        W16792  19.452   4.171  44.362  0.1584  0.1588 -0.1316
12393W        W16793   8.421   1.586  32.924 -0.2830  0.0281 -0.3551
12394W        W16794  11.936   6.097  31.920 -0.1479  0.0224  0.1796
12395W        W16795   5.530   3.902  16.389 -0.0108 -0.0426  0.2675
12396W        W16796  12.739   6.554  15.627  0.0955 -0.0852  0.0190
12397W        W16797   7.192   6.412   1.154 -0.4544  0.1175  0.3674
12398W        W16798  12.687   1.936   3.345  0.0997  0.1095  0.0676
12399W        W16799   7.622   5.547  15.295 -0.0582  0.0419  0.1203
12400W        W16800   6.917   3.612  34.444 -0.3598 -0.0096  0.0927
12401W        W16801  14.991   5.382   1.532 -0.2132 -0.0186  0.1247
12402W        W16802  14.197   2.177   8.922 -0.2124 -0.0536 -0.3490
12403W        W16803  20.911   2.165  30.065  0.0986 -0.1636  0.0958
12404W        W16804   7.512   1.959  38.898  0.1320 -0.0171 -0.1095
12405W        W16805   3.358   0.168  44.787 -0.0637  0.1160  0.1875
12406W        W16806   8.662   5.264   3.506 -0.1181  0.0249  0.2440
12407W        W16807  18.348   6.395  36.547 -0.6759  0.2216  0.0509
12408W        W16808  18.652   0.757   5.033 -0.0558  0.2450 -0.5261
12409W        W16809   5.472   5.513  27.786  0.0711  0.0543  0.1617
12410W        W16810  14.534   4.733   6.927  0.1173 -0.0612 -0.1425
12411W        W16811   1.558   4.943   2.417 -0.1110  0.0618  0.1449
12412W        W16812   8.091   3.404  42.833 -0.1471  0.3328 -0.2610
12413W        W16813  15.650   3.456  29.440  0.0667  0.2470 -0.0290
12414W        W16814   5.270   5.620  31.099  0.0680 -0.0383  0.2695
12415W        W16815   9.626   6.161   1.375  0.0696  0.0900 -0.0529
12416W        W16816  13.686   1.430   6.492 -0.3962  0.2515 -0.2863
12417W        W16817   7.032   0.551  32.811  0.0629 -0.2014  0.2579
12418W        W16818  15.213   6.482  32.814 -0.0532 -0.2511  0.2437
12419W        W16819   7.627   2.274   4.522 -0.1820  0.0592  0.2772
12420W        W16820  17.225   5.528  32.144 -0.0142 -0.0400  0.1222
12421W        W16821   2.352   4.777  43.788 -0.0780 -0.0138  0.3306
12422W        W16822  17.241   5.231  45.105 -0.2863  0.2579 -0.2356
12423W        W16823  14.423   1.581  44.879  0.1344 -0.0848 -0.0302
12424W        W16824  18.482   5.785  31.513 -0.0058 -0.0674 -0.2589
12425W        W16825  10.251   1.931  14.885  0.0541 -0.3681 -0.1229
12426W        W16826  17.509   0.062  19.754 -0.0139 -0.1480  0.1418
12427W        W16827   2.461   3.708  15.175  0.2767 -0.1335 -0.0909
12428W        W16828  19.271   0.184  38.051 -0.0923 -0.2450 -0.1036
12429W        W16829  10.009   2.714  33.298  0.0158  0.1052 -0.0488
12430W        W16830   6.700   3.525   3.338  0.2855 -0.0586  0.1339
12431W        W16831   8.816   4.507   6.045  0.1985 -0.0005 -0.2733
12432W        W16832  12.603   1.251   2.006 -0.0492  0.4509 -0.1214
12433W        W16833  15.000   5.423  18.865  0.1972  0.1786 -0.1854
12434W        W16834   6.906   4.074  43.220  0.0202  0.0958 -0.0057
12435W        W16835  19.246   5.302   8.741 -0.0788  0.0218 -0.1825
12436W        W16836  11.072   5.042  13.874 -0.0792 -0.0044 -0.0042
12437W        W16837   7.421   1.472  11.960 -0.1025  0.1374  0.3385
12438W        W16838   3.695   0.003   6.123 -0.0024  0.1610  0.2189
12439W        W16839  14.151   3.375  22.107 -0.0608 -0.0951 -0.3216
12440W        W16840   0.720   2.161  12.438 -0.0636 -0.0191 -0.0816
12441W        W16841   4.002   5.889  42.693  0.2185 -0.1229 -0.1306
12442W        W16842   0.491   3.818  25.593  0.2554  0.1796 -0.0839
12443W        W16843  10.977   3.560   4.249  0.0755  0.4879  0.2620
12444W        W16844  20.718   5.732  16.434 -0.0235 -0.2674 -0.0238
12445W        W16845  13.794   2.619  34.873  0.3203 -0.1232 -0.2290
12446W        W16846  14.840   1.322  32.335  0.0851  0.1734  0.0768
12447W        W16847   4.418   4.341  24.797 -0.1029 -0.1036 -0.2412
12448W        W16848  15.797   6.529  37.262  0.1676 -0.1422 -0.3726
12449W        W16849   0.976   0.383   9.776 -0.0594 -0.0036  0.1041
12450W        W16850  14.791   1.623  32.685  0.0734 -0.2264  0.1134
12451W        W16851   6.751   3.573   0.223  0.0610  0.1189  0.1026
12452W        W16852   1.972   1.107   7.427  0.3387 -0.0974 -0.1764
12453W        W16853  11.926   1.679  41.920 -0.1902 -0.0536  0.0118
12454W        W16854   7.142   0.094  14.159  0.1436 -0.1396 -0.2068
12455W        W16855  11.363   0.406   3.021  0.1274 -0.0495  0.1842
12456W        W16856   5.971   2.131   0.211  0.3045  0.0188  0.0042
12457W        W16857   1.635   4.617  35.864 -0.1986 -0.2333 -0.3025
12458W        W16858  16.982   0.362  33.435 -0.0544  0.1142 -0.2095
12459W        W16859  20.133   3.677  14.047  0.1002  0.2334 -0.1413
12460W        W16860  19.331   5.748  17.753 -0.1144 -0.0602 -0.0498
12461W        W16861  10.092   4.682  35.040  0.0395 -0.2775  0.1054
12462W        W16862  19.538   5.877  45.072 -0.3446  0.0431 -0.3079
12463W        W16863  11.499   1.723  43.699 -0.2248  0.3259 -0.0654
12464W        W16864  12.333   5.025  44.946  0.0972  0.2537  0.0155
12465W        W16865   1.731   4.906   4.406  0.0129 -0.0056  0.3448
12466W        W16866   3.513   3.780  10.494  0.2683  0.0066 -0.0725
12467W        W16867  11.291   3.663  16.781  0.0776 -0.1065  0.1624
12468W        W16868  14.063   0.486  13.884  0.0841  0.1096  0.0332
12469W        W16869  16.547   2.370  16.266 -0.2607  0.0341  0.3202
12470W        W16870   3.234   4.153  29.450  0.0377  0.2193  0.3825
12471W        W16871   7.729   5.608  36.080 -0.1118  0.0254 -0.0992
12472W        W16872  15.754   6.466   7.325  0.1871  0.0567  0.2200
12473W        W16873   7.540   1.134  26.798  0.2226  0.1560 -0.0820
12474W        W16874  16.290   0.536  43.591  0.0507 -0.2309  0.0837
12475W        W16875  18.903   4.864  35.195  0.2136 -0.0367 -0.0251
12476W        W16876   8.989   5.166  44.473  0.0675  0.0423 -0.4294
12477W        W16877   5.447   5.780  42.718  0.1052 -0.0485  0.0661
12478W        W16878  17.959   6.584  11.593  0.0960 -0.1269  0.2879
12479W        W16879  17.871   2.322  14.764 -0.0211 -0.0658 -0.4658
12480W        W16880  19.003   1.309  36.198 -0.0621 -0.0828 -0.0027
12481W        W16881   2.126   2.874  37.219  0.2081 -0.0089 -0.1343
12482W        W16882  15.578   4.400   3.396  0.3490  0.0670  0.0634
12483W        W16883  15.774   2.435  18.403  0.1475 -0.1310  0.1487
12484W        W16884  14.518   0.770   9.105  0.3093  0.0536  0.3575
12485W        W16885   9.554   3.473  36.609 -0.0275 -0.0337  0.1307
12486W        W16886  17.575   2.873  35.657 -0.1333 -0.4092  0.0519
12487W        W16887   8.390   3.537  31.029  0.0716 -0.1053  0.1177
12488W        W16888  12.917   5.375  12.378  0.1674  0.1919  0.1040
12489W        W16889  14.596   0.953  36.301 -0.2004 -0.1136  0.0736
12490W        W16890  19.166   1.730   5.871  0.2122  0.0448 -0.1069
12491W        W16891  11.352   3.590   8.714  0.2214 -0.0492 -0.0024
12492W        W16892   2.674   3.267  33.788  0.1645  0.0500 -0.2312
12493W        W16893  17.807   3.634  43.659  0.2627 -0.4782 -0.1329
12494W        W16894  16.477   1.884   3.464  0.1987 -0.2249 -0.1132
12495W        W16895  12.080   6.060  44.117 -0.0363  0.0011 -0.3149
12496W        W16896  15.656   0.485  40.323 -0.1486 -0.1950  0.0199
12497W        W16897  17.509   4.890   9.327 -0.3622  0.1224 -0.0208
12498W        W16898  15.800   2.958   5.765  0.2509  0.0663  0.0662
12499W        W16899  14.258   4.844  44.481 -0.1507  0.0898 -0.1870
12500W        W16900  19.680   0.701  38.846  0.1828 -0.2819 -0.0045
12501W        W16901   1.600   4.210  36.257  0.1880  0.0755 -0.3089
12502W        W16902  11.803   2.508  42.405 -0.1299  0.0437 -0.1651
12503W        W16903  17.633   1.378  32.645  0.0385  0.0730 -0.1394
12504W        W16904  11.528   5.367   2.267  0.0930 -0.2770 -0.0120
12505W        W16905  14.635   5.227  18.349  0.0310  0.2526 -0.0475
12506W        W16906   5.265   2.975   2.125 -0.2192 -0.1586 -0.1682
12507W        W16907   9.048   0.207   5.479 -0.0176  0.0892  0.3197
12508W        W16908  18.318   4.909  43.511  0.2615  0.0723 -0.1336
12509W        W16909   9.464   0.165  42.873  0.1028 -0.0791 -0.0579
12510W        W16910   6.065   6.307  36.252 -0.0075 -0.0391  0.0958
12511W        W16911  12.408   6.484   9.410 -0.0390 -0.1719  0.0717
12512W        W16912  20.760   0.310  44.067  0.1140 -0.2344 -0.1666
12513W        W16913  21.042   2.362  36.024 -0.1812  0.1365 -0.3191
12514W        W16914   4.527   0.666  38.233 -0.1113  0.2329 -0.1975
12515W        W16915   3.092   0.640   7.035 -0.1307 -0.0059  0.1395
12516W        W16916  15.979   4.075  36.671 -0.1932  0.1065  0.0746
12517W        W16917  20.500   1.296   5.393  0.1808  0.1996 -0.1236
12518W        W16918  10.411   4.758   8.245  0.0017  0.0814  0.2377
12519W        W16919  19.007   0.197  33.947 -0.0708 -0.0909 -0.0452
12520W        W16920  18.842   6.189   9.713  0.2098  0.2903  0.1177
12521W        W16921   6.086   2.107  29.747  0.4072  0.1319 -0.1810
12522W        W16922  17.670   6.246  12.999 -0.0008  0.0834 -0.0023
12523W        W16923  14.769   1.527  28.900  0.0558 -0.0861 -0.2479
12524W        W16924  14.480   1.770  31.895 -0.3074  0.0386 -0.2923
12525W        W16925   7.865   5.653  32.857  0.2024  0.0835  0.3084
12526W        W16926  14.851   2.906  44.006 -0.0144 -0.0812 -0.1283
12527W        W16927  14.961   5.654  33.504 -0.3217 -0.1326  0.1119
12528W        W16928   7.761   6.043  12.089  0.0856  0.0491 -0.1049
12529W        W16929  19.010   1.039   5.016  0.0481  0.0267  0.1461
12530W        W16930  15.867   5.552  10.145  0.1764 -0.2744  0.0050
12531W        W16931  19.951   0.276  16.326  0.1415  0.0269  0.1808
12532W        W16932  13.989   1.336  14.463  0.0147  0.0587  0.0048
12533W        W16933   0.895   2.000  12.010  0.0355  0.0414  0.0228
12534W        W16934  10.546   0.657  39.340 -0.2550  0.0955 -0.2762
12535W        W16935  12.235   5.069   9.613 -0.1627  0.2397  0.0462
12536W        W16936   9.797   0.477  10.313  0.2398  0.2912  0.0163
12537W        W16937  12.784   4.686   8.356 -0.0839  0.1858  0.3242
12538W        W16938   2.287   3.449  12.652 -0.0085 -0.0194  0.1823
12539W        W16939   0.606   5.815   3.576  0.2142 -0.1238  0.2689
12540W        W16940  12.450   0.867  34.427  0.1271 -0.2069 -0.1711
12541W        W16941   3.822   4.566  13.512 -0.0980  0.1351  0.3810
12542W        W16942   8.603   1.209  12.757  0.2244 -0.1737 -0.3149
12543W        W16943   8.422   1.012  17.066 -0.0957 -0.3440 -0.1082
12544W        W16944   3.351   5.641  13.610 -0.0372 -0.1669  0.1617
12545W        W16945  14.471   6.535  35.794  0.2236  0.0155 -0.0536
12546W        W16946  12.819   2.830  44.176  0.2142  0.0731 -0.1596
12547W        W16947  12.465   2.657  31.919  0.0460  0.2332 -0.1320
12548W        W16948   7.371   2.426  35.258 -0.3912  0.0664  0.1554
12549W        W16949  14.581   3.690   9.758  0.0385  0.1258 -0.1921
12550W        W16950  17.172   5.660   2.347  0.1208  0.2747 -0.1123
12551W        W16951  17.246   0.364  14.343 -0.0208  0.2849 -0.1039
12552W        W16952   6.905   0.672  10.159 -0.3338 -0.0501 -0.1003
12553W        W16953   5.164   1.867   4.043  0.4150  0.2679  0.1648
12554W        W16954   5.729   4.085   9.197  0.0940 -0.0754 -0.1115
12555W        W16955  20.573   2.771  15.162  0.0339  0.0334  0.0962
12556W        W16956  17.212   4.758  16.482 -0.1452 -0.2158  0.3114
12557W        W16957  13.196   0.965   2.741  0.2083 -0.1949  0.0230
12558W        W16958  18.627   4.206   3.731  0.0529  0.3257  0.1095
12559W        W16959   0.818   6.325   5.575 -0.0748  0.0135  0.0107
12560W        W16960   4.448   3.177   4.369 -0.4836 -0.0660 -0.0683
12561W        W16961   0.588   5.774  35.815  0.5270 -0.1512  0.0510
12562W        W16962  10.711   3.700  40.440  0.1088 -0.1935 -0.2583
12563W        W16963  10.320   3.373   2.646 -0.0019 -0.0924  0.0685
12564W        W16964   5.311   3.748  34.067  0.0576 -0.1824  0.2884
12565W        W16965  16.897   5.723  42.785 -0.1581  0.0334  0.0988
12566W        W16966   8.704   0.622  38.125  0.1238 -0.0059 -0.0133
12567W        W16967   4.718   2.860  20.920  0.0064  0.1372  0.1942
12568W        W16968  10.955   6.280  42.657 -0.1003  0.4905  0.0738
12569W        W16969   8.914   3.110  25.679 -0.1772 -0.0633 -0.1309
12570W        W16970  11.696   3.424  11.775  0.1306  0.3845 -0.1674
12571W        W16971  15.423   1.852   0.066  0.0594  0.0947  0.0655
12572W        W16972  20.349   4.163   7.051  0.0635 -0.2126 -0.1725
12573W        W16973  10.227   4.646  41.954  0.1998  0.2406 -0.2255
12574W        W16974   2.640   4.314  11.642  0.0282 -0.0396  0.1787
12575W        W16975   0.360   3.885  40.712  0.1210 -0.2457  0.1512
12576W        W16976  19.752   2.381   1.018  0.2187  0.3607 -0.1588
12577W        W16977  20.423   4.599  15.329  0.0510 -0.0820  0.2694
12578W        W16978   8.532   3.595  34.055 -0.0638 -0.3291 -0.2458
12579W        W16979   1.473   2.613   3.502  0.0544  0.0127 -0.1812
12580W        W16980   5.101   3.326  32.260 -0.0063 -0.4647  0.1674
12581W        W16981  16.732   1.310  29.122 -0.0261 -0.3473 -0.0957
12582W        W16982   0.784   0.340   7.303  0.0581  0.1516  0.2262
12583W        W16983  12.949   5.765  12.107  0.0228 -0.0037 -0.2383
12584W        W16984  16.641   4.759  33.038 -0.1671  0.0070 -0.0989
12585W        W16985  10.180   4.819  17.195 -0.1902 -0.0327 -0.0507
12586W        W16986   8.203   2.784  38.050 -0.0536  0.2451  0.2607
12587W        W16987   1.293   6.101  41.447 -0.0477  0.2476 -0.2314
12588W        W16988   3.130   3.816  22.952  0.1944  0.1307  0.3050
12589W        W16989   9.443   5.109  10.738 -0.1990 -0.0592  0.0688
12590W        W16990  13.260   1.122   5.663  0.3872  0.1031 -0.0901
12591W        W16991   9.182   0.142  13.382 -0.2358  0.0311  0.1059
12592W        W16992   6.217   2.891   6.368  0.2457  0.0115  0.1630
12593W        W16993  10.275   1.994  16.224  0.1887 -0.4678  0.0504
12594W        W16994   8.728   3.899  26.246 -0.2194  0.2672 -0.0013
12595W        W16995   0.578   3.806   5.756 -0.0422  0.3697  0.0031
12596W        W16996   0.320   4.413  27.795  0.1840  0.2907 -0.0403
12597W        W16997  16.411   0.616  44.402  0.0283  0.0587 -0.1990
12598W        W16998   1.091   3.975  28.066  0.0947 -0.1832  0.1107
12599W        W16999  20.827   2.394   4.681 -0.0607 -0.0192 -0.0628
12600W        W17000   1.932   1.532  40.362  0.2380 -0.0141 -0.0693
12601W        W17001   4.565   3.471  26.132 -0.1154  0.2086  0.0214
12602W        W17002   4.949   5.618  21.756  0.1438  0.2159  0.1761
12603W        W17003   6.890   5.975   9.244  0.0773  0.0402  0.1100
12604W        W17004   1.358   2.497  29.039 -0.2217  0.0569 -0.0719
12605W        W17005  18.391   0.252  34.827  0.1523 -0.2131 -0.3164
12606W        W17006   0.701   6.344   4.347 -0.0956  0.2019 -0.0378
12607W        W17007   4.119   1.169   9.142  0.1891  0.0240 -0.0100
12608W        W17008   7.779   3.383   0.172  0.2663  0.1879  0.0216
12609W        W17009  17.824   2.101  16.077 -0.2990 -0.2239  0.2650
12610W        W17010   6.551   5.273   8.101  0.1396  0.0216 -0.0361
12611W        W17011  11.130   2.797   3.056  0.2845  0.2170  0.0788
12612W        W17012  12.673   1.282  43.989  0.2610  0.0890 -0.0019
12613W        W17013   4.438   6.134  15.881 -0.0493  0.1188 -0.0403
12614W        W17014  14.293   1.462  43.931 -0.0326 -0.1884 -0.1244
12615W        W17015   2.059   5.759  14.488 -0.0993 -0.1810 -0.1479
12616W        W17016   7.589   1.951  11.756 -0.1144  0.4247  0.1527
12617W        W17017   0.958   2.722  32.899  0.0514 -0.2426  0.1608
12618W        W17018  18.516   4.415  29.332  0.0343 -0.3215  0.2747
12619W        W17019   1.650   5.801  24.759 -0.0792 -0.1130 -0.1073
12620W        W17020  14.613   1.880  20.408 -0.1446 -0.0750 -0.0621
12621W        W17021  15.093   0.226   3.751 -0.1104 -0.1602 -0.0130
12622W        W17022  20.201   0.292   2.050 -0.0951 -0.0844  0.1858
12623W        W17023   3.397   5.677  10.585  0.1502  0.0143  0.0250
12624W        W17024  16.436   4.227   9.707 -0.1117  0.2389  0.0170
12625W        W17025  20.191   3.978   1.435  0.1675  0.0537 -0.1200
12626W        W17026  10.535   3.059   3.460 -0.1422 -0.3832  0.2106
12627W        W17027  13.866   2.840  21.595  0.0109 -0.0235  0.0395
12628W        W17028   8.200   3.680  38.422 -0.3063  0.1864 -0.0530
12629W        W17029  11.494   5.145  31.442  0.0231 -0.1277  0.2517
12630W        W17030   2.502   4.952  40.490 -0.1928  0.0707 -0.0957
12631W        W17031   0.968   2.137  31.591  0.0199 -0.0704  0.0358
12632W        W17032  18.166   1.486  36.357 -0.0762 -0.0418  0.0947
12633W        W17033  12.781   5.205  31.507 -0.0094 -0.0015 -0.0596
12634W        W17034  20.660   2.620  36.482  0.0036 -0.0811  0.0377
12635W        W17035  12.526   3.118  17.158 -0.1657  0.1261 -0.2330
12636W        W17036  10.404   4.038  10.134 -0.0091 -0.0468  0.0921
12637W        W17037   2.911   4.826  13.921 -0.0485 -0.1586  0.1280
12638W        W17038   0.949   5.800   5.241  0.2491 -0.2636 -0.1539
12639W        W17039  18.435   2.810   1.427 -0.1641  0.1297 -0.1567
12640W        W17040  12.077   0.080  15.510  0.0122 -0.0391 -0.0850
12641W        W17041  20.638   1.137  16.612  0.1510 -0.2675 -0.1853
12642W        W17042   7.111   3.237  33.242 -0.0145 -0.0963  0.0124
12643W        W17043   6.670   3.414  28.206 -0.1918  0.2315 -0.0366
12644W        W17044  16.271   3.764  36.296  0.0371 -0.1213 -0.1046
12645W        W17045  18.429   1.007  39.689 -0.1718  0.1695 -0.1844
12646W        W17046   7.129   5.315  16.960  0.1227  0.1094 -0.0712
12647W        W17047   5.246   0.492  37.696 -0.2036  0.0416  0.2385
12648W        W17048   2.836   0.217  35.233 -0.1166 -0.1619 -0.0212
12649W        W17049   9.151   0.951   3.174 -0.0549  0.0063  0.0824
12650W        W17050   9.840   5.561   2.941 -0.0618 -0.0336  0.1185
12651W        W17051   9.674   0.211  15.872  0.1180 -0.0046 -0.1612
12652W        W17052  14.826   4.007  37.544 -0.1080 -0.0386 -0.0547
12653W        W17053  14.088   0.375  16.837 -0.2398 -0.2349  0.0950
12654W        W17054  10.982   5.562   2.958 -0.1143 -0.3431 -0.1216
12655W        W17055  17.031   6.135   7.052  0.1873 -0.3902 -0.0176
12656W        W17056  11.280   4.029  35.783 -0.0921 -0.1796  0.2619
12657W        W17057  19.234   0.482   1.464  0.0826 -0.1079  0.0006
12658W        W17058  16.251   5.449   2.753  0.1550 -0.1973 -0.2551
12659W        W17059  15.388   0.940  29.372  0.1387  0.1668 -0.0557
12660W        W17060   1.446   6.250  33.163  0.0012  0.0354 -0.1789
12661W        W17061   3.264   3.636  33.228  0.2436 -0.3095 -0.0642
12662W        W17062   7.508   2.839  27.221  0.2439  0.1962 -0.1851
12663W        W17063   9.975   5.116  31.570  0.1052 -0.0928  0.0574
12664W        W17064   9.740   1.234  33.507 -0.1362 -0.1783 -0.3900
12665W        W17065   2.887   3.931   3.005  0.0355 -0.3628  0.1974
12666W        W17066   5.677   1.111  16.763  0.2316  0.1007 -0.0085
12667W        W17067   9.932   4.711  36.103 -0.0471 -0.0202  0.0344
12668W        W17068  20.602   1.184   9.842  0.1344 -0.0103 -0.1721
12669W        W17069  13.296   5.858   8.206  0.1422 -0.0433 -0.0209
12670W        W17070  14.502   4.462  36.460 -0.3293 -0.0175  0.0727
12671W        W17071   3.360   1.563  37.141 -0.0858  0.0319 -0.0841
12672W        W17072   3.855   0.755  30.024 -0.4010 -0.1698  0.2008
12673W        W17073  11.624   4.489   7.470 -0.2116 -0.0187 -0.2821
12674W        W17074  18.196   0.229  29.832 -0.0724  0.2405  0.2626
12675W        W17075   0.917   1.020  40.646 -0.3926  0.1541  0.0993
12676W        W17076  17.058   1.324  18.327 -0.1148  0.1342  0.3262
12677W        W17077   7.598   0.181   3.896  0.0220  0.1501  0.0584
12678W        W17078   9.864   0.251  38.055 -0.1221 -0.2370 -0.1288
12679W        W17079  12.360   1.710   2.213 -0.0767  0.0179  0.2212
12680W        W17080   0.263   3.661   2.251  0.1397 -0.1420  0.2324
12681W        W17081  15.718   1.858  42.690  0.1892  0.1173 -0.0603
12682W        W17082   0.369   1.607  27.719 -0.1104 -0.3761 -0.0509
12683W        W17083  13.445   4.531  42.503 -0.0106  0.1335 -0.0967
12684W        W17084   4.125   0.701  25.340 -0.0829 -0.1524  0.1042
12685W        W17085  19.173   5.015   0.122  0.0234 -0.0218 -0.0439
12686W        W17086  14.444   0.975  21.698  0.0594  0.3873  0.1111
12687W        W17087   0.658   1.629   2.024 -0.0615  0.0140  0.0197
12688W        W17088  13.490   0.294   5.973  0.3480  0.0670 -0.1481
12689W        W17089   6.638   4.390  27.517 -0.2603 -0.2106  0.0025
12690W        W17090   7.037   1.064  10.575  0.1565  0.0136 -0.2496
12691W        W17091   5.968   6.433  25.394  0.2191 -0.2133  0.1549
12692W        W17092   9.732   5.299  28.119 -0.2885 -0.1288  0.2316
12693W        W17093  17.375   1.473  14.602  0.0256 -0.1550  0.0905
12694W        W17094  14.899   5.173  23.714 -0.1209 -0.0345 -0.0800
12695W        W17095  10.890   6.064  41.644  0.3736  0.4092 -0.4027
12696W        W17096  14.926   3.857  42.071 -0.0545 -0.1208  0.0986
12697W        W17097  13.083   4.739  22.072 -0.2278  0.0554 -0.2232
12698W        W17098  15.291   4.483  32.448  0.1150  0.2017  0.2237
12699W        W17099   7.797   0.179  43.882  0.0141  0.1987  0.1799
12700W        W17100   3.842   2.683  21.231  0.0656 -0.2607  0.1096
12701W        W17101  15.737   1.928  41.353 -0.1124 -0.2223 -0.0428
12702W        W17102  15.421   0.761   6.187  0.0061  0.0001 -0.0107
12703W        W17103   3.785   5.867  21.229 -0.0064  0.2962 -0.0382
12704W        W17104   8.473   1.316  14.094  0.2657 -0.3064  0.1008
12705W        W17105   9.881   0.484  31.299  0.1419 -0.0152  0.1735
12706W        W17106   7.180   1.369   1.291 -0.0078  0.0696 -0.1075
12707W        W17107  20.187   1.750   3.741 -0.2933 -0.0136  0.0051
12708W        W17108  17.299   3.805  29.893 -0.1753 -0.1611  0.0816
12709W        W17109  18.697   6.569  44.267 -0.1650 -0.0462 -0.2779
12710W        W17110  10.980   6.249  36.226 -0.3485  0.0645  0.0033
12711W        W17111   7.352   5.063  42.021 -0.1134  0.1265 -0.1890
12712W        W17112   2.643   2.646   0.353 -0.0842 -0.0251  0.1888
12713W        W17113   3.480   2.752   8.073  0.0186 -0.0230  0.0858
12714W        W17114   7.629   1.810  39.933  0.0285  0.2028  0.4418
12715W        W17115  16.913   4.219  37.023 -0.1223 -0.0855 -0.1010
12716W        W17116   7.508   1.206   4.230  0.0625 -0.1325 -0.1488
12717W        W17117  14.064   3.341   0.337 -0.1991  0.3075 -0.2084
12718W        W17118  19.213   1.755  41.002  0.1069  0.1003 -0.0016
12719W        W17119   5.888   1.605  12.708  0.1874 -0.0741 -0.4250
12720W        W17120   4.045   1.262  43.266 -0.0406 -0.4325  0.3649
12721W        W17121  17.395   1.883  11.309 -0.3274 -0.1087  0.1700
12722W        W17122   5.701   6.307  24.894  0.4616  0.0476 -0.0882
12723W        W17123  11.410   4.483  18.435 -0.1599 -0.1014 -0.0192
12724W        W17124   6.802   5.396  35.528  0.3722 -0.3780  0.0671
12725W        W17125  13.196   0.489  29.895 -0.0116  0.1762  0.2243
12726W        W17126   3.476   0.984  37.882 -0.0639 -0.0750 -0.1385
12727W        W17127   4.043   2.577  26.557 -0.0344 -0.1203  0.0342
12728W        W17128   4.278   3.188  12.447  0.0179  0.1888  0.2143
12729W        W17129  10.692   3.393  19.700  0.0677 -0.0945  0.3159
12730W        W17130  20.000   5.442  28.179  0.1490 -0.1202  0.3141
12731W        W17131   9.074   4.512  31.521 -0.3756  0.2935 -0.1625
12732W        W17132  20.687   4.693  35.924  0.0260  0.0308  0.3646
12733W        W17133  20.463   4.265  36.068  0.1378  0.0793 -0.1444
12734W        W17134  19.350   1.058  17.522  0.0199  0.1471 -0.3771
12735W        W17135   6.550   1.748   3.664 -0.2536  0.1334 -0.1203
12736W        W17136  19.327   5.189  41.029  0.2001  0.0339  0.0427
12737W        W17137  14.198   5.127  34.944  0.1607  0.0536 -0.2329
12738W        W17138  20.816   3.741  35.197  0.0772 -0.2811  0.0787
12739W        W17139   0.150   5.527  10.904 -0.0725  0.2989  0.1062
12740W        W17140   1.175   1.103  44.741 -0.0701 -0.1439  0.2961
12741W        W17141  11.845   3.455  35.113  0.0944 -0.0985 -0.0591
12742W        W17142  12.847   5.779  12.767 -0.0405  0.0833 -0.0636
12743W        W17143   2.059   5.224  40.849  0.2861  0.0563 -0.2430
12744W        W17144  11.087   5.084   0.003  0.0255  0.3116 -0.2861
12745W        W17145  14.369   6.405   1.833  0.0340 -0.0417  0.0558
12746W        W17146  17.615   5.370  43.660 -0.2175 -0.1658  0.1971
12747W        W17147   9.550   6.514   0.675  0.0639  0.0281 -0.3228
12748W        W17148  13.125   2.110  41.774  0.0471 -0.0198  0.0415
12749W        W17149  13.757   1.471   7.416  0.0147  0.2506 -0.2186
12750W        W17150   6.518   1.711  13.465  0.0870  0.1225 -0.1090
12751W        W17151   9.991   4.797  41.522 -0.0303  0.3573 -0.1900
12752W        W17152  15.813   6.316   3.328  0.2811 -0.0250  0.0439
12753W        W17153  18.605   4.351  30.329 -0.0887  0.0337  0.0058
12754W        W17154   6.624   1.466  14.443  0.2280 -0.0768 -0.0452
12755W        W17155   2.771   6.013  33.843  0.0560  0.0252 -0.0710
12756W        W17156   1.853   1.076  34.880 -0.0115 -0.0125  0.0023
12757W        W17157  13.543   0.445  35.814 -0.0474 -0.1820 -0.2382
12758W        W17158  21.094   0.260  16.451  0.1248  0.0911 -0.2666
12759W        W17159  11.845   4.608  44.454 -0.0659  0.2121  0.4209
12760W        W17160   5.434   2.952  41.038 -0.0889 -0.0048 -0.3970
12761W        W17161  18.625   6.083  13.193 -0.1325  0.2000 -0.0876
12762W        W17162  18.156   3.983  28.532 -0.1663  0.3704  0.0783
12763W        W17163  19.266   1.400  27.175 -0.1146  0.0037  0.1013
12764W        W17164   3.133   3.319   8.047  0.0394 -0.3205  0.0509
12765W        W17165   6.557   6.425   5.445  0.2626  0.0583 -0.1797
12766W        W17166  17.813   3.235  40.380 -0.1839  0.1160  0.3013
12767W        W17167  13.268   0.081  38.291 -0.1671  0.0872  0.1506
12768W        W17168  10.306   5.794  37.287  0.1103 -0.0617 -0.0861
12769W        W17169  13.505   2.671  31.237 -0.1833 -0.1652 -0.0786
12770W        W17170   2.449   6.160  43.856 -0.2886  0.5247  0.0531
12771W        W17171   6.330   5.930  12.657  0.2775  0.1771  0.0310
12772W        W17172   2.776   5.944   6.950 -0.1988 -0.1568 -0.1369
12773W        W17173  19.791   3.998  29.554  0.4300  0.3734 -0.1447
12774W        W17174   4.446   5.780   4.266  0.1792  0.1075 -0.0401
12775W        W17175   6.057   1.842  27.254 -0.2508 -0.1549 -0.1034
12776W        W17176   5.301   0.673  34.167 -0.4582  0.2238  0.1017
12777W        W17177  19.850   0.413   1.179 -0.1844 -0.5055 -0.0658
12778W        W17178  20.964   2.165  38.431 -0.1780  0.0916  0.0025
12779W        W17179  12.284   2.871  40.523  0.0647  0.1324 -0.0655
12780W        W17180  15.198   1.527  17.706  0.2633 -0.0147 -0.3823
12781W        W17181  15.861   3.319  31.866  0.0916  0.0347 -0.0464
12782W        W17182  19.862   0.875  12.189  0.1078 -0.0381  0.0735
12783W        W17183   8.110   4.903  29.193 -0.2050 -0.0433  0.2643
12784W        W17184  19.010   4.266  37.447  0.0320 -0.1451 -0.5023
12785W        W17185  19.538   5.845   6.479  0.0391 -0.2150 -0.1877
12786W        W17186  19.863   0.671   1.680 -0.0516  0.1968 -0.0960
12787W        W17187  12.630   0.840  15.198 -0.0124  0.1473  0.1219
12788W        W17188  19.958   3.236  17.752 -0.1517 -0.1316  0.1200
12789W        W17189   4.551   5.666  29.244 -0.5183  0.0301 -0.1403
12790W        W17190   3.627   4.644  22.231 -0.1149  0.3395  0.1673
12791W        W17191  13.577   1.875  18.304 -0.0140  0.1746  0.2620
12792W        W17192  11.513   0.322   5.406  0.0479 -0.3601  0.2903
12793W        W17193   2.572   1.150   6.344 -0.3351 -0.2117 -0.3230
12794W        W17194  19.777   5.323  16.518  0.2684  0.4865  0.1511
12795W        W17195  19.797   4.348  44.993  0.2017  0.2045 -0.1975
12796W        W17196  17.615   4.637  42.622 -0.0841 -0.0352 -0.2865
12797W        W17197  11.645   4.197  34.104 -0.3733  0.1040  0.0841
12798W        W17198  18.258   3.363  15.694  0.0045 -0.2334  0.2444
12799W        W17199   7.161   4.988   5.730  0.0773  0.1949  0.0109
12800W        W17200  12.197   1.470   6.298  0.0124 -0.1930  0.1481
12801W        W17201  12.972   0.854  35.566 -0.1654  0.0493  0.0142
12802W        W17202  17.795   4.808  11.503  0.0358 -0.0907  0.0787
12803W        W17203  20.570   1.769   5.434  0.0682  0.0166 -0.0533
12804W        W17204  14.602   5.176   7.575 -0.1247 -0.1107 -0.1660
12805W        W17205   7.752   4.186  34.067 -0.3141  0.3634  0.0727
12806W        W17206  17.140   0.722  36.085  0.1560  0.0906  0.0640
12807W        W17207   8.735   1.715  18.643 -0.5016 -0.3954 -0.0609
12808W        W17208  17.745   1.794  15.576 -0.0374  0.0276 -0.3311
12809W        W17209  15.806   4.446  19.798  0.2079 -0.0079  0.1556
12810W        W17210   6.521   1.250   2.860  0.0194 -0.1251 -0.0314
12811W        W17211  18.823   1.590  10.294 -0.0682 -0.1418  0.0936
12812W        W17212  20.882   4.359   3.639  0.0403 -0.0130 -0.0795
12813W        W17213  20.005   0.126  41.503 -0.2308  0.1055 -0.1881
12814W        W17214  16.651   0.457   7.565  0.0672 -0.0589  0.1488
12815W        W17215  11.852   0.804  41.172 -0.2633  0.3335  0.3810
12816W        W17216  14.767   6.188  14.497  0.1891 -0.2418  0.2188
12817W        W17217  11.433   0.608  21.200 -0.1725  0.0527 -0.0506
12818W        W17218   6.145   6.033  12.169 -0.0928 -0.1935  0.0013
12819W        W17219   7.509   2.519   3.009 -0.1286  0.1663 -0.0488
12820W        W17220  15.616   0.079   1.098  0.0971 -0.0179  0.0563
12821W        W17221  12.276   3.195   7.698 -0.3204  0.1013  0.0718
12822W        W17222  17.984   6.380  10.668  0.0986  0.0271  0.0230
12823W        W17223  11.172   5.852   3.925 -0.1106 -0.0129 -0.3396
12824W        W17224  15.512   5.901  41.141  0.1621 -0.0558 -0.1356
12825W        W17225   5.418   6.198  30.300  0.1374 -0.0995 -0.2851
12826W        W17226  12.947   4.380   3.635 -0.0596 -0.2254 -0.1639
12827W        W17227  14.652   1.923  44.568  0.2305  0.0370  0.0423
12828W        W17228  18.694   1.349   2.114 -0.0028  0.2573  0.0805
12829W        W17229   1.233   2.747  41.935 -0.1311  0.0542 -0.0122
12830W        W17230   5.380   4.074  26.314  0.1185  0.1821 -0.1118
12831W        W17231   3.564   5.457  14.302 -0.1203 -0.0564  0.0856
12832W        W17232  18.329   6.600  10.303 -0.2054  0.3897  0.3638
12833W        W17233  12.830   6.021  37.804  0.2415 -0.2727 -0.2158
12834W        W17234   4.484   2.233  38.235  0.1297 -0.3477  0.0260
12835W        W17235  11.430   4.261  33.664  0.1300  0.0267  0.1437
12836W        W17236  17.530   3.847  34.718  0.1480 -0.0750  0.1782
12837W        W17237   3.611   1.298  42.520  0.0322 -0.1834 -0.0844
12838W        W17238   6.331   0.936  35.230 -0.1748  0.0656 -0.0775
12839W        W17239   6.947   2.744  41.513  0.1675  0.2410 -0.2179
12840W        W17240  18.854   0.640  16.526  0.1542 -0.0259  0.0690
12841W        W17241   9.854   6.219  13.319 -0.1428 -0.0068  0.0321
12842W        W17242   6.615   2.864  26.826 -0.2160 -0.0358  0.2168
12843W        W17243   5.383   4.390   9.841 -0.1407 -0.1686  0.0142
12844W        W17244  20.931   1.651  30.127 -0.2660 -0.0010 -0.3164
12845W        W17245   2.370   5.383   5.496  0.1601  0.0889 -0.0324
12846W        W17246  18.300   5.946  10.989 -0.2213 -0.4109  0.1500
12847W        W17247  18.128   5.603  15.326 -0.1504 -0.2771  0.1679
12848W        W17248  18.540   5.321  10.989 -0.1095 -0.1402 -0.0233
12849W        W17249   9.863   4.329  35.317  0.0627 -0.3526  0.0622
12850W        W17250   0.913   4.353  27.079 -0.0512 -0.1265  0.0480
12851W        W17251   8.815   2.054   8.563 -0.2388  0.0398 -0.0624
12852W        W17252   1.765   3.535  42.691 -0.2022 -0.0951  0.0045
12853W        W17253   0.532   2.097  32.466 -0.1106 -0.2292 -0.0061
12854W        W17254  15.811   1.492  10.400 -0.4494  0.0119  0.1725
12855W        W17255  10.976   5.378  28.318  0.0948  0.0570 -0.1165
12856W        W17256   3.737   0.296  40.637  0.1343  0.0693  0.0729
12857W        W17257  14.235   0.378  12.630 -0.1717 -0.1284  0.3859
12858W        W17258  14.899   4.337  40.544 -0.2145 -0.2783 -0.0671
12859W        W17259   5.453   3.764  40.741  0.0822 -0.0691 -0.1471
12860W        W17260  16.518   1.498  40.068 -0.2218 -0.0481  0.0588
12861W        W17261   5.956   5.902   5.596 -0.1016  0.1195 -0.0689
12862W        W17262   6.595   1.544  30.655 -0.1024 -0.2114 -0.0940
12863W        W17263  12.794   5.734  38.778 -0.0081 -0.3393 -0.1158
12864W        W17264  13.350   6.409  14.293  0.0817  0.0154 -0.0998
12865W        W17265   3.275   1.705  44.327 -0.1341  0.2653 -0.4038
12866W        W17266   5.580   2.410  11.608  0.1653 -0.2702  0.0807
12867W        W17267   5.768   2.957  42.550  0.2449  0.0378  0.0123
12868W        W17268   5.091   4.502  35.909  0.0960 -0.0430  0.1892
12869W        W17269  13.087   4.006  16.960  0.2763  0.0504  0.1039
12870W        W17270  10.582   1.628  13.350  0.3919  0.0184  0.4079
12871W        W17271   9.819   1.442  33.997  0.0853  0.0953 -0.1316
12872W        W17272   1.433   6.169   6.448  0.0891  0.1308 -0.0665
12873W        W17273   0.013   2.496  42.627  0.0680 -0.2231 -0.2298
12874W        W17274   8.660   1.756   4.724  0.0279 -0.3270 -0.0547
12875W        W17275   0.157   1.638  39.062 -0.2095 -0.0019  0.0181
12876W        W17276  19.464   2.018   3.395 -0.1102  0.0876 -0.0831
12877W        W17277  17.432   3.848  38.234  0.1329  0.2832  0.0522
12878W        W17278   7.809   0.012  31.230  0.0880 -0.2071 -0.0207
12879W        W17279   0.905   0.796  10.123  0.1069  0.1524 -0.0749
12880W        W17280  16.031   2.839  21.989 -0.0984  0.1273 -0.0224
12881W        W17281  16.928   3.472   0.396  0.1142 -0.0947  0.0559
12882W        W17282   5.399   5.237   9.604  0.0043  0.1734 -0.0775
12883W        W17283   4.227   6.037   9.263 -0.0282 -0.1325  0.2210
12884W        W17284   1.354   1.400  23.382 -0.3220  0.0938  0.1536
12885W        W17285   0.501   5.451  33.036 -0.1555 -0.0654 -0.2213
12886W        W17286   9.903   4.111  12.517  0.1199  0.1429  0.0242
12887W        W17287  18.688   2.263  11.072 -0.3363  0.3174 -0.0306
12888W        W17288  16.341   3.290  17.237  0.0856  0.3280 -0.1218
12889W        W17289   3.034   1.164   0.471 -0.0452  0.0194  0.1467
12890W        W17290  14.502   1.326  13.593 -0.1187  0.2425 -0.2660
12891W        W17291   9.445   5.076   7.875 -0.1780 -0.0834  0.0132
12892W        W17292  20.537   6.535   1.509  0.0170 -0.2414 -0.0689
12893W        W17293   8.728   3.686  38.498  0.1947  0.2553  0.1306
12894W        W17294  10.992   1.723   2.485 -0.1440 -0.3100  0.3009
12895W        W17295  20.755   0.786   0.596 -0.0188 -0.1581 -0.0398
12896W        W17296  16.688   3.227  14.756 -0.0257  0.0055 -0.2098
12897W        W17297   1.204   2.461  44.286  0.0590 -0.1765 -0.0241
12898W        W17298   9.719   1.957  15.071  0.0461 -0.0924  0.0190
12899W        W17299  18.855   5.135   1.808 -0.2887  0.1495 -0.4078
12900W        W17300   7.201   2.327   1.682 -0.0813  0.0141  0.2865
12901W        W17301  11.908   2.837  44.641  0.0322  0.0495 -0.2315
12902W        W17302  21.049   2.619  15.439  0.0305 -0.0326  0.0256
12903W        W17303  15.729   4.673  28.792  0.1153 -0.1184  0.0148
12904W        W17304  14.055   0.619   8.308  0.0531 -0.1910  0.2598
12905W        W17305  15.650   0.469  10.748  0.2966  0.2206 -0.0070
12906W        W17306  17.146   2.167  43.792 -0.1571  0.1735 -0.1998
12907W        W17307  20.791   0.656  31.018  0.0852  0.2178 -0.0266
12908W        W17308   0.859   2.439   9.881  0.0920  0.1411  0.0814
12909W        W17309   5.168   4.439  42.596 -0.0447 -0.1246 -0.2279
12910W        W17310   2.819   6.343   0.456  0.3152  0.2282  0.2516
12911W        W17311  19.336   4.933   3.543 -0.2680  0.3688  0.0284
12912W        W17312  13.287   5.136  33.636 -0.0812  0.2488  0.0815
12913W        W17313   9.614   2.252  10.582 -0.1834  0.1882 -0.3531
12914W        W17314   4.154   4.734  32.495 -0.1275  0.0661  0.0265
12915W        W17315  20.557   5.534  12.714 -0.0286  0.1692 -0.2011
12916W        W17316  11.649   6.564  28.223  0.0191  0.1930  0.1995
12917W        W17317   7.763   4.218  27.519 -0.1545 -0.1884  0.1807
12918W        W17318  13.984   0.428  41.870 -0.1378 -0.0864 -0.0231
12919W        W17319  18.187   1.598  12.268  0.0123  0.2748  0.2688
12920W        W17320   7.172   2.042  25.740  0.1520  0.3003  0.0637
12921W        W17321  11.192   1.836  44.903  0.0937 -0.0569  0.0055
12922W        W17322  19.569   3.972   0.769 -0.0874  0.0304 -0.3434
12923W        W17323  16.363   3.291  36.444 -0.0532 -0.3036  0.3589
12924W        W17324   6.577   1.290  13.646  0.0930  0.2301 -0.0285
12925W        W17325  10.158   3.735  36.489  0.0532  0.2977 -0.0489
12926W        W17326  18.593   4.063  43.262 -0.0830  0.0178 -0.0054
12927W        W17327  11.382   1.063   9.814 -0.1701  0.1801 -0.1116
12928W        W17328  21.064   4.071  33.181 -0.0045 -0.2798 -0.2489
12929W        W17329   6.535   2.265  31.487  0.3061  0.1427 -0.0406
12930W        W17330  15.243   1.497  15.711  0.0684 -0.0417 -0.0124
12931W        W17331  16.059   3.435   6.526  0.1544 -0.0558  0.3410
12932W        W17332  14.314   2.305  12.718 -0.2166 -0.2063  0.0959
12933W        W17333  11.184   0.097  43.587 -0.4941 -0.0852 -0.2720
12934W        W17334  12.500   6.371  22.733  0.3135  0.0063  0.0586
12935W        W17335   0.452   4.465   4.129 -0.0795  0.2280 -0.0489
12936W        W17336  15.005   3.440  40.697  0.0311 -0.0272 -0.0115
12937W        W17337  18.692   0.264  13.950  0.0551 -0.1316 -0.0834
12938W        W17338  20.977   0.917  28.994 -0.0133  0.1982  0.0732
12939W        W17339  17.502   3.380  36.931 -0.3554 -0.0116  0.0882
12940W        W17340  12.568   0.609   4.423  0.2387  0.0294 -0.4682
12941W        W17341  10.651   3.884  42.177 -0.0151 -0.0974  0.1945
12942W        W17342  15.567   0.429  16.575  0.0289 -0.1424  0.0878
12943W        W17343   2.671   1.195  36.498  0.1074 -0.0081 -0.2132
12944W        W17344   4.629   3.230   0.755  0.1488  0.1489 -0.0065
12945W        W17345  10.893   6.576  41.521 -0.2896 -0.0084  0.4727
12946W        W17346  18.031   0.937  19.611 -0.1312  0.1918 -0.1491
12947W        W17347  14.497   3.897  32.929  0.3674 -0.0254 -0.1422
12948W        W17348  19.668   5.174   9.593 -0.2026  0.0142 -0.5200
12949W        W17349  13.935   2.685   4.983  0.1715 -0.1463 -0.0016
12950W        W17350   8.736   2.181  40.811 -0.0122  0.0873 -0.2057
12951W        W17351   1.996   0.447  24.509 -0.2238 -0.0058  0.0553
12952W        W17352  14.256   0.162   5.385 -0.0236  0.0734 -0.1453
12953W        W17353  15.883   1.794  31.872  0.0926  0.0733  0.2202
12954W        W17354  19.152   3.931   5.991  0.1594  0.0396 -0.1745
12955W        W17355   8.909   3.537  42.355 -0.0241  0.1449  0.0833
12956W        W17356   5.176   0.704  26.202  0.0429 -0.1883 -0.1918
12957W        W17357  20.109   4.599  34.325 -0.1599  0.1721  0.0013
12958W        W17358   5.481   4.394   2.450 -0.0191 -0.1031 -0.1062
12959W        W17359   4.400   5.762  15.553  0.1920 -0.0287  0.0339
12960W        W17360   4.501   0.943  21.903 -0.2199  0.1368  0.0545
12961W        W17361  11.327   3.091  19.559 -0.3307  0.0041 -0.1230
12962W        W17362  16.238   1.737  34.335 -0.1091 -0.0805 -0.1049
12963W        W17363  15.797   2.537  41.493 -0.2113 -0.1226  0.0404
12964W        W17364  19.502   0.033  43.297  0.1688 -0.3204  0.1740
12965W        W17365   0.303   3.402  24.286 -0.0009 -0.0855  0.1335
12966W        W17366  10.155   4.952  12.238 -0.1500 -0.0072  0.0662
12967W        W17367   9.147   2.613  18.382 -0.0287 -0.1198  0.0757
12968W        W17368   2.407   3.837  23.499 -0.1121  0.1554 -0.0283
12969W        W17369   2.923   1.428   5.953  0.0027 -0.3695  0.0904
12970W        W17370  13.925   5.346  18.397  0.2627 -0.1566  0.1554
12971W        W17371  16.810   1.732  20.255  0.1075  0.0703 -0.2139
12972W        W17372   6.260   4.270  15.987 -0.1211 -0.0187 -0.1559
12973W        W17373   3.906   5.583  39.593 -0.2730  0.0380 -0.1179
12974W        W17374   3.766   5.510  27.010 -0.1664  0.0964 -0.1069
12975W        W17375   7.850   1.998  41.287 -0.1293  0.0233 -0.1324
12976W        W17376   2.951   3.258  23.299  0.0312 -0.0259  0.1537
12977W        W17377  20.516   3.842  12.389 -0.2742 -0.0097 -0.0735
12978W        W17378   0.472   1.281  12.152  0.0975 -0.1360 -0.4069
12979W        W17379   6.820   2.881   8.306  0.0800 -0.2194 -0.0578
12980W        W17380   6.965   3.827  26.077 -0.0243  0.3269 -0.2269
12981W        W17381   7.593   5.554  33.238  0.1338 -0.0012 -0.1409
12982W        W17382   3.920   2.102   8.771  0.1967  0.2220  0.1456
12983W        W17383   7.200   0.299  12.771 -0.1841 -0.0663  0.2640
12984W        W17384  13.788   1.400  38.759  0.0123  0.0225 -0.3401
12985W        W17385   3.774   0.300  13.262  0.2638  0.0640  0.1155
12986W        W17386  19.382   5.786  30.329  0.0948  0.0650  0.0830
12987W        W17387   2.305   5.309   8.107  0.1866  0.2833 -0.1314
12988W        W17388   6.184   3.577  42.376  0.0657  0.0036 -0.0557
12989W        W17389  17.799   3.802  12.591  0.0214  0.0087  0.0616
12990W        W17390   6.069   4.753   6.180  0.0889 -0.0642  0.1892
12991W        W17391   6.477   0.717   9.184 -0.1343 -0.0970  0.3552
12992W        W17392   9.852   1.540  41.059 -0.0047 -0.1430 -0.1401
12993W        W17393  18.728   1.317  33.350 -0.2181  0.2003 -0.2969
12994W        W17394  17.834   5.128  34.390  0.2919  0.0988  0.1411
12995W        W17395   9.046   0.333   6.034  0.1480 -0.1219 -0.1847
12996W        W17396  11.385   3.559   2.357 -0.0609  0.1138  0.1270
12997W        W17397   0.325   1.880  34.899  0.0395 -0.0219  0.1565
12998W        W17398   7.884   2.286  25.238  0.1195 -0.0801 -0.0358
12999W        W17399  14.719   3.762  36.068  0.1406  0.1979  0.1120
13000W        W17400  10.126   4.694   5.200 -0.0867  0.0471 -0.2231
13001W        W17401  10.109   5.698  34.041  0.1918  0.1218  0.2193
13002W        W17402  18.884   0.601  43.110  0.1529  0.0680 -0.0444
13003W        W17403  10.063   5.935  15.085  0.2154 -0.1778 -0.3532
13004W        W17404  17.440   5.347  18.528 -0.3739  0.0591  0.1348
13005W        W17405  14.946   3.906  29.663 -0.0477  0.0104 -0.2003
13006W        W17406   1.593   0.998  30.786  0.1221  0.3470 -0.0124
13007W        W17407  13.051   5.981   4.382  0.3074  0.1651 -0.2492
13008W        W17408   3.136   1.836  34.290  0.3385  0.0499 -0.3453
13009W        W17409  14.861   2.268  30.896  0.0671  0.5030 -0.0005
13010W        W17410   4.941   2.261   9.549  0.0399  0.2272  0.1754
13011W        W17411   3.829   4.437  42.622  0.0732 -0.0848  0.0641
13012W        W17412  15.894   1.854   6.484 -0.0706 -0.0253 -0.0604
13013W        W17413   0.391   5.015   5.608 -0.2180 -0.0221 -0.1692
13014W        W17414  18.420   1.385  36.832 -0.0114 -0.1565 -0.1063
13015W        W17415  12.642   5.239  21.490 -0.1104 -0.0385  0.2321
13016W        W17416   5.901   2.316  36.840 -0.0617  0.0747 -0.2472
13017W        W17417   2.806   5.299   2.508  0.1316  0.2798  0.0819
13018W        W17418  11.110   4.294   1.393 -0.0459  0.1069 -0.1287
13019W        W17419   1.608   3.946  38.947 -0.2223  0.1793  0.2677
13020W        W17420   1.935   3.725  15.706  0.2841  0.2382  0.1278
13021W        W17421  20.519   1.709  25.938 -0.1435 -0.0209 -0.1163
13022W        W17422  13.256   0.235  10.253 -0.2682  0.0277  0.2781
13023W        W17423  11.500   5.394   4.049  0.1212 -0.0657  0.2848
13024W        W17424  13.707   4.082   1.277  0.0336  0.0714 -0.1933
13025W        W17425   5.902   1.538  43.458  0.0296 -0.0441  0.1179
13026W        W17426  12.811   3.346  43.236 -0.2154 -0.0259 -0.1647
13027W        W17427  14.241   0.364   5.874  0.1988 -0.1253  0.3019
13028W        W17428  20.301   6.257  28.506 -0.0315  0.0229 -0.2879
13029W        W17429   3.933   6.289  27.068 -0.2347  0.2486  0.0274
13030W        W17430  14.821   0.799  34.728  0.1008  0.1115  0.2676
13031W        W17431  18.996   4.560   1.100  0.0078  0.2645 -0.1977
13032W        W17432   6.217   0.317  26.741 -0.2283  0.1916  0.0322
13033W        W17433  15.483   1.564   7.377  0.0186 -0.1292 -0.4562
13034W        W17434   9.612   1.468   2.607  0.0257 -0.1201 -0.1985
13035W        W17435  18.142   5.365  37.999 -0.0316  0.2530  0.1894
13036W        W17436   7.687   5.422   7.823 -0.1155 -0.0353  0.2867
13037W        W17437  17.233   4.132  43.783 -0.0338 -0.0502  0.1335
13038W        W17438   9.060   4.193  43.102  0.1626 -0.0452 -0.0373
13039W        W17439  12.766   5.408  36.308 -0.1604  0.3508 -0.2584
13040W        W17440  18.242   1.497   2.386 -0.0813 -0.1846  0.0832
13041W        W17441   7.562   5.151  11.038 -0.1608 -0.1244  0.1737
13042W        W17442   0.618   3.919   4.143 -0.1393 -0.1396  0.1964
13043W        W17443  10.569   3.260   4.398 -0.1960  0.0887  0.2222
13044W        W17444   5.308   4.074   0.311  0.2333  0.1160  0.2162
13045W        W17445  12.524   2.810   3.105 -0.2139 -0.3014  0.3083
13046W        W17446  11.880   1.159  21.588 -0.2167  0.0739 -0.0007
13047W        W17447  10.510   2.349  29.918  0.1343  0.1317 -0.0281
13048W        W17448   8.293   5.222  40.761  0.1050  0.0954  0.2372
13049W        W17449  16.279   0.178  33.833 -0.0870 -0.1726  0.0206
13050W        W17450  19.477   2.773  33.722 -0.1928  0.0661  0.0070
13051W        W17451   5.026   4.316  35.396  0.1600  0.1392 -0.0419
13052W        W17452   2.106   4.539  15.097  0.0115 -0.0079  0.1686
13053W        W17453  14.519   3.179  36.947 -0.0584 -0.1425 -0.1307
13054W        W17454  10.041   2.935  14.791  0.1078 -0.1085  0.0380
13055W        W17455   6.115   1.432   5.017  0.1895 -0.1157  0.2284
13056W        W17456  19.125   2.886  19.871 -0.1335  0.1926 -0.2828
13057W        W17457  15.900   4.769  37.253  0.3563 -0.0171  0.1213
13058W        W17458  20.098   3.751   4.914  0.3095 -0.3211  0.0083
13059W        W17459   5.984   1.799  35.931 -0.0810 -0.0920  0.0949
13060W        W17460  20.363   5.957  33.046 -0.1770 -0.0156  0.3176
13061W        W17461   6.077   0.406  35.291 -0.3555 -0.1876 -0.0825
13062W        W17462  15.590   1.513   1.255  0.0405  0.3767 -0.2813
13063W        W17463  20.412   0.921  44.562 -0.0138 -0.1359  0.2004
13064W        W17464   0.919   1.463   5.229  0.0910 -0.0431  0.1914
13065W        W17465   6.447   1.214   3.700  0.3194 -0.1514  0.1699
13066W        W17466  20.525   5.851  34.947 -0.4434 -0.2323 -0.1439
13067W        W17467  14.243   1.246   7.175  0.1241 -0.3186 -0.0726
13068W        W17468   5.753   4.835  24.022 -0.0062 -0.3266 -0.4193
13069W        W17469  14.817   5.468   6.879  0.0173  0.1867  0.1408
13070W        W17470  16.072   1.446  32.241  0.1200  0.2211  0.3221
13071W        W17471  16.691   4.113   5.406  0.1962  0.3578  0.2621
13072W        W17472   3.324   5.115  24.783 -0.2044  0.2019  0.1585
13073W        W17473   9.660   0.981  40.205  0.0280 -0.3194  0.0011
13074W        W17474  14.540   1.691  29.748 -0.2366 -0.0306  0.0762
13075W        W17475  16.404   2.011   8.146 -0.0044 -0.0853  0.2726
13076W        W17476   4.346   4.781  23.117  0.0300 -0.0588  0.0699
13077W        W17477  11.513   4.284   7.992 -0.1863  0.0069 -0.0144
13078W        W17478  10.823   5.322  14.222  0.0230  0.0137 -0.0973
13079W        W17479   4.113   2.116   1.956 -0.1655  0.2385 -0.2160
13080W        W17480   7.054   4.592  30.453 -0.1079 -0.1056  0.1007
13081W        W17481  20.618   5.944  34.428 -0.0717  0.1810  0.0687
13082W        W17482   5.665   4.540  15.046 -0.3183 -0.1671 -0.3351
13083W        W17483  13.200   3.559   3.553 -0.0806  0.0366 -0.0664
13084W        W17484   2.042   2.784  35.648  0.1154  0.4856  0.1824
13085W        W17485  19.211   1.217  10.952 -0.0291 -0.1531 -0.0331
13086W        W17486   6.249   4.487  32.791 -0.1342  0.0865  0.0048
13087W        W17487   6.278   3.731  38.632 -0.2883  0.2877 -0.1711
13088W        W17488  13.453   5.360  34.927  0.1315  0.1103 -0.1418
13089W        W17489   5.128   2.984  41.758  0.1833  0.0581  0.0338
13090W        W17490   9.232   0.412   9.524 -0.0820 -0.0854 -0.2119
13091W        W17491   9.167   5.954  33.965  0.0241 -0.1293 -0.2416
13092W        W17492   8.083   2.776  25.130 -0.0740  0.0229  0.0465
13093W        W17493   9.657   6.188  33.482 -0.2923  0.0123 -0.5240
13094W        W17494   1.114   5.429  27.616  0.2266 -0.0962 -0.2048
13095W        W17495  12.721   5.610  45.070  0.1132 -0.1238  0.0619
13096W        W17496   7.361   3.527  44.987  0.0772  0.0789 -0.0365
13097W        W17497   3.811   4.962  31.372  0.0794  0.0192  0.3313
13098W        W17498  15.019   6.462  35.850 -0.0764  0.1586 -0.0295
13099W        W17499  12.702   0.847  42.765 -0.1628 -0.2426  0.0211
13100W        W17500  19.079   6.561   3.220  0.1220 -0.0470  0.4507
13101W        W17501   4.725   3.269  29.449 -0.1530 -0.4326  0.2436
13102W        W17502  17.696   4.370  17.846 -0.1273  0.1289  0.1753
13103W        W17503  14.446   3.281   4.099 -0.0352 -0.1735  0.0932
13104W        W17504  20.090   3.687   6.151 -0.1927 -0.2904  0.1042
13105W        W17505   3.530   3.664  44.084  0.4602  0.2503 -0.1421
13106W        W17506  11.297   0.426  28.158  0.0897 -0.1260  0.2763
13107W        W17507  12.481   5.098  32.269  0.3991 -0.1595 -0.3802
13108W        W17508   1.061   3.697   9.237  0.1953 -0.0301  0.1135
13109W        W17509  20.431   6.004  44.124 -0.1426  0.1115 -0.2097
13110W        W17510   6.084   3.988  13.848 -0.0302  0.0902  0.2938
13111W        W17511  14.154   2.668   1.976  0.5801 -0.0402 -0.1635
13112W        W17512  13.423   2.756  42.382 -0.0354 -0.1576  0.3684
13113W        W17513  18.263   2.464   2.486  0.1166  0.1325 -0.0917
13114W        W17514   5.753   2.373   0.582 -0.1424 -0.3017  0.0138
13115W        W17515   8.292   6.460  30.855  0.1849  0.2010 -0.1056
13116W        W17516  11.407   5.729  10.066  0.2957  0.0645  0.2325
13117W        W17517  18.310   0.820  30.076  0.0064  0.3039  0.1700
13118W        W17518   5.276   4.132  10.343 -0.4633  0.2113  0.2533
13119W        W17519   5.529   6.080  34.556 -0.2682  0.2176 -0.0354
13120W        W17520  13.725   0.254  38.071 -0.1182  0.0398 -0.2268
13121W        W17521   0.895   4.631  43.727 -0.1109  0.1448  0.0021
13122W        W17522  16.022   6.299  32.336  0.0346  0.0675 -0.0394
13123W        W17523   7.520   3.604  15.968 -0.0180 -0.2022 -0.1526
13124W        W17524  13.061   0.988  18.484 -0.0755  0.1723  0.0926
13125W        W17525  18.742   5.942  29.303  0.0961 -0.2188 -0.2173
13126W        W17526   2.144   0.703   4.229 -0.2458 -0.1479 -0.1041
13127W        W17527  10.277   2.853  38.186 -0.1242  0.0247 -0.2763
13128W        W17528   4.115   0.733  27.701  0.0372  0.0231  0.3554
13129W        W17529   3.853   3.055  34.555 -0.1260 -0.1588 -0.0773
13130W        W17530  20.072   6.027  11.445  0.2830 -0.0198 -0.1461
13131W        W17531   6.901   2.710  30.877 -0.0781  0.1107  0.1279
13132W        W17532  18.105   5.023  44.042 -0.0637  0.1998  0.3076
13133W        W17533   4.735   5.369  25.952  0.3567 -0.0126  0.1426
13134W        W17534   2.384   3.107  35.817  0.0526 -0.0339  0.0256
13135W        W17535  15.318   5.582   7.710  0.0428  0.0459 -0.0294
13136W        W17536  18.664   4.460  40.079  0.3077 -0.0883  0.4103
13137W        W17537  12.132   5.361   6.815  0.0413 -0.0528 -0.0600
13138W        W17538  14.898   4.136  12.207 -0.2315 -0.0266  0.4869
13139W        W17539   8.867   1.608  27.596  0.1498 -0.2009  0.0718
13140W        W17540  19.507   1.489   8.494 -0.1894  0.1241  0.0461
13141W        W17541  19.425   4.126  14.390  0.0138 -0.2486 -0.3499
13142W        W17542   2.708   0.825  35.179 -0.1342  0.2890 -0.2842
13143W        W17543   0.535   2.317  25.778 -0.2487 -0.1863 -0.1508
13144W        W17544  12.933   6.542  20.667 -0.0888 -0.1309  0.0191
13145W        W17545  14.451   1.505  18.392  0.1727 -0.0299  0.0381
13146W        W17546  17.380   3.011  45.127  0.1769 -0.1018 -0.0333
13147W        W17547   1.977   1.891  37.127 -0.2545 -0.0757 -0.0023
13148W        W17548  16.346   3.662  14.647  0.1035 -0.3492 -0.0802
13149W        W17549   5.813   2.180  43.551 -0.2150  0.3719  0.1501
13150W        W17550   8.366   4.211  31.489  0.2571  0.1557  0.0192
13151W        W17551   4.860   5.707  35.205 -0.2029  0.1142 -0.0109
13152W        W17552  12.512   5.981  31.212 -0.0948  0.2064  0.1099
13153W        W17553   9.228   5.394  15.930 -0.2356 -0.0355 -0.0934
13154W        W17554   2.089   5.788  23.223 -0.3333 -0.0385  0.2455
13155W        W17555  20.254   4.014  28.445 -0.0958 -0.2551  0.1802
13156W        W17556  14.938   6.274  22.646 -0.1361  0.1310  0.2798
13157W        W17557   3.550   1.953  34.488 -0.4702  0.0521 -0.0464
13158W        W17558  11.645   3.225  20.073 -0.0978 -0.1611 -0.0086
13159W        W17559  18.325   1.485  12.973 -0.1169 -0.0101  0.1107
13160W        W17560  17.162   6.221  14.298 -0.0901  0.0578  0.0343
13161W        W17561  14.255   4.070  20.927  0.2753  0.2687 -0.1057
13162W        W17562  10.542   1.748  31.992 -0.0234 -0.0677  0.3301
13163W        W17563  16.180   2.437   1.769 -0.2823 -0.0870 -0.0959
13164W        W17564   1.986   4.638  25.921 -0.1840 -0.0303 -0.2587
13165W        W17565   8.431   4.263  43.793 -0.0937  0.0369  0.0636
13166W        W17566   3.851   3.450   0.507  0.1830  0.2227 -0.1331
13167W        W17567   4.010   4.327  29.639 -0.0358  0.3754 -0.0275
13168W        W17568   6.485   1.398   7.559  0.1566 -0.4917  0.0450
13169W        W17569   4.928   3.516  44.640 -0.1139 -0.0033  0.2252
13170W        W17570   5.640   3.505   5.771  0.0124 -0.2109 -0.1256
13171W        W17571   9.870   2.604  44.981  0.0617  0.0784  0.0195
13172W        W17572   0.871   2.147  44.655  0.1230  0.0770  0.1455
13173W        W17573  14.574   2.165  36.339 -0.3215 -0.2145  0.1939
13174W        W17574   0.877   5.615  10.256  0.1238  0.1543  0.1782
13175W        W17575   6.245   2.471   8.731  0.0263 -0.1387 -0.3098
13176W        W17576  14.434   5.066   8.081 -0.0143  0.0433  0.0347
13177W        W17577   2.236   0.202  12.825  0.1065 -0.1598 -0.1516
13178W        W17578   7.364   2.695  38.561 -0.1643  0.1607 -0.0740
13179W        W17579   1.087   4.544  11.072 -0.0675  0.3020  0.0456
13180W        W17580  17.740   5.663  37.721 -0.0696 -0.1369  0.1055
13181W        W17581  11.558   0.494  35.077 -0.2014 -0.1370  0.0742
13182W        W17582   5.000   5.307   6.434 -0.0040  0.0164 -0.2325
13183W        W17583   6.040   1.271   2.975 -0.3241  0.3845 -0.3186
13184W        W17584   1.918   5.708  34.718  0.2423  0.1383 -0.3104
13185W        W17585   5.243   6.051  29.272 -0.1588 -0.0554  0.4065
13186W        W17586  10.004   3.742  28.530 -0.0026 -0.1351  0.0223
13187W        W17587  20.975   4.913  10.237 -0.0262  0.1792  0.2294
13188W        W17588   7.185   1.254  39.413 -0.0396  0.0560 -0.0481
13189W        W17589   0.495   1.303   3.402 -0.1794 -0.1117 -0.0650
13190W        W17590   8.151   2.671   7.282 -0.0460  0.2281  0.1283
13191W        W17591   7.654   4.444   5.752  0.1540 -0.0005 -0.1266
13192W        W17592  10.129   0.262   2.241  0.1690 -0.0487  0.4273
13193W        W17593   8.474   1.290   3.751  0.0278  0.0827  0.0748
13194W        W17594  12.070   3.271  18.433 -0.0123  0.2877 -0.0238
13195W        W17595   0.122   3.353   0.119  0.0680 -0.1186 -0.0443
13196W        W17596  16.796   2.137   5.064  0.0535  0.0138  0.2052
13197W        W17597  17.192   5.987   9.521 -0.1446 -0.2130 -0.1387
13198W        W17598  12.860   4.048  31.812 -0.3118 -0.1203  0.1056
13199W        W17599   5.263   1.454  11.464 -0.1879 -0.1883 -0.0648
13200W        W17600   3.328   3.400   2.851 -0.0123 -0.1324 -0.3193
13201W        W17601  17.011   4.150  11.511  0.1394 -0.1894 -0.2132
13202W        W17602  15.409   3.275  36.102 -0.0718  0.0889 -0.2983
13203W        W17603   8.560   2.413  44.683 -0.1691 -0.1168  0.0582
13204W        W17604  10.810   0.544  40.312 -0.3129 -0.1780  0.1947
13205W        W17605   6.655   3.905  44.371 -0.0919  0.0851 -0.0806
13206W        W17606   5.225   6.513   3.064  0.0192 -0.1830 -0.1216
13207W        W17607   3.698   5.723  34.503 -0.1668  0.0402  0.3404
13208W        W17608  12.628   0.609  16.658  0.1532  0.0322 -0.2858
13209W        W17609   1.717   2.592  41.811 -0.0913  0.0281  0.0328
13210W        W17610   3.813   0.628  32.897  0.3380  0.1872  0.7605
13211W        W17611   9.371   5.811  29.947 -0.0922  0.1300 -0.1772
13212W        W17612   8.931   3.953   3.685  0.1627  0.2310 -0.1944
13213W        W17613   4.591   5.936  13.545  0.2161  0.1615 -0.1733
13214W        W17614  15.979   0.207  43.332  0.1111 -0.2768 -0.1713
13215W        W17615  19.687   2.309  30.305  0.0890 -0.1235  0.0388
13216W        W17616   7.003   1.681  44.279  0.0658  0.0907  0.1213
13217W        W17617  11.736   4.560   6.736  0.0730 -0.0781 -0.1063
13218W        W17618  13.476   3.352  17.138 -0.0481  0.0428  0.2192
13219W        W17619  19.043   5.364   7.561 -0.1832  0.0623 -0.1677
13220W        W17620  15.364   4.029  38.800 -0.3517  0.0833 -0.1893
13221W        W17621  17.643   0.498   0.383  0.0359  0.0969  0.0138
13222W        W17622  20.625   1.848   1.221 -0.1220  0.0415  0.0631
13223W        W17623  13.922   4.893  24.031  0.0425 -0.0721  0.2487
13224W        W17624  19.014   3.719  12.107  0.0205  0.1731  0.0426
13225W        W17625  18.873   1.331  19.516 -0.0169  0.1155  0.2307
13226W        W17626   5.643   0.949   3.275  0.1951 -0.0492  0.0610
13227W        W17627  19.478   0.772  31.864 -0.0045  0.0865 -0.1600
13228W        W17628   8.470   2.470   3.592 -0.4520 -0.0322 -0.2791
13229W        W17629  17.923   2.774  40.536 -0.1641 -0.0928 -0.0855
13230W        W17630   5.303   3.140  43.574  0.0965  0.2603 -0.0149
13231W        W17631   0.581   6.056   1.696  0.1073 -0.1601  0.1562
13232W        W17632  14.990   2.575  10.746 -0.1343  0.0604  0.0905
13233W        W17633   8.627   3.939   8.841 -0.0248  0.0480  0.0122
13234W        W17634   2.612   2.651   2.566 -0.2203 -0.2895 -0.0529
13235W        W17635   2.801   5.546   4.466  0.3771 -0.1550 -0.1277
13236W        W17636  11.794   5.009  21.172  0.1601  0.0310 -0.1395
13237W        W17637  14.870   1.315  16.466  0.1682 -0.3054  0.1736
13238W        W17638  10.317   1.653  41.952  0.1630  0.2391  0.1926
13239W        W17639   6.148   1.388  15.984 -0.0803  0.3649  0.1145
13240W        W17640  20.200   0.661  42.685  0.1152 -0.4627  0.0153
13241W        W17641  21.164   2.360  29.421  0.1107  0.2840  0.4008
13242W        W17642  18.136   2.825  32.613  0.0369  0.0612 -0.0747
13243W        W17643   6.721   6.491  27.545  0.0486 -0.2486 -0.3208
13244W        W17644   0.261   2.810  27.112 -0.0031  0.1930 -0.2012
13245W        W17645  11.299   2.197  30.503  0.2955 -0.0511 -0.2528
13246W        W17646   9.874   0.876  12.082 -0.0390  0.1147 -0.0897
13247W        W17647   5.025   2.238  24.064 -0.0734  0.0620  0.0909
13248W        W17648   6.126   5.394  11.416 -0.0911  0.0662  0.4238
13249W        W17649  14.596   5.964  24.113  0.0356 -0.2024 -0.1979
13250W        W17650  13.369   2.389   9.313  0.0866 -0.0099  0.1135
13251W        W17651  18.481   6.546  36.999  0.0036  0.0265 -0.0255
13252W        W17652   2.889   5.089   5.631  0.3434  0.1546  0.2033
13253W        W17653  18.865   2.459   8.165  0.1132 -0.0570 -0.2156
13254W        W17654  13.364   1.974  40.686 -0.1832 -0.1572  0.2614
13255W        W17655   2.492   2.451   4.894 -0.2284 -0.1081  0.1625
13256W        W17656   0.963   2.828  11.879  0.3469  0.0844  0.1051
13257W        W17657  17.629   0.563  17.955 -0.2133 -0.0577 -0.1278
13258W        W17658   6.526   4.631  41.950  0.3051 -0.0406 -0.2943
13259W        W17659  11.759   1.493   4.442  0.0299 -0.2468  0.3010
13260W        W17660  16.965   5.687   1.820  0.2888  0.1535  0.0473
13261W        W17661   9.731   5.391   8.180  0.0687  0.0486  0.2937
13262W        W17662   3.519   1.906  42.747 -0.4526 -0.2192 -0.1799
13263W        W17663   9.629   4.941   6.324  0.1904  0.2391 -0.3208
13264W        W17664   5.859   6.370  24.356 -0.3132 -0.0030  0.0470
13265W        W17665  16.185   1.626  40.445 -0.1681  0.1284 -0.2056
13266W        W17666   9.511   2.916  28.323  0.1035  0.0469 -0.1977
13267W        W17667   0.655   2.904  13.926 -0.0292  0.0541  0.2046
13268W        W17668   1.740   0.104  31.619  0.0075 -0.1205 -0.0895
13269W        W17669  16.580   4.921   6.632  0.2452 -0.2047 -0.1359
13270W        W17670  12.829   4.807  20.184  0.2234 -0.2182 -0.6237
13271W        W17671  11.020   4.713  33.723 -0.2202  0.0801 -0.1890
13272W        W17672   9.586   3.706  38.450  0.0058  0.1463 -0.0167
13273W        W17673   0.324   0.259   2.272 -0.0856  0.5067 -0.3631
13274W        W17674  20.994   2.585  29.799  0.0000 -0.3101  0.2513
13275W        W17675  10.718   6.380  18.274  0.1225  0.3498 -0.2867
13276W        W17676  13.415   4.580  15.307 -0.4221 -0.3485  0.0275
13277W        W17677  12.735   2.580  40.784  0.1146 -0.0976 -0.0924
13278W        W17678  19.887   4.321  40.529  0.2739 -0.0246 -0.2379
13279W        W17679  17.414   4.330   7.191  0.0372  0.0554  0.3630
13280W        W17680  20.056   1.301  43.124  0.1060  0.1644 -0.0513
13281W        W17681  15.834   4.892  29.263  0.3236 -0.0993 -0.1103
13282W        W17682  20.479   1.579   9.021 -0.0561 -0.2001  0.2018
13283W        W17683  19.975   3.514  34.377  0.0988  0.0370 -0.0344
13284W        W17684   4.703   3.440  23.688 -0.1691 -0.0360 -0.0415
13285W        W17685  10.720   1.860  19.755 -0.0733  0.2603 -0.0773
13286W        W17686  17.599   5.908   2.371 -0.0056 -0.1826  0.0705
13287W        W17687  10.348   3.625   6.836 -0.4242  0.0501 -0.1261
13288W        W17688  12.729   0.380  14.126  0.1433  0.1322 -0.0260
13289W        W17689   8.934   4.610  37.040  0.1587 -0.1429 -0.1868
13290W        W17690   0.381   2.140   7.042 -0.0403 -0.2638  0.0652
13291W        W17691   5.652   2.275  15.689 -0.3439 -0.1581 -0.1025
13292W        W17692  12.924   4.863  36.543  0.1218  0.0101  0.0253
13293W        W17693  17.560   3.140  39.043  0.0163  0.1780  0.0315
13294W        W17694  13.946   6.351  37.368  0.1311 -0.0597 -0.0091
13295W        W17695  20.667   5.361  27.056  0.0789  0.1768 -0.0161
13296W        W17696  17.064   1.986  44.348  0.2893  0.0921  0.1285
13297W        W17697  11.896   5.030   7.118 -0.1220 -0.0103  0.1192
13298W        W17698  15.186   4.036  39.727  0.0187  0.2054 -0.1322
13299W        W17699   4.876   1.116   9.285 -0.0190 -0.0911  0.2170
13300W        W17700  17.121   4.144  31.916 -0.2160 -0.0073 -0.1670
13301W        W17701  10.524   5.450  33.803  0.1608  0.1737  0.2720
13302W        W17702  10.805   4.531  34.263  0.0304  0.1744 -0.1257
13303W        W17703  14.323   6.197  21.798  0.1460  0.0335 -0.1388
13304W        W17704   8.809   2.539   0.095  0.0379 -0.2682 -0.0671
13305W        W17705  17.477   6.058  12.247 -0.1301 -0.0899 -0.0153
13306W        W17706  16.416   3.464  39.739 -0.2660 -0.0055  0.0913
13307W        W17707   9.754   3.183  44.466 -0.0724  0.0417 -0.1597
13308W        W17708  11.141   4.963  28.660  0.0732 -0.2223 -0.3039
13309W        W17709   4.396   0.208  23.788  0.0095 -0.1014 -0.1758
13310W        W17710   9.366   5.147  45.048 -0.1885 -0.2191  0.1395
13311W        W17711   9.702   4.031  39.335 -0.0009  0.1810  0.0552
13312W        W17712  13.834   0.334   5.604 -0.1230  0.1677  0.1083
13313W        W17713   5.890   2.816   9.785  0.0166 -0.0456 -0.2151
13314W        W17714  13.266   5.293  43.271 -0.0738  0.0635  0.3817
13315W        W17715  13.248   1.610  30.894  0.2328 -0.2723  0.2480
13316W        W17716  11.012   0.088  12.310 -0.0795 -0.1344  0.1626
13317W        W17717  20.301   1.740  30.792 -0.3562  0.1386 -0.2386
13318W        W17718  16.749   1.183  37.992 -0.0089 -0.0027  0.1191
13319W        W17719  16.103   5.431   3.239 -0.0483  0.1153 -0.0671
13320W        W17720  11.997   3.720  35.884  0.1049  0.4767  0.3158
13321W        W17721  14.744   1.481  14.022 -0.0096 -0.3267 -0.3645
13322W        W17722  16.786   2.550  15.432  0.2119 -0.2146  0.1740
13323W        W17723  19.074   1.705  35.581 -0.2041 -0.1380 -0.0063
13324W        W17724  13.542   2.243  12.315  0.0971 -0.2196 -0.1916
13325W        W17725   3.336   4.904  42.205  0.1343  0.0826 -0.1472
13326W        W17726   3.226   6.337  39.752  0.1321  0.0322  0.0069
13327W        W17727   5.496   1.438   3.070 -0.0476  0.0643 -0.3350
13328W        W17728   5.845   2.920  44.345 -0.0552  0.0704 -0.0139
13329W        W17729  15.596   2.192  44.891  0.3222  0.0914 -0.0818
13330W        W17730  13.802   2.056   0.135  0.0379 -0.1426 -0.2494
13331W        W17731   4.235   3.616  11.044  0.2971  0.3274  0.0406
13332W        W17732  12.564   0.784  40.389  0.1347 -0.2665 -0.1068
13333W        W17733   9.245   2.581  37.794 -0.0889 -0.3048 -0.0752
13334W        W17734  14.396   2.574  41.764  0.0276 -0.1596 -0.0351
13335W        W17735  19.865   3.972  36.329  0.0760  0.1151 -0.0223
13336W        W17736  20.434   4.482   4.249 -0.1312  0.1155  0.0711
13337W        W17737   1.972   3.403  24.033  0.0754  0.1019  0.1586
13338W        W17738   8.183   0.797  43.242 -0.0954 -0.0297 -0.3784
13339W        W17739  14.232   1.566  11.465  0.1759 -0.0199  0.0937
13340W        W17740   6.043   0.531  11.345 -0.1048  0.0164 -0.1748
13341W        W17741   3.539   0.054  25.503  0.3933 -0.2268  0.0705
13342W        W17742  11.821   6.601  40.305 -0.1816  0.3364 -0.1348
13343W        W17743   3.129   3.262  24.737 -0.1559  0.3305 -0.1540
13344W        W17744   6.910   3.971   2.099 -0.1739 -0.2590  0.1776
13345W        W17745   2.496   2.404   1.270 -0.1879  0.0393 -0.1130
13346W        W17746   9.228   2.965   8.029 -0.0495  0.3833  0.3141
13347W        W17747   3.129   1.884   2.898  0.2275  0.3517 -0.0613
13348W        W17748  18.695   3.724  36.180 -0.0870  0.0798  0.0262
13349W        W17749   9.172   0.391  14.274  0.1200 -0.0804 -0.0071
13350W        W17750   1.027   2.355  32.607 -0.1790 -0.1693 -0.1100
13351W        W17751   0.256   4.602  33.759  0.1708 -0.0599  0.0698
13352W        W17752   1.935   2.503  44.614  0.0261  0.0003 -0.0911
13353W        W17753  18.777   1.642   5.400 -0.0911  0.0452  0.2194
13354W        W17754  11.863   3.362  21.817  0.0081  0.1952 -0.1540
13355W        W17755   1.412   4.732  23.912 -0.2993 -0.3112 -0.1683
13356W        W17756  16.898   5.505   3.460 -0.1137 -0.0569 -0.0956
13357W        W17757  18.518   3.339  39.980 -0.0064 -0.0168  0.1736
13358W        W17758   0.364   5.121  41.979  0.1961  0.0239  0.1036
13359W        W17759  14.709   2.593  18.525  0.0584  0.0822  0.0109
13360W        W17760  11.262   0.251  14.918  0.3986  0.0830  0.1504
13361W        W17761  19.812   3.214  13.888  0.0176  0.2538 -0.0199
13362W        W17762   3.799   4.537  28.331 -0.1534 -0.0953  0.1535
13363W        W17763   6.232   2.973   1.601  0.0296 -0.1600  0.1742
13364W        W17764   0.701   2.635  10.622 -0.0189  0.4166  0.0014
13365W        W17765   0.095   2.282  38.039  0.0047 -0.0189  0.2817
13366W        W17766  18.227   4.730  40.627  0.0384 -0.2736 -0.1671
13367W        W17767  17.479   5.625  41.470  0.0129  0.3094  0.1449
13368W        W17768   2.264   1.276  37.332 -0.2693  0.0381 -0.3114
13369W        W17769   8.587   0.207  33.135  0.1288  0.2840 -0.0395
13370W        W17770  18.990   3.604  10.994 -0.1061 -0.2548  0.2274
13371W        W17771  15.158   1.771  40.240 -0.4193 -0.2095 -0.0174
13372W        W17772  12.302   4.302  33.420  0.1814 -0.1705  0.3384
13373W        W17773   3.489   1.269  44.470 -0.2861  0.1529  0.2672
13374W        W17774   2.344   3.334   9.022 -0.1018  0.1081  0.1343
13375W        W17775  14.466   1.117  17.384  0.2098  0.1083 -0.2073
13376W        W17776   0.589   6.373  16.807  0.1207  0.0148 -0.0637
13377W        W17777   1.690   4.829  12.390  0.1081 -0.3903  0.3257
13378W        W17778  11.878   5.147  30.561  0.1944  0.1816 -0.0730
13379W        W17779   6.682   5.788  43.791 -0.0523  0.1004 -0.1060
13380W        W17780   7.400   4.518  25.518 -0.3007 -0.3170  0.2318
13381W        W17781  18.299   2.352   0.466 -0.2769  0.2170 -0.1355
13382W        W17782   3.382   5.559  21.379  0.2541  0.2641  0.1482
13383W        W17783  14.045   1.959   9.652  0.1513 -0.3735  0.0509
13384W        W17784   0.352   3.754  11.630 -0.0224  0.1154 -0.0317
13385W        W17785   8.369   4.590   9.637  0.1009 -0.1226 -0.1871
13386W        W17786  11.665   3.552   3.747 -0.2899  0.1296  0.1548
13387W        W17787  20.182   6.366  32.672  0.2627  0.1892  0.0647
13388W        W17788  15.897   2.441  21.697  0.1119  0.0437 -0.3491
13389W        W17789   9.604   0.309  28.766  0.0451 -0.0951  0.0945
13390W        W17790  16.840   3.092  22.512  0.0383 -0.0418  0.4727
13391W        W17791   8.047   0.309  27.429 -0.1601  0.0891 -0.0499
13392W        W17792  17.540   2.594   7.986 -0.1617 -0.1858  0.5026
13393W        W17793   2.878   0.260  38.300  0.3668  0.5100  0.1243
13394W        W17794  16.499   2.477  31.776 -0.1904 -0.0319  0.1161
13395W        W17795  16.316   2.774  16.163 -0.1575 -0.6066 -0.0021
13396W        W17796   8.136   1.447  33.310 -0.0479  0.0636 -0.1250
13397W        W17797   0.476   2.784  33.119 -0.1698  0.2907 -0.0637
13398W        W17798  12.409   2.407  21.640  0.0805 -0.0048  0.0351
13399W        W17799  13.933   4.844  16.372  0.0047  0.1159  0.1143
13400W        W17800   9.836   3.952  28.035 -0.0167  0.0092  0.1377
13401W        W17801  16.359   0.634  39.040 -0.0817 -0.0928  0.0840
13402W        W17802   8.648   4.972  26.023 -0.2400  0.0989 -0.1784
13403W        W17803   4.556   3.926  37.129 -0.0455  0.1479 -0.3924
13404W        W17804   2.334   4.029  39.044  0.0260 -0.0385 -0.0606
13405W        W17805  14.175   0.553  10.334 -0.3415 -0.2721 -0.0118
13406W        W17806  20.673   2.098  39.422  0.2526  0.1380  0.0073
13407W        W17807   8.086   3.873  36.637 -0.1614 -0.0586 -0.0460
13408W        W17808  14.157   4.504  16.108  0.3040  0.0208  0.2703
13409W        W17809   9.360   3.209  35.777 -0.0657 -0.2083  0.1984
13410W        W17810  18.866   1.611   6.242 -0.3275 -0.0448 -0.0670
13411W        W17811  16.245   0.595   8.782 -0.0008 -0.2046 -0.1656
13412W        W17812   6.386   4.535  34.769 -0.2014 -0.0891 -0.2167
13413W        W17813  20.922   3.898  32.720 -0.3612 -0.3023  0.0578
13414W        W17814  19.403   2.538   7.730  0.1776  0.0038 -0.2248
13415W        W17815  11.955   2.198  35.666 -0.1386  0.2396 -0.0431
13416W        W17816  19.627   1.811   5.082 -0.3739 -0.1222 -0.1827
13417W        W17817  17.279   5.725  45.054 -0.2129  0.2085  0.4803
13418W        W17818   2.738   0.172   3.129 -0.2017  0.2182 -0.0516
13419W        W17819   8.551   4.530  33.861  0.0044  0.0492  0.0792
13420W        W17820  16.579   3.326  10.499 -0.1766  0.1287 -0.2822
13421W        W17821  19.385   2.168   2.960  0.2963 -0.3404  0.2245
13422W        W17822  20.486   5.458   9.350  0.3287 -0.1689  0.0386
13423W        W17823  13.073   2.270  42.971  0.2282 -0.0832  0.2784
13424W        W17824  16.537   3.046  21.266  0.1343  0.1355  0.1384
13425W        W17825  15.894   4.938  36.743  0.1067 -0.0642  0.0272
13426W        W17826  21.039   2.108  39.773  0.1964 -0.0467 -0.0844
13427W        W17827  18.146   3.439  29.670  0.2542  0.2088  0.1057
13428W        W17828  18.722   5.774  17.673  0.1380  0.1619  0.1032
13429W        W17829   1.614   1.594   9.029  0.0029 -0.1254 -0.2450
13430W        W17830  15.086   4.466  18.672 -0.3597  0.5023  0.0817
13431W        W17831   9.092   4.319   9.511  0.2131 -0.3515 -0.2027
13432W        W17832  14.080   4.074  42.216  0.2084 -0.2042  0.1014
13433W        W17833   7.246   4.671  29.299  0.0063 -0.0500 -0.3111
13434W        W17834  18.875   2.824  39.287  0.3942  0.0934 -0.0119
13435W        W17835  12.538   6.171  43.982  0.0268  0.2073  0.2930
13436W        W17836  11.809   6.481  42.951  0.2540  0.0236 -0.1148
13437W        W17837   0.207   6.433  39.557  0.0110 -0.2125 -0.2926
13438W        W17838   4.231   5.024   8.828 -0.1738 -0.0346  0.2003
13439W        W17839   6.514   0.606  25.197  0.1977 -0.1168 -0.1373
13440W        W17840  10.904   3.176  41.227 -0.5477 -0.3142  0.0143
13441W        W17841   4.499   4.081  41.062  0.2267 -0.0851 -0.0256
13442W        W17842  11.560   4.988  16.508  0.0089 -0.0360 -0.3143
13443W        W17843   4.114   6.155   5.073  0.1786  0.1984 -0.0291
13444W        W17844   7.895   6.279   6.172 -0.2613 -0.1206 -0.1536
13445W        W17845   5.085   4.408  36.406 -0.0240  0.1090 -0.0664
13446W        W17846  10.274   4.874  29.897 -0.0865 -0.1369 -0.2487
13447W        W17847  17.657   0.457  39.316  0.0726  0.1456 -0.1277
13448W        W17848  11.473   4.302  44.972 -0.1629 -0.0872  0.0227
13449W        W17849  16.691   2.322  36.879 -0.0468  0.0972 -0.1343
13450W        W17850   8.050   1.567   6.831  0.1397 -0.0281 -0.0478
13451W        W17851   4.590   5.940  31.123  0.1559  0.0312 -0.0386
13452W        W17852  12.289   4.111  43.891 -0.0039 -0.0276  0.0592
13453W        W17853  15.866   3.466   8.907 -0.1583  0.1326 -0.0688
13454W        W17854   1.112   5.646   3.102 -0.1520 -0.3672  0.2256
13455W        W17855   7.283   3.977   1.711  0.0771  0.0262 -0.0827
13456W        W17856  18.396   1.059   4.312  0.1227 -0.0782 -0.0237
13457W        W17857  16.377   5.779   4.138  0.1493  0.0175 -0.1643
13458W        W17858   3.089   1.376  28.059  0.2005  0.1792  0.5117
13459W        W17859   1.777   3.731  34.202 -0.3739 -0.0438 -0.1364
13460W        W17860   3.030   5.135   8.506 -0.1638 -0.3139  0.1594
13461W        W17861  11.272   4.944  21.059 -0.2784  0.2517  0.0837
13462W        W17862  18.680   4.645  37.432  0.0682  0.0165  0.0151
13463W        W17863   7.231   6.149  35.372  0.2102 -0.1133  0.1871
13464W        W17864   5.532   3.139  24.413  0.1185  0.1035  0.0541
13465W        W17865  13.171   2.752  36.099  0.0557  0.2312  0.0344
13466W        W17866  10.778   4.511  29.349 -0.2641 -0.1071  0.0386
13467W        W17867  13.891   4.902  30.933 -0.3260 -0.1334  0.1494
13468W        W17868   8.862   6.415  33.264  0.2943 -0.2230 -0.0840
13469W        W17869  20.358   4.642  32.967 -0.2523  0.0616 -0.0956
13470W        W17870   8.418   1.767   9.517  0.0971 -0.1699  0.0698
13471W        W17871  12.496   2.248   2.898 -0.0215 -0.1929  0.1103
13472W        W17872  11.423   4.119   3.112  0.0180  0.1439 -0.0655
13473W        W17873  17.974   3.291  39.760 -0.0587 -0.1183  0.0368
13474W        W17874   7.052   3.603  12.906  0.0470  0.0594 -0.0332
13475W        W17875  18.419   1.578  15.604  0.1693  0.0293 -0.0609
13476W        W17876  17.636   6.192   9.260  0.0761 -0.2879  0.1027
13477W        W17877  18.912   4.699  12.553  0.2041  0.0580  0.0446
13478W        W17878   1.275   1.616   1.102 -0.2628 -0.2664  0.1617
13479W        W17879  15.195   0.689  12.624  0.3833  0.1307  0.0558
13480W        W17880  10.247   3.279  36.111  0.1804  0.0741 -0.1330
13481W        W17881  18.042   0.762  32.366  0.1409  0.1923 -0.1047
13482W        W17882  18.729   3.041   5.538 -0.1728  0.2388  0.0977
13483W        W17883   2.691   5.973  39.146  0.2871  0.1325 -0.0620
13484W        W17884   3.419   6.135   2.628  0.0032 -0.0217  0.1725
13485W        W17885  16.263   6.129  34.188 -0.2252 -0.0666  0.1477
13486W        W17886  16.048   0.278  41.291  0.0833 -0.1592 -0.4527
13487W        W17887  13.986   6.491   3.697 -0.0350  0.0201 -0.0328
13488W        W17888  14.209   2.589  18.004  0.1318 -0.0914 -0.2960
13489W        W17889   8.912   1.830  28.989  0.3117 -0.2973  0.1384
13490W        W17890   4.034   5.828   7.275  0.0312 -0.1381 -0.3342
13491W        W17891  21.055   3.718  16.217 -0.0236  0.2924  0.0110
13492W        W17892   4.188   0.920  15.553 -0.0171  0.2735  0.1531
13493W        W17893   3.827   1.459  32.518  0.0892 -0.1826  0.1073
13494W        W17894   0.819   5.143  41.741 -0.0682 -0.3055 -0.0156
13495W        W17895  13.375   1.538   2.336  0.2958  0.2223  0.0655
13496W        W17896   0.060   4.369  12.208  0.1976  0.0216 -0.1616
13497W        W17897   6.532   2.833  15.109 -0.1693 -0.1711  0.1184
13498W        W17898   4.572   6.219  34.485  0.0647 -0.1280  0.3214
13499W        W17899   0.450   3.372  13.151 -0.2406 -0.0200  0.0389
13500W        W17900  19.174   6.005  36.880  0.1787  0.1122  0.1784
13501W        W17901   2.426   1.247  35.571 -0.2060 -0.1620 -0.1769
13502W        W17902   2.927   2.028   8.795  0.1437 -0.1428 -0.1518
13503W        W17903  14.053   2.179  23.645 -0.1317 -0.2039 -0.1309
13504W        W17904  14.845   1.975  39.902  0.3802 -0.1575  0.0587
13505W        W17905  14.290   0.102  15.229  0.1206 -0.1191 -0.1765
13506W        W17906  15.527   1.553  38.356 -0.1506  0.0072 -0.0452
13507W        W17907   3.131   1.930   7.169  0.0419  0.0605 -0.2434
13508W        W17908  14.959   5.528  34.642 -0.1837 -0.0693  0.0272
13509W        W17909  12.017   5.872  30.570  0.0014 -0.3821  0.1417
13510W        W17910   9.136   5.070  26.310  0.2809 -0.1855  0.0503
13511W        W17911  10.752   4.392  40.908 -0.1763  0.0952 -0.1166
13512W        W17912  10.322   2.540  30.945 -0.0198 -0.1895 -0.0187
13513W        W17913   7.602   2.402  40.016 -0.0829 -0.0131 -0.4461
13514W        W17914  21.010   0.811   2.855  0.1254  0.1342  0.0145
13515W        W17915  13.143   5.716  36.195  0.0655  0.1410  0.3788
13516W        W17916  17.792   3.563   7.027  0.0801 -0.0147 -0.0641
13517W        W17917  10.676   5.694  41.970 -0.2821  0.1953 -0.0195
13518W        W17918  17.912   5.782  40.022  0.0591  0.1966  0.4470
13519W        W17919   6.951   2.456  42.618  0.1266 -0.1308  0.0198
13520W        W17920   5.195   0.946  23.335 -0.2764  0.0289  0.1315
13521W        W17921   9.342   2.923   6.698 -0.1927  0.0990  0.0998
13522W        W17922   4.315   1.390  40.687  0.0969  0.0760  0.0937
13523W        W17923   8.470   0.238  26.225 -0.1177  0.0743  0.1920
13524W        W17924  16.076   5.562  32.065 -0.1674  0.3332  0.0117
13525W        W17925  12.013   2.381   8.766  0.0649 -0.1264  0.4125
13526W        W17926   9.107   0.729  31.507  0.0096 -0.0861  0.2751
13527W        W17927  11.063   3.093  40.057  0.0741  0.1857 -0.2063
13528W        W17928  10.652   1.715  30.900 -0.2287  0.1822 -0.1307
13529W        W17929  19.143   0.082  32.570  0.1412 -0.1400 -0.0249
13530W        W17930   0.417   0.084  43.042 -0.2735 -0.2138  0.2529
13531W        W17931   2.817   0.923  34.697 -0.2339  0.1072 -0.2101
13532W        W17932  18.868   2.358  40.301  0.3077  0.0260 -0.1743
13533W        W17933   3.418   2.139  30.135 -0.0869 -0.2316 -0.2170
13534W        W17934  15.350   1.143  29.913  0.0084 -0.1767 -0.1264
13535W        W17935   2.375   0.753  24.791 -0.1371  0.0617 -0.2255
13536W        W17936   5.007   0.793  21.956  0.1976  0.0758 -0.1414
13537W        W17937   5.617   2.181  15.192  0.2704 -0.1517 -0.0836
13538W        W17938  13.574   6.576   0.779  0.0253 -0.0955 -0.0193
13539W        W17939   4.689   3.016  13.163 -0.0716  0.0544  0.2323
13540W        W17940   3.781   4.502  40.621 -0.3415 -0.1116  0.0723
13541W        W17941   2.074   3.398  14.641  0.1678 -0.3205 -0.0085
13542W        W17942  21.145   3.814  29.094 -0.0025 -0.2193  0.1026
13543W        W17943  19.819   0.576  13.983 -0.0172 -0.3904 -0.1463
13544W        W17944  17.037   2.437  36.589  0.3867  0.0706 -0.0063
13545W        W17945  19.661   6.268  11.085 -0.0926  0.1707  0.1107
13546W        W17946  15.728   3.525  42.736 -0.0035 -0.0300 -0.1083
13547W        W17947  10.431   1.647  31.355  0.2405  0.0544  0.0285
13548W        W17948  10.977   4.108   7.010  0.0531 -0.0440  0.0980
13549W        W17949   9.124   3.472  38.199  0.2396  0.0070  0.1462
13550W        W17950  10.234   0.133  11.054 -0.2391  0.1290 -0.0717
13551W        W17951  11.776   2.720  35.591 -0.1691 -0.0130  0.2548
13552W        W17952   9.462   5.337  39.997  0.1949 -0.0094 -0.1997
13553W        W17953  14.534   5.012   3.924 -0.0846  0.1288  0.0622
13554W        W17954  15.575   0.674  36.197 -0.0056  0.3572 -0.2037
13555W        W17955   2.072   5.681  32.910  0.1464  0.1153 -0.0867
13556W        W17956   6.341   0.389   4.696 -0.0684  0.1419  0.1168
13557W        W17957  20.503   2.409   7.165 -0.1761 -0.0863  0.1880
13558W        W17958  15.802   0.818  38.523  0.0659 -0.3795  0.1367
13559W        W17959   0.559   5.870   0.781 -0.2049 -0.2650  0.0255
13560W        W17960   4.725   4.182  21.298  0.4048  0.1300 -0.1808
13561W        W17961   6.791   5.618  37.058 -0.2470  0.1252 -0.1562
13562W        W17962   8.609   1.042   5.253 -0.1787  0.0611 -0.0176
13563W        W17963  15.969   1.000  43.568 -0.1401  0.1453 -0.0387
13564W        W17964   9.236   4.684   1.080 -0.0068 -0.2362 -0.0438
13565W        W17965  19.563   0.073   3.139  0.1371 -0.1402 -0.1276
13566W        W17966  17.775   5.190   4.803  0.0881 -0.5535 -0.2513
13567W        W17967   5.803   1.701  15.160  0.1142 -0.0680 -0.1929
13568W        W17968  13.646   0.477  21.560 -0.0386  0.3166  0.1843
13569W        W17969   7.755   6.331   6.672 -0.1304  0.0074  0.2075
13570W        W17970  16.468   5.033  14.380 -0.1303 -0.0113 -0.2277
13571W        W17971  15.526   2.567  21.339 -0.0756 -0.1272  0.0375
13572W        W17972   6.252   1.880  16.390  0.1714 -0.0147 -0.2492
13573W        W17973  11.665   3.236  34.689 -0.2280 -0.0522 -0.1028
13574W        W17974   8.151   0.236  33.426  0.1461  0.0963 -0.0541
13575W        W17975   2.085   0.561   7.129 -0.0272 -0.2027 -0.0608
13576W        W17976  17.784   4.941  36.846  0.0114  0.0530 -0.0507
13577W        W17977   9.332   1.120   3.648 -0.0672  0.1288 -0.0668
13578W        W17978  13.819   3.765  28.963  0.0974 -0.0436 -0.2227
13579W        W17979  15.037   2.696  28.353 -0.1142  0.2738 -0.1151
13580W        W17980  20.678   6.116  28.180 -0.0155 -0.1661  0.0842
13581W        W17981  15.816   6.079  16.706  0.3204 -0.1684  0.1733
13582W        W17982   2.191   2.927   8.254 -0.0597  0.1779  0.3862
13583W        W17983  13.317   1.689  13.628 -0.1323 -0.2459  0.2338
13584W        W17984  19.295   6.153  43.210  0.1173 -0.1830 -0.0776
13585W        W17985  15.926   6.239  14.782 -0.0855 -0.1692  0.0329
13586W        W17986  19.817   0.584   6.775 -0.2874  0.0135  0.2360
13587W        W17987  11.467   1.593  42.045  0.3027  0.1267 -0.1797
13588W        W17988   8.539   0.276   8.471  0.2252 -0.1148 -0.1001
13589W        W17989   1.015   4.919  26.317 -0.1707 -0.0821  0.0740
13590W        W17990  15.579   6.023   9.087 -0.0277 -0.2588  0.1915
13591W        W17991  19.226   3.929  35.967  0.1101 -0.0895  0.1047
13592W        W17992  11.608   4.977   5.418  0.0162 -0.1951 -0.1668
13593W        W17993  18.864   4.640  28.476 -0.1895 -0.0662  0.3222
13594W        W17994   5.481   3.815  33.138 -0.0223  0.4292 -0.0047
13595W        W17995   4.035   1.318  14.776 -0.0293  0.2617 -0.3383
13596W        W17996   8.133   0.610  42.416  0.0332  0.0411 -0.0336
13597W        W17997  15.842   6.581   4.211 -0.0825  0.1074  0.3127
13598W        W17998   4.180   1.540   7.178 -0.0776 -0.1643 -0.2844
13599W        W17999  18.514   3.580  42.503 -0.0272 -0.0504 -0.0982
13600W        W18000  18.352   0.130  36.030 -0.1924  0.1227  0.2355
13601W        W18001  10.555   0.850  12.837 -0.1557 -0.2078  0.0208
13602W        W18002   8.155   4.415  14.571  0.0610 -0.4184 -0.0567
13603W        W18003   0.873   1.906   7.062 -0.1061  0.0549 -0.1561
13604W        W18004  20.791   1.713   6.667  0.0846  0.1544 -0.1610
13605W        W18005  14.431   4.163   0.605  0.2799 -0.2860  0.0560
13606W        W18006  17.998   4.481  19.852 -0.3311  0.1390 -0.0659
13607W        W18007   5.947   4.649  16.222  0.1723  0.0944  0.1422
13608W        W18008  19.754   4.237  35.338  0.1019  0.1150 -0.0402
13609W        W18009  19.393   3.863  39.209  0.0145  0.0414 -0.2028
13610W        W18010   1.868   0.469  44.084  0.0621 -0.2444  0.1551
13611W        W18011  20.494   2.106  16.818 -0.0366  0.1856  0.2917
13612W        W18012  10.101   2.292  10.642  0.3706 -0.0370 -0.0036
13613W        W18013  12.301   2.000  38.253 -0.3355  0.1373 -0.2634
13614W        W18014   9.525   4.301  31.326 -0.0089 -0.0889 -0.1835
13615W        W18015  17.837   4.595   3.025 -0.0514  0.1187  0.2443
13616W        W18016   9.335   0.687   7.558 -0.0564 -0.0256  0.0535
13617W        W18017   7.416   1.235  38.446 -0.1297 -0.1630  0.0230
13618W        W18018  17.006   3.214  31.132 -0.0343 -0.1012  0.0265
13619W        W18019  16.661   4.946  13.958  0.0603 -0.2532  0.3539
13620W        W18020   0.327   4.206   5.103 -0.0211 -0.2287 -0.1405
13621W        W18021   1.572   2.673   7.619 -0.1288  0.2671 -0.1594
13622W        W18022   7.445   3.394  29.050 -0.0255  0.4175 -0.1292
13623W        W18023   8.897   0.139  11.962  0.1659 -0.0685  0.0606
13624W        W18024   0.676   1.600  11.754  0.2494  0.0764 -0.1416
13625W        W18025   4.747   5.130  41.176 -0.0226 -0.2945 -0.0882
13626W        W18026   8.564   5.307  10.415  0.1645  0.2468  0.0191
13627W        W18027  16.995   0.623  39.937 -0.0902 -0.1445 -0.2054
13628W        W18028  14.012   4.966   6.892 -0.3194  0.1573 -0.1451
13629W        W18029   0.657   5.399  44.618  0.0662  0.0273  0.1997
13630W        W18030   0.644   1.464  13.776  0.0649  0.0950 -0.1190
13631W        W18031   9.651   4.410  34.876 -0.2671  0.1028  0.2170
13632W        W18032  14.838   4.019  14.503 -0.3957  0.1309 -0.1703
13633W        W18033  10.715   0.456  28.949 -0.2454  0.3075  0.2723
13634W        W18034   6.099   4.541  38.468 -0.3197  0.1632 -0.1250
13635W        W18035  12.181   0.064   2.621  0.2041 -0.2648  0.0563
13636W        W18036  12.286   1.361  30.821 -0.1445  0.4114  0.1309
13637W        W18037   0.505   0.891  12.543 -0.2881 -0.1464 -0.1914
13638W        W18038   1.698   0.178  28.552 -0.1321 -0.1901 -0.0057
13639W        W18039   0.223   0.686  16.538  0.1847  0.1463 -0.0903
13640W        W18040  16.988   4.685  32.703  0.0705 -0.1120  0.2321
13641W        W18041   5.254   0.525  35.486  0.0854 -0.4201  0.1390
13642W        W18042   6.952   0.805  14.079 -0.2184  0.3948 -0.2406
13643W        W18043  13.266   0.608  22.105 -0.3729  0.0617  0.4875
13644W        W18044  15.330   3.727   0.029 -0.1548 -0.0085  0.0212
13645W        W18045  10.550   2.394   5.276 -0.0614  0.1333  0.4681
13646W        W18046   7.386   2.005  40.416  0.0013 -0.2228  0.2329
13647W        W18047  13.678   3.947  31.089  0.1815  0.0431  0.3320
13648W        W18048  14.076   1.560  10.865 -0.1310  0.3500 -0.1270
13649W        W18049   9.780   4.908  10.253 -0.1135  0.1845 -0.0506
13650W        W18050  17.438   5.380   6.070 -0.1986  0.0068  0.1539
13651W        W18051   6.783   6.118  13.429  0.1945 -0.0702  0.1880
13652W        W18052   6.217   2.189  39.823 -0.1603 -0.0621  0.0095
13653W        W18053   6.075   4.124  43.656  0.0998  0.0234  0.1359
13654W        W18054  12.355   0.153   0.678  0.0155  0.1771  0.4180
13655W        W18055  17.942   4.054   4.818 -0.0093  0.0819 -0.0582
13656W        W18056  17.568   2.141  20.282  0.1055 -0.0327  0.0332
13657W        W18057  15.935   5.963  36.091 -0.0814 -0.0537  0.1350
13658W        W18058  16.117   6.375  42.486 -0.0145 -0.2040  0.2019
13659W        W18059  19.503   6.395   1.864 -0.0863 -0.0002  0.0042
13660W        W18060   3.584   2.091   7.486  0.0201  0.0985 -0.2141
13661W        W18061   8.443   0.282   4.154  0.0843  0.1116 -0.1948
13662W        W18062   4.658   2.398  25.415 -0.0358  0.1161  0.1650
13663W        W18063   8.868   3.923   7.658  0.1161  0.0464 -0.0544
13664W        W18064   2.481   2.920  38.201  0.1803 -0.0137  0.0257
13665W        W18065   8.348   0.177  15.497 -0.2038 -0.2623  0.0459
13666W        W18066   8.399   0.360  44.115  0.0045 -0.0963  0.0975
13667W        W18067  20.016   3.823  45.097 -0.3327  0.0517  0.0563
13668W        W18068   2.401   2.939  23.972  0.1742  0.2589  0.0167
13669W        W18069  21.029   2.416  30.805  0.0642 -0.0489  0.0942
13670W        W18070   5.298   5.158   3.358 -0.0132 -0.0051 -0.1560
13671W        W18071  19.402   5.491  37.735 -0.1777 -0.0709 -0.1954
13672W        W18072  14.064   0.920  32.403  0.1193 -0.5156  0.1475
13673W        W18073   1.609   3.534  31.391 -0.0762 -0.1766 -0.1752
13674W        W18074  11.954   4.667  20.847  0.1096 -0.2393 -0.1366
13675W        W18075   5.732   5.497  39.120 -0.0729 -0.0290 -0.1497
13676W        W18076   8.849   1.162  14.601 -0.0464  0.1004  0.3718
13677W        W18077  12.568   0.993   8.907  0.1551 -0.1535 -0.2312
13678W        W18078   8.743   5.162  33.896  0.0075 -0.0332  0.2264
13679W        W18079   6.930   2.886  42.027  0.1231 -0.0790 -0.0327
13680W        W18080  17.810   4.028   7.206 -0.1458  0.1043 -0.1973
13681W        W18081  11.730   0.613  38.493  0.1464 -0.2536  0.3364
13682W        W18082  14.263   5.067  24.348  0.0436 -0.3953 -0.0909
13683W        W18083  20.716   2.803   1.327  0.1242  0.1188  0.1877
13684W        W18084   8.811   2.130  43.922 -0.0298 -0.1943 -0.1844
13685W        W18085   3.352   2.579   4.571 -0.0057 -0.0276 -0.0215
13686W        W18086   0.918   5.887  30.349 -0.1300  0.2909 -0.1483
13687W        W18087  15.562   3.363  32.793 -0.2245 -0.0064  0.2323
13688W        W18088  17.155   3.525  42.392  0.2043  0.1769 -0.1269
13689W        W18089   0.097   0.053  15.865  0.0374  0.1857 -0.2131
13690W        W18090   6.396   0.820  13.698 -0.1951  0.1049 -0.0825
13691W        W18091   3.719   2.122  23.071  0.0762  0.0140  0.1521
13692W        W18092   2.082   3.315  33.421 -0.0324  0.0648 -0.0799
13693W        W18093  16.875   3.222  18.599 -0.0807  0.0031 -0.3553
13694W        W18094   6.524   4.267  26.935  0.2668  0.0209  0.2790
13695W        W18095  14.667   0.548  21.521  0.0311 -0.0914  0.1842
13696W        W18096  12.654   0.698  41.967 -0.0973 -0.0289 -0.0721
13697W        W18097   3.348   5.574  12.736 -0.1313  0.0926 -0.0217
13698W        W18098  20.655   6.553  15.710  0.2723 -0.1326 -0.4660
13699W        W18099  14.724   6.525   1.525  0.2027 -0.0828 -0.0330
13700W        W18100  17.449   1.371  42.054 -0.0332 -0.3598  0.0522
13701W        W18101  14.135   4.028   7.085 -0.1170  0.3899 -0.2257
13702W        W18102   6.855   3.388  25.585 -0.0372  0.0137  0.4888
13703W        W18103   4.054   5.094  12.500  0.2343 -0.1464 -0.3256
13704W        W18104   2.674   4.754  11.328  0.3374  0.0855  0.1800
13705W        W18105  11.596   5.344   8.206  0.1099 -0.1439  0.0537
13706W        W18106  20.437   2.715  13.436  0.1470  0.3002  0.2173
13707W        W18107  18.636   4.465  35.350 -0.0351 -0.3161  0.0741
13708W        W18108   7.132   5.866  24.964  0.2426 -0.0163 -0.0056
13709W        W18109   8.480   0.379  10.306  0.0251  0.2007  0.1174
13710W        W18110   4.807   5.734  12.573 -0.2959  0.1378  0.1587
13711W        W18111  15.972   3.257  14.615  0.0240 -0.1560 -0.2180
13712W        W18112   4.594   1.812   6.233 -0.1189 -0.0900  0.2779
13713W        W18113   0.590   4.746  41.639  0.1499  0.2688  0.1653
13714W        W18114  16.527   5.465  13.803  0.0045  0.1650 -0.2993
13715W        W18115   9.611   2.289  41.259 -0.0228 -0.1979  0.0894
13716W        W18116  11.511   6.021   2.701  0.3381  0.1725  0.3705
13717W        W18117  14.034   5.342  38.453 -0.0783  0.2275  0.0982
13718W        W18118   2.854   2.161   9.284  0.2755  0.1148  0.4047
13719W        W18119   7.145   0.793   1.857  0.2865 -0.0711  0.1924
13720W        W18120   8.815   3.081  30.392  0.1950 -0.0480  0.0997
13721W        W18121  11.045   6.127  35.730  0.0447 -0.2700  0.0148
13722W        W18122  19.208   2.804  18.115 -0.2944  0.0113 -0.3016
13723W        W18123  11.164   1.109  33.333 -0.1921  0.1979 -0.3753
13724W        W18124   8.584   0.165   5.389  0.2434 -0.3264  0.0018
13725W        W18125   3.763   5.781  25.981 -0.1054  0.1142  0.0370
13726W        W18126  20.984   0.275  42.495  0.0988  0.0260  0.1411
13727W        W18127   5.652   3.090  38.326 -0.1201 -0.1460 -0.1685
13728W        W18128  14.423   1.514  44.398 -0.0490 -0.0128 -0.1336
13729W        W18129  14.787   3.455  11.529  0.1997  0.0112 -0.1753
13730W        W18130  11.777   5.372  43.493 -0.0618  0.0623  0.0922
13731W        W18131   4.260   1.904  24.423  0.3459  0.1636 -0.1408
13732W        W18132  19.220   5.917  13.275  0.1909 -0.0582 -0.0575
13733W        W18133  18.932   1.154  39.332 -0.0577  0.0972 -0.2270
13734W        W18134   3.751   4.552   4.796  0.1141 -0.0064 -0.0251
13735W        W18135   5.002   4.941   7.084 -0.2772  0.1424  0.1039
13736W        W18136  10.765   5.347  18.911  0.4400  0.4437  0.2948
13737W        W18137   8.585   4.180  30.578  0.1811 -0.0687  0.0759
13738W        W18138   6.408   0.741   7.043 -0.0806  0.1627  0.1216
13739W        W18139  14.646   0.531  19.680 -0.2469  0.1416 -0.0101
13740W        W18140   8.066   2.352   9.241  0.1007 -0.0357 -0.5164
13741W        W18141  18.867   5.060  28.044  0.2118 -0.0167  0.1354
13742W        W18142  15.579   3.460   0.427  0.0019 -0.0803  0.0052
13743W        W18143  18.472   2.599  39.806 -0.0630 -0.0089 -0.1514
13744W        W18144   4.896   3.543  11.714 -0.0075  0.2211 -0.0038
13745W        W18145  12.076   2.875   8.691  0.0066  0.2808 -0.2015
13746W        W18146  20.477   4.139  35.140  0.0670  0.2248 -0.0884
13747W        W18147   4.788   1.316   1.458  0.0820  0.0503  0.3572
13748W        W18148  11.879   6.338   2.857 -0.1129  0.4481 -0.0563
13749W        W18149  14.808   3.089  29.905  0.0497 -0.0034  0.0478
13750W        W18150  13.164   0.629   1.487  0.1262  0.1338 -0.0388
13751W        W18151   3.435   4.550  24.281 -0.1352 -0.0314 -0.1203
13752W        W18152   3.959   1.404  33.014 -0.1064 -0.1111  0.0231
13753W        W18153   9.147   1.771  33.241  0.0966  0.2991  0.2495
13754W        W18154   7.764   3.375  31.169 -0.0598  0.0750  0.1971
13755W        W18155   4.410   2.750   3.388 -0.1375  0.1248 -0.1462
13756W        W18156   0.359   5.546   1.957  0.1084 -0.2724  0.2671
13757W        W18157  10.213   1.296  33.677  0.0339 -0.1126 -0.0100
13758W        W18158  13.578   3.198   6.194 -0.3726  0.0191 -0.1474
13759W        W18159  15.526   5.366  41.907 -0.1658  0.1568  0.0019
13760W        W18160   0.709   0.487   0.655 -0.2532 -0.2585 -0.3434
13761W        W18161  20.477   0.509   8.078  0.0161 -0.3068  0.0149
13762W        W18162  17.305   0.254  18.136  0.0285  0.0258 -0.2477
13763W        W18163   7.159   1.392  32.278 -0.1617  0.1289  0.0406
13764W        W18164  12.159   2.427  12.308  0.0295  0.1675 -0.4211
13765W        W18165  12.723   2.244  18.380 -0.0578 -0.0199 -0.2204
13766W        W18166   1.059   6.281  27.290  0.0898 -0.0781  0.1104
13767W        W18167  14.237   2.488  35.094 -0.0194 -0.1715  0.0311
13768W        W18168   4.958   3.957  38.286  0.1353  0.1751 -0.0934
13769W        W18169   3.252   4.151  41.505 -0.2077  0.0819 -0.2898
13770W        W18170  14.882   4.006   4.173 -0.1333  0.0771  0.0428
13771W        W18171  15.272   0.543  30.503 -0.0333 -0.1228  0.0267
13772W        W18172   8.394   4.834   3.740  0.0451  0.0170  0.1493
13773W        W18173   0.645   2.259  31.087 -0.0480 -0.3821  0.3772
13774W        W18174  10.776   1.255  43.676 -0.1504  0.1106  0.0611
13775W        W18175   7.228   3.966  36.304  0.0054 -0.1690 -0.1246
13776W        W18176   9.184   1.004  31.126  0.1493 -0.3667  0.1051
13777W        W18177  13.356   6.343  43.362  0.0634  0.2093 -0.1545
13778W        W18178   9.289   3.962  36.544 -0.2568 -0.1933  0.0796
13779W        W18179  18.804   0.837  40.794 -0.0284  0.1946  0.1830
13780W        W18180   3.126   1.182  30.462 -0.2317  0.1427  0.0020
13781W        W18181   1.882   2.773  30.827 -0.0239  0.0494 -0.0503
13782W        W18182   2.184   0.625  40.469 -0.0510  0.2286 -0.0212
13783W        W18183  20.751   1.614  43.307 -0.0025  0.3047  0.1316
13784W        W18184   3.025   6.353  35.431 -0.1007 -0.0209 -0.3611
13785W        W18185  15.967   1.614  20.886  0.1032 -0.1166  0.1619
13786W        W18186  18.159   0.368   0.411  0.1284 -0.0993 -0.3708
13787W        W18187  15.814   4.761  22.153  0.1400 -0.0219  0.1208
13788W        W18188  17.719   4.648   9.761  0.0100 -0.2660 -0.1041
13789W        W18189  19.044   4.109  11.262  0.0603 -0.0218 -0.1900
13790W        W18190   6.470   5.099  11.647  0.1117  0.1443  0.2441
13791W        W18191  19.166   1.389  29.739  0.0078 -0.0668  0.0534
13792W        W18192  14.799   5.611  14.109  0.1069  0.0545  0.1124
13793W        W18193  11.787   6.353   5.998 -0.1785 -0.3164  0.0730
13794W        W18194   9.953   0.479  42.265  0.0958  0.2453 -0.1879
13795W        W18195   9.850   2.122  14.581  0.0641  0.2373  0.4173
13796W        W18196  19.666   3.223  29.880 -0.0616 -0.0670 -0.1941
13797W        W18197   8.704   4.326  13.352 -0.0810  0.1590 -0.0759
13798W        W18198  18.294   2.347  36.839  0.0590  0.0383 -0.1424
13799W        W18199  14.313   5.027   2.466  0.0190 -0.1196  0.0207
13800W        W18200   8.274   4.642  35.340  0.1092 -0.0690 -0.0819
13801W        W18201  15.676   0.212   8.596  0.0010  0.1788  0.1421
13802W        W18202  19.563   4.493  30.048  0.1126 -0.0746  0.0657
13803W        W18203   3.668   0.613  15.418 -0.0935 -0.2190  0.0322
13804W        W18204  12.990   3.407  39.793  0.1082  0.1194 -0.0198
13805W        W18205   3.931   4.403  10.905  0.2263  0.2699  0.0062
13806W        W18206   8.683   1.742  10.779 -0.1945 -0.1265 -0.1442
13807W        W18207  14.535   3.488  40.851  0.0128  0.0208  0.1560
13808W        W18208   7.155   5.374  16.071 -0.0952 -0.0359 -0.4253
13809W        W18209  16.779   0.091  38.141  0.1513  0.0947  0.0497
13810W        W18210  18.723   1.038  29.837 -0.1891  0.0795  0.0661
13811W        W18211   1.328   0.825  12.364 -0.1066 -0.1946 -0.0802
13812W        W18212  11.003   3.634  18.504 -0.0053  0.1322  0.2068
13813W        W18213  17.690   0.634  32.053 -0.1806  0.2405 -0.1146
13814W        W18214   7.284   4.026  13.273  0.0754 -0.1438  0.0872
13815W        W18215   3.289   2.585  33.306 -0.1906 -0.0359 -0.2357
13816W        W18216  11.735   3.065   3.001  0.0592  0.0352  0.2799
13817W        W18217  13.029   2.812   8.816  0.0791  0.1111 -0.1282
13818W        W18218  19.536   2.766   6.903 -0.2675  0.0112  0.0864
13819W        W18219  13.469   5.948  33.212  0.0262  0.1300 -0.1569
13820W        W18220   5.775   0.280  16.248 -0.1509 -0.1868 -0.5333
13821W        W18221  14.010   5.779  15.722 -0.0181  0.0691  0.2085
13822W        W18222   7.703   6.467  34.430  0.1558 -0.1756  0.1402
13823W        W18223  12.239   2.675  41.031 -0.0841  0.0192 -0.1552
13824W        W18224   2.319   0.711  32.898 -0.1298  0.0750  0.0609
13825W        W18225  10.764   3.748  18.020  0.0178 -0.6064  0.2207
13826W        W18226   5.516   5.879  13.302 -0.0618  0.4764  0.0036
13827W        W18227  16.267   2.645  15.255  0.2231  0.0608 -0.0400
13828W        W18228   3.587   1.726  29.773  0.1093  0.1259 -0.1503
13829W        W18229   7.736   3.701  10.891  0.1117  0.1646  0.0826
13830W        W18230  15.378   5.046   3.630 -0.2439 -0.1978  0.1238
13831W        W18231  16.394   3.364   3.134 -0.1249  0.2103 -0.1687
13832W        W18232   0.930   2.001  26.628  0.1349 -0.1052 -0.3416
13833W        W18233   9.499   0.218  16.812 -0.3257 -0.0646  0.0531
13834W        W18234  17.220   5.095   1.196 -0.0404 -0.1143  0.0569
13835W        W18235  21.061   1.982  10.396 -0.1188 -0.2412  0.1269
13836W        W18236   3.485   6.264  28.768 -0.1174  0.1793  0.1781
13837W        W18237   9.772   4.707   3.100 -0.2504  0.2605 -0.5724
13838W        W18238  14.854   2.906  43.120 -0.1518 -0.1048 -0.2254
13839W        W18239   9.254   5.421  37.378  0.0040  0.0485 -0.3632
13840W        W18240  21.056   0.954  14.331 -0.2099 -0.1937 -0.0646
13841W        W18241   7.283   3.102   6.492 -0.0477 -0.1536  0.0200
13842W        W18242   7.550   3.964  28.337 -0.0435 -0.0101  0.0517
13843W        W18243  20.144   2.277  35.742 -0.0495  0.1399 -0.2364
13844W        W18244  17.079   5.404  11.408 -0.5060  0.4908  0.1504
13845W        W18245   4.530   0.571  14.820  0.1423  0.1190  0.1209
13846W        W18246  17.216   0.833   0.437  0.0632  0.1639 -0.0340
13847W        W18247  19.214   2.499  16.315  0.1938  0.2111  0.1625
13848W        W18248   2.893   0.375  22.783 -0.1159 -0.0945  0.0798
13849W        W18249   1.206   1.374  38.878 -0.0888 -0.1355 -0.0451
13850W        W18250  15.547   5.699   0.560  0.1120  0.0713  0.0370
13851W        W18251  10.600   3.123  42.655 -0.0965  0.1294 -0.0243
13852W        W18252   2.924   4.863  42.951  0.0825 -0.1233 -0.0267
13853W        W18253  18.021   1.327  19.122 -0.4363  0.0149  0.0381
13854W        W18254  20.721   6.533  12.496 -0.0494  0.0276  0.0582
13855W        W18255   2.315   6.248  14.249 -0.1279  0.2205  0.1909
13856W        W18256  11.511   2.923   8.012  0.1523 -0.0797  0.1548
13857W        W18257  13.947   5.394   3.415 -0.0973  0.1440  0.1308
13858W        W18258  13.580   5.434   4.222  0.3281  0.2730 -0.0880
13859W        W18259  16.072   0.448  15.159 -0.1434 -0.1935  0.2011
13860W        W18260  18.665   4.135  14.916 -0.3246 -0.1565 -0.0634
13861W        W18261  14.056   0.756   5.473  0.1186  0.1848  0.0816
13862W        W18262   2.258   5.922  30.811  0.0104  0.2128 -0.0072
13863W        W18263   2.164   2.588  35.110 -0.1801 -0.1427  0.1667
13864W        W18264   1.136   0.462  41.459  0.0377  0.1710  0.2097
13865W        W18265  14.034   0.937  39.605 -0.1885  0.0840  0.0543
13866W        W18266  10.547   1.162  38.247 -0.1988  0.1981  0.0558
13867W        W18267  20.300   1.560   0.515  0.0388 -0.1268  0.1111
13868W        W18268   6.395   2.977  40.453 -0.2503  0.3132  0.2613
13869W        W18269   8.910   0.904  18.148 -0.2328  0.0508  0.0722
13870W        W18270   9.229   4.745  16.789  0.0558 -0.5497  0.2676
13871W        W18271  19.867   4.053  10.180 -0.2859  0.2308  0.1577
13872W        W18272   7.069   1.805  42.645  0.0827 -0.0072 -0.1911
13873W        W18273  19.269   3.997  28.332  0.0075 -0.1411  0.0778
13874W        W18274  16.609   4.585   1.750 -0.2986  0.3102  0.0754
13875W        W18275  11.403   5.702  43.355  0.0821  0.0488 -0.4330
13876W        W18276  17.268   1.056  21.271  0.1075 -0.0434  0.3396
13877W        W18277   3.814   5.134  42.440  0.2778 -0.2129  0.2270
13878W        W18278   2.920   4.604  40.428  0.1047 -0.0157  0.1958
13879W        W18279  16.400   2.857   5.083 -0.2485  0.1204  0.1988
13880W        W18280  12.884   6.373  11.425 -0.1493  0.0705 -0.2277
13881W        W18281  11.312   2.464   8.225  0.1972 -0.1069  0.0689
13882W        W18282   2.295   0.765  28.116 -0.1295  0.2617  0.1410
13883W        W18283   2.949   2.846   4.815  0.3293  0.1553 -0.0056
13884W        W18284   8.142   5.418  32.018  0.3010 -0.3136 -0.1111
13885W        W18285   2.045   5.996   4.040 -0.1037 -0.2664  0.2970
13886W        W18286   5.706   2.697   3.061  0.3716 -0.3084 -0.1325
13887W        W18287   0.466   2.901  40.135 -0.1287 -0.1563  0.0731
13888W        W18288  17.025   4.220  30.097  0.2397 -0.0242  0.4035
13889W        W18289  13.447   4.766  30.833  0.1975 -0.1876  0.0327
13890W        W18290  16.331   1.015  10.392  0.1213  0.0585 -0.2000
13891W        W18291  10.801   1.106  10.466 -0.1011  0.0364 -0.1863
13892W        W18292   8.450   4.585   8.826 -0.2490  0.0113  0.0842
13893W        W18293   3.165   6.221  37.837 -0.1118  0.0699  0.1486
13894W        W18294   0.898   5.654  12.536  0.2432  0.4142  0.1114
13895W        W18295   8.674   2.520   6.466 -0.2779 -0.0145 -0.0075
13896W        W18296   8.798   0.892  40.381  0.2215 -0.0036 -0.3012
13897W        W18297   6.703   5.284  12.158 -0.3320 -0.1385 -0.0639
13898W        W18298   9.872   4.041   3.603  0.0089  0.1649 -0.0030
13899W        W18299  12.243   6.478  16.586 -0.2005  0.0200 -0.0053
13900W        W18300  17.563   1.746  30.147 -0.1340  0.0746 -0.0457
13901W        W18301  12.222   1.901   7.843 -0.1800 -0.2170 -0.0007
13902W        W18302   5.372   1.515  27.574 -0.1959 -0.0334 -0.1566
13903W        W18303  18.114   4.083  30.300  0.2603  0.1875 -0.0724
13904W        W18304   7.700   5.621  43.237 -0.0558  0.0044 -0.0591
13905W        W18305   2.009   0.569   9.535 -0.0837  0.0283  0.0947
13906W        W18306   3.681   1.923  27.468 -0.1681  0.2011  0.2635
13907W        W18307   2.731   4.090  15.616 -0.1951 -0.1367  0.2612
13908W        W18308   9.982   2.889  13.668  0.0868 -0.1592 -0.0224
13909W        W18309  16.855   6.129   5.806  0.1544 -0.0336 -0.0203
13910W        W18310  14.266   4.016  35.925 -0.2131  0.0489  0.0807
13911W        W18311  20.811   0.167  14.378 -0.0018  0.2847  0.0189
13912W        W18312  18.520   2.318  35.800 -0.0057  0.0065  0.2407
13913W        W18313   0.819   6.457   3.077  0.1717  0.1954 -0.0052
13914W        W18314  16.598   2.938  17.666  0.1338 -0.1193 -0.1125
13915W        W18315  10.587   3.380  40.065  0.0111  0.1639 -0.2613
13916W        W18316  15.259   3.625  10.080 -0.2047 -0.2051  0.1155
13917W        W18317  12.768   5.951  37.174 -0.0741  0.0268 -0.4149
13918W        W18318   2.075   0.804   2.871 -0.1031  0.0121  0.0516
13919W        W18319  20.815   3.996   7.925  0.0199 -0.1039  0.1154
13920W        W18320   7.577   6.221  11.159 -0.1040 -0.0670  0.1679
13921W        W18321  10.691   0.533  44.057  0.0036  0.0458 -0.2247
13922W        W18322  19.947   4.564  30.370 -0.0326  0.1660 -0.0938
13923W        W18323  12.279   4.258  19.681  0.1160  0.1565 -0.0695
13924W        W18324   6.953   0.010  37.327 -0.3293  0.3161 -0.3860
13925W        W18325  11.787   3.466  29.504 -0.0494 -0.1175  0.0586
13926W        W18326   9.116   4.096  17.338 -0.1827 -0.0449 -0.2319
13927W        W18327   6.171   4.967   9.945  0.1149  0.0163  0.0200
13928W        W18328   9.730   1.137  17.796  0.1376 -0.0154  0.3290
13929W        W18329   7.426   4.056   6.026  0.0796  0.2124 -0.0158
13930W        W18330   7.672   1.594   4.425 -0.0263 -0.1932  0.0706
13931W        W18331   4.567   3.877   3.527 -0.1491  0.0476 -0.2250
13932W        W18332   7.294   4.902   2.884 -0.2393 -0.1827  0.3979
13933W        W18333   2.047   4.208  23.330  0.3327  0.3303  0.2365
13934W        W18334   9.539   5.679  32.204  0.2156 -0.0510  0.1820
13935W        W18335  11.978   4.622  41.300 -0.1710  0.3265  0.0279
13936W        W18336  11.428   1.568  11.601  0.1157 -0.0447  0.1625
13937W        W18337  14.110   1.046  41.314  0.0334 -0.2165  0.1224
13938W        W18338   8.962   4.666  44.063 -0.1809  0.0922  0.0535
13939W        W18339   3.059   1.489  22.113 -0.1021 -0.0500  0.0492
13940W        W18340  13.849   5.961  39.107 -0.0326 -0.0504  0.1763
13941W        W18341  10.426   0.837  40.609  0.1423  0.3906 -0.0223
13942W        W18342  15.633   6.460  10.176  0.2413 -0.0572  0.1579
13943W        W18343  16.467   0.218  31.601 -0.0975  0.0862 -0.0003
13944W        W18344  11.634   0.536  17.057  0.1834 -0.2507 -0.1669
13945W        W18345  18.748   4.271  41.123 -0.2296  0.1647  0.0728
13946W        W18346   2.928   5.081  33.813 -0.3401 -0.0163 -0.0637
13947W        W18347   5.454   0.658  34.641  0.1251  0.0337  0.0104
13948W        W18348  12.473   0.403  34.081  0.2209  0.0531 -0.0380
13949W        W18349   1.483   1.328  25.631  0.1355  0.2094 -0.3407
13950W        W18350  10.268   2.863  45.102  0.0866 -0.1913  0.0740
13951W        W18351  17.605   2.149  42.425 -0.0668  0.1363 -0.1709
13952W        W18352  18.206   5.383   7.904  0.0740 -0.0171  0.3211
13953W        W18353   3.465   0.369   9.404 -0.0500 -0.1886  0.1688
13954W        W18354  17.620   5.436  43.097 -0.0462 -0.2456 -0.1358
13955W        W18355  19.574   1.707  29.955  0.0648 -0.2942 -0.0260
13956W        W18356   1.682   1.061  36.781  0.1067 -0.2387  0.1643
13957W        W18357   5.669   2.697  35.958 -0.0508 -0.0901 -0.0454
13958W        W18358  10.684   2.988  12.511  0.0996  0.4338  0.0537
13959W        W18359  11.039   2.395  41.513  0.3250  0.0167  0.1988
13960W        W18360  13.147   2.014  14.539  0.0337 -0.1005 -0.0728
13961W        W18361  10.685   1.310   5.291  0.3878 -0.0914  0.1356
13962W        W18362   7.544   0.927  26.346  0.1383  0.2909  0.2351
13963W        W18363  15.549   4.631   3.917  0.1274 -0.1266 -0.0060
13964W        W18364   5.024   4.867   0.205  0.3269 -0.1284  0.2054
13965W        W18365  19.259   0.573  38.533 -0.3152 -0.1417  0.1357
13966W        W18366  15.592   5.062   4.133 -0.2784 -0.1612 -0.0133
13967W        W18367   9.673   6.427  11.087 -0.3455  0.0378 -0.1173
13968W        W18368   1.667   4.600  39.311 -0.1838  0.0121 -0.0607
13969W        W18369  11.009   5.061  13.351  0.3086 -0.3141  0.0822
13970W        W18370  19.957   2.197   4.725  0.0268  0.0147  0.0725
13971W        W18371   8.114   1.576  13.105  0.0304 -0.3840 -0.0022
13972W        W18372   5.082   3.999  10.776  0.1663  0.0031 -0.2652
13973W        W18373   5.390   2.266  14.181  0.5371 -0.1226 -0.0757
13974W        W18374  11.048   0.651  30.454  0.0298 -0.0804  0.2551
13975W        W18375   1.840   2.763  45.024 -0.2088 -0.1075 -0.0600
13976W        W18376   7.761   1.300  30.681  0.0300 -0.0512  0.1535
13977W        W18377  20.404   0.926  17.890 -0.1253 -0.1437  0.0149
13978W        W18378  16.531   4.979   2.683 -0.1035 -0.0638  0.1095
13979W        W18379   0.375   3.838   8.817 -0.3815  0.0742 -0.1893
13980W        W18380   3.523   1.290   5.598 -0.2173 -0.1800  0.0105
13981W        W18381   1.530   2.126  23.673  0.1418 -0.0576  0.1014
13982W        W18382  14.130   1.079  20.830  0.2063 -0.0229  0.1945
13983W        W18383  18.578   0.015  29.530 -0.0981 -0.4332 -0.1669
13984W        W18384  15.237   1.627  37.531  0.1544 -0.0572  0.1046
13985W        W18385   7.356   5.088   8.954 -0.3081  0.0829 -0.2246
13986W        W18386   2.494   1.024  30.280  0.0421  0.1936 -0.3511
13987W        W18387  18.595   4.194  39.688  0.2370 -0.2494 -0.1611
13988W        W18388   4.472   1.573  29.234 -0.0286  0.0705  0.2668
13989W        W18389   8.428   0.120   1.881 -0.0334 -0.3013  0.2538
13990W        W18390  13.109   5.103   5.810 -0.3240 -0.2580 -0.2557
13991W        W18391   9.658   5.205  31.974 -0.2131 -0.2821  0.1601
13992W        W18392  13.182   1.338  42.662  0.2176 -0.0569 -0.0327
13993W        W18393   5.170   1.133  29.218 -0.3762  0.2539  0.1065
13994W        W18394  10.025   4.383  18.335  0.0491 -0.0658 -0.0882
13995W        W18395  20.366   4.040  43.063  0.0107  0.0008 -0.0446
13996W        W18396  21.001   1.051  10.904 -0.2172 -0.0219 -0.1508
13997W        W18397  15.583   0.673  13.929  0.2401 -0.0344  0.0974
13998W        W18398   1.654   1.924   5.388  0.1883 -0.0774  0.0227
13999W        W18399  14.194   6.595   4.124 -0.1440  0.2361 -0.0218
14000W        W18400   8.443   2.385   8.896  0.1229 -0.0801  0.2188
14001W        W18401  18.423   2.171  41.660 -0.2969 -0.2974 -0.2074
14002W        W18402  20.612   6.004  14.578  0.1690 -0.2236  0.0424
14003W        W18403  19.016   2.934   9.507 -0.1128  0.2287  0.2120
14004W        W18404   7.505   1.734  29.465  0.2105 -0.0207  0.2353
14005W        W18405   0.361   2.930  25.053  0.2267 -0.1398 -0.0034
14006W        W18406  17.298   3.505  12.293  0.0618  0.1695 -0.1144
14007W        W18407   5.446   3.523  33.554 -0.2362 -0.2421 -0.2072
14008W        W18408  16.722   1.578  44.434 -0.0095  0.1970 -0.0828
14009W        W18409   2.059   1.727  43.972 -0.0094 -0.0124  0.0819
14010W        W18410  10.076   0.252  41.024 -0.1954 -0.2011  0.1342
14011W        W18411   3.063   5.421  22.243  0.3069 -0.0970 -0.0623
14012W        W18412  20.788   3.244  37.727 -0.0615  0.0210  0.1072
14013W        W18413  16.191   6.330  35.384  0.0067  0.1643  0.0340
14014W        W18414   4.397   5.431  30.844 -0.0248 -0.0355  0.1673
14015W        W18415   5.426   1.273   3.584  0.0784 -0.0568  0.4197
14016W        W18416   6.271   0.592   7.831  0.3006 -0.2898  0.0938
14017W        W18417  20.900   1.373  25.578  0.1119  0.0924 -0.1366
14018W        W18418   4.067   2.676  34.306  0.1263 -0.0448 -0.0431
14019W        W18419   3.787   4.216   0.773 -0.1200 -0.0934  0.0577
14020W        W18420  19.449   6.225   4.840  0.1539  0.1476 -0.3431
14021W        W18421  14.501   6.264  19.695  0.0577  0.0031 -0.1286
14022W        W18422  14.311   0.534   4.129 -0.1314 -0.1368 -0.2573
14023W        W18423   3.769   2.385   0.235  0.0913 -0.0754  0.0944
14024W        W18424  12.875   3.018   1.686  0.1626  0.0817  0.2545
14025W        W18425   6.123   1.113  31.363  0.0185  0.0008 -0.0205
14026W        W18426  15.307   5.197  31.447 -0.1069  0.1701 -0.0047
14027W        W18427   1.118   4.483  37.111  0.0174 -0.0816  0.0988
14028W        W18428  16.236   6.531  42.954  0.1805 -0.0800  0.1507
14029W        W18429   8.295   2.303  15.271 -0.0507  0.2058 -0.4056
14030W        W18430   7.450   3.729  42.755  0.3105  0.2855  0.0072
14031W        W18431  16.571   2.868  10.211 -0.1142 -0.2284 -0.0687
14032W        W18432  15.015   3.920  31.130  0.2599 -0.0616 -0.4342
14033W        W18433  20.744   2.799  32.607  0.1708  0.3705  0.2876
14034W        W18434  19.125   1.965  33.070 -0.0138  0.0469  0.0335
14035W        W18435  11.958   2.604   4.591  0.0666  0.1680 -0.1380
14036W        W18436  19.879   4.406  14.464  0.0337 -0.2135 -0.1475
14037W        W18437   0.880   0.399  10.406  0.3002 -0.1278  0.0809
14038W        W18438   1.685   3.166  32.693 -0.2023  0.2724 -0.2100
14039W        W18439  16.122   1.526   4.758 -0.2010 -0.0184  0.2596
14040W        W18440  10.971   6.501  34.444 -0.0596 -0.0259 -0.0608
14041W        W18441  10.256   3.233  37.430 -0.1108  0.3678  0.2207
14042W        W18442   1.244   1.343  36.751  0.1339 -0.1522 -0.0260
14043W        W18443  10.855   4.870   7.948 -0.0451 -0.1142 -0.3857
14044W        W18444   9.990   0.281   0.572 -0.0776 -0.2465  0.0542
14045W        W18445   8.393   6.008  30.993  0.0282  0.1431 -0.0537
14046W        W18446   2.716   1.582   6.703  0.1764  0.4127 -0.1729
14047W        W18447   5.775   2.624  27.368  0.2867  0.1498  0.1064
14048W        W18448  13.370   1.498  32.519 -0.2865 -0.1540 -0.1986
14049W        W18449   2.914   0.582  38.692 -0.1508  0.0978 -0.0635
14050W        W18450   0.051   1.113   1.328  0.2006  0.0954 -0.2883
14051W        W18451  16.570   3.067  29.254  0.0437 -0.0389  0.1272
14052W        W18452   4.707   4.563   1.650 -0.0544  0.2633 -0.0552
14053W        W18453   6.198   0.501  28.215  0.1053  0.0704  0.0285
14054W        W18454  15.327   5.577  20.052  0.1413  0.1986  0.2094
14055W        W18455  17.375   0.405  39.716 -0.1977 -0.0984  0.1742
14056W        W18456  19.652   0.282   9.127  0.1605  0.1184 -0.2903
14057W        W18457   5.076   5.673  38.297  0.1084  0.1928 -0.0840
14058W        W18458   1.979   4.009   7.625  0.1724  0.0144 -0.0717
14059W        W18459   7.947   0.199  44.340 -0.1088 -0.0020  0.2468
14060W        W18460  16.285   0.119  12.401  0.2618  0.0429  0.0676
14061W        W18461   3.061   2.813   7.449 -0.0505  0.0913  0.2485
14062W        W18462  17.946   2.589   6.593  0.2325  0.2765  0.0721
14063W        W18463  19.641   1.242  36.126  0.2029 -0.2034 -0.1804
14064W        W18464  10.160   2.580  28.210 -0.1910 -0.0782  0.0699
14065W        W18465  21.169   1.404  15.331 -0.0848  0.1464 -0.0803
14066W        W18466   3.408   2.670  26.461 -0.3095 -0.1920  0.1419
14067W        W18467   5.422   4.987   1.138 -0.2094 -0.1587  0.0105
14068W        W18468  20.191   0.786  15.605 -0.0528 -0.2265 -0.2080
14069W        W18469  15.816   0.008  16.756 -0.0491 -0.0088 -0.2808
14070W        W18470  10.343   1.825  34.230 -0.1152  0.3044 -0.1146
14071W        W18471  11.877   0.460  13.205  0.0102  0.0525 -0.0444
14072W        W18472  12.667   2.952  30.887 -0.0587  0.0012  0.0224
14073W        W18473  13.628   0.199  14.026  0.0639 -0.1121  0.1978
14074W        W18474  13.066   1.674   4.868  0.1334 -0.0823 -0.0961
14075W        W18475   4.367   1.761  12.002  0.1303 -0.2910 -0.1284
14076W        W18476  21.110   0.997  30.876 -0.3423 -0.0147  0.1800
14077W        W18477   3.174   3.094  22.798  0.0187  0.1111  0.0255
14078W        W18478  13.233   1.154  43.615 -0.0543 -0.0389 -0.3762
14079W        W18479   4.868   1.240  32.377  0.3470  0.1787  0.1770
14080W        W18480  19.044   2.535  28.039 -0.0310 -0.0527  0.1683
14081W        W18481  10.806   6.447   9.922 -0.0308  0.0419  0.1475
14082W        W18482   4.491   2.525  24.868 -0.0830  0.1122 -0.1963
14083W        W18483   2.373   3.129  14.382 -0.0523  0.0932 -0.1985
14084W        W18484  12.039   1.353  38.997 -0.0510  0.1252 -0.0523
14085W        W18485  13.430   2.688   2.892  0.1372 -0.0670 -0.1631
14086W        W18486  16.708   5.855  21.499  0.0838 -0.0460 -0.2831
14087W        W18487   4.621   0.920   4.760  0.0559 -0.1384 -0.1563
14088W        W18488  12.013   0.020  35.844 -0.0132 -0.0627  0.1678
14089W        W18489   0.683   3.738  41.218 -0.1952 -0.0120 -0.0704
14090W        W18490   6.865   3.674  29.620  0.3327 -0.0898  0.2318
14091W        W18491   6.127   1.393  29.021 -0.0617 -0.1084  0.2887
14092W        W18492   4.643   6.597   0.670  0.3669  0.0458 -0.3816
14093W        W18493  11.513   2.480   2.240  0.3207  0.3919  0.0871
14094W        W18494  15.253   1.613  32.566  0.2099  0.0676  0.0372
14095W        W18495   2.631   0.447   2.171  0.0785  0.1879  0.2660
14096W        W18496   9.323   0.893  14.218  0.1037 -0.0283  0.3528
14097W        W18497  10.570   0.671  28.546  0.1033 -0.0044 -0.2455
14098W        W18498  14.014   5.150  17.037 -0.1178 -0.0644  0.1468
14099W        W18499  16.069   3.761   6.196 -0.0477 -0.0512 -0.1363
14100W        W18500   3.638   5.849  27.960 -0.0886  0.0771  0.1106
14101W        W18501  16.410   2.189  22.249  0.3111 -0.1406 -0.2161
14102W        W18502  10.573   3.489   6.408 -0.1478 -0.0936  0.1332
14103W        W18503  19.667   4.170  38.011  0.0010 -0.0041 -0.1039
14104W        W18504  20.601   2.057  15.113  0.0214 -0.1296 -0.0490
14105W        W18505  19.047   4.278   4.255 -0.2792  0.1491 -0.0546
14106W        W18506  17.795   1.983  12.184 -0.0816 -0.0973 -0.2105
14107W        W18507  17.373   3.346   8.762 -0.2843  0.1793 -0.5276
14108W        W18508  20.510   6.446   4.148 -0.2423 -0.2060 -0.0614
14109W        W18509  15.399   5.466  21.640  0.0276 -0.0574 -0.0784
14110W        W18510   4.555   0.462  22.155  0.0143 -0.1878  0.1487
14111W        W18511   8.686   1.416   1.086 -0.0779  0.0493 -0.0371
14112W        W18512  20.329   2.088  39.012  0.2873  0.5723  0.1604
14113W        W18513   8.214   1.158  29.241 -0.0607  0.2298  0.1574
14114W        W18514   6.137   4.843  35.113 -0.1578 -0.4168  0.0499
14115W        W18515   8.234   2.986   7.747  0.0317 -0.0315  0.1110
14116W        W18516   7.380   2.187  25.239 -0.0838  0.0634 -0.0163
14117W        W18517  17.265   0.163  41.319  0.0379 -0.4647 -0.0139
14118W        W18518  11.149   0.956  35.444 -0.1017  0.0096 -0.0407
14119W        W18519  18.277   3.658  19.170 -0.1432  0.1150 -0.0324
14120W        W18520   3.959   0.390   7.056  0.0933  0.4066  0.1970
14121W        W18521   7.409   6.157   8.791 -0.0818  0.1321  0.1202
14122W        W18522   1.734   1.219   5.318 -0.0882  0.1234 -0.0029
14123W        W18523   7.645   5.898  11.539  0.0196 -0.1067 -0.0093
14124W        W18524  18.671   4.962  16.523  0.2462 -0.0139 -0.0778
14125W        W18525  11.698   0.780  40.716  0.1182  0.0022 -0.0615
14126W        W18526   6.809   0.594  13.612 -0.1816  0.0799 -0.1179
14127W        W18527  10.013   6.121  17.012  0.1182 -0.0802 -0.1572
14128W        W18528  19.718   5.819  26.459 -0.0559  0.0975 -0.1816
14129W        W18529   0.274   1.615  26.338 -0.0437 -0.2071  0.0785
14130W        W18530  13.524   6.600   8.812  0.3620  0.0864 -0.3837
14131W        W18531   8.215   1.757  11.181  0.2129 -0.2352  0.0470
14132W        W18532   8.758   2.125   7.993  0.1965 -0.1115 -0.0423
14133W        W18533  19.095   5.695  37.246 -0.3784  0.0818  0.0176
14134W        W18534   5.495   2.790   6.687 -0.0397  0.1571 -0.1223
14135W        W18535  13.009   3.866  16.473  0.1759  0.0444  0.0252
14136W        W18536   0.756   3.101   6.692 -0.3981  0.4300  0.0367
14137W        W18537  19.640   5.863  41.519  0.2187  0.1356  0.3463
14138W        W18538   3.451   5.413  25.777 -0.1140  0.0762 -0.0568
14139W        W18539   7.754   0.681  34.226 -0.2424  0.0910 -0.1982
14140W        W18540  13.293   6.255  38.570  0.1273 -0.1363 -0.3898
14141W        W18541  13.155   1.399  11.606 -0.3012  0.1482  0.0436
14142W        W18542   5.592   4.420  31.519  0.3755  0.3244  0.1591
14143W        W18543  12.887   5.666  31.406  0.1462 -0.2237  0.0315
14144W        W18544  13.635   0.237  11.427 -0.3054 -0.0855 -0.0458
14145W        W18545  15.131   4.191   8.910  0.0080  0.0480 -0.0699
14146W        W18546  15.299   0.380  36.914 -0.0295 -0.2426 -0.3239
14147W        W18547  12.111   6.219  30.973  0.1458  0.1720  0.0644
14148W        W18548   0.979   1.733  40.032 -0.0138  0.0462 -0.0035
14149W        W18549  17.489   3.994  18.744  0.1564 -0.0694  0.3378
14150W        W18550   1.422   4.902   7.835  0.1961  0.1688 -0.0457
14151W        W18551   6.669   0.682   1.986 -0.0890 -0.0102 -0.0738
14152W        W18552  20.302   5.920  39.303 -0.0628  0.2441 -0.2689
14153W        W18553  14.752   4.381  29.771 -0.0865  0.1911 -0.0966
14154W        W18554   5.583   3.429  29.631  0.3990  0.1003 -0.0879
14155W        W18555  11.786   4.045  19.694  0.2045 -0.2509  0.1554
14156W        W18556   0.575   0.166   9.512 -0.1417  0.1709 -0.3332
14157W        W18557  20.433   2.009  10.227 -0.1395 -0.0234  0.0111
14158W        W18558   4.060   2.180  43.274 -0.0097 -0.0170 -0.2134
14159W        W18559   5.215   4.465   8.995  0.1406  0.1695  0.2365
14160W        W18560  17.218   0.797   4.999  0.0789  0.0033 -0.0397
14161W        W18561   9.153   1.381  28.548 -0.2402 -0.2664 -0.0690
14162W        W18562   8.005   6.152  32.926  0.0130  0.1083  0.1516
14163W        W18563   3.443   6.022  10.036  0.1156 -0.1736  0.0935
14164W        W18564  14.134   6.451   9.265 -0.3287  0.1534 -0.0069
14165W        W18565  12.457   6.361  40.634 -0.1386 -0.0057  0.2340
14166W        W18566  10.999   2.080  30.865 -0.1790  0.0973  0.2365
14167W        W18567   0.393   6.340   6.438 -0.0484 -0.0738  0.1301
14168W        W18568   3.590   0.826   3.868  0.2332 -0.1898 -0.3110
14169W        W18569   2.569   4.656  15.316  0.0297 -0.1986 -0.1283
14170W        W18570   0.181   1.141  36.019 -0.0361 -0.0679  0.2316
14171W        W18571   5.311   2.033  12.848  0.4868 -0.2011  0.1365
14172W        W18572  20.883   1.533   5.765  0.0040  0.1384 -0.2729
14173W        W18573   0.782   3.857  12.021  0.0665  0.1761 -0.0958
14174W        W18574   4.595   2.721  21.491 -0.1085  0.0668  0.0803
14175W        W18575  18.585   6.249   4.520  0.0284 -0.3977  0.3804
14176W        W18576  14.555   3.079   3.588 -0.2621 -0.0928  0.1143
14177W        W18577  18.323   6.360   2.638 -0.0918  0.1076 -0.0112
14178W        W18578  12.329   6.551  41.749  0.3582  0.0025  0.0670
14179W        W18579  13.434   5.079  37.234  0.3756 -0.2300 -0.0408
14180W        W18580   8.455   2.507  32.795 -0.0665  0.1779 -0.5454
14181W        W18581   3.065   0.029  23.127 -0.0885  0.0892  0.0825
14182W        W18582   3.151   5.568  19.975  0.0034  0.1422  0.1813
14183W        W18583   3.708   3.362   9.134 -0.1392  0.0625 -0.3846
14184W        W18584  14.176   3.593  19.254  0.0314  0.1406  0.0973
14185W        W18585   8.625   4.213  37.167 -0.0662  0.2552  0.1416
14186W        W18586  19.808   2.602  10.244  0.0113 -0.2661 -0.3375
14187W        W18587  19.844   2.553   7.585  0.0428 -0.1213  0.0151
14188W        W18588   1.379   5.185  33.158 -0.3466 -0.2862 -0.2308
14189W        W18589  10.209   2.812   7.032  0.2217  0.1605 -0.1498
14190W        W18590   0.127   2.932  24.140 -0.0486  0.0401 -0.0088
14191W        W18591   6.661   0.601  44.997  0.1213  0.1544  0.0303
14192W        W18592   6.599   3.784  39.805 -0.2221 -0.1675 -0.0029
14193W        W18593   6.938   2.265  35.542 -0.0419  0.1936  0.1046
14194W        W18594  13.051   4.712  31.108  0.0447 -0.2404 -0.2590
14195W        W18595   8.331   0.837   4.011 -0.0730 -0.2950  0.0502
14196W        W18596   0.033   0.432  30.986 -0.0894  0.3915  0.0378
14197W        W18597  19.618   1.706  11.830  0.1813  0.0510 -0.0951
14198W        W18598  19.329   1.343   3.271  0.1017  0.2561  0.3533
14199W        W18599   8.257   0.208   5.041 -0.1742 -0.1544  0.1369
14200W        W18600   3.563   4.813   6.365  0.0831  0.0832 -0.0747
14201W        W18601   5.455   1.941   5.600 -0.3491  0.0295 -0.1555
14202W        W18602  13.283   1.034  13.812 -0.2099 -0.2184  0.0582
14203W        W18603   4.627   5.838  10.803  0.0992 -0.2293 -0.1263
14204W        W18604  11.856   0.249   1.512 -0.0753 -0.0160  0.4734
14205W        W18605  14.615   4.570  12.150  0.1706 -0.2293 -0.2461
14206W        W18606   8.774   5.465  12.187 -0.1041  0.0211 -0.0381
14207W        W18607  18.383   5.312  32.364 -0.1224  0.1312  0.1245
14208W        W18608   3.630   0.695  43.083 -0.2526  0.0290 -0.2051
14209W        W18609   4.626   4.601   7.180 -0.0956 -0.0230 -0.1520
14210W        W18610  18.086   2.537   9.380 -0.1356  0.0075 -0.0718
14211W        W18611  12.893   1.494   2.399  0.0850  0.1308  0.0106
14212W        W18612   7.158   0.846   0.537 -0.0436 -0.0518 -0.0528
14213W        W18613   9.484   3.715   8.237  0.0844  0.1156  0.1292
14214W        W18614  20.381   4.176  25.776  0.0267 -0.0323  0.1955
14215W        W18615   3.702   4.172   2.979 -0.0760  0.2435 -0.0459
14216W        W18616   9.431   4.088  34.526 -0.1449  0.0664 -0.2392
14217W        W18617   9.531   2.369  42.669 -0.0729 -0.1260 -0.1513
14218W        W18618   3.915   0.325  10.894  0.0718 -0.2059 -0.1074
14219W        W18619  13.643   3.527  35.228 -0.2468  0.2062 -0.2531
14220W        W18620  16.883   4.302  31.038  0.0260  0.2002  0.0272
14221W        W18621  16.823   1.560  38.926  0.0499  0.3271  0.0073
14222W        W18622  17.552   4.375  13.993 -0.1056  0.0589 -0.3541
14223W        W18623  14.027   5.042  42.124  0.3620  0.1373 -0.0586
14224W        W18624  18.034   0.072  12.121  0.0194 -0.0797 -0.5727
14225W        W18625  12.243   1.089  39.557 -0.0280  0.1136  0.0653
14226W        W18626  14.102   6.004  43.664  0.0204 -0.1493  0.2125
14227W        W18627  10.678   3.538   1.849  0.1174 -0.2006 -0.2541
14228W        W18628  13.037   2.515  23.015 -0.1090  0.0513  0.0377
14229W        W18629   6.214   0.865  35.717  0.0856 -0.1445 -0.1212
14230W        W18630   3.288   5.653  26.939  0.0197  0.0687 -0.1431
14231W        W18631   9.388   2.275  11.071  0.0128 -0.1581 -0.1503
14232W        W18632  13.118   1.187  39.810 -0.2366 -0.0657  0.1195
14233W        W18633   4.178   0.072  14.605  0.1803 -0.3301 -0.0369
14234W        W18634  14.812   4.300  12.675  0.0147 -0.0059  0.1301
14235W        W18635   8.104   0.889  26.137  0.1481 -0.0574  0.0992
14236W        W18636  15.736   5.543  15.544 -0.0187 -0.1635  0.0276
14237W        W18637  13.356   4.370   3.955 -0.0939  0.0700  0.1571
14238W        W18638   7.974   3.027  32.400 -0.1565  0.4451  0.0319
14239W        W18639  10.477   2.733  14.618 -0.1419 -0.0261  0.0687
14240W        W18640   7.137   0.608  16.126 -0.1669  0.1809  0.0712
14241W        W18641  14.120   4.331  44.511 -0.1199 -0.3081  0.0996
14242W        W18642   5.146   3.018  10.494  0.3112 -0.4821  0.0226
14243W        W18643  12.793   2.478   0.011  0.1455 -0.1939  0.3770
14244W        W18644  18.883   4.048  18.902 -0.1453 -0.0960 -0.1407
14245W        W18645   8.529   2.351  38.804  0.0529  0.0188 -0.0738
14246W        W18646   3.443   6.333  25.057  0.0194 -0.0024  0.3565
14247W        W18647   8.722   0.346  35.756  0.2664  0.0428  0.1521
14248W        W18648  10.604   6.191  10.406 -0.1801  0.0632 -0.2342
14249W        W18649  18.191   0.018  18.311 -0.1944  0.0215  0.5567
14250W        W18650   4.092   1.178  31.760 -0.0926 -0.4101  0.3082
14251W        W18651  19.566   0.737   8.773 -0.2362  0.3122  0.2515
14252W        W18652   3.292   3.747  12.538 -0.0350 -0.1236 -0.0306
14253W        W18653  19.955   6.306   4.932 -0.2031  0.1213 -0.1521
14254W        W18654  17.811   1.040  13.536 -0.2118 -0.4791  0.2949
14255W        W18655  13.621   6.119  11.133  0.1643 -0.1210 -0.0360
14256W        W18656  13.208   3.753   2.175  0.4504 -0.1010  0.1575
14257W        W18657  14.702   2.154  34.361  0.0962 -0.5839  0.0363
14258W        W18658  12.237   2.583  30.734 -0.3077 -0.1884  0.0617
14259W        W18659  13.865   4.523  29.110 -0.1174  0.3268  0.1651
14260W        W18660   7.801   6.560  26.637  0.1467  0.0436 -0.0038
14261W        W18661   3.658   3.611  25.562  0.4226  0.1180  0.2489
14262W        W18662  21.121   6.371  15.500 -0.2755 -0.2571 -0.0087
14263W        W18663  18.170   0.709  16.028  0.2125 -0.1212 -0.0712
14264W        W18664   5.082   1.478  33.319 -0.0147  0.0276  0.4558
14265W        W18665   3.299   5.466  10.114  0.2224 -0.0411 -0.0847
14266W        W18666   1.314   5.984   6.906 -0.3540  0.0564  0.0544
14267W        W18667  18.489   3.322   4.116  0.1617  0.1032  0.1418
14268W        W18668  17.282   4.294  42.808 -0.2189 -0.4654 -0.0663
14269W        W18669   9.823   4.176  15.666 -0.0876  0.0818  0.0050
14270W        W18670   8.725   0.267   2.886  0.1036 -0.3566 -0.3849
14271W        W18671  17.882   2.860  31.693  0.3137 -0.2098  0.1961
14272W        W18672   6.748   0.926  34.404 -0.1381 -0.2783  0.2568
14273W        W18673  15.629   2.234   4.475 -0.2581  0.3103  0.0112
14274W        W18674  17.578   4.601  17.384  0.0137  0.0664  0.1491
14275W        W18675   6.798   3.289   3.817 -0.0601 -0.3405 -0.2005
14276W        W18676   4.965   2.387  24.914 -0.0405  0.3052  0.0238
14277W        W18677   2.410   5.253   4.345 -0.0315  0.1933 -0.1194
14278W        W18678   6.989   2.296  28.679  0.1603  0.1268  0.0159
14279W        W18679   2.535   6.289  38.782 -0.0372 -0.3738 -0.1105
14280W        W18680  14.932   6.558  33.640 -0.1620  0.1231  0.2006
14281W        W18681  14.474   4.093  10.512  0.1620  0.1745 -0.1587
14282W        W18682   2.983   1.680  40.614  0.1843  0.2725 -0.1640
14283W        W18683  17.798   1.006  37.505  0.0444  0.2171 -0.1290
14284W        W18684   0.160   0.797  42.453  0.0517 -0.2981 -0.4105
14285W        W18685  11.485   5.754   0.530 -0.0989 -0.1302 -0.1305
14286W        W18686  18.268   0.388  12.932  0.0165 -0.0869 -0.0799
14287W        W18687  12.290   4.280  21.817  0.4251  0.0763  0.1013
14288W        W18688   1.081   6.087  42.544 -0.0283 -0.0590  0.0832
14289W        W18689   4.889   3.586  39.209 -0.2613 -0.0118 -0.0323
14290W        W18690  12.185   2.826   1.190  0.3423  0.3061 -0.0448
14291W        W18691  10.913   0.954  16.508  0.1596 -0.3297  0.1391
14292W        W18692   2.223   4.741   9.593 -0.2394 -0.2527  0.0912
14293W        W18693  16.096   1.337   6.510 -0.0023  0.1218 -0.3025
14294W        W18694  16.817   4.614  34.780 -0.0311  0.1442  0.0278
14295W        W18695  18.297   5.288  18.846 -0.2791  0.0070 -0.0750
14296W        W18696  11.773   5.368  18.561  0.1884 -0.0307  0.0959
14297W        W18697   0.331   4.927  40.214 -0.0805  0.1177  0.4557
14298W        W18698   5.991   5.781  13.090  0.1694  0.0779 -0.0294
14299W        W18699  10.927   3.490  31.286 -0.0295 -0.0523  0.3070
14300W        W18700  15.265   4.413  43.109  0.0556 -0.0708  0.2784
14301W        W18701  11.549   3.888   9.130  0.4364  0.0987  0.2296
14302W        W18702  14.306   5.990  41.990 -0.1481 -0.0701 -0.1351
14303W        W18703   2.495   4.431  37.590 -0.0838 -0.1211 -0.0178
14304W        W18704  11.135   1.713  20.427  0.1537  0.0992  0.1985
14305W        W18705  16.629   2.196   5.890  0.2375  0.3288  0.0841
14306W        W18706  18.207   5.861  13.246  0.1191 -0.1138  0.1026
14307W        W18707  20.761   3.571  12.069 -0.0583 -0.1823  0.3016
14308W        W18708  16.077   5.041  19.040  0.0394  0.3170  0.1208
14309W        W18709   0.844   3.883  27.326 -0.0181 -0.1729 -0.0496
14310W        W18710   6.571   1.649  40.795 -0.1183  0.0637  0.1410
14311W        W18711   3.590   4.074  29.719 -0.0827  0.0932 -0.0748
14312W        W18712   3.284   1.011  23.342 -0.3003 -0.2169  0.0543
14313W        W18713  14.282   1.999   4.133  0.1273  0.1884 -0.1233
14314W        W18714  12.882   3.340  15.845  0.1141 -0.1659  0.0916
14315W        W18715   5.592   2.044  23.050  0.0270 -0.0338  0.0291
14316W        W18716   0.772   2.983  11.052  0.0332 -0.1493  0.2750
14317W        W18717  17.361   0.744  29.615  0.1032  0.1416 -0.0072
14318W        W18718  14.104   2.229  15.613  0.1540 -0.2233  0.0553
14319W        W18719  19.610   5.927  35.838  0.2031 -0.1633  0.1469
14320W        W18720  11.035   6.372  37.773 -0.2207  0.0822 -0.2514
14321W        W18721  17.402   1.295  19.427 -0.2059  0.0926 -0.3791
14322W        W18722  20.157   2.116  34.944  0.3706 -0.0499 -0.0305
14323W        W18723  17.738   4.363  11.222 -0.1901 -0.0905  0.2282
14324W        W18724   2.444   1.226  42.756 -0.1548  0.0782 -0.3907
14325W        W18725   3.058   0.462  40.420  0.0792 -0.1178  0.0534
14326W        W18726   9.405   6.215  38.658 -0.2545  0.1485  0.2425
14327W        W18727   5.860   3.189   0.050  0.0415 -0.0426 -0.2377
14328W        W18728   2.340   2.761  43.072  0.0530  0.0861 -0.0789
14329W        W18729  11.644   5.782  41.928 -0.2585 -0.0182 -0.2530
14330W        W18730  13.214   2.410  11.546  0.2625 -0.1102 -0.0404
14331W        W18731   4.986   4.134  22.957  0.2158 -0.0632 -0.1611
14332W        W18732  11.003   4.661  17.715  0.2221  0.2445 -0.0813
14333W        W18733  14.153   4.538  29.929 -0.1429  0.1151  0.2470
14334W        W18734  14.882   2.849  40.822  0.0584  0.1998  0.1415
14335W        W18735  16.469   3.412  43.321 -0.0514  0.0751  0.1451
14336W        W18736   2.943   2.702  11.258  0.0718 -0.4692 -0.3621
14337W        W18737   8.258   2.047  38.367  0.0480 -0.2199 -0.0223
14338W        W18738  15.266   1.519   6.749  0.0597 -0.1307 -0.0066
14339W        W18739  16.238   2.888   9.830 -0.0567  0.1585 -0.1102
14340W        W18740  14.924   1.419  36.003 -0.0018  0.1041  0.1145
14341W        W18741  20.018   3.314  18.250  0.3272 -0.0828 -0.0792
14342W        W18742   9.174   4.383  14.512 -0.1213  0.0592  0.1187
14343W        W18743   8.756   0.644   8.026  0.0190  0.1217  0.1618
14344W        W18744  14.417   2.897  32.950 -0.0675 -0.0244 -0.0544
14345W        W18745  12.748   2.681  18.701  0.3321  0.0595 -0.3358
14346W        W18746   3.137   5.592  11.058  0.0761  0.0663 -0.2414
14347W        W18747  19.901   5.151   6.908  0.0082 -0.0620 -0.2303
14348W        W18748   5.750   6.179  16.308 -0.0164 -0.0728  0.3589
14349W        W18749   7.942   0.963  26.609  0.0351  0.1457 -0.2929
14350W        W18750  13.651   1.620  11.702 -0.1895 -0.2328  0.2337
14351W        W18751  14.836   0.557  15.246 -0.0458  0.1328  0.1320
14352W        W18752   4.019   2.510  28.222 -0.2384  0.0296 -0.0996
14353W        W18753   2.127   3.976  10.960 -0.1915 -0.1369  0.2163
14354W        W18754   8.396   5.975  38.810  0.3213  0.0240  0.0169
14355W        W18755  12.594   4.386   7.148 -0.0516 -0.1159 -0.3406
14356W        W18756  20.933   5.427   9.526 -0.1905  0.0568 -0.0460
14357W        W18757   6.753   4.484  28.574 -0.2449  0.0241 -0.1339
14358W        W18758   4.322   4.948  36.992 -0.3093 -0.1738  0.1257
14359W        W18759   5.716   0.893  43.687  0.0298 -0.1550 -0.0451
14360W        W18760   0.749   4.017   0.783  0.1591 -0.2490  0.0348
14361W        W18761  20.706   0.728  36.593 -0.2025  0.0728 -0.3549
14362W        W18762   6.739   5.289  24.035 -0.1408  0.0931  0.1969
14363W        W18763   0.184   0.982   1.786  0.0993  0.2208  0.1433
14364W        W18764   5.573   6.044  13.782  0.2216 -0.3104  0.0227
14365W        W18765  20.010   5.736  11.868  0.1584  0.2118 -0.2848
14366W        W18766  10.243   1.628  44.827  0.2200 -0.1056  0.2557
14367W        W18767  15.094   6.311   5.542  0.2435 -0.0374 -0.1708
14368W        W18768   7.822   3.069  28.183 -0.3198  0.1558  0.1731
14369W        W18769   4.386   6.580  32.468 -0.2366 -0.2166  0.2495
14370W        W18770  15.672   3.379   5.386 -0.1162  0.1781 -0.4915
14371W        W18771   7.085   5.914  29.564 -0.3507  0.1066  0.1845
14372W        W18772  10.725   4.095  18.607  0.1208  0.0929  0.0754
14373W        W18773   0.195   3.499  31.407  0.2132  0.0875  0.1783
14374W        W18774   9.804   0.336   8.309 -0.2303 -0.1775  0.0558
14375W        W18775  14.949   2.779  42.533 -0.0686  0.1505  0.1319
14376W        W18776  20.967   3.026  45.047  0.5855 -0.0536 -0.1535
14377W        W18777  10.057   2.231   1.213  0.1135 -0.0465 -0.0934
14378W        W18778  12.568   1.080  21.192 -0.0605 -0.1302 -0.1162
14379W        W18779  19.718   3.612   0.449 -0.0056 -0.3967  0.5005
14380W        W18780  19.520   5.889  12.741  0.1184 -0.0511 -0.2986
14381W        W18781   3.438   4.004  10.028 -0.1720 -0.0155 -0.1224
14382W        W18782  17.959   5.765  31.672 -0.1792  0.1983 -0.1384
14383W        W18783  14.488   2.862  43.610  0.2841  0.1993 -0.0772
14384W        W18784   4.862   4.791  35.631  0.0995  0.0088  0.0710
14385W        W18785  10.699   4.969  19.971 -0.3406 -0.0071  0.1151
14386W        W18786   0.075   1.569  13.004 -0.1625 -0.0728  0.1962
14387W        W18787  11.607   4.782  31.122  0.2894  0.2761 -0.2510
14388W        W18788  16.934   5.791   6.212 -0.2795  0.1072  0.1173
14389W        W18789   3.108   0.582   3.009 -0.0835 -0.1277  0.1596
14390W        W18790   9.401   4.029  40.144 -0.0001 -0.2076  0.2375
14391W        W18791  17.484   3.190  43.302  0.1281 -0.1494 -0.3260
14392W        W18792   3.743   2.098  10.921  0.0540 -0.0520  0.1162
14393W        W18793  16.349   3.752  33.762 -0.1968 -0.1233 -0.0224
14394W        W18794   6.194   4.059  12.208 -0.2096 -0.0733  0.1018
14395W        W18795  11.764   6.369   1.437  0.0133 -0.0072  0.3924
14396W        W18796  20.728   5.490   8.621 -0.1896 -0.0542 -0.1319
14397W        W18797  12.497   3.575  39.718 -0.1276 -0.4287 -0.1873
14398W        W18798  14.499   0.263  21.069  0.1329 -0.0645  0.0567
14399W        W18799  20.986   5.130  14.080 -0.1318 -0.1375 -0.2846
14400W        W18800  19.111   3.008   1.957 -0.1418  0.2041 -0.0618
14401W        W18801  14.873   0.467  32.251  0.0464  0.2764 -0.0053
14402W        W18802  10.912   4.396  44.076 -0.2896  0.2685 -0.0812
14403W        W18803   2.422   1.060  15.901  0.0888  0.1258  0.0712
14404W        W18804   3.653   0.650   9.015 -0.1750 -0.0043 -0.1435
14405W        W18805  20.775   0.479  35.748  0.1680 -0.0224  0.1406
14406W        W18806   0.397   1.193  43.151 -0.1578  0.0713  0.0110
14407W        W18807  13.557   2.411  15.306  0.0135 -0.3210  0.1212
14408W        W18808   4.615   0.079  33.594  0.0962 -0.1212  0.1978
14409W        W18809   4.462   0.207  44.135  0.1301  0.2230 -0.1544
14410W        W18810   2.134   2.079  29.490  0.2760  0.1713 -0.1002
14411W        W18811  11.581   5.353  37.049 -0.0506 -0.0817  0.1368
14412W        W18812  14.503   4.095  17.068  0.2613 -0.2463  0.1908
14413W        W18813  15.622   2.002   5.554 -0.1473 -0.0704 -0.1303
14414W        W18814  10.148   5.636  17.686 -0.0566  0.1050  0.1507
14415W        W18815  15.414   2.649  41.775  0.0803 -0.0346  0.2314
14416W        W18816   1.554   3.690   4.281 -0.1735  0.1563  0.1228
14417W        W18817  16.548   0.762  17.814 -0.1127  0.0435  0.2464
14418W        W18818   0.339   1.898   1.569  0.0600  0.3508  0.2410
14419W        W18819   3.856   2.573  25.097 -0.0413  0.0889 -0.1813
14420W        W18820  10.774   2.018  17.610  0.2492 -0.1136  0.0452
14421W        W18821   4.314   0.358  44.960 -0.1686  0.1386  0.3577
14422W        W18822   4.229   5.657   0.793  0.1703 -0.2834 -0.1568
14423W        W18823  11.209   4.533  10.407 -0.1619  0.0863 -0.0485
14424W        W18824  16.633   3.828  12.814  0.4662  0.0706  0.4025
14425W        W18825   0.120   4.698  41.747 -0.0627  0.1058 -0.1930
14426W        W18826  14.892   0.738  41.828  0.1336 -0.1820 -0.1283
14427W        W18827  18.653   2.581  44.522  0.2800  0.3292 -0.1814
14428W        W18828  12.214   0.342  11.512 -0.0283 -0.1401 -0.0292
14429W        W18829   4.780   6.150  24.015 -0.1361 -0.2367  0.1783
14430W        W18830   3.714   3.419  14.586 -0.0904  0.0683 -0.0064
14431W        W18831  20.266   0.270  37.478 -0.0288  0.0167 -0.2937
14432W        W18832   9.252   3.997  42.168  0.4337  0.0062  0.0518
14433W        W18833   9.154   4.444  35.811  0.2354  0.3460 -0.1209
14434W        W18834   8.180   3.630   5.009 -0.1036 -0.1207 -0.1720
14435W        W18835  18.703   5.088   3.225  0.0350 -0.1293  0.0010
14436W        W18836  11.071   5.964  38.017  0.0238 -0.3262 -0.0523
14437W        W18837   2.016   3.082  26.014 -0.0931 -0.1408 -0.0886
14438W        W18838   3.373   2.620  29.955  0.1358  0.0789 -0.1917
14439W        W18839   1.548   0.987  27.409  0.1225 -0.2473  0.2535
14440W        W18840   3.065   4.641  35.082 -0.0235  0.0908 -0.2437
14441W        W18841   0.594   5.010  35.011 -0.1387 -0.1684  0.0181
14442W        W18842   1.242   4.030  11.856  0.0438  0.1579 -0.3570
14443W        W18843   2.832   3.621  37.915  0.0251  0.1036 -0.1234
14444W        W18844   0.211   5.429   7.799 -0.1191  0.2547  0.0737
14445W        W18845   4.630   0.483  12.592  0.1945 -0.3365  0.3081
14446W        W18846  17.107   2.253  31.174 -0.2540 -0.3123  0.2039
14447W        W18847   7.211   5.409  41.663 -0.0110  0.0321  0.0548
14448W        W18848   9.735   3.578  34.818  0.0031  0.0599  0.0239
14449W        W18849  20.399   5.253   4.727 -0.1560  0.3523  0.0208
14450W        W18850  13.715   4.050  24.816 -0.0073  0.0600 -0.0966
14451W        W18851   5.094   2.568  21.598  0.1232 -0.0495 -0.1666
14452W        W18852   6.278   1.533  31.041  0.1014 -0.1159 -0.1122
14453W        W18853  15.780   0.290  22.290  0.0780 -0.4077  0.0731
14454W        W18854   8.145   5.985   5.751  0.0999 -0.1160  0.0721
14455W        W18855   7.627   2.234   3.347  0.0860  0.0532 -0.1336
14456W        W18856  10.496   6.424  32.371  0.3977  0.2287  0.2845
14457W        W18857   7.345   4.419  10.338 -0.0732  0.1377  0.0857
14458W        W18858   4.997   4.447  44.402  0.0257 -0.3165  0.1054
14459W        W18859   4.626   2.931  34.886  0.3187 -0.0066  0.0855
14460W        W18860   8.535   4.658  37.968  0.1868  0.4318 -0.1599
14461W        W18861  20.421   5.235  29.496  0.0412 -0.1936  0.1329
14462W        W18862  12.172   5.823  41.174  0.4222 -0.0327  0.0774
14463W        W18863   4.032   6.420  19.348 -0.0766  0.2128  0.3329
14464W        W18864  15.160   4.664  15.111 -0.0298  0.0327  0.0760
14465W        W18865   0.045   3.326  14.614  0.2195 -0.0588  0.0174
14466W        W18866   0.753   5.384  30.398 -0.1555 -0.0745 -0.3658
14467W        W18867  16.421   4.135   1.447  0.0115 -0.0551 -0.1831
14468W        W18868  11.783   0.796  43.850  0.1369 -0.4584 -0.2786
14469W        W18869   1.822   1.456  42.525  0.2713  0.1612 -0.1133
14470W        W18870   5.398   4.701  37.233  0.1905 -0.0852  0.2283
14471W        W18871   9.818   5.133  17.323 -0.0783  0.0525  0.2428
14472W        W18872  10.390   6.467  17.232 -0.0515 -0.1396  0.3344
14473W        W18873   3.152   0.149  22.019 -0.1351 -0.0549  0.1980
14474W        W18874   6.813   0.311  16.458  0.0352 -0.1148 -0.0519
14475W        W18875  10.387   3.808  39.835  0.0520 -0.0197 -0.3396
14476W        W18876   2.301   0.870  32.425  0.0873  0.0309  0.0441
14477W        W18877  19.112   5.214  39.533  0.0854  0.2250  0.0515
14478W        W18878   8.245   3.500   0.968  0.0285 -0.1677  0.2748
14479W        W18879  14.316   4.225  22.935 -0.1526  0.0322 -0.1102
14480W        W18880  15.993   5.852  38.306 -0.0092 -0.2409  0.3344
14481W        W18881  18.459   1.528  40.485  0.3771  0.1924 -0.0811
14482W        W18882   9.313   0.045  12.331  0.0177 -0.0168 -0.0884
14483W        W18883   8.859   6.367  16.168  0.0878  0.1451  0.1243
14484W        W18884  14.434   3.961   5.463  0.1978 -0.0885  0.2638
14485W        W18885  16.541   0.461  37.357 -0.0729  0.1382  0.2190
14486W        W18886   3.247   2.181   6.134 -0.1958  0.0059 -0.2596
14487W        W18887  16.352   4.158  11.116 -0.1465  0.2414 -0.0672
14488W        W18888   5.977   1.923  38.300  0.1222  0.1195  0.0838
14489W        W18889   1.745   3.386  32.194 -0.1529  0.0436 -0.1177
14490W        W18890   0.558   4.575  35.737 -0.2654 -0.0487 -0.0637
14491W        W18891  19.999   2.466  17.891  0.2711 -0.4564  0.1777
14492W        W18892   3.687   4.351  44.519 -0.1139 -0.0194 -0.1952
14493W        W18893   7.657   3.210   5.698 -0.0040 -0.0376  0.0247
14494W        W18894   7.566   1.640  13.481 -0.1603  0.0868  0.1753
14495W        W18895  18.357   3.200   0.607  0.2132 -0.1963  0.1383
14496W        W18896   2.816   3.634   4.560 -0.0624 -0.1141 -0.1964
14497W        W18897   9.875   5.557  41.509 -0.3285  0.1039 -0.0814
14498W        W18898   6.393   0.062  41.279 -0.0014 -0.2321 -0.0802
14499W        W18899  13.852   3.881  38.597  0.0878 -0.0733 -0.0563
14500W        W18900   3.785   2.944  25.416 -0.1722  0.2848 -0.0478
14501W        W18901   6.022   1.606   6.840 -0.1661 -0.4290  0.2649
14502W        W18902  18.138   4.272  20.327  0.4828 -0.2860 -0.1405
14503W        W18903   2.024   3.768  40.711 -0.1452 -0.1557 -0.0529
14504W        W18904   9.510   2.979   2.472 -0.0991  0.0402  0.2756
14505W        W18905   9.085   5.416  38.342 -0.0031 -0.2250  0.0892
14506W        W18906  16.399   1.015   2.429 -0.0773 -0.1309  0.0612
14507W        W18907   1.878   1.217  44.025  0.1411  0.1977 -0.1431
14508W        W18908   1.411   0.689   7.919 -0.1201  0.4373 -0.3326
14509W        W18909   6.277   1.512  37.438  0.0112  0.0781 -0.0953
14510W        W18910  16.707   2.599  41.608 -0.3604 -0.3486  0.1775
14511W        W18911  15.191   3.639  36.395  0.1062 -0.1389 -0.4330
14512W        W18912  10.363   6.175  38.617  0.0753 -0.0642 -0.0363
14513W        W18913  20.866   3.339  32.623 -0.0413 -0.1358 -0.3138
14514W        W18914   0.198   4.532  27.165  0.0241  0.1080  0.1412
14515W        W18915   0.563   0.549   8.052 -0.0860 -0.0209 -0.0239
14516W        W18916  17.180   2.099  42.680 -0.0511 -0.1747 -0.0694
14517W        W18917  20.087   5.861  10.065  0.0820 -0.1664 -0.0356
14518W        W18918   7.122   6.292  11.575 -0.1046  0.0206  0.2572
14519W        W18919   6.109   0.544  33.648  0.1418  0.1802 -0.1476
14520W        W18920  17.853   3.101   5.012  0.1444 -0.0206  0.1373
14521W        W18921   8.238   1.950   1.836  0.0585  0.1042  0.1944
14522W        W18922   4.305   4.330   3.501 -0.2091 -0.1444  0.1264
14523W        W18923  18.706   0.521  44.161  0.4516 -0.1028 -0.0017
14524W        W18924  20.272   5.861   4.691  0.1048  0.1440 -0.0667
14525W        W18925   3.222   4.314  19.253  0.2411 -0.1894 -0.0457
14526W        W18926  15.116   3.591  35.774  0.1447 -0.5240  0.0742
14527W        W18927   2.172   3.297  36.285  0.0645 -0.2017  0.1232
14528W        W18928  14.193   4.840  18.861  0.0868 -0.0235 -0.0225
14529W        W18929  18.683   2.626   1.872 -0.2724 -0.5131 -0.1841
14530W        W18930   9.714   0.148   1.943  0.0047  0.0053  0.0140
14531W        W18931  14.918   5.452  40.481 -0.1274 -0.2690 -0.1863
14532W        W18932   8.255   4.744  43.056  0.1375 -0.1334 -0.2736
14533W        W18933  13.660   5.091   5.938 -0.3924 -0.1783  0.1739
14534W        W18934   1.774   0.981  31.798  0.0718  0.0260  0.3313
14535W        W18935   5.565   3.067   5.932 -0.1916  0.4407  0.1626
14536W        W18936  14.358   1.398  41.052 -0.1977  0.0226  0.3487
14537W        W18937  14.024   6.573  13.296 -0.3223  0.1458  0.0313
14538W        W18938   7.482   5.301  26.718  0.4412 -0.2921  0.1011
14539W        W18939  16.604   3.730   7.071  0.1994 -0.0380  0.0181
14540W        W18940  13.818   2.245  38.096 -0.1419  0.2173 -0.0982
14541W        W18941   7.529   5.794  38.185 -0.0245  0.0738 -0.0106
14542W        W18942   5.250   2.040  25.159 -0.1900  0.0815 -0.1226
14543W        W18943  10.415   4.989  30.358 -0.0581 -0.0825 -0.1074
14544W        W18944   3.915   3.071  30.676  0.0373  0.0876 -0.0099
14545W        W18945  15.070   4.799  31.690 -0.0699  0.1935 -0.0274
14546W        W18946   8.310   3.060  32.005  0.0682  0.1162 -0.0437
14547W        W18947   0.933   6.226  11.432 -0.1216 -0.4663 -0.2744
14548W        W18948  16.913   2.246  13.180 -0.0066 -0.4617 -0.1964
14549W        W18949  14.732   0.673   1.798  0.0243 -0.0962 -0.1150
14550W        W18950   3.775   3.277   5.009 -0.1758 -0.0479  0.2629
14551W        W18951  17.297   4.301  38.635 -0.0711 -0.0690 -0.2769
14552W        W18952  18.184   0.107  28.731 -0.0247 -0.0233 -0.2051
14553W        W18953   5.069   1.386   2.789  0.3368  0.1027 -0.1143
14554W        W18954  19.253   3.245  27.196  0.0803  0.0178 -0.0029
14555W        W18955  13.850   6.119  18.792  0.2682  0.1775  0.2751
14556W        W18956   2.658   6.089  22.833  0.3009  0.1596  0.1563
14557W        W18957   8.355   2.971  41.516  0.0205  0.2475 -0.0805
14558W        W18958  19.948   6.285   0.907  0.0547  0.0669 -0.0337
14559W        W18959  18.248   5.174  35.971 -0.1430  0.0564  0.0030
14560W        W18960   3.673   1.551  29.277  0.0802  0.0717  0.0695
14561W        W18961   1.675   1.121  38.692 -0.1871 -0.0987  0.1633
14562W        W18962  10.348   5.176  37.360  0.0328 -0.0232 -0.0332
14563W        W18963  16.625   0.968  31.120  0.1623  0.0852 -0.3235
14564W        W18964  11.349   5.875  28.332  0.1347 -0.2253  0.0461
14565W        W18965  19.308   5.911   3.808  0.2105 -0.3030  0.0903
14566W        W18966  17.179   2.710  38.826 -0.0665  0.1759 -0.0560
14567W        W18967   8.778   0.473  43.718 -0.0063  0.4454 -0.1965
14568W        W18968  14.471   4.297   2.077 -0.2418  0.1426  0.1231
14569W        W18969  13.294   4.661  11.369  0.2445  0.0537 -0.1643
14570W        W18970   3.230   0.758  30.725  0.2143  0.1356 -0.2692
14571W        W18971   4.004   2.321  39.042 -0.0895 -0.0667 -0.1848
14572W        W18972   9.783   3.063  29.270 -0.3674 -0.3959  0.3402
14573W        W18973  20.652   2.842   2.960  0.3034  0.0296  0.1267
14574W        W18974  13.560   4.140  15.026 -0.0365  0.1106 -0.1840
14575W        W18975   5.201   3.652  45.128  0.2361  0.1318  0.3974
14576W        W18976   4.083   3.477  21.473 -0.1950 -0.2936  0.3819
14577W        W18977   2.660   0.126   1.159  0.0924 -0.0340  0.2599
14578W        W18978   0.771   2.317   8.005  0.0036  0.1972  0.0093
14579W        W18979  10.026   6.476  28.049 -0.1557  0.0430 -0.0369
14580W        W18980   6.818   6.416   9.570  0.1619 -0.1839  0.2839
14581W        W18981  13.630   3.806  22.910 -0.3224 -0.0307 -0.1700
14582W        W18982   7.928   2.439  11.188 -0.2564 -0.0964  0.0494
14583W        W18983   2.537   0.580  42.005 -0.4125  0.3505 -0.2309
14584W        W18984   4.938   1.632  27.871 -0.2278 -0.0493  0.1299
14585W        W18985  11.276   3.092  40.562  0.0932  0.3639  0.3524
14586W        W18986   4.994   3.899  44.177 -0.1267  0.0293 -0.2668
14587W        W18987  12.674   3.126  39.552  0.1372  0.0244 -0.2732
14588W        W18988   0.422   4.515   7.498 -0.0272 -0.1017 -0.0312
14589W        W18989   4.076   0.573  12.970 -0.0411 -0.1286 -0.1936
14590W        W18990  12.467   6.046  41.553  0.0140 -0.2651  0.1597
14591W        W18991  11.363   4.221  16.718 -0.2601  0.0001 -0.0768
14592W        W18992  16.505   0.697  12.318  0.0787  0.3015  0.3310
14593W        W18993  16.364   4.769  43.228 -0.0560 -0.0155 -0.0186
14594W        W18994  12.836   0.285  32.867  0.2811 -0.1502 -0.0193
14595W        W18995  13.958   0.189  14.802  0.0048 -0.0385 -0.2469
14596W        W18996  14.357   5.108  17.477 -0.0842  0.1691 -0.2124
14597W        W18997  18.211   6.263  32.012  0.0093 -0.1210  0.0389
14598W        W18998   1.987   5.072  37.025 -0.0025 -0.1374 -0.1864
14599W        W18999  16.616   0.208  18.920  0.1568 -0.3476  0.0398
14600W        W19000   7.052   4.131  39.045  0.2054  0.1573  0.0589
14601W        W19001   2.644   1.398  39.348 -0.1849 -0.3119 -0.2149
14602W        W19002  19.490   0.400  15.554  0.0437 -0.2012 -0.0133
14603W        W19003   5.372   3.381   1.287  0.1434 -0.0785  0.1513
14604W        W19004  14.573   4.184  38.879 -0.0909 -0.5271  0.2625
14605W        W19005   8.645   3.859  17.224  0.1912  0.0314 -0.0093
14606W        W19006  20.700   0.406  38.356  0.0830  0.1033 -0.0001
14607W        W19007   6.413   0.809  38.404 -0.1258 -0.2717  0.1580
14608W        W19008   2.294   2.665  14.598  0.0487  0.3595 -0.1241
14609W        W19009   8.401   5.871   2.823 -0.2266  0.0833  0.0986
14610W        W19010   9.653   1.118  30.799  0.1979  0.0806  0.1410
14611W        W19011  11.376   6.500  18.920 -0.2261  0.1672  0.0603
14612W        W19012  19.252   2.674  10.102 -0.3449 -0.1368 -0.1193
14613W        W19013   1.602   5.270   4.065 -0.3111 -0.0900  0.0224
14614W        W19014   8.144   3.880  32.958  0.2223 -0.0735 -0.0714
14615W        W19015  14.427   5.262  30.472  0.0703  0.3517 -0.4173
14616W        W19016   7.524   5.387  40.750  0.0445 -0.1295  0.1978
14617W        W19017   0.551   1.324  15.845  0.2221 -0.1054 -0.0675
14618W        W19018   0.597   5.932  44.605  0.0328 -0.5544  0.0395
14619W        W19019   8.058   3.830  26.891  0.0931 -0.1640 -0.0182
14620W        W19020  11.388   2.074  31.346  0.1801  0.0799 -0.4178
14621W        W19021  18.496   1.170  32.957 -0.3270  0.0582  0.0886
14622W        W19022   0.694   1.126  34.189 -0.2451 -0.1767  0.1460
14623W        W19023   6.337   2.552  13.450 -0.1192  0.4534  0.0333
14624W        W19024  17.006   3.378  38.879  0.0318  0.1764 -0.0027
14625W        W19025   7.512   4.177  42.505 -0.0141 -0.0550 -0.1902
14626W        W19026   0.308   0.409  33.212 -0.2041 -0.0638  0.1159
14627W        W19027   3.831   2.454  44.250  0.2370  0.0473 -0.0945
14628W        W19028  13.599   6.126  13.418  0.0137 -0.0727 -0.0847
14629W        W19029   4.060   5.117  24.209  0.3466 -0.1567  0.0130
14630W        W19030   5.448   5.744  23.467 -0.0454 -0.0624 -0.2896
14631W        W19031   2.174   2.648   2.285 -0.0152  0.0646  0.0825
14632W        W19032   8.187   4.231   2.910 -0.0524  0.2247 -0.0210
14633W        W19033   0.602   2.823  37.268  0.0534 -0.0855  0.3830
14634W        W19034   1.839   0.768  13.234  0.0842 -0.1531 -0.0239
14635W        W19035   0.532   5.645   1.440 -0.1173 -0.0114 -0.1291
14636W        W19036  14.324   1.375  15.272 -0.1715 -0.1471  0.5712
14637W        W19037   7.190   0.711  44.925 -0.0886 -0.1649 -0.0465
14638W        W19038   5.733   2.923  33.134 -0.0318 -0.0266 -0.2451
14639W        W19039  11.588   1.157  42.374 -0.4061  0.1606 -0.0750
14640W        W19040  12.266   5.610  33.674  0.0935 -0.0482 -0.2277
14641W        W19041   1.896   2.948   2.519  0.1295  0.2018  0.1668
14642W        W19042   5.980   4.385  41.344  0.2982 -0.2142  0.1823
14643W        W19043   0.571   5.276   4.453 -0.2872 -0.0371  0.1544
14644W        W19044   8.057   1.351  41.617  0.3245  0.1566  0.0764
14645W        W19045   8.921   5.242   8.422 -0.0601 -0.0193 -0.1199
14646W        W19046  19.204   6.289  10.022 -0.1272  0.2252 -0.3197
14647W        W19047  16.022   6.346   1.399  0.1860 -0.0694 -0.1546
14648W        W19048   9.664   3.662  41.156  0.2276  0.1459  0.1233
14649W        W19049   4.769   0.872  31.971  0.1970  0.2905  0.0610
14650W        W19050  13.884   5.706  33.068  0.0388  0.2219  0.1440
14651W        W19051   8.295   4.841  26.940 -0.3097 -0.2558 -0.3163
14652W        W19052   6.586   2.944  10.708  0.0027  0.0179 -0.1409
14653W        W19053  16.013   4.835   3.962 -0.1040 -0.0450 -0.1315
14654W        W19054   4.759   4.367  43.338 -0.3902  0.2280  0.3711
14655W        W19055  14.234   2.181  15.110  0.0231  0.1291 -0.1118
14656W        W19056   6.544   3.866   4.128 -0.3001  0.0972 -0.0789
14657W        W19057   8.040   5.911   0.409  0.1150 -0.1875  0.0190
14658W        W19058  13.398   0.084  20.643  0.1308 -0.0539  0.2199
14659W        W19059   3.830   4.526  45.012  0.0937  0.2455  0.1958
14660W        W19060  10.353   1.918  12.620  0.1273  0.0660 -0.0112
14661W        W19061   8.843   3.995  43.911  0.0490  0.0887 -0.2606
14662W        W19062   3.643   0.825  39.718  0.1132  0.1675 -0.1645
14663W        W19063  14.554   1.394  42.554 -0.2425  0.0709 -0.0432
14664W        W19064  20.104   1.239   3.661 -0.1740 -0.0962 -0.3265
14665W        W19065   8.299   4.388  34.850 -0.1199 -0.0354  0.2336
14666W        W19066   8.964   4.348   0.137 -0.1300  0.0899 -0.3089
14667W        W19067   3.826   3.480  23.432 -0.1696  0.0514  0.1275
14668W        W19068   7.462   3.453  34.335 -0.2119  0.0586  0.1110
14669W        W19069   7.156   2.945  25.576 -0.0507 -0.5376 -0.0675
14670W        W19070  12.978   5.728  29.588 -0.0727 -0.0481  0.0474
14671W        W19071   8.386   3.309  31.615 -0.2743  0.0690  0.1835
14672W        W19072   1.722   2.085   3.355  0.0558 -0.1138  0.1254
14673W        W19073  18.401   6.139  19.854  0.2456  0.1110  0.1917
14674W        W19074   4.568   3.731  31.972 -0.0589 -0.2988 -0.0657
14675W        W19075   5.015   0.955   6.712 -0.1686 -0.0065  0.0036
14676W        W19076  17.451   4.428   9.208  0.2625 -0.2981 -0.0857
14677W        W19077   2.918   3.814   4.046  0.0693 -0.2606 -0.0843
14678W        W19078   3.645   1.497  31.768 -0.2587  0.3428  0.1017
14679W        W19079  14.984   4.394   4.751  0.0410  0.0843  0.1226
14680W        W19080   7.457   1.012  37.709  0.1200  0.0044 -0.3143
14681W        W19081   3.829   4.294  20.825 -0.3465 -0.0706  0.0802
14682W        W19082  18.529   1.797  32.629  0.1068  0.1208 -0.3230
14683W        W19083   8.883   1.993  16.287  0.0330  0.1566 -0.0140
14684W        W19084   6.305   5.641   5.885 -0.0278  0.0082 -0.0989
14685W        W19085   0.946   0.250  26.050 -0.0575  0.2794 -0.0893
14686W        W19086  14.993   4.001  13.838 -0.3285 -0.0434  0.2028
14687W        W19087  18.197   3.272  37.666 -0.1325 -0.1227  0.2000
14688W        W19088  20.574   6.480  16.943 -0.0845  0.0832  0.1962
14689W        W19089  17.292   5.074  28.527 -0.1129  0.0091  0.0337
14690W        W19090  16.582   5.403   7.296  0.1089  0.0775  0.0802
14691W        W19091   1.736   3.241  15.890 -0.3326 -0.1890 -0.0563
14692W        W19092   3.294   6.168   0.648 -0.1599  0.3552  0.0666
14693W        W19093   8.790   2.523  37.117 -0.3176 -0.3898  0.1090
14694W        W19094   0.835   3.147   8.065  0.1839  0.0175  0.3311
14695W        W19095  12.436   6.413  30.109  0.0470  0.1475 -0.1501
14696W        W19096  17.499   0.514  19.501 -0.2270 -0.1731  0.3213
14697W        W19097  10.413   3.072  34.476 -0.0418  0.1132  0.3648
14698W        W19098   6.266   6.396  32.530  0.0312 -0.1874 -0.0737
14699W        W19099  10.690   6.460  15.508 -0.0699  0.3047 -0.0871
14700W        W19100  12.449   0.647  14.351  0.2075  0.1247 -0.1076
14701W        W19101  14.808   2.142  16.308 -0.0512 -0.1809  0.1851
14702W        W19102  14.416   6.286  40.286  0.2827 -0.0308  0.0797
14703W        W19103  18.968   5.153  34.036 -0.2526 -0.2696  0.0068
14704W        W19104   1.861   0.809  26.863  0.1655  0.2279  0.0385
14705W        W19105  12.914   4.773  21.079  0.0073 -0.0030  0.0512
14706W        W19106  16.754   3.337  10.032  0.0112  0.2232 -0.2901
14707W        W19107  13.991   3.451  34.854  0.1906  0.0356 -0.2319
14708W        W19108  15.778   1.010  21.752  0.1871  0.0095 -0.0340
14709W        W19109   4.237   3.361  31.753  0.2254 -0.1356 -0.2514
14710W        W19110   6.539   1.782  26.348  0.3842  0.0313  0.1173
14711W        W19111  12.034   6.459   3.718 -0.1496  0.0697 -0.1013
14712W        W19112   0.964   2.345  41.859  0.0747 -0.0067  0.1416
14713W        W19113   9.686   0.094  13.558 -0.1162 -0.1734 -0.1784
14714W        W19114   8.805   0.301  12.988 -0.0780 -0.0586  0.1209
14715W        W19115   3.433   0.482  34.044 -0.2867 -0.3551  0.1146
14716W        W19116  17.706   5.578  14.465  0.0219 -0.1062  0.1089
14717W        W19117   3.929   3.235  43.667 -0.2959 -0.5836  0.1015
14718W        W19118   4.037   2.714   7.665 -0.0179 -0.4443 -0.4699
14719W        W19119   2.432   1.285   2.990 -0.1837 -0.2488 -0.1899
14720W        W19120  17.806   1.204   6.288  0.1143 -0.0696  0.1251
14721W        W19121   4.539   5.170  40.066 -0.2104  0.0678  0.0420
14722W        W19122   5.518   6.603  21.809 -0.1598  0.3279 -0.0771
14723W        W19123   1.301   3.167  38.978  0.1563  0.0789  0.1319
14724W        W19124   6.503   1.856  15.435  0.0640 -0.4544  0.1992
14725W        W19125   7.731   0.305  34.703  0.0139 -0.2427  0.1395
14726W        W19126  18.869   1.464   8.458 -0.0329 -0.1535 -0.0651
14727W        W19127   0.113   0.636  30.466  0.4368 -0.2242  0.0679
14728W        W19128  13.091   4.888  28.433  0.0187  0.0374  0.0833
14729W        W19129  15.178   2.890   9.793  0.0859  0.0977  0.2846
14730W        W19130   7.983   2.232  37.962  0.0091  0.0307 -0.0719
14731W        W19131   0.790   0.079   8.066  0.4287  0.2331 -0.1032
14732W        W19132   7.158   2.139  33.594  0.0199  0.1324  0.0251
14733W        W19133  15.573   4.546  43.535  0.2978 -0.0682  0.1305
14734W        W19134  15.249   5.655   8.346 -0.0690  0.0251 -0.0145
14735W        W19135  16.520   6.498  41.309  0.0804 -0.0907 -0.1507
14736W        W19136  11.810   3.897   2.920  0.1851 -0.2451  0.1834
14737W        W19137  19.262   2.967  34.368 -0.0029  0.0038 -0.0141
14738W        W19138   4.935   0.195  29.228  0.1359 -0.1251  0.0808
14739W        W19139  16.206   4.616   8.274  0.2709 -0.3826  0.2264
14740W        W19140  10.814   3.668   4.738  0.0297  0.1262 -0.0002
14741W        W19141  15.877   6.141  34.941 -0.0243  0.0975 -0.1975
14742W        W19142  11.888   2.852  14.784  0.0623 -0.0812 -0.0941
14743W        W19143   4.294   4.855  38.477  0.3567 -0.2119  0.0505
14744W        W19144  11.719   0.842  13.624  0.0078 -0.2133  0.0820
14745W        W19145   3.654   3.924   6.283 -0.2067 -0.1061  0.3559
14746W        W19146  10.537   2.569   7.293 -0.1873  0.0514 -0.0793
14747W        W19147   4.437   1.694   6.678 -0.1329 -0.4678  0.0403
14748W        W19148   7.878   2.681  25.568 -0.1786 -0.1427 -0.1001
14749W        W19149  12.869   5.414  33.936  0.2885 -0.1261 -0.0392
14750W        W19150  13.706   1.210  31.517  0.1639  0.1545 -0.1832
14751W        W19151  17.762   4.543  40.167 -0.0850  0.2232 -0.0302
14752W        W19152  18.665   2.606  37.034 -0.2894  0.2351  0.1501
14753W        W19153  20.753   0.015   1.055 -0.1160  0.0681 -0.1376
14754W        W19154   3.511   4.982  29.061 -0.0050  0.2248  0.1708
14755W        W19155   7.806   4.917   6.707 -0.3083  0.0389  0.2528
14756W        W19156   1.180   6.241  25.868 -0.0577  0.1659 -0.0912
14757W        W19157   9.243   5.926  28.874  0.0626 -0.1799  0.2190
14758W        W19158  19.788   5.699   0.325 -0.0098 -0.1534  0.2778
14759W        W19159  15.494   3.442  41.381 -0.0150  0.2221 -0.0791
14760W        W19160   7.247   3.671  34.812  0.1630  0.0630  0.1195
14761W        W19161  15.764   4.882  39.186 -0.1269 -0.0403 -0.1023
14762W        W19162  18.801   5.816  29.748 -0.0404 -0.0748  0.1284
14763W        W19163  14.894   1.063  44.359 -0.1538 -0.3141  0.0027
14764W        W19164   5.489   4.032  27.786  0.0031 -0.1533  0.0429
14765W        W19165  15.865   6.395   2.034  0.1744  0.0416  0.1800
14766W        W19166   9.589   1.007  39.310 -0.0714  0.0333  0.1955
14767W        W19167  12.433   0.029  22.317  0.0977  0.0342 -0.0517
14768W        W19168   7.113   4.132  30.475  0.0359 -0.1401 -0.0526
14769W        W19169   9.406   5.726   5.977  0.4665 -0.2202  0.0260
14770W        W19170  13.562   0.033   0.019 -0.2904  0.0416 -0.0964
14771W        W19171   1.579   3.749  10.994  0.2384  0.1051  0.1856
14772W        W19172   3.264   1.371  29.509  0.0448  0.0717  0.3457
14773W        W19173   3.578   0.355   2.080  0.0642 -0.1071  0.1161
14774W        W19174  13.402   1.544  14.217  0.3302  0.1242 -0.0509
14775W        W19175   5.365   0.513  38.388  0.1010  0.3284  0.1799
14776W        W19176  20.011   3.828  41.314  0.3752  0.2914  0.1886
14777W        W19177   5.030   6.398  13.542 -0.0835  0.0984 -0.0943
14778W        W19178  16.233   3.625  41.161  0.0991 -0.0901  0.1973
14779W        W19179  15.467   3.555  34.676 -0.0963 -0.0303  0.0836
14780W        W19180   3.818   4.489  33.440  0.1121  0.0116 -0.0207
14781W        W19181   9.451   3.369   9.828  0.0946  0.0291  0.2449
14782W        W19182   0.756   2.724   8.886  0.0660 -0.0540  0.0028
14783W        W19183   3.806   2.299  42.829  0.0157 -0.0832 -0.0359
14784W        W19184   5.698   0.288  29.604 -0.3777  0.0671 -0.0042
14785W        W19185  15.964   5.484  22.116  0.1597 -0.5007  0.2080
14786W        W19186   6.476   5.774  16.690  0.0781 -0.1762  0.0284
14787W        W19187   9.927   1.746  37.246 -0.1335 -0.0195 -0.1648
14788W        W19188  12.179   4.761  33.545  0.3730  0.1260 -0.0828
14789W        W19189  19.489   5.658  11.724  0.1714 -0.2054 -0.2310
14790W        W19190   3.567   2.832  40.293 -0.1718 -0.4682  0.0623
14791W        W19191  20.031   0.347  36.226  0.0472 -0.0912  0.2168
14792W        W19192  15.668   2.153  12.099  0.1950  0.4390  0.4505
14793W        W19193   6.549   3.577  29.151  0.1072  0.1662 -0.1400
14794W        W19194  16.971   2.202  19.305 -0.1291  0.1591 -0.1857
14795W        W19195   0.401   0.563  43.978 -0.3828  0.0586 -0.0315
14796W        W19196  21.158   3.267  26.533 -0.1433 -0.0876 -0.0256
14797W        W19197  18.026   1.065  11.298 -0.1850  0.0617  0.2037
14798W        W19198   8.550   2.414  10.094 -0.0103  0.1776  0.1418
14799W        W19199   1.453   2.066  12.703 -0.1600  0.1240 -0.1823
14800W        W19200   6.072   5.381  38.796 -0.0357  0.1034  0.0123
14801W        W19201   2.975   0.763  40.825 -0.4928 -0.2529 -0.0509
14802W        W19202   1.282   2.193  16.328 -0.0202 -0.0344  0.0568
14803W        W19203   3.516   4.000  42.681  0.0496  0.0677  0.0210
14804W        W19204   4.519   6.027  28.918  0.0650  0.1401 -0.0371
14805W        W19205  12.803   4.040   1.980 -0.0347 -0.0495  0.1742
14806W        W19206  10.826   5.882  20.139 -0.0584 -0.2643 -0.0501
14807W        W19207  19.918   6.120  39.084 -0.1930 -0.0663  0.2875
14808W        W19208   6.193   5.973  32.964  0.2195  0.1603 -0.1367
14809W        W19209   0.625   6.163  13.886  0.1422 -0.1478 -0.1551
14810W        W19210  10.550   6.334  11.953 -0.0973 -0.2673 -0.1068
14811W        W19211  11.702   2.075  42.224 -0.1851 -0.2742  0.0841
14812W        W19212   2.637   0.496   4.535 -0.1781  0.2242 -0.1516
14813W        W19213   7.988   3.094   6.056  0.2476 -0.2191 -0.1881
14814W        W19214   2.287   3.256  22.689 -0.0429 -0.1924  0.0983
14815W        W19215   0.630   2.718  11.456  0.1101  0.0594  0.2409
14816W        W19216  16.419   6.223   5.617 -0.0287 -0.2795  0.1364
14817W        W19217   5.435   3.485   7.149  0.4680  0.3013 -0.1243
14818W        W19218  10.156   4.376  32.740 -0.2381 -0.2272  0.0136
14819W        W19219  19.631   5.590   4.047 -0.1659 -0.3583  0.1402
14820W        W19220  19.566   1.457  41.286  0.3080 -0.0348  0.0443
14821W        W19221   4.017   5.193  20.936 -0.2550  0.2036  0.2302
14822W        W19222  21.050   0.855   8.703  0.1863 -0.0248 -0.0640
14823W        W19223  18.718   6.428   5.160 -0.2377  0.0918 -0.1125
14824W        W19224   5.267   3.987   7.030 -0.0854 -0.0723 -0.0133
14825W        W19225  10.106   1.641  29.164  0.1953 -0.2185  0.2553
14826W        W19226   3.735   5.323  44.142  0.1643  0.0166  0.0813
14827W        W19227   3.754   4.025   6.964  0.2126  0.2633 -0.3558
14828W        W19228  13.276   4.579   2.738 -0.1251 -0.2748  0.0063
14829W        W19229   9.187   2.202  43.035  0.1105 -0.2066 -0.0091
14830W        W19230   1.599   5.216  36.534  0.0576  0.1549  0.0166
14831W        W19231  18.508   4.855  17.071  0.0225  0.2058  0.0185
14832W        W19232  20.219   4.129  11.402  0.0846  0.1150  0.1038
14833W        W19233  17.137   4.918  11.299  0.2275 -0.1105 -0.3445
14834W        W19234   4.998   2.550  14.009  0.3522  0.0641  0.0393
14835W        W19235   9.476   6.099  18.524  0.3675 -0.3530  0.0431
14836W        W19236   1.259   1.183   4.953 -0.0598  0.3186  0.2164
14837W        W19237  15.316   5.758  11.928 -0.0112  0.0537 -0.2356
14838W        W19238   5.427   1.216   8.614 -0.1217 -0.2615 -0.3895
14839W        W19239   5.914   2.783  25.090  0.0529  0.2239 -0.1014
14840W        W19240   8.452   4.188  33.373  0.0925 -0.0038  0.0330
14841W        W19241   2.984   6.110  38.747  0.3239  0.1866  0.2269
14842W        W19242   7.271   1.534  30.634  0.0725  0.1948 -0.3366
14843W        W19243  11.738   1.420  39.465 -0.0068  0.0068  0.1420
14844W        W19244  12.337   3.339  35.178  0.1553  0.0916  0.2861
14845W        W19245   5.383   6.026   1.096  0.0425  0.1107  0.0400
14846W        W19246   5.115   2.343   1.029 -0.0434 -0.2523 -0.2069
14847W        W19247   7.502   2.731   8.168 -0.0235  0.1977  0.1884
14848W        W19248  19.516   1.437  35.624  0.1617 -0.1038  0.0945
14849W        W19249   4.600   1.897  34.124 -0.2217  0.0532 -0.0379
14850W        W19250  14.020   4.336   9.595 -0.0652 -0.2545 -0.0710
14851W        W19251  20.052   1.360  36.483  0.0025  0.1761 -0.2014
14852W        W19252  12.120   0.397  36.244 -0.0228  0.0960  0.2596
14853W        W19253  18.259   3.879  14.894 -0.2306  0.4454  0.1651
14854W        W19254   0.077   2.100  41.714 -0.2140 -0.0680 -0.3264
14855W        W19255   0.796   4.029  24.627 -0.3650 -0.0902 -0.0159
14856W        W19256  11.484   3.508  28.236  0.0297 -0.1335  0.1305
14857W        W19257  10.019   5.814  33.571  0.1245  0.0266 -0.0798
14858W        W19258   9.765   1.263  29.360  0.0948  0.0626 -0.1814
14859W        W19259  14.450   0.515  32.548  0.0176 -0.1472 -0.2012
14860W        W19260  12.649   6.413  19.629 -0.2080  0.0841 -0.1421
14861W        W19261   4.511   5.615  37.660  0.0652 -0.0391  0.1257
14862W        W19262  13.891   2.069  36.251  0.3213  0.0537  0.0301
14863W        W19263   7.474   5.360  27.631 -0.1515 -0.1333  0.1122
14864W        W19264  16.303   2.770   0.105  0.0108 -0.1240 -0.2894
14865W        W19265   9.328   2.562  27.671 -0.0789 -0.1203  0.0940
14866W        W19266  13.364   4.988  20.394 -0.3846 -0.0632 -0.1232
14867W        W19267  16.980   2.195  31.663 -0.0856  0.0977 -0.1450
14868W        W19268  19.597   4.452   3.658  0.0759 -0.0479 -0.1959
14869W        W19269  15.493   3.363  13.443 -0.0594  0.0351  0.0522
14870W        W19270  10.646   0.295  35.427  0.1325  0.1553  0.1669
14871W        W19271  12.120   0.414  21.791  0.0413  0.0064 -0.0741
14872W        W19272   3.044   0.418   1.286 -0.0001  0.1757  0.1867
14873W        W19273  17.160   2.000  36.840 -0.1943  0.2028  0.2176
14874W        W19274   6.442   6.353  29.437  0.0551  0.2313 -0.2634
14875W        W19275  17.602   5.598  17.261  0.1153  0.0264 -0.3520
14876W        W19276  18.707   0.502  14.772  0.1457  0.1203  0.1078
14877W        W19277  20.843   5.597  37.157  0.0644  0.1631 -0.3883
14878W        W19278  17.083   0.382   1.613  0.0235  0.1384 -0.2151
14879W        W19279  12.287   4.724  11.798 -0.0254 -0.0518  0.0087
14880W        W19280  11.508   6.386  14.379 -0.1584  0.1885  0.2997
14881W        W19281   8.074   3.518  29.900 -0.0332  0.0442 -0.1520
14882W        W19282  10.297   0.799   2.253  0.2773 -0.4531 -0.3496
14883W        W19283  13.543   6.402   2.049 -0.0090 -0.0624  0.0460
14884W        W19284   8.425   3.998  17.734  0.2244 -0.3071  0.2003
14885W        W19285  20.923   1.236  36.278 -0.1182  0.1703  0.0903
14886W        W19286   1.136   6.453   0.510 -0.4113 -0.0108 -0.0137
14887W        W19287   5.715   2.116  34.622  0.0203 -0.0851 -0.0420
14888W        W19288   0.478   3.029   9.750  0.1533 -0.0023  0.0152
14889W        W19289   2.239   3.722   2.476 -0.3027 -0.0847 -0.0176
14890W        W19290  12.126   1.832  13.524  0.0647 -0.0414 -0.2600
14891W        W19291  16.993   4.009  41.582 -0.1299 -0.3056  0.0913
14892W        W19292  12.818   5.952  39.742  0.0702  0.0132 -0.1979
14893W        W19293   0.329   1.400  41.153 -0.2652  0.0162 -0.1110
14894W        W19294  21.165   4.245   3.258 -0.0439  0.1566 -0.1579
14895W        W19295  17.170   6.503  15.176 -0.1138  0.2711 -0.0467
14896W        W19296  18.058   5.709  16.957 -0.4928  0.0060 -0.1331
14897W        W19297  12.790   0.863  14.621 -0.0640 -0.0545  0.1350
14898W        W19298   5.652   6.260  35.532 -0.0367 -0.1615 -0.1301
14899W        W19299   4.112   5.141  33.900 -0.0834  0.0334  0.0111
14900W        W19300  15.493   0.279  18.282 -0.2953  0.2362 -0.2007
14901W        W19301  11.523   2.130  44.467 -0.0711  0.0425  0.1537
14902W        W19302  12.706   3.332  13.547  0.3702  0.1268 -0.2727
14903W        W19303   9.168   6.487  16.603 -0.0875 -0.0881 -0.1755
14904W        W19304   2.568   0.529  14.582 -0.0073  0.1098  0.1158
14905W        W19305   5.336   2.253  35.265  0.2260  0.1616  0.2619
14906W        W19306   6.795   4.357  30.136 -0.0271  0.1678  0.2252
14907W        W19307   9.569   2.885  35.447 -0.1093  0.0079  0.0084
14908W        W19308  11.839   1.515  21.117  0.2414 -0.1103 -0.2302
14909W        W19309   3.655   1.162  28.042  0.1034  0.1823 -0.2879
14910W        W19310  19.115   3.434  31.150 -0.0868 -0.3351  0.0649
14911W        W19311  20.664   4.777  39.232 -0.0117 -0.2135 -0.1475
14912W        W19312   4.913   6.327  10.677 -0.2048  0.2137  0.0856
14913W        W19313   5.904   5.602  25.383  0.2739  0.2026 -0.2198
14914W        W19314  16.733   4.155  31.511  0.1704  0.3213 -0.0772
14915W        W19315  18.568   4.422  36.508  0.2093  0.1342  0.0264
14916W        W19316   7.581   1.541  37.463 -0.0103 -0.2120 -0.1558
14917W        W19317  18.824   4.260   8.358  0.4326 -0.3863  0.4956
14918W        W19318   3.575   1.015  32.696 -0.0788 -0.4472  0.0486
14919W        W19319  19.588   4.512   0.862 -0.1403  0.2065 -0.1646
14920W        W19320   3.485   0.506  43.825 -0.1071  0.2313 -0.0637
14921W        W19321   2.884   6.342   3.361 -0.1268  0.0850 -0.1297
14922W        W19322   8.790   5.771  26.798 -0.1774 -0.1055  0.4428
14923W        W19323   7.944   3.149  14.242 -0.1627  0.1762  0.1346
14924W        W19324  18.873   2.286  43.907  0.0046 -0.0040  0.0564
14925W        W19325  14.030   3.169   3.563  0.2700 -0.2356  0.1030
14926W        W19326  14.436   0.365  15.625  0.0938  0.2539  0.1763
14927W        W19327  21.048   3.544  13.829  0.0789 -0.2372  0.0349
14928W        W19328   6.586   0.270   9.366 -0.0183  0.1856 -0.3188
14929W        W19329  11.587   4.431  42.371 -0.2235  0.3399  0.4010
14930W        W19330   3.026   5.663  38.973 -0.0765  0.1581  0.0639
14931W        W19331   9.714   2.488   2.243 -0.1949  0.0138 -0.2857
14932W        W19332   2.788   1.998   1.377  0.1506 -0.2242  0.0832
14933W        W19333   7.394   2.492  25.724  0.0509  0.0794  0.0713
14934W        W19334  19.160   0.479  35.709  0.1038  0.2364  0.1042
14935W        W19335   4.720   0.775  25.999 -0.2824  0.2473 -0.0044
14936W        W19336   1.672   3.975  22.746  0.0802  0.0746 -0.1006
14937W        W19337   7.921   5.728  29.199 -0.0800  0.1082  0.0045
14938W        W19338  20.532   1.486  34.074  0.0736 -0.0903 -0.2000
14939W        W19339  14.510   4.643  40.801  0.2738 -0.1805  0.3864
14940W        W19340  14.949   6.268  16.728 -0.1208 -0.2314  0.1281
14941W        W19341   8.232   3.154   3.492  0.0831 -0.0479 -0.1617
14942W        W19342  15.420   2.697   4.540 -0.0270 -0.1325  0.2933
14943W        W19343  12.769   6.151  20.459  0.0960  0.1578 -0.0018
14944W        W19344  14.495   2.532  35.536  0.0604 -0.0076 -0.1480
14945W        W19345   9.660   2.763  34.976  0.2033 -0.0021  0.2061
14946W        W19346  14.950   1.749   0.762  0.0349  0.3335  0.1061
14947W        W19347  13.802   2.567  42.138  0.1786 -0.2949  0.0073
14948W        W19348  13.559   0.107  32.516  0.2516  0.1816  0.1243
14949W        W19349  14.196   0.927   4.568 -0.2110 -0.0813  0.0074
14950W        W19350  10.195   1.594  15.959  0.0557  0.0015 -0.0309
14951W        W19351  16.021   2.225   2.268 -0.0121 -0.1802 -0.3388
14952W        W19352  16.531   3.049  37.747  0.1701  0.1692 -0.1195
14953W        W19353   1.386   3.693  15.091  0.1545  0.1126  0.5264
14954W        W19354  17.996   5.229  42.053  0.0987 -0.1966  0.0609
14955W        W19355  10.425   3.964  32.853 -0.1334 -0.0270  0.2910
14956W        W19356  15.440   0.391   5.849  0.0394  0.0720 -0.1119
14957W        W19357   8.576   5.825  34.729  0.0544  0.3376 -0.4636
14958W        W19358   2.748   3.796  34.949  0.0166  0.1363  0.2607
14959W        W19359  11.262   5.814  20.887 -0.2891  0.0521  0.0802
14960W        W19360  14.907   1.551   5.757 -0.0189 -0.0249  0.0316
14961W        W19361  15.760   6.194   3.862  0.1840 -0.1590  0.0723
14962W        W19362  12.402   1.050  11.841 -0.1903 -0.1311 -0.1693
14963W        W19363   6.990   3.233  29.967 -0.0188 -0.0763 -0.0483
14964W        W19364   4.957   4.059  36.023  0.2047 -0.1201  0.2576
14965W        W19365  10.309   5.873   1.797  0.0447  0.3085 -0.0214
14966W        W19366   4.040   2.567  14.109  0.0940  0.1023  0.0017
14967W        W19367   9.507   0.932  44.019  0.0091 -0.1553 -0.4123
14968W        W19368   0.359   1.740   2.975  0.1320 -0.0631 -0.2506
14969W        W19369  11.776   4.469   2.011  0.0497 -0.0756  0.1715
14970W        W19370  15.211   1.128   5.661  0.1783  0.1255  0.0305
14971W        W19371   3.559   4.676  31.738 -0.0517  0.1210 -0.0186
14972W        W19372   3.439   4.624  23.184 -0.0172  0.0520 -0.0750
14973W        W19373   4.561   1.859   0.296  0.1997 -0.0803  0.0056
14974W        W19374   8.326   0.020  26.687 -0.3584 -0.0227 -0.1446
14975W        W19375   1.560   0.972  10.001 -0.2056  0.1910  0.1091
14976W        W19376   7.587   1.083   0.474  0.0904 -0.3765 -0.1059
14977W        W19377  20.861   2.421  36.901  0.2655 -0.3225 -0.1900
14978W        W19378  11.414   6.524  20.363 -0.0366  0.2236  0.1132
14979W        W19379  19.676   2.576   9.633  0.3373 -0.0791  0.0049
14980W        W19380  12.064   4.968  40.403 -0.4944  0.0496  0.0803
14981W        W19381   9.027   3.790  16.938  0.0512 -0.1165 -0.1638
14982W        W19382   3.503   2.897  32.383 -0.1066  0.0216 -0.2956
14983W        W19383   3.261   0.565  35.435 -0.0542  0.1926 -0.0503
14984W        W19384   1.481   5.873  27.403 -0.2538  0.1137 -0.0727
14985W        W19385   4.912   2.954  35.901  0.0943  0.0226 -0.1037
14986W        W19386   5.044   2.406   3.990  0.0890  0.1751 -0.2669
14987W        W19387   0.040   1.398  32.985 -0.1055  0.0191  0.1740
14988W        W19388  16.805   5.680  37.664  0.3625  0.3855  0.0434
14989W        W19389  13.903   5.509  33.969  0.0951 -0.1090  0.1323
14990W        W19390   3.848   2.157  15.077  0.0273 -0.0107 -0.1495
14991W        W19391  21.088   5.630  34.196  0.2349 -0.1723 -0.1299
14992W        W19392  14.160   5.302  10.647  0.3533 -0.0014 -0.0703
14993W        W19393  20.824   0.739  43.265 -0.1015  0.0218 -0.2533
14994W        W19394   3.767   6.513   7.273 -0.1240 -0.2178  0.1123
14995W        W19395  11.826   2.128   0.159 -0.0822  0.2071  0.1841
14996W        W19396   6.336   6.593  27.245 -0.0689  0.2741  0.2922
14997W        W19397   9.084   2.085  16.738 -0.4740  0.4577 -0.2302
14998W        W19398  12.870   1.520   4.315 -0.0470  0.0577  0.0643
14999W        W19399  14.694   4.666  18.409  0.0303  0.0755  0.0556
15000W        W19400  12.664   4.159   4.305  0.0531  0.0863  0.3335
15001W        W19401  13.137   4.336   6.540  0.2176 -0.0139  0.3211
15002W        W19402   2.447   5.421  42.610 -0.0918 -0.1552 -0.1913
15003W        W19403  10.828   1.680  34.435 -0.2658  0.0481 -0.2592
15004W        W19404   9.519   6.341  33.971 -0.1211  0.2505 -0.0421
15005W        W19405  16.703   1.347  31.423  0.1336 -0.2607 -0.1918
15006W        W19406  13.270   1.137  41.665  0.1658  0.2279 -0.0078
15007W        W19407  11.791   0.401  28.454 -0.0478  0.1422 -0.0649
15008W        W19408   1.306   3.718  29.903  0.0138  0.4853 -0.0883
15009W        W19409  18.207   4.313  40.250 -0.0564  0.2584  0.1539
15010W        W19410   8.596   0.023  25.683 -0.0692 -0.0498  0.0099
15011W        W19411   0.105   4.159  34.872  0.0321  0.1785  0.0279
15012W        W19412   3.912   4.581  31.039 -0.2616  0.0854 -0.0122
15013W        W19413   2.500   3.935  11.385 -0.2320  0.0733  0.3718
15014W        W19414   1.524   5.871  44.883  0.0792 -0.1856 -0.1756
15015W        W19415   3.586   2.211  35.933 -0.0751 -0.0961 -0.1545
15016W        W19416  17.901   4.973  20.122  0.0205  0.1774  0.3285
15017W        W19417  14.755   1.853  30.439  0.1077 -0.0288 -0.0405
15018W        W19418  10.693   2.363   3.761 -0.3135  0.0100  0.2179
15019W        W19419  14.011   2.440   1.438  0.0430  0.2952  0.2781
15020W        W19420   6.557   4.977   9.012 -0.2297  0.1093 -0.1516
15021W        W19421  10.400   3.132  32.353  0.1646 -0.0189 -0.1646
15022W        W19422  18.936   2.350   8.676 -0.1015 -0.1153  0.1017
15023W        W19423  19.472   1.698  31.591 -0.1938 -0.1063 -0.3401
15024W        W19424   8.149   2.748  17.688  0.0289 -0.2306  0.0549
15025W        W19425   9.312   3.653  18.427 -0.0296  0.0556 -0.0153
15026W        W19426  12.021   5.910  27.991  0.0423 -0.1249 -0.2004
15027W        W19427  16.372   3.443  30.206 -0.3445  0.2732  0.2184
15028W        W19428   6.408   1.671  13.984  0.1136 -0.1726  0.1003
15029W        W19429   0.302   1.463  14.890 -0.0231 -0.1851 -0.1219
15030W        W19430  15.200   6.420  35.162  0.0393 -0.0921 -0.3459
15031W        W19431  11.502   0.406  37.645 -0.1911  0.1171  0.0583
15032W        W19432  20.675   2.289   4.264  0.0526 -0.1167 -0.1172
15033W        W19433  16.349   4.308  15.381 -0.0450  0.3297  0.0878
15034W        W19434  11.490   3.108  15.737 -0.3073 -0.2742 -0.0552
15035W        W19435   0.331   4.948  12.924  0.0890 -0.0408 -0.0318
15036W        W19436  15.045   2.637   8.154  0.0563  0.1167 -0.0818
15037W        W19437   7.033   3.846  31.534  0.1549  0.1187  0.0292
15038W        W19438  15.612   2.927  20.093  0.0419  0.1141  0.1581
15039W        W19439  18.616   5.550  37.246 -0.2741  0.2104 -0.2682
15040W        W19440   2.810   2.956   1.649 -0.2675 -0.1185  0.2937
15041W        W19441   5.979   4.893  41.056  0.2123  0.3200 -0.1007
15042W        W19442   5.650   3.482  30.140  0.3939  0.1531 -0.2331
15043W        W19443   3.325   1.036  34.071 -0.0649  0.2353 -0.2509
15044W        W19444  10.794   5.731  39.262 -0.0547 -0.1819 -0.1471
15045W        W19445  20.735   4.282   7.442  0.0946  0.1830 -0.0258
15046W        W19446  14.015   3.659   8.631 -0.0975 -0.1047  0.1278
15047W        W19447   4.056   6.337  12.407 -0.1018  0.0965 -0.2615
15048W        W19448   6.517   4.445  33.846  0.0575 -0.0399 -0.1017
15049W        W19449   3.477   6.603  20.689  0.1023 -0.0387 -0.0817
15050W        W19450  12.613   5.216   2.939  0.1559  0.0257 -0.0326
15051W        W19451   1.715   3.298  37.118  0.0087  0.0340  0.1912
15052W        W19452   3.283   2.883  13.530  0.0608 -0.1305  0.2371
15053W        W19453  16.986   2.514   8.480  0.1602  0.2442  0.2018
15054W        W19454  11.773   3.573  37.795 -0.2585  0.0043  0.2915
15055W        W19455  17.723   4.719  10.900  0.0620 -0.1386 -0.2110
15056W        W19456  19.940   4.206  17.205  0.2433 -0.1152 -0.2023
15057W        W19457  12.409   6.545  11.372 -0.1379  0.0393  0.2802
15058W        W19458   9.084   6.540  27.898  0.2120  0.2053 -0.0471
15059W        W19459  14.509   0.121   7.100 -0.2253 -0.1158 -0.0365
15060W        W19460   7.277   6.312  40.943 -0.1046  0.1755  0.3458
15061W        W19461   9.577   1.092  17.291  0.0037  0.2048  0.2459
15062W        W19462  21.005   2.762  34.102  0.3769  0.0477  0.2438
15063W        W19463   3.052   2.356  12.106 -0.0973  0.1050  0.0202
15064W        W19464  13.267   6.207  30.151 -0.0088 -0.0228  0.1382
15065W        W19465  13.593   1.732  18.825 -0.2182  0.0148 -0.1625
15066W        W19466   0.345   1.203  11.183  0.0866 -0.0172  0.1163
15067W        W19467  15.385   0.761   9.855  0.0127 -0.1814  0.0608
15068W        W19468   0.222   0.148   1.120 -0.0080  0.4796  0.0838
15069W        W19469  17.221   3.803   4.355 -0.0769 -0.0081 -0.0704
15070W        W19470  20.506   1.976   3.331  0.0166  0.1386 -0.1225
15071W        W19471  15.523   5.925   8.610 -0.3427  0.0563  0.2519
15072W        W19472  15.935   0.482  14.266  0.0506  0.5347 -0.0842
15073W        W19473  12.933   5.599  40.104 -0.0637 -0.0683  0.2381
15074W        W19474   5.283   2.191  44.609 -0.3607  0.2259 -0.0551
15075W        W19475  10.411   1.649   5.081  0.1105 -0.0304  0.0821
15076W        W19476   9.951   3.829  17.172  0.1380 -0.1066 -0.0516
15077W        W19477   2.528   5.399  44.455  0.0644 -0.1304  0.3463
15078W        W19478  11.372   3.042  33.470 -0.1101  0.3064 -0.0787
15079W        W19479  18.429   5.368  28.592 -0.0766 -0.0976  0.0516
15080W        W19480  12.084   3.764  16.126  0.2535 -0.1826  0.0436
15081W        W19481  19.048   1.128  44.453  0.1180  0.0932 -0.1656
15082W        W19482   2.740   2.869   5.748 -0.3265 -0.0015  0.0131
15083W        W19483  12.444   1.066  37.331  0.0293 -0.1593 -0.0457
15084W        W19484   8.467   0.763  12.529 -0.3929  0.2127 -0.1037
15085W        W19485   8.102   4.752  45.003 -0.1196 -0.3034 -0.0278
15086W        W19486   7.790   2.413  35.624  0.2251 -0.2397 -0.0394
15087W        W19487  18.989   2.714  29.527  0.2401  0.2851  0.0283
15088W        W19488  10.249   2.788   0.457 -0.2610 -0.0875  0.0861
15089W        W19489   5.898   4.149  32.965  0.3055 -0.2013  0.0436
15090W        W19490   2.893   4.550   8.324  0.3532  0.0676  0.0688
15091W        W19491   3.967   1.662  34.440 -0.2183 -0.2607  0.0572
15092W        W19492  17.264   4.812  38.091 -0.1085  0.0864 -0.0916
15093W        W19493   7.126   6.220   8.297  0.0125 -0.3249 -0.2908
15094W        W19494   2.588   2.293  24.574  0.1475  0.0574  0.3485
15095W        W19495  12.714   2.611  29.208 -0.0842  0.2395  0.1693
15096W        W19496  15.423   3.320  31.684  0.6206  0.0522  0.0716
15097W        W19497   5.408   0.897  35.193 -0.0928  0.4245  0.0797
15098W        W19498  13.545   6.102  45.118  0.0655 -0.1088 -0.2425
15099W        W19499  19.442   3.331   2.811 -0.2177 -0.0623 -0.0984
15100W        W19500  13.068   3.484  40.292 -0.0206  0.2791  0.1008
15101W        W19501  15.951   4.252  14.010  0.0099 -0.1990 -0.0607
15102W        W19502  10.475   3.866   7.796 -0.0892  0.4736  0.0020
15103W        W19503   0.684   5.038  32.286  0.2065 -0.3127 -0.1049
15104W        W19504  16.311   5.064  17.137  0.0028  0.0743  0.3873
15105W        W19505   8.929   1.279  28.976  0.0906  0.1226  0.2114
15106W        W19506   6.404   6.302  11.141 -0.1136  0.2445  0.1321
15107W        W19507   6.730   3.996   9.723 -0.0942 -0.2055  0.0373
15108W        W19508  18.753   2.795  19.506  0.2623 -0.3797  0.0796
15109W        W19509  16.851   1.867  11.937 -0.1227 -0.1815 -0.0459
15110W        W19510   7.491   4.778  42.497 -0.0813 -0.0651  0.4176
15111W        W19511  11.401   1.474   6.681  0.2268  0.0900  0.1066
15112W        W19512  19.625   0.186   5.019 -0.0409  0.1203 -0.2503
15113W        W19513  14.014   4.216  41.211 -0.1413  0.0868 -0.4437
15114W        W19514  12.390   3.032  23.242 -0.1084  0.0463 -0.2642
15115W        W19515   7.019   6.323   2.297 -0.0122  0.4286  0.1395
15116W        W19516   6.011   1.186  10.795  0.0790  0.2344 -0.1582
15117W        W19517  16.332   5.357  11.922 -0.3445 -0.0626  0.1860
15118W        W19518   3.558   4.753  10.813 -0.0221  0.0017  0.0375
15119W        W19519  12.304   5.889   7.071  0.2379  0.3551  0.1180
15120W        W19520   1.496   6.318  38.548  0.0506  0.1619 -0.2723
15121W        W19521  10.782   1.969   5.352  0.0523  0.1989  0.0522
15122W        W19522  17.441   0.468  30.086  0.0718 -0.0080 -0.0523
15123W        W19523   3.582   2.400  40.066 -0.1169  0.0679 -0.0493
15124W        W19524   2.811   5.779  14.944  0.0901 -0.1311 -0.1955
15125W        W19525   0.785   3.070  28.385 -0.0084  0.1151  0.0986
15126W        W19526   0.574   0.211  15.134  0.1566 -0.1329  0.1617
15127W        W19527  16.220   4.002  39.845  0.0933  0.1435  0.0355
15128W        W19528   3.661   1.190  43.004 -0.0169  0.4088 -0.0960
15129W        W19529  11.155   3.559   5.084 -0.0214  0.0316 -0.2738
15130W        W19530  18.129   0.528  15.546  0.3088  0.2189 -0.0322
15131W        W19531   8.870   6.285  31.647 -0.0817  0.0838 -0.0898
15132W        W19532  10.238   1.302   0.183 -0.1023  0.0413 -0.0474
15133W        W19533  18.537   5.412  36.279 -0.0304 -0.1163  0.2272
15134W        W19534   2.797   0.481   9.990 -0.3189 -0.0443  0.2003
15135W        W19535   2.657   5.681  27.658  0.0274  0.0666 -0.0312
15136W        W19536   0.326   4.045  31.260  0.2331  0.0676 -0.0275
15137W        W19537  11.077   0.531   4.299  0.1711  0.1321  0.2178
15138W        W19538  16.829   6.000  38.153  0.0259  0.2184  0.0338
15139W        W19539   5.883   4.316   3.197 -0.1404  0.2050 -0.0396
15140W        W19540   3.719   6.113  20.754  0.1880  0.0945  0.0949
15141W        W19541  11.351   4.542   4.314  0.2352  0.0362 -0.1436
15142W        W19542  10.395   1.142  15.325  0.1927  0.2867 -0.1085
15143W        W19543   0.442   1.153  30.603 -0.1296 -0.1416  0.0002
15144W        W19544   7.153   5.538   9.282 -0.1505 -0.1757 -0.0903
15145W        W19545   1.829   5.786  23.630  0.1436  0.0061  0.2822
15146W        W19546   1.228   5.616  28.072  0.0363  0.2312  0.2227
15147W        W19547  16.285   1.083   2.948 -0.2565  0.0645 -0.1471
15148W        W19548  12.522   4.749  38.110  0.1682  0.1097 -0.1270
15149W        W19549  12.014   1.199  13.832 -0.0493 -0.1183 -0.3844
15150W        W19550   2.069   0.579  33.518 -0.1891 -0.1176 -0.0761
15151W        W19551   2.129   2.161   0.006 -0.0982 -0.1105 -0.1717
15152W        W19552  19.717   6.382  16.735 -0.0984  0.0133 -0.2620
15153W        W19553  14.698   1.811  30.999 -0.0500  0.5230  0.0787
15154W        W19554   9.846   5.952   9.416 -0.0538 -0.3566  0.0740
15155W        W19555  14.177   0.468  37.900  0.0211 -0.3413  0.1204
15156W        W19556   8.833   5.754   5.494 -0.0784 -0.1212 -0.0483
15157W        W19557  20.825   1.095  33.243 -0.2454  0.1822 -0.0194
15158W        W19558   5.440   1.447  29.809  0.0309  0.0941  0.0175
15159W        W19559   5.239   0.020  28.429  0.1418  0.2987 -0.0564
15160W        W19560   5.671   1.407  31.249 -0.0024 -0.2535 -0.1333
15161W        W19561  10.261   5.497  44.890 -0.3168  0.0775 -0.0694
15162W        W19562  19.499   0.272  15.015 -0.0761  0.0639 -0.1266
15163W        W19563  14.867   0.370  16.038  0.0120 -0.0519  0.0574
15164W        W19564  11.567   2.854   9.169  0.2780  0.1068  0.3846
15165W        W19565   1.485   1.697  24.477 -0.4674  0.0323  0.0634
15166W        W19566  18.366   4.397   6.511 -0.0449 -0.4098  0.1116
15167W        W19567  16.364   0.304  19.355 -0.1606  0.0020  0.0259
15168W        W19568  19.893   3.878  14.481  0.0162 -0.0247  0.0755
15169W        W19569  12.291   2.708  28.993 -0.4731  0.0634  0.0421
15170W        W19570  14.538   1.800  21.014  0.1552  0.0374  0.0265
15171W        W19571  17.330   5.922  28.200  0.2543 -0.1312 -0.3509
15172W        W19572   7.826   4.213  31.281  0.0272 -0.0141  0.3392
15173W        W19573   5.593   3.107  30.959  0.1087  0.3492  0.4596
15174W        W19574  11.383   5.702  42.684  0.0757  0.1757  0.2121
15175W        W19575  18.124   1.198  32.536 -0.0028  0.0701  0.1109
15176W        W19576   6.022   0.940  39.096 -0.0984  0.0880  0.0729
15177W        W19577   2.133   3.476  13.608  0.5966  0.0454  0.1504
15178W        W19578   2.245   4.405  27.515  0.0486  0.1307 -0.0274
15179W        W19579  19.222   3.316  41.402  0.1193 -0.0412 -0.1309
15180W        W19580   5.500   1.877  13.859 -0.1868 -0.2819  0.1722
15181W        W19581  13.574   2.864   7.133  0.0357 -0.0420 -0.2050
15182W        W19582   3.168   1.081   7.785 -0.1757  0.1728 -0.2667
15183W        W19583   5.445   3.324  15.895  0.1548 -0.0344  0.1718
15184W        W19584   4.815   0.908  39.998  0.0397 -0.1359 -0.0221
15185W        W19585   5.686   4.853  22.210 -0.0897  0.0027 -0.1390
15186W        W19586  15.364   1.574  35.730 -0.2228  0.2780 -0.1285
15187W        W19587   9.425   3.857   3.692 -0.0146  0.2013  0.2237
15188W        W19588   3.356   3.853  30.831 -0.1368  0.1514 -0.1663
15189W        W19589  11.828   2.374   2.902 -0.1026 -0.2307 -0.6813
15190W        W19590   4.458   5.616  22.147 -0.0280 -0.0063  0.3009
15191W        W19591  13.672   5.741  41.505 -0.2744  0.2569 -0.1439
15192W        W19592   7.532   4.249   0.380 -0.2737 -0.0734  0.1696
15193W        W19593  13.834   4.755   1.023  0.1825  0.0709 -0.0026
15194W        W19594  14.480   0.833  33.368 -0.0252 -0.0084 -0.0290
15195W        W19595   2.291   0.686  34.348  0.2393  0.5481 -0.0395
15196W        W19596  16.415   3.062  30.631 -0.0601  0.1600  0.2141
15197W        W19597  16.031   5.644  11.502  0.1043  0.0585 -0.1030
15198W        W19598  18.064   6.198  36.894 -0.0257  0.0310 -0.0741
15199W        W19599   6.157   6.469   1.943 -0.0032 -0.0504  0.0289
15200W        W19600   9.968   4.595  44.358 -0.0126 -0.1069 -0.0252
15201W        W19601   6.357   5.540  42.781  0.0886 -0.1860  0.1687
15202W        W19602  16.463   6.017   9.026  0.3724 -0.2811  0.2798
15203W        W19603  15.875   4.806   0.640  0.0396  0.4201  0.4080
15204W        W19604  19.132   0.305  43.640  0.0389  0.0137 -0.0132
15205W        W19605   8.343   1.096  40.384  0.0352 -0.2156  0.1441
15206W        W19606  14.178   3.112  37.775 -0.2702  0.1495 -0.0859
15207W        W19607  20.213   0.954  16.442  0.0898 -0.0083  0.0700
15208W        W19608   3.787   4.479   4.277  0.1760  0.2588  0.2561
15209W        W19609   6.086   3.491  13.514 -0.2227  0.0360 -0.1240
15210W        W19610   5.546   2.156  31.184 -0.3894  0.0367  0.2956
15211W        W19611  16.534   1.073  13.916 -0.0696 -0.2465  0.1260
15212W        W19612   3.118   1.024   3.947 -0.3592 -0.0812 -0.0123
15213W        W19613   7.406   5.681  36.679 -0.0526  0.1912 -0.0247
15214W        W19614   5.378   1.081  11.952 -0.0178  0.1197  0.1402
15215W        W19615   6.199   1.840   7.671  0.0630 -0.0603  0.1507
15216W        W19616  12.826   5.924  21.338 -0.1437  0.3356  0.2074
15217W        W19617  19.018   5.632  31.202  0.0336 -0.1535 -0.2001
15218W        W19618   8.966   4.886  36.656  0.3016  0.0407  0.3200
15219W        W19619   9.908   5.195  18.071  0.3322 -0.0955 -0.1554
15220W        W19620  19.344   4.224  43.856  0.1653 -0.0230  0.1799
15221W        W19621   5.394   4.073  15.481  0.0989 -0.0080  0.1277
15222W        W19622  18.248   3.776  40.714  0.0518 -0.0825 -0.0892
15223W        W19623   0.415   0.060  14.157  0.1422  0.1678  0.0247
15224W        W19624  13.521   5.919   1.587  0.0406 -0.2763  0.0875
15225W        W19625   0.405   2.745  40.609  0.1262  0.2085 -0.2023
15226W        W19626  14.377   3.719  42.408 -0.1019 -0.4203  0.1961
15227W        W19627  12.747   2.520   1.671  0.1597  0.0275 -0.1733
15228W        W19628   0.533   6.062  34.241  0.0692  0.0240  0.0280
15229W        W19629   5.286   0.456  30.413  0.0222 -0.1952 -0.0873
15230W        W19630   8.619   3.261  38.160 -0.3247 -0.0620 -0.0244
15231W        W19631   0.188   5.495  15.202 -0.1021  0.1605  0.0775
15232W        W19632   5.043   1.460  28.406  0.3163 -0.5314 -0.2951
15233W        W19633  19.732   5.341   0.877 -0.1452  0.3033 -0.1084
15234W        W19634  18.985   0.364   7.572 -0.3003 -0.0881  0.2690
15235W        W19635  13.793   6.230   7.013 -0.0056 -0.1457 -0.2989
15236W        W19636  17.753   3.649  30.138  0.1249  0.0271 -0.1167
15237W        W19637  20.531   1.083  16.098  0.1051  0.0117  0.0562
15238W        W19638  15.398   4.370   7.922  0.0573  0.2680  0.0432
15239W        W19639  15.913   1.147  36.843 -0.1610 -0.0897  0.0343
15240W        W19640   7.995   0.074  17.124 -0.1009 -0.0373  0.0993
15241W        W19641  15.066   5.787  19.441  0.2699 -0.0140  0.4054
15242W        W19642  16.309   4.479  42.350 -0.1097  0.3127 -0.0163
15243W        W19643   8.785   3.609   2.185 -0.3211 -0.2963  0.1101
15244W        W19644  10.309   1.444  43.454  0.0583  0.1065  0.1325
15245W        W19645  14.141   1.773   0.883  0.1366 -0.3692 -0.0253
15246W        W19646   9.457   4.513   7.195 -0.0999 -0.1004  0.1119
15247W        W19647   5.870   1.034   7.138  0.1215  0.2393 -0.0221
15248W        W19648  18.515   5.908   0.704 -0.1581 -0.0398  0.2014
15249W        W19649  19.354   2.940  40.959 -0.2481  0.0228  0.3599
15250W        W19650  10.597   2.260  15.922 -0.1915  0.2935  0.1636
15251W        W19651  20.971   0.378  12.534 -0.1426 -0.0202 -0.1522
15252W        W19652  14.111   3.955  23.342 -0.0569 -0.0734 -0.4907
15253W        W19653   2.932   1.684  39.024  0.3079  0.1485  0.2495
15254W        W19654  18.342   4.640  17.681 -0.1606 -0.0088 -0.0510
15255W        W19655   0.953   5.564   4.828 -0.1506 -0.3522 -0.0856
15256W        W19656   7.397   2.264  42.502  0.0935  0.0617  0.0849
15257W        W19657   4.912   3.724   9.405  0.1821 -0.2224  0.0458
15258W        W19658   4.733   3.882   7.808  0.1784  0.1387  0.1240
15259W        W19659   6.826   5.449  24.647 -0.0237 -0.1446 -0.0691
15260W        W19660  16.877   2.467  43.406  0.0509 -0.0652  0.1995
15261W        W19661  13.727   6.515  34.553  0.1643 -0.2327 -0.1210
15262W        W19662  11.224   4.138  43.711  0.0432 -0.0560  0.1897
15263W        W19663  19.391   3.179  14.357  0.3546  0.1166 -0.0230
15264W        W19664  15.411   1.217   9.642  0.0729  0.0785  0.5323
15265W        W19665  20.665   3.321  30.254  0.0658  0.2001  0.1227
15266W        W19666  14.383   3.660  40.002  0.0703 -0.1405 -0.0151
15267W        W19667   4.964   2.633   6.707 -0.2374 -0.3639  0.2483
15268W        W19668  17.184   0.069  43.480  0.1450 -0.2800 -0.1687
15269W        W19669   8.284   5.306   0.934 -0.2153 -0.2518 -0.3024
15270W        W19670   5.889   3.193  35.667 -0.3127  0.1319  0.2262
15271W        W19671   9.875   3.937  14.122  0.1010  0.0385  0.1600
15272W        W19672   2.909   2.464  27.215  0.1286 -0.1586 -0.1391
15273W        W19673  10.662   1.849  41.605  0.1712  0.0150 -0.0425
15274W        W19674  15.045   0.513  30.030 -0.0310 -0.0708  0.0977
15275W        W19675  13.712   6.153   2.567 -0.3415 -0.2415 -0.1521
15276W        W19676   6.879   3.411  28.799 -0.1481 -0.2554  0.1024
15277W        W19677  13.852   2.359  42.805 -0.0577 -0.1476 -0.2946
15278W        W19678  13.781   5.811  24.434  0.0055 -0.3150  0.2102
15279W        W19679   4.402   0.537  11.377  0.0460 -0.1969 -0.1207
15280W        W19680   0.075   6.168  40.869 -0.0684 -0.2466 -0.1231
15281W        W19681   1.955   5.940  37.931 -0.2626  0.0916  0.3079
15282W        W19682  17.494   0.307   4.277  0.0229  0.0570 -0.0965
15283W        W19683   6.622   0.050  38.826  0.2264 -0.5710 -0.0784
15284W        W19684  14.185   0.953  13.989 -0.1606 -0.1101 -0.0910
15285W        W19685   2.715   4.012  30.830  0.0553 -0.0604 -0.3037
15286W        W19686  17.033   2.689   3.068 -0.2624  0.3849  0.0952
15287W        W19687   3.454   2.346  20.142 -0.3905  0.0160 -0.3796
15288W        W19688  13.735   3.351  45.102  0.0701 -0.2177  0.0710
15289W        W19689   5.274   5.665  39.757 -0.0600  0.0179  0.0909
15290W        W19690  18.777   6.576   5.623  0.1472  0.0783  0.0322
15291W        W19691   6.271   4.972   5.727  0.1522  0.0898 -0.0116
15292W        W19692   5.402   2.217  44.136  0.1231  0.0429 -0.0442
15293W        W19693  17.850   5.157  33.843 -0.2514  0.3828 -0.0756
15294W        W19694  11.633   2.243   9.041  0.1924  0.1142 -0.1495
15295W        W19695   1.308   1.481  42.476 -0.0459  0.0100 -0.1269
15296W        W19696   7.715   0.036   8.710  0.1999  0.0025 -0.1265
15297W        W19697  18.899   3.866  31.916 -0.0382 -0.0246  0.1923
15298W        W19698   7.858   2.477  42.610  0.0860  0.1060 -0.2341
15299W        W19699   4.998   3.614  32.933 -0.1501 -0.1313 -0.2477
15300W        W19700  16.704   1.014  19.669 -0.0227  0.2189  0.0001
15301W        W19701   2.279   0.236   0.852 -0.0062 -0.0164  0.1491
15302W        W19702   0.171   5.594  44.589  0.1636 -0.2880 -0.0975
15303W        W19703  17.906   4.397  14.521 -0.1723 -0.1594 -0.2028
15304W        W19704  15.491   0.800   4.866  0.2304 -0.1286 -0.0233
15305W        W19705  13.847   4.323  12.545  0.0102 -0.1217  0.0852
15306W        W19706   2.232   2.340  31.633 -0.2532  0.2250 -0.1496
15307W        W19707   4.834   2.288  36.466 -0.0524  0.3535  0.0655
15308W        W19708   9.070   0.341  27.028 -0.0458  0.0133  0.1433
15309W        W19709  15.102   5.428  39.804  0.0831  0.1223  0.0687
15310W        W19710   1.101   0.865  36.651 -0.0804 -0.0126  0.0615
15311W        W19711  19.096   2.336  43.434  0.0550 -0.1585 -0.0184
15312W        W19712  10.521   0.935   2.716  0.1155 -0.0553 -0.0133
15313W        W19713   3.368   5.379  42.339 -0.1320  0.2798  0.1234
15314W        W19714  11.090   1.535  17.943  0.0611  0.1117 -0.2323
15315W        W19715   7.363   1.697  10.993 -0.1411  0.2136  0.2250
15316W        W19716   8.575   2.298  11.872  0.0797  0.1288  0.3461
15317W        W19717   1.343   5.292  25.945 -0.0600 -0.0815 -0.0297
15318W        W19718  10.977   2.661  14.739 -0.0440  0.3789  0.1139
15319W        W19719  16.729   2.339  18.571 -0.0364 -0.0760 -0.1845
15320W        W19720   2.973   4.083  42.542  0.1475  0.1767  0.0971
15321W        W19721   1.610   5.024  26.340  0.1768 -0.0619 -0.2088
15322W        W19722   8.971   0.238  18.108  0.2370 -0.1188  0.5594
15323W        W19723  10.351   0.123  18.762  0.0518 -0.0077 -0.0076
15324W        W19724  12.234   4.048   6.042  0.1107  0.0387 -0.0397
15325W        W19725  20.999   5.303   3.979 -0.1835  0.2547  0.0960
15326W        W19726   3.522   4.419  30.785  0.1393 -0.0914  0.1413
15327W        W19727   6.578   4.991  24.491  0.0646  0.0155 -0.0630
15328W        W19728   0.191   1.211  36.931 -0.1273  0.0342  0.0475
15329W        W19729   2.425   3.107  13.912  0.0715  0.0865  0.0691
15330W        W19730  13.403   5.421  34.035  0.1381 -0.3520 -0.0843
15331W        W19731   6.570   1.891  34.331 -0.0426 -0.0664 -0.0841
15332W        W19732  14.260   2.919  34.230  0.0796  0.0816  0.2097
15333W        W19733   6.398   2.307   5.293  0.0237  0.2008  0.0920
15334W        W19734  15.287   1.337  30.763  0.3864  0.2203 -0.3434
15335W        W19735  13.975   4.443  40.174 -0.0991 -0.1243 -0.2182
15336W        W19736   7.941   1.979  42.344  0.1799  0.2387  0.1593
15337W        W19737  12.939   5.068  11.287  0.3334 -0.4215 -0.0484
15338W        W19738   6.074   6.287  28.631  0.1528  0.0080 -0.1413
15339W        W19739   6.626   3.414  40.256 -0.1614  0.0925 -0.2288
15340W        W19740   8.188   5.003   4.227 -0.2140 -0.1155 -0.0064
15341W        W19741  11.727   0.251  39.872 -0.0485 -0.0873 -0.1373
15342W        W19742   5.985   2.992  32.034 -0.1748 -0.2534 -0.0889
15343W        W19743  15.984   3.577  40.598  0.0946 -0.2699 -0.1703
15344W        W19744  18.741   0.359   0.021 -0.2721 -0.2669  0.1383
15345W        W19745   7.362   3.972  26.304 -0.3491 -0.2311  0.0569
15346W        W19746  18.606   2.480   4.512  0.4076 -0.2185  0.0718
15347W        W19747  14.362   4.990  35.813  0.0042 -0.0937  0.1628
15348W        W19748   8.351   4.671  32.413  0.1203 -0.2290  0.0488
15349W        W19749   4.390   4.726  10.291  0.1726  0.2425 -0.1239
15350W        W19750  16.034   3.367  43.554 -0.2988  0.0793 -0.1259
15351W        W19751   5.718   2.297  44.993 -0.0115 -0.0103 -0.1751
15352W        W19752   9.915   4.683  18.763 -0.1397  0.1036  0.1769
15353W        W19753  15.257   4.764   4.414 -0.0870 -0.0713 -0.1186
15354W        W19754   8.314   0.218   9.257  0.3307  0.1099 -0.1843
15355W        W19755  16.829   2.499  30.854 -0.0512  0.1077 -0.2598
15356W        W19756  18.046   3.133  38.189 -0.0073 -0.1611 -0.0784
15357W        W19757  11.265   5.993  16.295  0.1658  0.0396 -0.1167
15358W        W19758   0.792   5.638  13.873 -0.0848 -0.1695 -0.2011
15359W        W19759   5.721   0.370  32.764 -0.0612 -0.0506  0.0271
15360W        W19760   6.673   2.004  28.927 -0.0848  0.3345  0.0941
15361W        W19761  11.241   6.196  21.221 -0.2815  0.0463  0.1082
15362W        W19762   9.101   1.933  28.529 -0.0053 -0.3210 -0.1701
15363W        W19763  19.275   3.037   3.858 -0.0084  0.1026  0.0615
15364W        W19764  20.456   3.676  42.307  0.2303 -0.2927 -0.1804
15365W        W19765  15.120   5.233  10.655  0.2523 -0.0670  0.1605
15366W        W19766   9.799   5.699  16.697 -0.1709  0.1202 -0.1528
15367W        W19767  21.095   1.121   5.970 -0.1842  0.0236  0.0923
15368W        W19768  17.141   3.807  34.316  0.2022 -0.1055  0.3051
15369W        W19769   3.706   6.006   6.905  0.0078  0.0967  0.0159
15370W        W19770  13.180   6.228  15.918  0.3178 -0.2392 -0.0165
15371W        W19771  17.116   4.389   8.045  0.1371 -0.0479 -0.0129
15372W        W19772   9.992   6.203   8.247  0.0260  0.0736  0.4362
15373W        W19773   2.050   2.105   2.889 -0.0790  0.0993  0.1521
15374W        W19774  11.845   0.388  36.663 -0.1914  0.1708 -0.1886
15375W        W19775   8.926   5.161  15.532 -0.2609 -0.1537 -0.2113
15376W        W19776  13.529   4.406  31.188 -0.3579 -0.1882 -0.0095
15377W        W19777  10.080   3.642  41.629  0.1485 -0.2251  0.0712
15378W        W19778   8.514   1.509  31.639 -0.1666 -0.0820 -0.2328
15379W        W19779  12.934   2.057  33.646 -0.0771 -0.4775 -0.0295
15380W        W19780  15.580   4.894  22.752 -0.1032  0.1755 -0.0000
15381W        W19781   5.164   5.140   4.525 -0.1426  0.0486  0.0196
15382W        W19782   7.700   3.832  34.816 -0.1226  0.1668  0.0540
15383W        W19783   6.290   5.462  10.912 -0.1404  0.1365 -0.1763
15384W        W19784  13.532   2.726  22.982  0.1385  0.0964 -0.0473
15385W        W19785  14.253   4.507   9.021  0.0347  0.0978  0.0291
15386W        W19786  18.682   5.688   4.465  0.1899  0.0463 -0.1364
15387W        W19787  13.129   1.818  10.020 -0.1882  0.0996 -0.1982
15388W        W19788  14.233   4.274  14.273  0.2205 -0.0983 -0.1618
15389W        W19789   0.566   1.036   9.775  0.2362  0.1678 -0.0425
15390W        W19790   9.773   0.212   6.812 -0.0745  0.1453 -0.1277
15391W        W19791  13.527   5.919  11.626  0.0058  0.0914 -0.0803
15392W        W19792  19.427   1.497  38.063 -0.1600  0.2425  0.0427
15393W        W19793  17.732   0.413  38.765 -0.0270  0.0774 -0.2138
15394W        W19794   9.749   4.954  15.264  0.1657  0.1109  0.1688
15395W        W19795   6.807   3.722   5.469  0.4043 -0.1492  0.1775
15396W        W19796  16.416   5.053   1.863  0.1672  0.1100 -0.2830
15397W        W19797   4.906   0.789  44.703 -0.0604 -0.0634 -0.0041
15398W        W19798  16.679   6.455   8.832  0.1416  0.1290 -0.3069
15399W        W19799  14.865   3.026   3.158 -0.3979  0.1849  0.1180
15400W        W19800  19.518   3.519   0.943  0.3906  0.1750  0.1639
15401W        W19801   0.269   5.013  15.132  0.1897  0.0232 -0.1768
15402W        W19802  19.330   5.079  13.465 -0.0593  0.1107  0.1139
15403W        W19803  16.011   2.570  10.376  0.0369  0.1960  0.1124
15404W        W19804  18.243   4.145  17.812 -0.0363 -0.3033 -0.2598
15405W        W19805  19.646   1.755  33.170  0.3974  0.1217  0.0334
15406W        W19806  14.087   5.628  34.469 -0.1218 -0.0650 -0.1250
15407W        W19807   0.733   0.530  32.353 -0.0658  0.2834  0.0926
15408W        W19808  20.808   0.649  13.019  0.1062  0.0995 -0.0668
15409W        W19809  18.332   1.581   5.085 -0.2707  0.1599  0.1657
15410W        W19810  17.282   5.982   1.127 -0.0897  0.0873 -0.1246
15411W        W19811   8.862   6.067  42.482 -0.1605  0.0661 -0.2335
15412W        W19812  17.533   0.900  39.722  0.0188  0.3601 -0.0806
15413W        W19813  17.736   1.114  17.115  0.0870  0.0288  0.1552
15414W        W19814   9.417   3.203  16.383 -0.3007 -0.0059  0.1244
15415W        W19815  19.192   2.628  37.147 -0.0282  0.2301  0.1369
15416W        W19816   0.910   0.838  14.494  0.1012 -0.3211  0.3173
15417W        W19817   3.310   2.580  34.999  0.2063 -0.0403  0.1641
15418W        W19818   1.248   3.785  40.235  0.1591 -0.0547  0.0063
15419W        W19819   1.995   1.805  14.264 -0.2974 -0.2907  0.1044
15420W        W19820  16.287   0.665  18.377 -0.3117 -0.0585  0.1274
15421W        W19821   1.380   4.457   0.289  0.1531  0.2101  0.2730
15422W        W19822  11.170   2.467  38.643 -0.0496 -0.0429 -0.0233
15423W        W19823   3.679   0.209  15.007  0.0920  0.2163 -0.0369
15424W        W19824  19.102   6.600  27.622 -0.2360 -0.1889  0.0387
15425W        W19825   3.332   5.317  28.780  0.1978  0.4926 -0.0389
15426W        W19826   9.735   3.221  19.378  0.0543 -0.5059  0.2192
15427W        W19827  20.205   1.061  29.683 -0.2008 -0.0416  0.1756
15428W        W19828  16.417   3.502  20.965  0.1244  0.2112  0.0953
15429W        W19829  10.923   0.131   6.476 -0.0658 -0.1180  0.2949
15430W        W19830   4.962   3.207  28.421  0.2392  0.0584 -0.0219
15431W        W19831   1.212   5.716  33.919 -0.3988  0.2832 -0.2488
15432W        W19832  15.798   5.475  11.960 -0.1359 -0.1637  0.0985
15433W        W19833   8.454   4.386   6.958  0.0650 -0.0156  0.1341
15434W        W19834   8.330   2.770   0.576  0.1303 -0.0553  0.1874
15435W        W19835   7.044   3.262  38.100  0.2295 -0.2066 -0.0039
15436W        W19836  12.590   4.264  44.300 -0.1192 -0.0841  0.0321
15437W        W19837   3.240   5.866  26.449 -0.0111 -0.1677  0.1301
15438W        W19838  19.168   6.257   5.701  0.1378 -0.1505 -0.4949
15439W        W19839   3.391   5.385   5.238  0.5470  0.2185  0.0081
15440W        W19840   7.613   2.462   6.361 -0.2612 -0.0808  0.1060
15441W        W19841   7.704   5.311  30.013 -0.0262  0.0765 -0.0953
15442W        W19842  10.156   0.439  19.315  0.3372 -0.1237 -0.0427
15443W        W19843   4.119   1.808  15.453 -0.2667 -0.0222  0.3745
15444W        W19844  13.058   2.569   4.707  0.2101 -0.1760  0.2375
15445W        W19845   4.825   1.879  23.267  0.2103 -0.2281 -0.1300
15446W        W19846  18.193   1.569  39.421  0.0076  0.4412  0.2817
15447W        W19847  18.348   1.720  35.458 -0.1333 -0.1424  0.1086
15448W        W19848  11.206   2.090   5.662 -0.0221  0.0863 -0.0696
15449W        W19849   3.249   4.658  43.849  0.0209  0.3351  0.1321
15450W        W19850  19.235   5.394  12.038  0.1904  0.3074  0.0485
15451W        W19851   5.421   1.204  34.245 -0.0948  0.1212  0.0697
15452W        W19852   6.730   3.424   8.335  0.2429 -0.0619 -0.1059
15453W        W19853   8.735   6.298  34.640 -0.0469 -0.2664  0.1510
15454W        W19854  10.828   5.940  15.584 -0.1066  0.1130 -0.1171
15455W        W19855   9.817   4.664  28.672  0.1543 -0.1331  0.1236
15456W        W19856   3.219   1.343   0.955  0.0896 -0.1169  0.1381
15457W        W19857   2.885   0.561  14.142 -0.0742 -0.0085  0.2027
15458W        W19858  12.884   3.755  39.419  0.0321 -0.0357  0.1366
15459W        W19859  14.337   0.989   6.711 -0.1528  0.2720 -0.1892
15460W        W19860  11.672   1.949  10.022  0.2498  0.1352  0.0638
15461W        W19861  14.499   2.710  10.468 -0.2915  0.1390 -0.1790
15462W        W19862  15.250   4.375  10.264 -0.0081  0.1896 -0.0663
15463W        W19863  20.236   2.750   5.045 -0.0339 -0.2469  0.1112
15464W        W19864  14.703   4.743  11.246 -0.3542 -0.0405 -0.1080
15465W        W19865  10.123   2.657  10.327 -0.0366 -0.0668  0.1187
15466W        W19866  13.191   4.707   0.112 -0.2042 -0.0223 -0.2164
15467W        W19867   6.068   0.063  13.321 -0.1246  0.0683  0.0083
15468W        W19868   8.600   4.456  26.136  0.2026  0.3444 -0.1329
15469W        W19869   0.318   4.294  38.261 -0.0070  0.0029  0.4327
15470W        W19870   9.072   2.161  18.528  0.1231 -0.2064  0.2134
15471W        W19871   0.038   2.173  14.694 -0.1305  0.2439  0.0788
15472W        W19872   9.773   4.532  19.492  0.0932  0.2215 -0.1292
15473W        W19873   7.621   4.870  45.153 -0.1356 -0.0003 -0.1129
15474W        W19874  16.057   3.268  41.513  0.0248 -0.1823  0.2029
15475W        W19875  17.580   0.226  43.207  0.0474  0.2457  0.0182
15476W        W19876   6.487   1.335  44.987  0.0100  0.1175 -0.5075
15477W        W19877  17.205   0.227  17.351  0.0411 -0.4263  0.0960
15478W        W19878  15.950   3.631  39.575 -0.2194  0.0857 -0.1026
15479W        W19879  16.004   5.562  43.693  0.1045 -0.2863  0.1403
15480W        W19880   6.944   5.926  24.517 -0.1447  0.1478  0.0959
15481W        W19881   7.605   3.738   6.857 -0.2488 -0.1412 -0.0183
15482W        W19882   6.033   3.598  28.918  0.0534  0.0074  0.1162
15483W        W19883   9.179   1.787   8.832 -0.0399  0.1491 -0.2399
15484W        W19884   2.146   1.786  23.011 -0.0125 -0.2144  0.2133
15485W        W19885  13.444   1.055  44.694  0.0078  0.2388 -0.1520
15486W        W19886   5.444   5.373   6.753 -0.1420 -0.1449 -0.1550
15487W        W19887   6.799   0.592  29.309 -0.0462 -0.0369 -0.0788
15488W        W19888  20.516   6.186  35.966 -0.1222 -0.1065 -0.3587
15489W        W19889  21.014   5.991  39.986  0.2146 -0.0196  0.3644
15490W        W19890  16.350   1.079  43.171  0.0385  0.0307  0.0114
15491W        W19891  19.729   3.062  39.278  0.3141 -0.3427  0.2630
15492W        W19892   1.164   4.337  32.096 -0.0609  0.2149  0.0540
15493W        W19893   5.922   6.173  11.170 -0.1100 -0.1679  0.0502
15494W        W19894  16.246   1.523  31.725 -0.2425  0.0744  0.4540
15495W        W19895   9.239   0.687  33.943  0.0170  0.0976  0.0696
15496W        W19896  16.579   3.339  38.129  0.1850 -0.1458 -0.0688
15497W        W19897  14.045   1.282  21.467 -0.3946  0.2142 -0.0866
15498W        W19898   8.579   3.394   7.690  0.1270  0.1349 -0.0326
15499W        W19899   5.348   4.402  33.191 -0.1027  0.1439  0.1860
15500W        W19900   0.125   0.966   5.281 -0.1577 -0.1986  0.0055
15501W        W19901  12.658   6.108  32.991 -0.1152 -0.1497  0.0588
15502W        W19902  13.327   5.391   0.738 -0.0565 -0.0259 -0.1506
15503W        W19903  16.203   2.155  10.604 -0.2620  0.0534  0.1897
15504W        W19904  14.410   5.331  39.332 -0.0183 -0.2278 -0.1552
15505W        W19905  11.131   0.907   4.673 -0.1074 -0.1850  0.1495
15506W        W19906  20.389   5.110  10.801  0.2035 -0.1141  0.1593
15507W        W19907   8.861   2.165  42.640  0.2723  0.0230  0.0664
15508W        W19908   7.116   2.823   5.663  0.0703 -0.1097  0.0894
15509W        W19909  16.608   4.935  19.077 -0.0968 -0.1829 -0.3657
15510W        W19910   0.193   5.937  34.628 -0.2384 -0.2402  0.0385
15511W        W19911   5.379   1.286  40.224  0.2717 -0.2862 -0.1473
15512W        W19912   5.285   4.689  27.183 -0.2056  0.0324 -0.1675
15513W        W19913   3.247   1.768  38.069 -0.4368 -0.0582 -0.0042
15514W        W19914  17.116   3.391  10.826 -0.1987  0.2421  0.1298
15515W        W19915   5.675   6.117  37.472 -0.1885  0.3262  0.3134
15516W        W19916  19.028   4.460  14.024 -0.1903  0.0478  0.0611
15517W        W19917  18.472   3.443  14.565  0.0704  0.0159  0.2961
15518W        W19918  18.793   1.032  10.260  0.0830  0.1251 -0.2113
15519W        W19919   5.235   1.441  25.141  0.1753 -0.1222 -0.1188
15520W        W19920  17.720   0.838  41.907 -0.1394  0.0101  0.0131
15521W        W19921   4.202   5.805  27.130 -0.1097 -0.0485 -0.1105
15522W        W19922   9.432   2.220  31.998  0.0144  0.1759 -0.0783
15523W        W19923   9.413   2.288  38.215  0.1833 -0.0332  0.0508
15524W        W19924   1.935   6.580  34.205  0.4654  0.3504 -0.2461
15525W        W19925  20.411   5.598  12.071 -0.0779  0.0640 -0.2781
15526W        W19926  10.186   0.470  34.137 -0.0147 -0.3368 -0.0476
15527W        W19927   0.620   2.520  42.890  0.1714 -0.1232  0.1643
15528W        W19928   5.692   1.455  11.725 -0.3372 -0.0204  0.0165
15529W        W19929  16.929   3.314  44.363 -0.1924 -0.0001 -0.2573
15530W        W19930  21.020   4.843  35.609  0.0095 -0.1617 -0.1007
15531W        W19931   9.001   4.006  28.687 -0.1005 -0.1521 -0.1298
15532W        W19932  17.281   1.179  17.398 -0.1818 -0.2166  0.2750
15533W        W19933   4.943   2.577  44.295  0.0220  0.0183  0.0929
15534W        W19934   8.399   1.883  34.438  0.2520  0.2854  0.5503
15535W        W19935  16.649   5.234  35.063 -0.1568  0.1896 -0.2521
15536W        W19936   3.229   5.002  32.926 -0.1336 -0.1290  0.0801
15537W        W19937   2.442   1.137  37.856 -0.1665 -0.0004 -0.0830
15538W        W19938   8.644   4.675  31.654 -0.0542 -0.0816  0.1330
15539W        W19939   2.227   5.119  31.558  0.2062 -0.0329 -0.0096
15540W        W19940  21.132   5.510   8.266  0.0363 -0.4493 -0.0130
15541W        W19941   5.234   5.533   2.049 -0.0641  0.1570 -0.0133
15542W        W19942   2.561   4.761  32.435 -0.1713  0.0802 -0.1881
15543W        W19943   8.864   0.816  16.908 -0.0044  0.0540  0.1576
15544W        W19944  14.403   1.896  42.541 -0.1872 -0.1814 -0.0887
15545W        W19945  18.442   5.365  44.242  0.0919 -0.0613  0.2673
15546W        W19946   7.344   0.056   2.868 -0.0449 -0.0687 -0.2031
15547W        W19947   0.322   2.678  34.067 -0.2558 -0.0821 -0.0691
15548W        W19948   2.929   2.949  35.090 -0.0688  0.0936 -0.0452
15549W        W19949  10.819   0.587   2.954 -0.1358  0.1259  0.0293
15550W        W19950   0.120   6.060  30.393 -0.1674  0.3070 -0.0937
15551W        W19951  18.511   1.673  44.465 -0.1287 -0.1708 -0.1751
15552W        W19952  14.594   5.582  42.227 -0.0815  0.0131  0.2243
15553W        W19953  20.086   0.785  25.328 -0.0672  0.0023  0.1619
15554W        W19954  11.702   3.663  37.288 -0.2056  0.2112 -0.1838
15555W        W19955   8.262   3.132  30.335 -0.0174  0.1189  0.0732
15556W        W19956  18.356   4.906  27.701  0.1075  0.0786 -0.1256
15557W        W19957  14.477   1.793   4.835  0.0939  0.1269 -0.0460
15558W        W19958   2.270   1.695   9.970 -0.2515  0.0018  0.2078
15559W        W19959  20.633   4.442  31.580  0.3249  0.2867  0.1523
15560W        W19960  20.716   3.471  16.479  0.0590  0.1550 -0.6068
15561W        W19961  14.732   1.476  40.707  0.0084 -0.2110 -0.0451
15562W        W19962   4.631   3.132  31.453 -0.0286 -0.0655 -0.1262
15563W        W19963   5.078   0.909   1.303 -0.0413  0.3078 -0.3247
15564W        W19964   3.261   1.447  41.982 -0.3391  0.2089 -0.1110
15565W        W19965   2.252   2.009   6.310  0.1692  0.1057  0.0385
15566W        W19966  11.084   1.711  32.357  0.0350  0.1168 -0.0908
15567W        W19967   3.050   1.845   4.541  0.1555 -0.0713 -0.1843
15568W        W19968  20.751   5.962  42.163 -0.0649  0.0384  0.1249
15569W        W19969  12.144   4.661   8.835 -0.0247  0.2068  0.1381
15570W        W19970   7.850   4.817   3.890  0.3821 -0.1555 -0.3219
15571W        W19971   1.018   4.293  29.050  0.0059  0.2426 -0.0115
15572W        W19972   8.433   3.549  10.859  0.3491  0.4307 -0.2378
15573W        W19973  10.292   1.897  29.811  0.1417  0.3275 -0.0938
15574W        W19974   2.267   1.208   4.402  0.0819 -0.0984 -0.2134
15575W        W19975   5.572   4.037  24.520  0.0640 -0.2055  0.0105
15576W        W19976  16.263   0.715  17.259  0.0454  0.2438  0.1187
15577W        W19977   7.324   1.067  35.882  0.0003  0.3923 -0.3616
15578W        W19978   8.769   3.900  30.952 -0.1455  0.3378 -0.0137
15579W        W19979   8.397   5.895  27.624 -0.1441 -0.0306  0.3336
15580W        W19980  12.507   4.656  32.572 -0.1220 -0.0523  0.1224
15581W        W19981  11.645   3.992  21.336  0.2461  0.1543  0.0543
15582W        W19982  16.361   1.411  39.128  0.2150  0.1604 -0.1281
15583W        W19983  12.413   2.537  38.433 -0.2330 -0.1033 -0.1624
15584W        W19984  18.754   4.699  36.875  0.1225 -0.1649  0.0800
15585W        W19985   8.700   0.076  37.535 -0.3408 -0.2079  0.1946
15586W        W19986   7.120   1.824  34.362 -0.0324 -0.1119 -0.3071
15587W        W19987   3.381   4.939  36.491 -0.3551  0.5596 -0.1470
15588W        W19988   2.893   3.122  37.944  0.3559  0.1039  0.4266
15589W        W19989   8.296   5.081  14.867 -0.1362 -0.1140  0.0060
15590W        W19990  19.746   1.995  39.815 -0.2981 -0.0732  0.0234
15591W        W19991  14.569   1.545   4.278 -0.0473 -0.3477  0.3569
15592W        W19992  19.237   1.447  16.520  0.1431  0.1638 -0.1549
15593W        W19993   1.190   0.845   9.228 -0.0181  0.0807  0.3685
15594W        W19994   4.660   2.863   2.941  0.1450  0.0393  0.5069
15595W        W19995  11.754   2.896  40.492  0.0286 -0.0392  0.0259
15596W        W19996  14.474   0.768  15.946  0.0295 -0.0494 -0.2619
15597W        W19997   4.013   1.198  21.642 -0.0860 -0.1835 -0.0180
15598W        W19998  17.161   5.053   7.801  0.3231 -0.2952  0.1075
15599W        W19999  19.003   6.073  32.570  0.2382 -0.0097  0.0687
15600W        W20000   4.127   0.444  41.075  0.0728  0.2897 -0.1862
15601W        W20001  13.135   0.010   3.477 -0.0013  0.2642 -0.1438
15602W        W20002   2.246   5.069  23.399 -0.2039  0.1477  0.0797
15603W        W20003   5.143   3.590  10.283  0.1804 -0.1072 -0.1882
15604W        W20004   5.132   1.305   1.797  0.0119  0.0893  0.0503
15605W        W20005  13.299   5.365  44.695  0.0501  0.0992  0.0551
15606W        W20006  16.230   0.672   3.708 -0.2408 -0.2144  0.1257
15607W        W20007  16.529   2.220  32.610  0.2275  0.0416 -0.1583
15608W        W20008  11.148   4.508  35.600 -0.3171 -0.0537  0.1223
15609W        W20009   5.856   6.237  39.852 -0.0570  0.0010  0.0447
15610W        W20010   7.237   5.401  15.014  0.2033  0.3230  0.1618
15611W        W20011   5.804   2.672  27.939 -0.0121 -0.0977 -0.1875
15612W        W20012   3.580   0.131  24.706  0.1386 -0.0672 -0.0012
15613W        W20013  14.102   5.951   8.063 -0.0036  0.1955  0.1936
15614W        W20014  13.174   1.511  29.946  0.1294  0.1993 -0.0465
15615W        W20015   5.666   5.755  32.119 -0.0570 -0.0124  0.1306
15616W        W20016   9.173   3.301   2.256 -0.0211 -0.0329 -0.2080
15617W        W20017   2.031   2.692  29.263  0.1260  0.0555  0.1096
15618W        W20018  19.624   0.360   2.734  0.1249 -0.1961 -0.0045
15619W        W20019  13.212   0.093   6.335  0.5727  0.3073 -0.3416
15620W        W20020   7.738   3.341   9.460  0.0596 -0.2919  0.0718
15621W        W20021  13.779   1.322   8.390  0.0282  0.2358 -0.2196
15622W        W20022  12.175   6.304  43.228 -0.1337 -0.0064 -0.1110
15623W        W20023   7.932   2.461  39.608 -0.1191 -0.2859  0.1223
15624W        W20024  13.792   6.197   4.866  0.0756  0.1437 -0.1675
15625W        W20025   0.319   0.545  29.552  0.0888  0.2423  0.0555
15626W        W20026   4.862   2.310   7.236 -0.1001  0.1615 -0.0465
15627W        W20027  16.386   5.649  45.002  0.3072 -0.3805 -0.0466
15628W        W20028   9.819   2.644  27.534  0.0284  0.1960 -0.2462
15629W        W20029   3.124   1.269  30.977 -0.2712  0.0493  0.2396
15630W        W20030   5.358   1.700  10.031  0.1376 -0.4075  0.1150
15631W        W20031  10.287   4.724  28.868 -0.0648  0.0010  0.0272
15632W        W20032   4.822   3.319  35.569  0.0666 -0.1623 -0.0425
15633W        W20033  18.036   0.122  29.250  0.1089 -0.0526 -0.5291
15634W        W20034  14.599   4.541   4.455 -0.0223  0.0223  0.1998
15635W        W20035   9.879   5.445  15.044 -0.2208  0.0346 -0.1531
15636W        W20036   2.842   5.171  30.776  0.0790 -0.1798  0.2046
15637W        W20037  19.525   5.172  15.652  0.0271  0.0141  0.2642
15638W        W20038  11.911   3.522  36.438  0.0374  0.1383 -0.1075
15639W        W20039  17.723   1.022  12.444  0.1008  0.0349  0.2238
15640W        W20040  13.014   0.618  43.672  0.0799 -0.3507 -0.1720
15641W        W20041  15.371   3.825  42.469  0.1966 -0.2227 -0.1918
15642W        W20042  10.798   5.031  31.652  0.0803  0.0460  0.2080
15643W        W20043   5.246   6.037  10.077  0.1042  0.1666 -0.2003
15644W        W20044  11.252   5.235  18.560  0.3052 -0.1895 -0.2181
15645W        W20045   5.447   5.088  45.114  0.0281 -0.1535 -0.1477
15646W        W20046  10.630   6.015   7.384 -0.0779  0.3648 -0.0319
15647W        W20047  15.292   0.414  29.617  0.0777  0.0590 -0.0270
15648W        W20048   8.106   6.464  33.783  0.0259  0.1289 -0.0805
15649W        W20049  16.972   5.601  29.727  0.2958  0.2816 -0.0717
15650W        W20050   8.426   3.702  41.979 -0.0195 -0.2053  0.0742
15651W        W20051  13.061   3.826   6.416 -0.0491  0.0346  0.0510
15652W        W20052  13.648   3.533  21.514 -0.1545  0.0800 -0.0417
15653W        W20053  15.018   3.372  16.908 -0.1684  0.0137 -0.1439
15654W        W20054  20.220   0.311   1.531  0.2449 -0.2567 -0.0532
15655W        W20055  16.555   1.128  18.143 -0.1738  0.1648  0.3740
15656W        W20056   5.873   0.683   1.627 -0.1506  0.0887 -0.2244
15657W        W20057   1.138   3.573  38.738  0.2217 -0.2658 -0.0098
15658W        W20058   4.217   1.055  41.352 -0.0981  0.3200  0.1007
15659W        W20059  12.707   0.086  14.685  0.2136 -0.1114 -0.1526
15660W        W20060  20.379   4.013  40.489  0.1699 -0.2906  0.0016
15661W        W20061   8.638   5.237  14.473 -0.1844  0.1715 -0.2119
15662W        W20062  14.380   0.891  19.314 -0.0052 -0.0811 -0.2798
15663W        W20063  15.474   6.091  20.438  0.1587  0.1477 -0.2478
15664W        W20064   5.519   1.672  33.419  0.0763  0.2309 -0.1466
15665W        W20065   1.706   5.908  39.688  0.1281 -0.1842 -0.1444
15666W        W20066   5.007   0.152  32.381 -0.1101 -0.1541  0.2310
15667W        W20067  12.979   0.886  16.387  0.0390 -0.0205  0.2681
15668W        W20068   9.929   0.096   8.709  0.1808 -0.1327  0.0318
15669W        W20069  10.954   1.589  36.944 -0.0522 -0.1414 -0.0738
15670W        W20070   3.367   1.668   0.638  0.1440 -0.1341  0.1808
15671W        W20071   9.334   2.071   0.874 -0.2073  0.2487 -0.2659
15672W        W20072   2.451   3.656  24.658 -0.1475 -0.1499  0.1936
15673W        W20073   5.837   1.418   4.409  0.3021  0.1839  0.1215
15674W        W20074  19.934   5.668  38.488 -0.0039  0.0724  0.0455
15675W        W20075   8.276   3.765  14.070 -0.1843 -0.1639  0.0426
15676W        W20076   6.754   5.946   2.472  0.1351 -0.2022  0.2338
15677W        W20077  11.157   0.845  34.957  0.1378 -0.2731  0.1295
15678W        W20078  20.408   2.286  12.248  0.4281 -0.0046 -0.2455
15679W        W20079   6.103   2.434  43.199  0.1573 -0.2185  0.0063
15680W        W20080   1.262   4.525  15.544  0.0482 -0.3903  0.1000
15681W        W20081   1.011   3.101  11.461  0.3898 -0.0021 -0.0924
15682W        W20082  11.024   5.951  11.343 -0.0118 -0.2625 -0.2078
15683W        W20083   1.989   2.365  38.183 -0.2508 -0.0851 -0.0375
15684W        W20084   8.347   3.115   1.346 -0.0246 -0.1440  0.0463
15685W        W20085   8.239   3.164  43.947 -0.0308 -0.0644 -0.0373
15686W        W20086  16.095   1.978  43.743  0.1163  0.3340  0.0646
15687W        W20087   2.513   5.948   8.382  0.1859  0.0176  0.0278
15688W        W20088  13.631   2.135  11.748  0.0440 -0.2956  0.0999
15689W        W20089  13.849   6.581  16.588 -0.1981 -0.1058  0.1753
15690W        W20090   3.607   3.566  34.737 -0.1269 -0.0145  0.0751
15691W        W20091  20.077   1.523  41.210  0.3416  0.1695 -0.2961
15692W        W20092  13.335   5.627   3.285 -0.0462 -0.0828  0.0478
15693W        W20093   2.446   4.543   3.837 -0.3083 -0.1327  0.0949
15694W        W20094  11.337   6.522  40.741 -0.1348  0.0485 -0.2098
15695W        W20095   6.147   6.241   7.985 -0.0029 -0.3873  0.1100
15696W        W20096   9.662   1.199  29.843 -0.0017 -0.0532 -0.4669
15697W        W20097  15.650   1.203   0.478  0.1427 -0.1680  0.0444
15698W        W20098  14.193   5.554  39.014 -0.0871  0.0055  0.3519
15699W        W20099  11.117   5.977   4.496 -0.1545  0.4469  0.0187
15700W        W20100   3.225   4.823  22.542 -0.1833  0.1516  0.0477
15701W        W20101  10.332   4.413  44.881 -0.0888  0.0137  0.0629
15702W        W20102   2.642   0.855  31.643  0.0547 -0.2480 -0.2250
15703W        W20103  19.566   3.430  33.478 -0.0611 -0.0295 -0.2236
15704W        W20104  16.128   4.830  39.780  0.0383  0.1211  0.1375
15705W        W20105   5.036   6.488  42.922  0.1024  0.2823  0.1019
15706W        W20106  15.283   2.011   3.570 -0.1697  0.1885  0.0225
15707W        W20107  20.431   3.602   5.412  0.0531 -0.0004 -0.0692
15708W        W20108  15.088   2.331   4.711  0.2271 -0.0753  0.1153
15709W        W20109  15.727   4.491   6.395  0.0930 -0.0088 -0.2361
15710W        W20110   8.219   3.390   5.406 -0.2867  0.1655 -0.0956
15711W        W20111   3.711   1.080   8.524 -0.1556  0.1133 -0.1512
15712W        W20112   0.844   2.823  32.408 -0.3732  0.0368 -0.3254
15713W        W20113  18.619   6.420  13.572  0.2078 -0.0891 -0.1643
15714W        W20114   1.812   5.819  44.291 -0.0194 -0.4270 -0.0475
15715W        W20115   0.313   2.567  10.963 -0.1212  0.0125 -0.2050
15716W        W20116  19.534   1.306   6.064  0.1935 -0.0139  0.0764
15717W        W20117   8.614   4.821  43.701  0.2524  0.2024  0.1520
15718W        W20118  18.072   2.895  44.664 -0.0546  0.0302  0.0376
15719W        W20119   4.594   3.409  13.973 -0.3274 -0.0016 -0.4833
15720W        W20120  12.760   3.777   1.294 -0.1445  0.1460  0.2553
15721W        W20121  18.152   2.136  43.734 -0.1091  0.0453  0.0150
15722W        W20122  19.039   1.556   4.763 -0.1103 -0.2938  0.0455
15723W        W20123   8.962   2.970  40.079 -0.0691 -0.1742 -0.0310
15724W        W20124   6.789   1.188   8.350 -0.0247  0.2540 -0.1742
15725W        W20125   2.574   3.891   0.066  0.0091  0.2465 -0.2099
15726W        W20126   0.127   1.168  26.860 -0.0550 -0.0527  0.1486
15727W        W20127   1.754   4.179  24.867  0.4670 -0.2491  0.1915
15728W        W20128   2.596   4.931   5.291 -0.0722  0.4612 -0.0309
15729W        W20129  15.068   6.070  21.198 -0.0873 -0.1033 -0.2226
15730W        W20130  10.316   4.462   9.269 -0.0300  0.0459 -0.2416
15731W        W20131   0.994   3.740  25.016  0.0998 -0.2467 -0.0060
15732W        W20132   5.877   3.148   3.168  0.1475 -0.0309  0.0595
15733W        W20133   4.858   4.759  29.703  0.1256  0.1097 -0.4243
15734W        W20134  17.096   5.219  42.379 -0.0370 -0.0676  0.1070
15735W        W20135  13.958   3.062  39.174  0.0252  0.2241  0.0955
15736W        W20136  19.623   2.064   8.991  0.1020 -0.2191  0.3963
15737W        W20137   5.739   5.389   0.883 -0.1347 -0.1861  0.1414
15738W        W20138   4.374   5.264  27.328 -0.1825  0.0322  0.0802
15739W        W20139  19.783   3.105   3.950  0.2231 -0.1547 -0.0895
15740W        W20140   5.342   5.940  35.903 -0.1329  0.0014 -0.1907
15741W        W20141   1.992   2.588  39.893 -0.0667 -0.4954 -0.0509
15742W        W20142  18.719   6.216  35.606 -0.0004  0.0952  0.0362
15743W        W20143  15.891   3.369  29.925  0.1211  0.3388 -0.0729
15744W        W20144   0.863   4.917  16.497 -0.0928 -0.0067 -0.0869
15745W        W20145   8.523   6.453  42.661  0.3012  0.0261 -0.3125
15746W        W20146   8.520   4.920  44.383  0.1296  0.0084  0.0741
15747W        W20147  17.562   2.413   1.772  0.2092  0.3017 -0.4041
15748W        W20148   7.675   2.106  34.981 -0.0776 -0.0776  0.0805
15749W        W20149  13.583   1.262  20.862  0.0284 -0.2376 -0.3798
15750W        W20150   3.330   3.026   8.964  0.1098 -0.0814  0.2767
15751W        W20151   5.139   4.678  14.741  0.0933 -0.1884  0.2786
15752W        W20152  17.419   1.941  11.849  0.0045  0.0161  0.0843
15753W        W20153  12.695   3.807   8.840  0.1064 -0.0745  0.2413
15754W        W20154   5.423   1.300  39.274  0.0844  0.0557  0.3813
15755W        W20155   0.913   4.778  30.912  0.0830  0.1503  0.1848
15756W        W20156   3.861   2.150   9.322 -0.0845 -0.1532  0.0614
15757W        W20157   7.033   0.302  14.637  0.1317  0.1869  0.0994
15758W        W20158   9.261   3.179  18.288 -0.3548 -0.0634 -0.0381
15759W        W20159   2.831   3.133  27.764  0.0592 -0.0036  0.0738
15760W        W20160   0.245   0.298  11.067 -0.3750 -0.0930  0.1795
15761W        W20161  15.518   1.298   3.573 -0.0947 -0.4880 -0.1101
15762W        W20162  20.367   3.331   2.467  0.1584  0.0388  0.0439
15763W        W20163   6.120   4.017  31.567 -0.1404  0.1682 -0.4427
15764W        W20164  15.259   5.443  12.692  0.1245  0.1474 -0.2090
15765W        W20165  19.184   6.022  33.113 -0.4828  0.0122  0.0857
15766W        W20166   7.191   2.146  39.831 -0.0428  0.2627 -0.0170
15767W        W20167  11.432   1.816  20.872  0.0937 -0.2838  0.0770
15768W        W20168   5.240   4.452  43.113 -0.1211 -0.1661  0.1380
15769W        W20169  17.912   3.829  18.552 -0.1466  0.3638  0.2743
15770W        W20170  17.908   0.091  38.433 -0.0075 -0.2614  0.2917
15771W        W20171  13.183   6.455  12.832  0.0290 -0.0980  0.2706
15772W        W20172   6.375   3.461   4.542 -0.1891 -0.1940  0.0769
15773W        W20173   0.317   3.701  33.242  0.0481  0.1009 -0.0249
15774W        W20174   3.483   4.708  30.369  0.3075  0.0799  0.2522
15775W        W20175   3.726   1.253  23.398 -0.0666  0.4380 -0.0549
15776W        W20176  11.604   4.832   2.348  0.1803 -0.3447 -0.0150
15777W        W20177  12.283   2.696  35.409  0.0462  0.2323  0.1866
15778W        W20178   6.968   3.774   5.994  0.3007  0.5062 -0.1742
15779W        W20179   3.019   2.988  34.055  0.2131 -0.0277 -0.1899
15780W        W20180   0.847   1.154  35.229  0.3006  0.1052  0.0313
15781W        W20181  18.113   2.161  18.584  0.2835 -0.0758  0.3555
15782W        W20182   8.714   1.988  31.374  0.0314  0.1091 -0.2198
15783W        W20183   4.912   5.972  40.133  0.0629 -0.0525 -0.0112
15784W        W20184  15.637   0.475  41.217  0.2994  0.0847 -0.0806
15785W        W20185  16.721   1.656   4.822  0.2417 -0.0292  0.0734
15786W        W20186   5.964   2.275  23.800 -0.0244  0.1328  0.1809
15787W        W20187  18.089   6.083   5.944  0.0784  0.2250 -0.2103
15788W        W20188  18.701   1.599   2.581 -0.3447 -0.1897 -0.1740
15789W        W20189   7.215   3.224   8.169  0.1966  0.1400  0.1679
15790W        W20190   6.037   2.070  15.445 -0.0517  0.0739 -0.2272
15791W        W20191  10.457   1.873  18.488  0.0393 -0.3015  0.0617
15792W        W20192   4.761   1.347  30.964  0.0399  0.1059 -0.0643
15793W        W20193  11.223   6.580  35.454  0.0068  0.0527 -0.1204
15794W        W20194   5.936   5.304  27.694 -0.2364 -0.0657  0.0639
15795W        W20195   7.314   4.652  15.684 -0.0076  0.0564 -0.1682
15796W        W20196  19.720   5.502   8.939 -0.0580 -0.0097 -0.0381
15797W        W20197  11.253   2.867  31.853  0.1823  0.0009  0.1109
15798W        W20198  16.776   3.730  32.873 -0.1921 -0.0113  0.1898
15799W        W20199  18.536   3.284  13.615  0.3589 -0.2848  0.0016
15800W        W20200  14.185   2.475  43.960 -0.1112  0.0402 -0.2435
15801W        W20201   0.546   4.202  32.085 -0.1913  0.3798 -0.0857
15802W        W20202  20.771   6.005  33.938  0.0361  0.0347  0.0776
15803W        W20203   0.865   4.209  35.288  0.0609 -0.4172 -0.0195
15804W        W20204   4.992   0.305   4.183  0.0252  0.1935  0.0087
15805W        W20205   9.337   2.122  35.643 -0.0338 -0.3432 -0.0936
15806W        W20206  10.555   5.329  34.339 -0.1183  0.1794  0.1856
15807W        W20207  13.076   4.241  44.151  0.3102 -0.3962 -0.0282
15808W        W20208   3.788   3.310  27.578 -0.1491  0.0826 -0.2555
15809W        W20209  16.033   1.373  15.177 -0.0205  0.0636  0.0553
15810W        W20210  13.651   3.953  43.441  0.0536  0.0344 -0.1117
15811W        W20211   8.972   6.221  36.846  0.1470 -0.2432  0.5895
15812W        W20212   4.650   4.408   0.707 -0.0442  0.0619 -0.1519
15813W        W20213   8.774   1.465  16.191  0.0811 -0.0643  0.0305
15814W        W20214   3.962   4.458   1.242 -0.0968 -0.0485 -0.3877
15815W        W20215  13.942   4.568   6.593 -0.1124 -0.1140  0.2169
15816W        W20216  20.396   4.872  10.232 -0.2690 -0.3113  0.3540
15817W        W20217   4.839   3.130  11.413 -0.1061  0.2950 -0.2471
15818W        W20218  13.311   3.017   7.507  0.3634 -0.0749  0.2256
15819W        W20219   2.274   0.361   9.957 -0.1805  0.1277 -0.1254
15820W        W20220   8.296   1.131  36.818 -0.1932  0.1386 -0.2172
15821W        W20221   7.248   3.313  30.398  0.1380  0.1047  0.2259
15822W        W20222   4.036   3.953   5.447  0.0039 -0.0085  0.0261
15823W        W20223  15.843   0.770   5.265 -0.1513 -0.3366  0.1696
15824W        W20224  12.639   1.916  34.530 -0.2031 -0.0650 -0.0470
15825W        W20225   2.739   0.347   2.671  0.2520 -0.0231 -0.1503
15826W        W20226   7.184   1.432  10.205  0.3266 -0.1343  0.1603
15827W        W20227  20.390   4.723   9.786  0.1365 -0.1249 -0.2336
15828W        W20228  14.056   0.768  40.072 -0.0764 -0.0221  0.1655
15829W        W20229   6.884   2.289   2.879  0.1034  0.1663 -0.0914
15830W        W20230  15.620   2.831  36.960 -0.0902  0.5741  0.3971
15831W        W20231  12.482   4.982  28.999  0.0676  0.2278 -0.0934
15832W        W20232  19.734   2.407   5.966  0.1783 -0.0780 -0.1712
15833W        W20233  10.441   1.461  17.196 -0.0428 -0.3181 -0.0760
15834W        W20234  20.210   1.796   5.021 -0.0394 -0.3248 -0.0230
15835W        W20235   4.415   0.134  11.720 -0.4594  0.1132  0.1831
15836W        W20236   7.465   2.409   2.485  0.3495  0.0247 -0.0554
15837W        W20237   3.075   4.352  25.074 -0.1866 -0.0085  0.1299
15838W        W20238  11.576   6.058   7.430 -0.0673 -0.0780  0.0377
15839W        W20239  17.385   5.085   8.869  0.0233  0.1704 -0.0309
15840W        W20240  14.192   1.605  20.472 -0.1333  0.1776 -0.2905
15841W        W20241  17.654   2.847  43.811  0.0356  0.0329 -0.2430
15842W        W20242  18.986   4.308   2.398 -0.0260  0.2128 -0.2225
15843W        W20243  13.565   4.903   5.079  0.0679 -0.2728 -0.0625
15844W        W20244  15.161   5.217   5.682 -0.0704 -0.0382  0.0574
15845W        W20245  19.113   4.793   6.859  0.2948 -0.0699 -0.0746
15846W        W20246  12.246   3.487  21.031 -0.2340  0.0075 -0.0537
15847W        W20247  17.374   1.129   1.238  0.1464  0.0101  0.1179
15848W        W20248  12.007   3.073  29.329  0.1157  0.0320  0.1047
15849W        W20249  11.568   6.295  34.573  0.3041  0.1570  0.2777
15850W        W20250  15.149   3.204   5.342  0.1371 -0.0357 -0.1302
15851W        W20251   4.570   1.471  23.069 -0.1191  0.1334 -0.1221
15852W        W20252   8.477   1.266  42.312  0.2137 -0.1148 -0.2177
15853W        W20253  12.091   2.857  37.015 -0.0312 -0.0004  0.0560
15854W        W20254  10.982   6.014  29.218 -0.0518  0.1108  0.2288
15855W        W20255   1.958   0.772   0.265 -0.0320  0.1240 -0.1156
15856W        W20256   1.172   5.339   5.262  0.3045  0.0614  0.3263
15857W        W20257  15.709   4.171  13.530  0.1299  0.0298 -0.1602
15858W        W20258   1.561   2.944  35.836 -0.0116  0.3593  0.0009
15859W        W20259   8.071   1.484   9.996  0.3158 -0.0336 -0.3261
15860W        W20260  13.638   0.151  18.347  0.0020 -0.0262 -0.0288
15861W        W20261  14.747   2.170  15.759  0.0819 -0.3052  0.3052
15862W        W20262  11.480   2.256  36.977 -0.2151 -0.1161 -0.0705
15863W        W20263  16.180   3.077  39.122  0.0994  0.3625 -0.0540
15864W        W20264   5.249   2.701   0.105  0.0738 -0.0644 -0.5183
15865W        W20265  15.639   3.409  19.223 -0.0343 -0.0404  0.2082
15866W        W20266   5.815   1.577  34.620 -0.0945  0.0744  0.0309
15867W        W20267  20.930   4.322   8.714 -0.0026  0.0842 -0.0479
15868W        W20268   8.980   1.308   9.613 -0.0132  0.4540 -0.0133
15869W        W20269  18.974   0.099  42.292  0.2578 -0.5459 -0.2149
15870W        W20270  11.950   0.655  43.429 -0.1314 -0.0027  0.0502
15871W        W20271   2.359   2.248   2.533 -0.1867 -0.0639 -0.0302
15872W        W20272   2.818   0.472  16.325 -0.0184 -0.0381 -0.0946
15873W        W20273   7.905   4.401   7.408  0.0975 -0.0428  0.0068
15874W        W20274  16.626   4.959  41.050 -0.2350  0.2591 -0.1520
15875W        W20275   7.406   1.697  34.763  0.2046 -0.5065 -0.0694
15876W        W20276  19.608   1.082  40.968  0.0820  0.0735  0.1783
15877W        W20277  17.029   2.181   2.774 -0.0039  0.2486  0.0365
15878W        W20278   9.440   1.119  33.865 -0.2010 -0.0548  0.0942
15879W        W20279   5.717   4.115  34.091  0.1888  0.0741  0.2256
15880W        W20280  20.480   3.528  30.874  0.3241 -0.2849 -0.0486
15881W        W20281   0.462   1.633   6.424  0.1578 -0.0439 -0.2446
15882W        W20282   7.926   4.841  14.705  0.0307  0.1205  0.3750
15883W        W20283   7.655   1.157  12.257  0.1258 -0.0753 -0.0230
15884W        W20284  13.363   3.556  23.948  0.0260 -0.1274 -0.4529
15885W        W20285   3.337   2.942  11.470 -0.2326  0.1610  0.2729
15886W        W20286  19.926   3.899  12.184 -0.1645  0.0597 -0.4194
15887W        W20287  12.012   5.679  13.181  0.3121  0.1488  0.1174
15888W        W20288  18.649   4.763   2.235  0.0964 -0.0909  0.0624
15889W        W20289  16.729   3.478  21.367 -0.2886  0.0368  0.1114
15890W        W20290   2.432   2.251  33.382 -0.3815 -0.2351 -0.0885
15891W        W20291   3.287   3.323  12.213  0.3819  0.3204  0.2013
15892W        W20292   7.965   3.669   9.138  0.0916 -0.2172  0.1841
15893W        W20293  19.362   2.225  17.284 -0.1104 -0.1900 -0.1317
15894W        W20294  19.539   1.913  31.092  0.0727  0.0780 -0.0421
15895W        W20295   4.932   0.679  24.791  0.1111  0.2560  0.1850
15896W        W20296  17.524   2.251  41.838 -0.2135 -0.0957  0.1029
15897W        W20297   1.796   6.598  26.452 -0.1429  0.0503 -0.1484
15898W        W20298  18.983   4.132  44.233  0.1965 -0.0291  0.1883
15899W        W20299  12.106   2.579   3.245  0.0325 -0.3085  0.3082
15900W        W20300  15.723   1.664   5.203 -0.0001 -0.0511 -0.0057
15901W        W20301  10.943   1.280  20.666 -0.2851 -0.1022 -0.0458
15902W        W20302  19.042   1.599  45.116  0.0562 -0.0345  0.0284
15903W        W20303  14.634   5.474   4.218  0.0029  0.1054  0.2328
15904W        W20304  14.794   1.140   8.397  0.2254  0.0843 -0.3446
15905W        W20305  10.153   2.810  44.536 -0.2586 -0.1131 -0.0956
15906W        W20306   6.373   1.902  44.212 -0.2951 -0.2482 -0.0031
15907W        W20307  20.966   4.982  25.924  0.1171 -0.0636 -0.0570
15908W        W20308   8.238   5.970  33.816  0.3122 -0.1371 -0.0557
15909W        W20309  10.936   3.365  40.773  0.0611 -0.0430 -0.0271
15910W        W20310  14.741   3.755  32.474  0.0213 -0.1556 -0.2814
15911W        W20311   4.091   0.592  36.299 -0.2843 -0.1754  0.0432
15912W        W20312   5.582   2.811   5.066 -0.0453 -0.0319 -0.0095
15913W        W20313   5.423   4.049  35.951  0.1398  0.1445 -0.0455
15914W        W20314  17.122   6.275   6.239 -0.1623 -0.1815 -0.0913
15915W        W20315  17.601   2.518  14.391  0.2982 -0.0541  0.0455
15916W        W20316   8.740   0.847   6.631  0.1830  0.1934  0.1055
15917W        W20317   0.735   2.970  42.772 -0.0528  0.1420 -0.2818
15918W        W20318   0.530   2.483  27.425 -0.0054 -0.1516 -0.0520
15919W        W20319  10.888   2.426  40.670  0.0702 -0.1554 -0.4070
15920W        W20320  15.662   3.914  14.243 -0.1334 -0.2127 -0.0260
15921W        W20321  20.489   2.707  32.131  0.2752  0.2637 -0.0436
15922W        W20322   2.708   1.506  13.740  0.1426  0.0687  0.0602
15923W        W20323  10.660   4.781  41.721 -0.2814  0.1031  0.2522
15924W        W20324   2.058   0.635  25.377 -0.4846 -0.0523  0.0111
15925W        W20325   2.608   2.809  12.639 -0.2218  0.0517 -0.1757
15926W        W20326  16.997   4.159  34.770  0.0967  0.0543  0.1233
15927W        W20327  20.050   6.069   0.059 -0.0148  0.2752  0.1643
15928W        W20328  19.725   3.288  40.329 -0.0813 -0.1107 -0.0067
15929W        W20329  17.220   3.639   1.909 -0.0361 -0.0150  0.1265
15930W        W20330  15.976   6.600  18.123 -0.2780 -0.1049 -0.3272
15931W        W20331   9.538   5.342  15.480 -0.0420 -0.1951 -0.0287
15932W        W20332  17.114   6.562  20.030 -0.0953 -0.1152 -0.1569
15933W        W20333  13.800   5.114  40.954 -0.1172  0.1017  0.2422
15934W        W20334  10.804   0.515  41.393 -0.0242 -0.1640 -0.0762
15935W        W20335  11.222   2.458   1.774  0.0560  0.0952 -0.2371
15936W        W20336  20.700   5.607  28.677  0.1001 -0.2515  0.2741
15937W        W20337  16.702   6.513  11.535 -0.2550 -0.2840 -0.1392
15938W        W20338  13.624   1.538  21.307  0.2351 -0.0350  0.0878
15939W        W20339  19.348   1.346  17.040  0.0763  0.3232  0.1386
15940W        W20340   6.403   0.493   6.512  0.1113  0.4119 -0.1832
15941W        W20341  17.546   0.784   2.958 -0.4189 -0.1690 -0.0627
15942W        W20342  13.022   1.659  28.732  0.0414 -0.0793  0.0927
15943W        W20343  15.350   4.517  13.404 -0.0783  0.1833 -0.1985
15944W        W20344  20.950   0.353  32.194 -0.2771  0.0909  0.1455
15945W        W20345   3.399   2.671  37.913  0.0193  0.0936 -0.2581
15946W        W20346  10.198   0.400  41.546  0.0934 -0.1215 -0.2487
15947W        W20347   6.432   0.535  10.118 -0.1420 -0.0697  0.0613
15948W        W20348   3.076   1.066  31.932  0.3078 -0.2751 -0.1764
15949W        W20349   1.475   4.481  43.233  0.3478  0.0859  0.1710
15950W        W20350  12.819   6.376  17.662 -0.2457  0.1855  0.0962
15951W        W20351   1.307   2.575  32.077 -0.2826  0.2323  0.0498
15952W        W20352   8.962   4.176   5.738  0.1794 -0.0888  0.2007
15953W        W20353   0.778   5.716  44.204  0.0201  0.1339 -0.2445
15954W        W20354   4.304   1.804  39.292  0.0123 -0.0374  0.4581
15955W        W20355  19.269   4.567  36.658  0.1717 -0.0450 -0.3164
15956W        W20356   4.669   2.314  21.135 -0.1240  0.0659  0.2566
15957W        W20357   8.154   3.909  35.888 -0.1656  0.0855 -0.1825
15958W        W20358   3.905   1.626   7.637 -0.1104  0.1977  0.0243
15959W        W20359   6.494   4.321  10.481 -0.3608 -0.1107  0.1581
15960W        W20360  12.739   1.554  11.350  0.0262 -0.0969 -0.1579
15961W        W20361  12.099   4.855  20.338  0.0513 -0.0027  0.0184
15962W        W20362  13.317   0.131  40.787  0.1073 -0.0154  0.2203
15963W        W20363   0.989   3.534  35.802 -0.0831  0.2808 -0.0188
15964W        W20364   9.779   2.532  18.877  0.0562  0.0005  0.2348
15965W        W20365   1.557   5.471   5.676  0.3249  0.0059 -0.0582
15966W        W20366   5.252   5.885   6.114  0.1292 -0.1566 -0.2598
15967W        W20367  16.529   0.563  13.121  0.1803  0.0022  0.1026
15968W        W20368  16.900   3.675  21.883  0.0220  0.0891  0.1311
15969W        W20369  15.696   3.413  38.454  0.2636 -0.0249  0.0125
15970W        W20370  17.106   5.248   2.982 -0.1834 -0.0069 -0.3459
15971W        W20371  15.158   6.138  43.276 -0.0521 -0.0601  0.1962
15972W        W20372   4.412   6.165   0.440 -0.0074 -0.1247 -0.2885
15973W        W20373   5.317   4.834  11.205 -0.2488 -0.1374 -0.2828
15974W        W20374   5.708   4.240  39.824 -0.2090  0.2482 -0.0885
15975W        W20375  14.360   2.993   8.574 -0.4394 -0.0754 -0.0630
15976W        W20376   4.756   3.572  21.391 -0.1398 -0.0778  0.0050
15977W        W20377  10.586   3.433  43.144 -0.2291 -0.1747 -0.1008
15978W        W20378  13.323   6.178  30.710 -0.1499 -0.0743 -0.0677
15979W        W20379  10.441   1.037  17.564 -0.0045  0.2669 -0.0913
15980W        W20380   8.291   1.348   3.275 -0.1890 -0.0733 -0.2104
15981W        W20381   9.154   3.319   1.738  0.0446  0.3196  0.1561
15982W        W20382   6.682   0.893   0.991  0.0965  0.2093  0.0694
15983W        W20383   7.919   4.381  26.269  0.0996 -0.1477  0.0928
15984W        W20384   8.057   0.854   0.980  0.1735  0.1382  0.0457
15985W        W20385   6.713   4.234  31.514  0.0098  0.0693  0.2901
15986W        W20386  16.612   2.262   3.766 -0.1632 -0.1614  0.1371
15987W        W20387  18.261   1.101  17.859 -0.3484  0.0983 -0.0735
15988W        W20388  13.405   1.573  15.695 -0.1518  0.1194  0.5180
15989W        W20389   8.492   0.041  44.551 -0.0444 -0.1822 -0.2905
15990W        W20390  16.487   3.983  38.413 -0.0009  0.0167  0.1405
15991W        W20391  11.410   1.003   0.839  0.2562  0.0146 -0.1234
15992W        W20392  14.519   2.130  23.884 -0.3268  0.2151  0.1111
15993W        W20393   2.205   4.294  41.908 -0.0709  0.0736 -0.1236
15994W        W20394   2.621   4.546  29.154  0.2545 -0.0852  0.0721
15995W        W20395   0.481   5.022  27.152  0.1055 -0.0447 -0.1956
15996W        W20396  12.698   4.147  16.714 -0.0978  0.0622  0.0938
15997W        W20397  10.414   3.189  15.027 -0.2192 -0.1523  0.2257
15998W        W20398  15.324   2.742  20.460 -0.1856 -0.2991 -0.1805
15999W        W20399  13.667   5.691   3.705  0.0848 -0.0411  0.0803
16000W        W20400  19.552   2.224  31.489 -0.2543 -0.3261  0.2888
16001W        W20401   0.101   5.690  40.690 -0.2637  0.0133 -0.0265
16002W        W20402  17.989   6.548  45.142  0.1631  0.3594  0.0915
16003W        W20403  18.855   5.109  37.167 -0.0458  0.1672  0.0229
16004W        W20404   0.923   3.342  40.120  0.0835  0.0090 -0.0941
16005W        W20405  17.120   5.598  20.562 -0.1246 -0.0354  0.1487
16006W        W20406  11.229   4.767  31.696  0.1651 -0.0031  0.1076
16007W        W20407  15.148   4.121  45.003  0.0678 -0.3205 -0.1597
16008W        W20408  13.186   4.989   7.154 -0.0103 -0.2548  0.1185
16009W        W20409  19.926   1.632  44.820  0.4264  0.3070 -0.1081
16010W        W20410   3.352   3.858  22.133  0.0854  0.1177 -0.0092
16011W        W20411   6.080   2.088  40.324  0.0856  0.2749  0.0804
16012W        W20412  16.137   4.939  44.274 -0.0232  0.0398 -0.0278
16013W        W20413  18.281   4.802  32.189  0.1279  0.2482  0.2546
16014W        W20414  14.460   4.659  20.545  0.1006  0.0736 -0.1900
16015W        W20415  12.596   2.296  38.937 -0.3542  0.2006 -0.1205
16016W        W20416   8.604   1.471  37.042 -0.1023  0.0551  0.1350
16017W        W20417   8.664   3.121  14.768  0.1685 -0.3631 -0.0566
16018W        W20418   1.855   0.394  11.930  0.0279 -0.0637 -0.1962
16019W        W20419   6.864   6.411  35.715  0.0782 -0.1876  0.2116
16020W        W20420  15.610   2.827  23.504  0.2033  0.0444  0.0653
16021W        W20421  17.285   0.243  38.993 -0.0108 -0.0838  0.2765
16022W        W20422  12.465   0.457   8.175  0.2302  0.1922 -0.1795
16023W        W20423  11.348   3.436  17.211  0.0187  0.0079  0.1356
16024W        W20424   3.987   2.265  26.129 -0.0151  0.1452 -0.3681
16025W        W20425   9.355   0.374   4.994  0.2374  0.1731  0.3347
16026W        W20426   9.181   0.126  41.618 -0.1661 -0.0599 -0.2997
16027W        W20427  19.600   0.203  27.863 -0.0685 -0.0317 -0.2396
16028W        W20428  10.985   4.259   3.349 -0.0507  0.1690 -0.2030
16029W        W20429   8.161   4.352  40.292  0.0236  0.0035  0.2862
16030W        W20430  14.627   3.768  13.592  0.1393 -0.0584  0.2052
16031W        W20431  12.692   5.924  19.493 -0.2916 -0.4379  0.2295
16032W        W20432  10.669   5.057  18.465  0.3880 -0.2234 -0.2040
16033W        W20433  18.488   4.329   1.437  0.1618 -0.1979  0.1296
16034W        W20434  16.819   2.284  29.754 -0.0614  0.0603  0.4182
16035W        W20435  14.856   2.789  31.000  0.1124 -0.0399 -0.3397
16036W        W20436  15.623   6.083  39.115  0.2873 -0.2124 -0.1124
16037W        W20437   1.470   1.301   2.615 -0.1936  0.1270 -0.0761
16038W        W20438   5.675   5.187  13.608 -0.2620 -0.3498  0.0883
16039W        W20439   7.907   1.020   6.448 -0.1192 -0.0705 -0.1501
16040W        W20440  16.230   0.454  35.602 -0.0987 -0.1691 -0.2487
16041W        W20441  10.828   0.228  20.431 -0.0711  0.0049 -0.0401
16042W        W20442  18.402   0.031  14.796  0.4980  0.0863  0.0850
16043W        W20443  11.272   1.786  10.246 -0.4277  0.0344 -0.1659
16044W        W20444   2.871   1.579  26.330 -0.2247  0.0108 -0.1780
16045W        W20445  17.961   1.346  31.663  0.0395 -0.2722  0.2623
16046W        W20446  14.597   2.889   8.110 -0.3456 -0.2025  0.1398
16047W        W20447   7.683   0.896  36.823 -0.0884 -0.0533  0.4148
16048W        W20448   5.107   1.341  44.085  0.1923 -0.0572 -0.2063
16049W        W20449  11.599   3.775  31.172  0.2084 -0.1360 -0.0238
16050W        W20450  14.108   6.094  39.986  0.2541 -0.2120  0.2415
16051W        W20451   4.496   4.373  45.087  0.2109 -0.3864  0.0717
16052W        W20452  16.229   1.429  30.377 -0.2686  0.3668  0.2092
16053W        W20453   8.178   0.854  33.066 -0.0681  0.3830  0.0780
16054W        W20454   5.399   4.761  25.006  0.0468 -0.1315  0.0776
16055W        W20455  20.086   1.959  16.560  0.0595  0.1133  0.0742
16056W        W20456   1.243   0.763  13.713 -0.1169 -0.2123 -0.0232
16057W        W20457   3.566   0.492  29.448  0.1732 -0.0294 -0.1152
16058W        W20458   6.703   4.859   4.882  0.0734  0.1711  0.1976
16059W        W20459  12.892   1.368  13.963 -0.0942 -0.0150 -0.3508
16060W        W20460  12.798   0.661   3.911  0.1993  0.1248  0.0525
16061W        W20461   1.798   2.006  28.521  0.0271 -0.0277  0.1156
16062W        W20462   9.744   0.868   0.911 -0.2180 -0.1352 -0.0274
16063W        W20463   5.777   2.634  25.599  0.0520  0.0196  0.2168
16064W        W20464  11.951   0.647   8.829  0.1860  0.0384 -0.0243
16065W        W20465   9.998   2.851  19.836  0.1184 -0.1762  0.0645
16066W        W20466   5.405   0.865   9.704  0.0706 -0.0869 -0.1662
16067W        W20467  11.548   6.170  37.695  0.1596 -0.2047  0.0235
16068W        W20468   3.113   1.194  39.913 -0.0793 -0.0442  0.1681
16069W        W20469  13.836   1.689   4.670  0.0263  0.0053 -0.0189
16070W        W20470  11.741   4.946  17.728 -0.0355  0.0316  0.1996
16071W        W20471   3.940   1.865  41.230  0.2232  0.1468 -0.0246
16072W        W20472   5.910   3.941   5.839  0.1258 -0.1074  0.0383
16073W        W20473   5.293   2.548  23.715 -0.0476  0.2149  0.1036
16074W        W20474   0.300   6.101  37.135  0.0232 -0.2096  0.0710
16075W        W20475  18.455   2.900   9.287 -0.0864 -0.3741  0.1492
16076W        W20476   1.241   3.217  15.096 -0.1489 -0.2407 -0.0919
16077W        W20477  20.968   1.633  31.565 -0.0917  0.0751  0.1326
16078W        W20478   8.835   0.632  19.011  0.1579 -0.0494  0.3234
16079W        W20479   7.310   3.743  37.338  0.2006 -0.0042  0.0825
16080W        W20480   8.818   1.668  41.623  0.0756 -0.3646 -0.0572
16081W        W20481  20.081   0.531  25.797  0.1175 -0.0716 -0.2123
16082W        W20482   0.723   0.465   8.548  0.3804 -0.2803  0.1703
16083W        W20483   9.376   2.463  34.157 -0.0128  0.1365  0.0390
16084W        W20484  16.478   2.647  35.852  0.0583 -0.0773  0.1013
16085W        W20485   4.311   2.042  14.480  0.2739  0.1296  0.3418
16086W        W20486   8.494   0.480  37.031  0.2234 -0.0259 -0.0411
16087W        W20487  14.939   5.952  37.939 -0.0757  0.3025  0.0354
16088W        W20488  16.979   1.015   3.663  0.0294 -0.1276 -0.1933
16089W        W20489   7.699   1.495  33.698 -0.1034  0.1689 -0.1784
16090W        W20490   1.698   3.136   6.758 -0.1364 -0.0458  0.1484
16091W        W20491   5.435   0.466   0.311 -0.2418 -0.0041  0.1895
16092W        W20492   6.792   3.952   1.074 -0.0989 -0.0540  0.1506
16093W        W20493  13.362   2.338  32.096 -0.1454  0.1722 -0.0170
16094W        W20494  17.787   5.528  40.969 -0.0554 -0.2601  0.0369
16095W        W20495  12.823   0.313  15.209 -0.1131 -0.2140  0.3711
16096W        W20496   5.314   5.907  23.040 -0.0530 -0.1874  0.0649
16097W        W20497   4.823   5.026  11.353  0.1444 -0.2657 -0.4091
16098W        W20498   5.675   3.919   4.073  0.3327 -0.0736 -0.0699
16099W        W20499   8.243   5.346  41.830 -0.1091  0.0181 -0.0558
16100W        W20500   1.832   3.777  30.920  0.0549  0.2130  0.0544
16101W        W20501  13.296   6.394  17.511  0.2175 -0.2186 -0.0499
16102W        W20502   6.808   1.880  30.359  0.5370 -0.0550  0.2476
16103W        W20503   7.424   4.484  26.491 -0.0943 -0.1242 -0.2346
16104W        W20504   1.893   3.970  35.145 -0.2885 -0.0885  0.1000
16105W        W20505  14.785   4.562  25.374 -0.1534 -0.4500 -0.0301
16106W        W20506   6.143   4.641  14.582  0.0923  0.0291 -0.1397
16107W        W20507  13.562   4.617   0.533  0.1396  0.1936 -0.1725
16108W        W20508   6.437   1.282  35.559  0.0536  0.3434 -0.0907
16109W        W20509   0.383   4.252  10.381 -0.2081  0.0318 -0.2885
16110W        W20510   5.691   1.318  33.023  0.2968  0.0143  0.0954
16111W        W20511  12.252   2.718  44.050  0.2141 -0.1045  0.2916
16112W        W20512  11.036   6.346  12.705 -0.1211 -0.0139 -0.1808
16113W        W20513  19.626   3.568   4.716 -0.1498  0.3258  0.0923
16114W        W20514  10.894   4.594  18.588 -0.1703 -0.1057 -0.1042
16115W        W20515   9.927   6.378  14.855 -0.0562  0.0655 -0.2626
16116W        W20516  15.352   1.004  40.298 -0.0461  0.0960  0.0146
16117W        W20517  11.582   3.330   9.715 -0.1709 -0.0306 -0.4918
16118W        W20518   4.444   3.334  33.410  0.1610 -0.2324 -0.1594
16119W        W20519  11.923   0.648  22.537  0.0336  0.1211  0.0439
16120W        W20520   6.009   2.335  23.086 -0.0497 -0.0899  0.1612
16121W        W20521  17.291   4.404   3.685 -0.1341  0.0560  0.2479
16122W        W20522  18.360   4.070  36.207  0.0879  0.0854  0.0334
16123W        W20523  12.382   2.835  39.878 -0.0295 -0.2147  0.0686
16124W        W20524   4.575   2.296  35.537  0.3045  0.1511  0.0014
16125W        W20525   0.465   4.395  45.113  0.0882 -0.0942 -0.2314
16126W        W20526  12.096   5.455  32.775  0.0274 -0.3345 -0.0235
16127W        W20527   4.937   3.841  40.887 -0.0295 -0.1973 -0.2127
16128W        W20528  17.223   1.424  29.289 -0.0551 -0.1945 -0.0319
16129W        W20529   6.375   3.258  12.659  0.1656  0.0324  0.1367
16130W        W20530   0.524   4.870  31.479  0.0027 -0.0170 -0.0394
16131W        W20531   0.869   5.732  27.322  0.0869  0.1133  0.0353
16132W        W20532  19.205   6.384  43.670 -0.1109  0.1760 -0.1040
16133W        W20533  18.815   1.118  17.765 -0.0770 -0.1406 -0.1427
16134W        W20534   4.282   2.983   3.895  0.1256 -0.2439 -0.1399
16135W        W20535   2.185   0.002  24.549  0.0369  0.1497  0.2708
16136W        W20536  16.151   0.579  40.319  0.0183 -0.1299  0.0353
16137W        W20537   8.888   4.565  29.799 -0.0537  0.3248  0.0953
16138W        W20538  16.419   3.627   0.728  0.0272 -0.3398 -0.2583
16139W        W20539  12.976   6.300   6.558 -0.0735 -0.0236 -0.2015
16140W        W20540   4.200   1.670  10.964 -0.2416  0.3603  0.0903
16141W        W20541  13.642   1.874  39.464  0.1350 -0.3512  0.0516
16142W        W20542  10.940   3.198  36.231  0.0298 -0.0590  0.0322
16143W        W20543  10.688   4.825  17.208  0.3049  0.0198 -0.0100
16144W        W20544  10.177   3.416   7.821  0.1011  0.4284 -0.0972
16145W        W20545   9.055   1.001  45.067  0.1036 -0.0974 -0.1199
16146W        W20546  19.240   1.431  38.631 -0.1488  0.0841  0.4537
16147W        W20547   3.333   1.316  38.993  0.2381  0.1321 -0.2271
16148W        W20548  14.099   1.872  24.947 -0.0993  0.0878  0.0578
16149W        W20549  19.531   4.346  37.039  0.1128  0.0352 -0.1362
16150W        W20550  15.745   4.582   2.976 -0.0294 -0.0587 -0.0086
16151W        W20551   8.401   2.404  27.363  0.3164  0.3391  0.2404
16152W        W20552  19.166   6.570  15.373  0.0060  0.2939  0.1539
16153W        W20553   6.505   0.011  35.991 -0.2466 -0.0601  0.0329
16154W        W20554  17.286   2.650  15.662  0.1361 -0.2000  0.0098
16155W        W20555  13.900   4.844  10.491 -0.2097  0.1046 -0.1758
16156W        W20556  16.697   5.326   1.162 -0.0403 -0.0563 -0.0929
16157W        W20557  16.770   0.042  39.293 -0.1476 -0.2921  0.2095
16158W        W20558  14.602   4.401   5.167 -0.0707 -0.2612  0.3462
16159W        W20559   4.173   2.998  36.229 -0.4020  0.0192 -0.2396
16160W        W20560  11.513   1.362   9.404 -0.0800 -0.0965  0.3282
16161W        W20561  11.669   3.848  11.318 -0.0189  0.2255 -0.2488
16162W        W20562  20.368   0.705  13.292  0.0406  0.3544  0.1222
16163W        W20563   0.689   4.873   3.991  0.1386 -0.2145  0.0201
16164W        W20564  12.346   1.429  41.966  0.2712  0.2338 -0.0684
16165W        W20565   7.347   0.054   4.876 -0.1666  0.1913 -0.0122
16166W        W20566   4.535   1.481   2.975 -0.0027 -0.1020 -0.0511
16167W        W20567  11.093   5.274  44.642  0.2785 -0.2828  0.0364
16168W        W20568   6.053   0.792   1.186  0.1100 -0.1451 -0.1082
16169W        W20569   7.965   6.204   4.521  0.0214 -0.2584 -0.0686
16170W        W20570   2.196   4.756   6.757  0.1373  0.0857  0.0569
16171W        W20571   6.453   1.000  25.528 -0.0280  0.0983  0.1700
16172W        W20572  15.723   2.025  11.196 -0.5559  0.4010 -0.2314
16173W        W20573  16.611   0.643  37.945 -0.3051 -0.0623  0.0594
16174W        W20574  11.954   1.766  39.763  0.2362 -0.0980 -0.3038
16175W        W20575  10.874   3.472   8.652  0.2366 -0.2419  0.0006
16176W        W20576  18.324   1.720  16.108  0.1982  0.1411 -0.0404
16177W        W20577  15.916   4.227  37.808  0.0538  0.0057 -0.0293
16178W        W20578   6.214   2.645   3.254  0.2483 -0.0417 -0.0868
16179W        W20579  18.841   1.727  15.839  0.2212  0.1881  0.1707
16180W        W20580  18.634   5.580  40.455 -0.1106 -0.1880 -0.0433
16181W        W20581   6.527   5.644  38.588  0.1255 -0.0295 -0.2833
16182W        W20582   5.034   2.386  39.062  0.1315 -0.1983  0.0193
16183W        W20583   1.838   3.744  38.238 -0.0468  0.1289  0.1821
16184W        W20584  10.365   6.167  35.112  0.0428  0.2173 -0.0098
16185W        W20585  20.225   3.944  13.109  0.1611  0.3257  0.4685
16186W        W20586   1.841   0.033   3.578  0.1472  0.1377  0.0258
16187W        W20587  12.715   1.863   5.691  0.1807  0.1910  0.4095
16188W        W20588  16.321   1.948  45.006  0.1587 -0.0533  0.1368
16189W        W20589   4.450   0.674  35.289 -0.1167 -0.0113  0.1808
16190W        W20590   8.695   2.644  37.636  0.1714 -0.1909  0.2211
16191W        W20591   3.675   6.060   3.366  0.5248 -0.0570  0.0756
16192W        W20592  17.025   1.753   7.197 -0.1688 -0.0477 -0.0037
16193W        W20593  13.782   4.275  33.898 -0.1713  0.1567 -0.3101
16194W        W20594  13.968   6.003  17.813 -0.1040 -0.0119 -0.0168
16195W        W20595  19.208   5.864   1.129  0.0810 -0.3009 -0.0562
16196W        W20596   2.340   3.308  44.360  0.1023  0.0972  0.2566
16197W        W20597   2.036   2.079   1.036  0.0656 -0.1393  0.0287
16198W        W20598  16.031   1.633   5.578 -0.3274 -0.1172  0.3889
16199W        W20599  10.258   2.311  34.481 -0.0542  0.2805 -0.0336
16200W        W20600   2.191   0.981  22.369 -0.0355 -0.2958  0.0370
16201W        W20601  13.889   1.462  15.560 -0.1901  0.1125  0.0645
16202W        W20602   8.325   2.778  39.041 -0.1004  0.0701  0.3953
16203W        W20603   9.532   5.277  26.876  0.1947 -0.1612  0.0063
16204W        W20604   0.563   5.249  26.573  0.2650  0.1022 -0.1504
16205W        W20605   7.857   4.228  35.046 -0.1241 -0.1359  0.5469
16206W        W20606   8.952   6.002   9.888  0.4210 -0.0005  0.1407
16207W        W20607   4.220   2.303   2.441  0.0488 -0.4068  0.2681
16208W        W20608  15.123   3.261  45.036  0.2057 -0.1936  0.1493
16209W        W20609  15.288   0.246  35.486  0.0825  0.1897  0.0373
16210W        W20610  14.051   1.353  37.570 -0.2454  0.2875 -0.4705
16211W        W20611  16.560   4.936  37.281  0.1729  0.0642  0.1699
16212W        W20612   0.462   1.731  16.589  0.1134 -0.0418 -0.0492
16213W        W20613   3.720   5.536  31.413  0.1000  0.4045 -0.1939
16214W        W20614  14.955   1.690  17.224 -0.0069  0.0428  0.0767
16215W        W20615   4.802   5.633  33.216  0.2585  0.0109  0.0246
16216W        W20616  14.983   5.899  39.675  0.0759  0.3795 -0.2967
16217W        W20617   8.231   2.756  42.542 -0.0595 -0.2653 -0.1756
16218W        W20618  19.683   3.284  28.635 -0.2198  0.1220  0.0854
16219W        W20619  11.236   4.452  39.573 -0.0572 -0.1804 -0.2430
16220W        W20620   7.726   2.727  44.401 -0.0067 -0.1181 -0.0490
16221W        W20621   2.293   2.076   7.781 -0.2938 -0.2613 -0.2534
16222W        W20622   1.230   6.499  42.229 -0.1563  0.2632  0.1584
16223W        W20623  16.060   2.572  19.408  0.0359 -0.2434  0.0056
16224W        W20624   4.189   2.056  37.764  0.0928 -0.3123 -0.0954
16225W        W20625   4.517   1.247  29.627  0.1802  0.0062  0.1277
16226W        W20626  12.340   3.971  20.958  0.0153  0.0803  0.0810
16227W        W20627   9.467   0.227  36.912  0.0353 -0.0377 -0.0179
16228W        W20628   4.945   1.880  22.389  0.4841  0.1516 -0.3062
16229W        W20629  10.368   0.405  37.646 -0.1080 -0.0851  0.2092
16230W        W20630   7.094   5.156  44.199  0.4872  0.1570 -0.1297
16231W        W20631   7.602   2.303  37.041 -0.1278 -0.1081 -0.0333
16232W        W20632   7.133   2.357  37.918  0.0696  0.0200  0.1818
16233W        W20633   7.726   0.217  38.612  0.1080  0.2005  0.1132
16234W        W20634   3.427   1.952  31.741  0.1427  0.1107 -0.0638
16235W        W20635  13.537   2.412  28.831  0.1149  0.0709  0.1609
16236W        W20636  13.878   2.381  40.318 -0.2126 -0.3171  0.1770
16237W        W20637  15.138   2.687  23.448 -0.0676 -0.2044  0.0493
16238W        W20638  17.339   0.570  29.186  0.0235 -0.1460  0.0219
16239W        W20639  18.011   5.224  14.400  0.2040 -0.0684  0.0932
16240W        W20640  16.377   4.194  17.568  0.0587  0.1097  0.1665
16241W        W20641   1.827   4.791  28.995 -0.0825  0.1549  0.2607
16242W        W20642  14.685   4.145  42.471 -0.2163 -0.1849 -0.0984
16243W        W20643  20.217   5.581  16.684 -0.0084 -0.1327 -0.0523
16244W        W20644   7.472   2.851  43.361 -0.1435  0.0185  0.1925
16245W        W20645   2.064   5.945  11.023 -0.1151  0.1369  0.2396
16246W        W20646  10.748   1.583  10.207  0.0797 -0.0621  0.0070
16247W        W20647  10.706   5.800  10.771  0.1294 -0.0377 -0.1646
16248W        W20648   1.285   6.160   9.135 -0.1165 -0.0844 -0.0154
16249W        W20649  12.636   3.807  16.072  0.4754  0.2161  0.1530
16250W        W20650  10.677   3.580  16.122  0.3010  0.0472  0.3336
16251W        W20651  16.755   5.776  18.952 -0.1207  0.0178 -0.2175
16252W        W20652  14.900   0.839  30.791 -0.2940 -0.0624  0.1105
16253W        W20653  16.246   3.809  37.990 -0.4021 -0.0978 -0.1903
16254W        W20654  19.005   2.150  35.776 -0.1283  0.1148 -0.1850
16255W        W20655  19.510   3.765  28.699  0.1595  0.2559  0.2878
16256W        W20656  18.442   5.368  42.258  0.2044 -0.1043 -0.0448
16257W        W20657  11.590   2.152   8.533  0.0669  0.0479  0.0301
16258W        W20658  17.082   3.975   5.196  0.1420 -0.1495  0.2592
16259W        W20659  21.161   6.015  39.403  0.0970  0.0693  0.3342
16260W        W20660   1.156   2.404  37.135 -0.0729  0.3955 -0.2836
16261W        W20661   1.678   3.530  38.654  0.2043 -0.1447 -0.1117
16262W        W20662  14.928   2.251  41.537  0.4167 -0.2474 -0.1535
16263W        W20663   1.079   4.749  33.656 -0.1909 -0.4589 -0.3282
16264W        W20664   2.290   3.155   5.602  0.0325  0.1037 -0.0826
16265W        W20665  14.626   2.763  10.981  0.2539  0.2956  0.2377
16266W        W20666  13.737   3.730  15.351  0.1729 -0.3653 -0.2134
16267W        W20667  12.548   5.100  30.402  0.0481  0.0920 -0.0419
16268W        W20668  12.682   2.504  35.173 -0.1521  0.0148  0.1634
16269W        W20669  10.451   1.256  16.753  0.0537 -0.0287  0.0027
16270W        W20670   0.312   3.772  42.670  0.0982 -0.1641  0.4388
16271W        W20671  11.764   5.987  19.791 -0.1332 -0.3885  0.2643
16272W        W20672   1.176   0.828   1.480 -0.3488  0.2620  0.1995
16273W        W20673  16.099   3.415   9.385  0.3807 -0.0268  0.0510
16274W        W20674   7.107   5.694  29.054 -0.2084 -0.0770 -0.3817
16275W        W20675  14.675   2.570  29.991  0.2592 -0.0468  0.3813
16276W        W20676   9.391   0.131  17.822  0.3984 -0.1435 -0.0926
16277W        W20677   4.604   0.151  27.501  0.0331 -0.0389 -0.1192
16278W        W20678   5.525   6.482  25.611 -0.2237  0.0246 -0.0628
16279W        W20679   7.230   3.936  27.966  0.2456 -0.2550 -0.1733
16280W        W20680  12.500   4.192  38.141 -0.4238  0.0792 -0.3746
16281W        W20681   8.503   3.668  27.185  0.1409 -0.1391 -0.1746
16282W        W20682   7.503   3.623  30.766  0.0760 -0.1197 -0.4603
16283W        W20683   4.508   5.043  32.620 -0.2533  0.0580 -0.1537
16284W        W20684  15.750   6.027  35.610  0.1438  0.2183 -0.0023
16285W        W20685   2.908   1.739  13.198 -0.0426  0.2236 -0.2007
16286W        W20686  14.263   0.732  34.689 -0.0734 -0.0707 -0.2358
16287W        W20687  17.069   2.165  11.581 -0.0437 -0.0228  0.2609
16288W        W20688  15.525   5.569  29.719  0.0756 -0.1913 -0.2018
16289W        W20689  14.650   0.012   7.652 -0.1351 -0.1648 -0.0026
16290W        W20690  17.228   1.706  33.792 -0.0844  0.0572 -0.1311
16291W        W20691  17.506   2.908   3.115  0.1923 -0.2748 -0.0703
16292W        W20692   3.046   6.480   0.004 -0.0388 -0.0641  0.2156
16293W        W20693   0.202   6.125   4.303 -0.3203  0.0899 -0.1714
16294W        W20694  20.280   1.202  41.611  0.0199  0.2324  0.0201
16295W        W20695  18.249   6.322   8.577  0.0540 -0.0533  0.4869
16296W        W20696  16.786   3.533  12.121  0.0269  0.0274  0.0291
16297W        W20697   2.474   3.504  27.664  0.1776  0.1671  0.0015
16298W        W20698   2.040   1.846   3.646  0.2250 -0.2360  0.2203
16299W        W20699  20.498   0.330   9.042 -0.2345 -0.1491  0.0230
16300W        W20700   3.715   3.978  36.084  0.0301  0.0089  0.0506
16301W        W20701  14.144   5.520  22.659  0.0041  0.0864 -0.0858
16302W        W20702  16.859   5.356  16.097  0.1858  0.0055  0.0746
16303W        W20703   6.157   3.687  36.918 -0.1221 -0.2785  0.1184
16304W        W20704  19.006   1.219  12.772 -0.1423 -0.0191  0.0824
16305W        W20705  19.129   2.244  35.301  0.0538  0.3866  0.0392
16306W        W20706  12.179   4.467  13.315  0.0925 -0.4192 -0.0687
16307W        W20707   1.945   4.445  38.952  0.0232 -0.0455  0.0828
16308W        W20708  12.231   6.139  20.413 -0.1305 -0.3349  0.1523
16309W        W20709   8.899   0.347  41.258 -0.2090 -0.2580  0.0331
16310W        W20710   7.000   5.183   6.180  0.0953 -0.0917  0.0596
16311W        W20711   3.612   6.278  26.381 -0.0409 -0.2718  0.1298
16312W        W20712   6.351   3.966   5.655 -0.2342  0.0389  0.0339
16313W        W20713  10.682   2.375  37.487 -0.1875  0.2090 -0.1216
16314W        W20714  15.608   5.172  38.125 -0.0011 -0.1514 -0.1646
16315W        W20715   7.082   1.450   8.039  0.0696 -0.1059 -0.1105
16316W        W20716   2.596   1.810  24.930  0.0667 -0.1479 -0.0409
16317W        W20717  19.445   5.752  40.271 -0.3236  0.2320 -0.1320
16318W        W20718  12.733   4.255   6.209  0.1529 -0.0601  0.0109
16319W        W20719  17.542   5.346  12.290 -0.0274  0.0338  0.2366
16320W        W20720  11.052   2.132  35.219  0.0079 -0.0408  0.0820
16321W        W20721   5.709   5.644  24.373 -0.1475 -0.0606 -0.0890
16322W        W20722  10.358   2.904   6.039  0.2725  0.1075 -0.2233
16323W        W20723   5.073   5.633   4.257 -0.0700 -0.1585 -0.0990
16324W        W20724  17.384   1.248  15.062 -0.0045 -0.2553  0.1022
16325W        W20725  19.591   4.381  42.276  0.0580 -0.0567  0.1024
16326W        W20726   9.258   3.417  14.137  0.1052  0.1946  0.0278
16327W        W20727  11.253   2.282  20.508  0.3465 -0.3154 -0.0540
16328W        W20728  21.040   6.281   6.287 -0.0714  0.1436 -0.0243
16329W        W20729   0.493   6.565  37.544 -0.3080 -0.0787 -0.1891
16330W        W20730  20.074   3.238  39.548 -0.0762 -0.0250 -0.1247
16331W        W20731   9.980   5.481  14.529  0.0846  0.1503  0.1088
16332W        W20732   3.059   4.258  42.005  0.1483  0.1002 -0.0564
16333W        W20733  10.426   0.873  44.463 -0.0678 -0.0150 -0.1369
16334W        W20734  15.049   5.197  16.155 -0.1472  0.0162 -0.0384
16335W        W20735  20.174   5.179  14.369 -0.1080 -0.1468  0.1186
16336W        W20736  11.127   4.158  41.479 -0.1204 -0.4316 -0.0303
16337W        W20737   1.935   6.129  42.031  0.0915 -0.1908 -0.0399
16338W        W20738  18.183   1.985  39.097  0.1773 -0.0777 -0.0390
16339W        W20739  20.337   2.565  38.334 -0.1189  0.1902 -0.0640
16340W        W20740   8.509   0.305  39.555  0.1543  0.2320 -0.0956
16341W        W20741  11.273   5.102  43.625 -0.0347  0.0061 -0.0072
16342W        W20742   6.044   5.666  10.398  0.3353 -0.1306  0.1592
16343W        W20743  14.256   1.354  32.144  0.1967 -0.1415 -0.1433
16344W        W20744  15.802   5.008  13.425 -0.2057 -0.1629 -0.0075
16345W        W20745  18.194   1.419  43.103 -0.2975  0.0574 -0.0970
16346W        W20746  17.238   4.496  34.433  0.1148  0.1888  0.1098
16347W        W20747   7.979   1.369  28.002  0.0514 -0.4090  0.0710
16348W        W20748  18.975   1.553  31.546  0.1657 -0.1040  0.4293
16349W        W20749   6.954   6.170  44.201  0.2392  0.0311 -0.1303
16350W        W20750   4.243   3.708  12.621  0.1081  0.0186 -0.0185
16351W        W20751   5.021   6.267  15.316  0.0550 -0.1496 -0.1028
16352W        W20752   9.955   6.577  28.529  0.3672  0.1643  0.1892
16353W        W20753   8.954   4.104   6.353 -0.1951 -0.3317  0.1453
16354W        W20754   7.868   5.954   1.684 -0.0239 -0.0668  0.0701
16355W        W20755  15.437   5.621   2.180 -0.0768 -0.1690  0.2594
16356W        W20756   5.506   5.043  40.337 -0.2076 -0.0448 -0.3132
16357W        W20757   5.360   2.472   9.269 -0.2950 -0.1253  0.0103
16358W        W20758   7.148   2.921  27.564 -0.0609 -0.0354 -0.1546
16359W        W20759   7.740   3.497   5.350 -0.1523 -0.1776 -0.0025
16360W        W20760  13.646   4.362  44.944 -0.0991 -0.0722  0.0179
16361W        W20761  12.251   2.700  33.472 -0.1077  0.1539  0.0398
16362W        W20762   0.998   4.280  31.625  0.2554  0.2902 -0.2580
16363W        W20763  19.814   6.586  28.688 -0.3201  0.0065 -0.0079
16364W        W20764  17.655   5.593  32.421  0.2335  0.1875  0.1082
16365W        W20765  11.311   1.032  28.903  0.4065  0.0990  0.2552
16366W        W20766   1.032   5.457  43.411 -0.1415  0.3272 -0.3195
16367W        W20767  14.807   3.911  34.811  0.0662  0.0555  0.1422
16368W        W20768  10.557   4.543  16.383  0.0667 -0.0641  0.0043
16369W        W20769  11.835   1.106  44.244 -0.0931  0.2701 -0.0901
16370W        W20770   4.702   5.731   8.101 -0.0121 -0.3454  0.0430
16371W        W20771   4.126   0.199  33.707  0.0870 -0.0020  0.2380
16372W        W20772   8.461   1.926  39.133  0.1943  0.2028  0.2267
16373W        W20773  15.097   4.844  10.364  0.0798 -0.0806  0.1130
16374W        W20774   0.656   0.496  36.323  0.0686 -0.0634 -0.0258
16375W        W20775  14.881   5.223  42.424  0.0119 -0.0840  0.0979
16376W        W20776  12.768   3.802  40.496 -0.0507 -0.0774  0.0044
16377W        W20777   9.596   2.132  30.838  0.2876 -0.3794  0.1106
16378W        W20778  10.909   0.785  17.410 -0.0370  0.0410 -0.0854
16379W        W20779  13.719   1.602  35.549 -0.0895  0.5100  0.0709
16380W        W20780   6.214   3.618  14.623  0.0714 -0.1683  0.2282
16381W        W20781  20.788   4.266  35.502  0.0029  0.0860 -0.0160
16382W        W20782   6.880   4.487  16.554 -0.3652  0.1806  0.1090
16383W        W20783  13.470   6.321  34.179 -0.1403 -0.5122  0.0747
16384W        W20784  16.338   6.374  19.661  0.0021 -0.1604  0.1142
16385W        W20785   0.269   6.322   0.808 -0.3254 -0.0644 -0.1263
16386W        W20786   4.083   4.894  40.183  0.1338 -0.1101  0.2252
16387W        W20787   1.458   1.174  44.343  0.0823 -0.1626 -0.3095
16388W        W20788  12.143   5.509  17.617 -0.1792  0.3038 -0.1067
16389W        W20789  18.632   6.281  16.850 -0.0050  0.1246  0.1408
16390W        W20790   9.828   2.090  43.902  0.1819  0.2168  0.1549
16391W        W20791   1.349   4.179  32.564 -0.0966 -0.0493  0.3198
16392W        W20792   0.572   2.006  27.457 -0.0885  0.2761  0.1416
16393W        W20793   6.215   3.281  27.939  0.0185 -0.0672  0.4098
16394W        W20794   0.518   1.656  30.602  0.4216  0.2943  0.0911
16395W        W20795  12.868   6.555  29.875 -0.0120 -0.0103  0.0671
16396W        W20796   4.200   0.104  40.716  0.1176  0.0491 -0.1110
16397W        W20797   5.595   3.274  38.846 -0.1207 -0.2908  0.2360
16398W        W20798  11.492   0.852   8.859  0.0799 -0.2438  0.2457
16399W        W20799  13.692   4.077  42.568 -0.0377  0.1462 -0.0040
16400W        W20800  19.387   1.477   1.495 -0.0395 -0.0734 -0.1095
16401W        W20801   8.461   3.660  43.877 -0.2159  0.0856  0.1295
16402W        W20802  11.611   5.599  16.301 -0.1895  0.0459  0.1963
16403W        W20803  14.015   6.177  41.249  0.1038 -0.3610  0.1244
16404W        W20804  18.402   3.916  30.668 -0.1624  0.0381  0.0406
16405W        W20805   3.042   5.589  44.547  0.0545  0.1494 -0.0118
16406W        W20806  12.099   0.031   5.176  0.0673 -0.1251  0.2308
16407W        W20807   6.654   5.991  12.297 -0.2018  0.1609  0.2136
16408W        W20808   0.208   2.342  13.686 -0.0273  0.2305 -0.1513
16409W        W20809   7.034   5.527  38.479  0.0578  0.1370  0.0168
16410W        W20810  16.045   2.946  37.739 -0.2987  0.1028  0.1956
16411W        W20811  11.884   5.834  32.455  0.1481 -0.1685 -0.1387
16412W        W20812   1.491   6.233  44.401 -0.1485  0.1136 -0.0846
16413W        W20813   3.805   2.725  35.897  0.1345  0.1592  0.0099
16414W        W20814   8.762   2.982  29.638  0.1366 -0.0355 -0.0402
16415W        W20815   3.599   1.783  12.938 -0.0781  0.0214  0.0832
16416W        W20816   6.619   4.740  10.142  0.0021  0.0724  0.1240
16417W        W20817   4.736   3.534  11.136 -0.1303  0.1987  0.1092
16418W        W20818  17.420   1.633   8.211  0.2698  0.1526 -0.0974
16419W        W20819  10.043   2.903  34.745  0.0386  0.0862  0.0007
16420W        W20820   2.600   6.200  35.592  0.0893 -0.0359  0.0672
16421W        W20821  16.564   4.861  35.835  0.0312 -0.3347  0.0191
16422W        W20822   7.766   4.469  38.760  0.1949 -0.2510 -0.2902
16423W        W20823  14.455   3.472  41.493 -0.1760 -0.4818 -0.0352
16424W        W20824  19.194   6.263  10.535  0.0662  0.1263  0.0892
16425W        W20825   3.119   2.579  30.394  0.1713 -0.0925  0.0392
16426W        W20826  11.516   2.316   6.500  0.1721 -0.1260 -0.0198
16427W        W20827  19.318   0.948  43.066  0.0809  0.1424 -0.3729
16428W        W20828   0.782   1.247  10.381  0.1985 -0.2728 -0.0891
16429W        W20829   3.693   2.455  35.461  0.2772 -0.0093  0.1717
16430W        W20830  20.639   3.100  12.081  0.1734  0.1163  0.2272
16431W        W20831  13.082   4.463   2.277 -0.1986  0.2712 -0.2484
16432W        W20832  20.932   4.692   9.738  0.1294  0.0625 -0.2233
16433W        W20833  11.940   3.554  10.758 -0.1144 -0.2993  0.2250
16434W        W20834  20.234   3.071  35.088  0.2273  0.1879 -0.1565
16435W        W20835   1.778   3.223   8.325  0.0227  0.1285  0.2339
16436W        W20836   6.096   2.813  14.770  0.0823  0.1014  0.3330
16437W        W20837   6.309   0.795  11.917 -0.1444  0.0991  0.3282
16438W        W20838  13.967   0.593  43.478  0.0150  0.0128 -0.0378
16439W        W20839  19.174   5.488   8.184  0.0376 -0.1676  0.3837
16440W        W20840   7.144   5.095   0.063 -0.2924 -0.0455  0.2272
16441W        W20841   2.243   2.221  24.886 -0.1311  0.1975  0.0296
16442W        W20842  12.891   3.396   0.289 -0.3723  0.0489 -0.1119
16443W        W20843  10.240   5.867  13.235 -0.1197 -0.2919  0.2325
16444W        W20844  18.384   1.018  38.503  0.1380 -0.0896  0.0496
16445W        W20845  14.088   5.653  30.465 -0.2240  0.1056  0.2615
16446W        W20846  11.671   4.176  34.620 -0.0723  0.0812 -0.0794
16447W        W20847  16.292   0.789  36.182 -0.1204 -0.1787  0.1559
16448W        W20848  20.943   4.232  26.254 -0.2304  0.2482  0.1437
16449W        W20849  10.049   0.804  38.771  0.1043 -0.0609 -0.0300
16450W        W20850  19.002   4.076   1.590 -0.1358  0.0074 -0.4549
16451W        W20851  20.043   4.273  41.498 -0.1014  0.0501 -0.3620
16452W        W20852  16.290   5.411  38.663  0.2493 -0.3612 -0.2934
16453W        W20853  19.917   4.189  33.826 -0.1854 -0.0261 -0.0784
16454W        W20854  16.808   0.008   0.563 -0.3045 -0.1020  0.1268
16455W        W20855  14.130   3.177   1.991 -0.2874  0.0239  0.0311
16456W        W20856   4.556   1.704  15.698 -0.0186  0.0244  0.1435
16457W        W20857   0.968   3.144   5.060  0.0098  0.0397  0.1287
16458W        W20858   5.347   2.468  34.127  0.0381  0.2288 -0.0048
16459W        W20859   6.805   3.309  26.061 -0.3196  0.2171  0.0542
16460W        W20860   2.598   6.532   1.915  0.3517 -0.0939  0.1255
16461W        W20861   8.125   5.785   7.342 -0.0560 -0.1067 -0.1686
16462W        W20862   0.229   5.876  14.661 -0.1744 -0.2169  0.1123
16463W        W20863  19.507   6.289  12.430 -0.1855  0.3072 -0.2425
16464W        W20864   6.757   4.047  33.645  0.0553  0.0528  0.0164
16465W        W20865  11.838   5.219  39.504  0.1349 -0.0262 -0.0317
16466W        W20866  10.801   3.228   4.998 -0.4689 -0.1793 -0.3157
16467W        W20867  10.651   0.722  37.366  0.0496 -0.2096 -0.1550
16468W        W20868   2.608   6.574  28.847 -0.0355  0.0079  0.1263
16469W        W20869   3.634   6.420  41.501 -0.1877 -0.0558  0.2360
16470W        W20870  20.380   4.244   3.110 -0.4380 -0.2055  0.2499
16471W        W20871  15.165   3.312   2.757 -0.2361  0.1453  0.3173
16472W        W20872  16.142   2.133  20.756 -0.0710 -0.3626 -0.2083
16473W        W20873   4.937   0.067   1.045  0.1974 -0.1749 -0.4308
16474W        W20874   8.350   4.928   3.239  0.3241  0.0040  0.1724
16475W        W20875   3.669   0.980  25.183  0.5087 -0.2695  0.0517
16476W        W20876   9.203   2.810  30.342  0.1402  0.3185  0.1547
16477W        W20877  14.337   4.609  43.078 -0.1634 -0.0399 -0.0180
16478W        W20878   4.916   3.193  42.981 -0.0144 -0.1741 -0.3834
16479W        W20879   0.065   4.738  34.170  0.1082  0.3015 -0.0254
16480W        W20880  12.859   3.305  44.011  0.1696 -0.0369  0.1321
16481W        W20881  19.908   5.414   3.427 -0.0093 -0.1992 -0.0480
16482W        W20882  11.936   1.268  33.717  0.3006  0.2030 -0.1267
16483W        W20883   5.651   6.004  44.231 -0.1422 -0.1086 -0.1534
16484W        W20884  13.566   4.085   8.755  0.0242 -0.0641 -0.2171
16485W        W20885  19.805   5.265  35.398 -0.1026  0.0772  0.2778
16486W        W20886   3.350   5.332  34.631 -0.0568 -0.0955  0.1142
16487W        W20887   3.866   2.146  41.942 -0.1985  0.0368 -0.3223
16488W        W20888  11.109   2.712   0.473 -0.0343 -0.0739 -0.2437
16489W        W20889   9.655   2.621  36.237 -0.0686  0.2604  0.0211
16490W        W20890  11.286   1.870  28.310 -0.0415 -0.1435 -0.0077
16491W        W20891   3.614   5.043  23.462 -0.1561 -0.1788  0.0360
16492W        W20892  18.430   3.320   8.899 -0.0399  0.2642 -0.1049
16493W        W20893  19.231   6.080  29.380  0.0681  0.0201 -0.1863
16494W        W20894  19.668   0.179  27.390  0.2526 -0.1049 -0.0246
16495W        W20895  11.740   1.432  35.434  0.2437 -0.0545  0.0751
16496W        W20896  20.536   4.299  44.662 -0.0114  0.1439 -0.3445
16497W        W20897  16.544   4.391  39.016  0.3883 -0.1296 -0.1683
16498W        W20898  19.722   6.227  34.922  0.2951  0.0303 -0.3334
16499W        W20899   3.401   0.625  42.047 -0.1485 -0.0931  0.2616
16500W        W20900  20.571   0.329  39.301 -0.1025  0.0117  0.2871
16501W        W20901  17.498   5.708   1.913 -0.2480  0.0093 -0.4103
16502W        W20902  18.504   1.319  41.781 -0.4336 -0.1719 -0.2471
16503W        W20903  16.700   1.559  41.312  0.0219 -0.1829  0.0107
16504W        W20904  15.507   3.186  35.041 -0.0592 -0.2886 -0.0642
16505W        W20905  17.001   6.156  18.474  0.0428 -0.0304  0.0271
16506W        W20906  11.290   0.947  43.789 -0.0197 -0.1552 -0.2088
16507W        W20907  15.049   5.346  36.635  0.1767  0.1151 -0.4799
16508W        W20908   3.343   3.157  23.797 -0.1081 -0.0346  0.0935
16509W        W20909   4.263   4.078  25.580  0.0301 -0.2840 -0.0298
16510W        W20910  20.135   5.636  14.573  0.0319 -0.0828  0.0758
16511W        W20911   7.988   5.290  45.144  0.2413 -0.0863  0.0891
16512W        W20912  11.393   4.017  18.657  0.3097 -0.0364 -0.0826
16513W        W20913  20.477   0.553  36.185  0.1444  0.2032 -0.1239
16514W        W20914   4.838   3.821  35.386 -0.0557 -0.1366 -0.1725
16515W        W20915   7.394   0.856  39.183  0.2007 -0.1709 -0.1395
16516W        W20916   0.795   5.838  45.081  0.2650  0.1522  0.0401
16517W        W20917   0.080   3.278  12.240  0.1217 -0.3217  0.0337
16518W        W20918   0.373   5.270   3.896 -0.1261  0.2501 -0.0363
16519W        W20919  12.623   3.574  37.642 -0.0389  0.0333  0.0252
16520W        W20920  16.865   4.710  31.331  0.3115  0.2700 -0.1835
16521W        W20921  21.146   1.738  43.052  0.2237 -0.1020  0.1789
16522W        W20922   3.077   3.522   0.755  0.2820  0.2589 -0.1250
16523W        W20923  17.005   3.309   8.027 -0.1518 -0.1455  0.1588
16524W        W20924  15.785   0.987  22.805  0.1486  0.2781  0.1195
16525W        W20925  12.751   2.678  37.628  0.1814  0.3809  0.1792
16526W        W20926   5.775   5.713  30.978 -0.0257  0.0573  0.0274
16527W        W20927   9.065   3.054  11.320  0.1340  0.2712  0.1130
16528W        W20928  11.213   4.933  10.669 -0.4647  0.0985  0.0794
16529W        W20929  17.640   2.817   9.173  0.1254 -0.0162 -0.0850
16530W        W20930  16.378   0.671   0.492  0.1656 -0.2532 -0.1853
16531W        W20931   3.722   1.971   1.541  0.0347  0.0117  0.0277
16532W        W20932  17.589   6.315  37.585 -0.0629  0.0176 -0.3349
16533W        W20933   1.391   5.086  37.810  0.3618  0.0392 -0.1750
16534W        W20934   6.288   0.008  42.813  0.3268 -0.0580  0.0614
16535W        W20935  13.995   4.766  22.109  0.1277  0.0693  0.1321
16536W        W20936   2.939   2.035  26.821 -0.0625  0.1146 -0.1323
16537W        W20937   9.303   0.612   2.241 -0.2759  0.0705 -0.0414
16538W        W20938  14.892   4.109  30.156  0.0365 -0.0603 -0.3533
16539W        W20939   4.213   0.766  21.536 -0.0793  0.2282  0.1651
16540W        W20940  15.945   4.773   4.925 -0.0234 -0.0648  0.1351
16541W        W20941   3.904   0.436  21.341  0.2367  0.4747  0.2035
16542W        W20942   0.517   0.227  38.046  0.0319  0.0287  0.1744
16543W        W20943  10.029   0.043  27.540  0.0213 -0.3030  0.1441
16544W        W20944   7.752   6.418  32.087  0.2279 -0.0192  0.0407
16545W        W20945   9.919   2.220   3.163  0.0066 -0.1799 -0.2823
16546W        W20946   1.169   0.146  27.517  0.0500 -0.1187  0.1927
16547W        W20947   4.706   3.756  29.705  0.0330  0.0131  0.2298
16548W        W20948   7.939   3.929  12.661 -0.2420 -0.4218 -0.0518
16549W        W20949  19.141   4.508  11.981  0.0244 -0.0417 -0.1843
16550W        W20950   6.661   5.531   1.748  0.2161 -0.0748 -0.0057
16551W        W20951   9.087   1.996   4.600  0.0323 -0.3212  0.0108
16552W        W20952  15.064   5.124  17.127 -0.1414 -0.1853 -0.2434
16553W        W20953  19.484   5.057   5.005  0.2041  0.1149  0.4641
16554W        W20954   4.740   1.679   1.938  0.0978  0.0663  0.3894
16555W        W20955  20.734   4.404  33.208 -0.0596 -0.1519 -0.0440
16556W        W20956   6.534   5.006  36.428  0.0988  0.0808  0.1773
16557W        W20957  12.283   4.813   5.282  0.1623 -0.2260  0.0807
16558W        W20958  13.536   4.854  34.640 -0.2170  0.0516  0.1208
16559W        W20959  10.085   4.372   8.042 -0.0399  0.1891 -0.0583
16560W        W20960  11.706   3.727  14.150  0.2890 -0.2037 -0.1595
16561W        W20961  18.951   5.863  16.830  0.2246  0.1538  0.1692
16562W        W20962  13.942   1.633  36.028 -0.1066 -0.0945  0.0353
16563W        W20963  14.034   2.596   2.794  0.2470  0.0609 -0.2533
16564W        W20964   9.323   0.110  11.733  0.3058 -0.1840  0.2402
16565W        W20965   3.697   4.114  11.722  0.0080 -0.0628 -0.1601
16566W        W20966   4.757   2.426  43.388  0.1773 -0.1981 -0.1059
16567W        W20967   8.594   2.783  31.654 -0.0446  0.0678  0.1596
16568W        W20968  12.753   3.150  42.291  0.1214  0.1471 -0.3150
16569W        W20969  14.043   1.058   5.957  0.1042 -0.0306  0.1080
16570W        W20970   5.771   4.676  42.576 -0.0435  0.0576  0.1441
16571W        W20971   8.722   1.673   1.771  0.0876  0.0961  0.0889
16572W        W20972   6.158   4.934   3.789  0.0346 -0.3281 -0.1415
16573W        W20973   1.694   1.445   9.525 -0.1760 -0.0505  0.1537
16574W        W20974  13.290   5.687  37.910  0.2259  0.0529  0.2922
16575W        W20975   2.645   1.913  32.483  0.0836  0.1460 -0.1494
16576W        W20976   3.887   5.023  20.485 -0.2907  0.0595  0.1931
16577W        W20977   1.342   4.538  35.416  0.0523  0.1263 -0.0841
16578W        W20978   0.681   4.836   6.005  0.1288 -0.0416  0.1554
16579W        W20979  10.081   3.472  13.511 -0.3005 -0.0323 -0.1816
16580W        W20980   9.886   2.124  44.944 -0.0394  0.4599 -0.1174
16581W        W20981  12.975   4.612   7.924  0.0460  0.0106 -0.0728
16582W        W20982  19.988   1.961  34.500  0.1507 -0.0428  0.2467
16583W        W20983  19.885   5.167  38.705  0.0639  0.2513  0.2090
16584W        W20984  11.144   6.607  11.386 -0.4430 -0.0440  0.2557
16585W        W20985   6.076   0.092  11.019  0.1330 -0.0787  0.0063
16586W        W20986   2.290   3.511   5.985 -0.1199  0.0239 -0.3461
16587W        W20987  12.808   6.474   3.114  0.0439 -0.0260  0.1733
16588W        W20988  14.669   5.828  39.299 -0.0132 -0.1256  0.0843
16589W        W20989   6.284   5.417  26.346 -0.0693  0.1544  0.1704
16590W        W20990   6.333   2.051  35.184  0.1206  0.1237  0.0742
16591W        W20991  19.923   2.704   2.066 -0.2688  0.1602 -0.1066
16592W        W20992   6.262   1.574  40.412  0.2528 -0.3571 -0.0266
16593W        W20993  18.483   3.209  28.282 -0.1293 -0.0538 -0.1331
16594W        W20994   5.105   0.704   5.138  0.0939  0.3278  0.0660
16595W        W20995  11.885   4.723   5.734  0.0061  0.1918 -0.0584
16596W        W20996  17.504   2.094  36.450 -0.1178 -0.0556  0.1174
16597W        W20997   4.482   0.180  15.156 -0.1210  0.3573 -0.1254
16598W        W20998  16.054   5.597  30.506  0.0901 -0.0985  0.0369
16599W        W20999  20.117   2.875  17.068 -0.2588 -0.3727 -0.0333
16600W        W21000   5.160   4.937  26.744  0.0335 -0.2395 -0.0992
16601W        W21001  11.424   6.133  11.563 -0.0115 -0.0382  0.0014
16602W        W21002  18.475   4.039  44.712  0.1893  0.1392 -0.1326
16603W        W21003   7.684   4.022  10.492 -0.0316  0.6548 -0.3584
16604W        W21004   2.789   3.472  44.580  0.0427  0.1255  0.0794
16605W        W21005   7.568   3.853   9.618 -0.1241 -0.0271  0.1368
16606W        W21006   6.424   4.168  35.925 -0.1673 -0.2080 -0.1996
16607W        W21007  10.763   6.562   7.717  0.0831  0.0339  0.0516
16608W        W21008  13.619   2.042  23.816  0.1604  0.0185  0.0319
16609W        W21009  13.712   0.007  15.230  0.0438  0.1556 -0.0067
16610W        W21010   8.581   2.693  26.378  0.1850  0.3028 -0.1616
16611W        W21011  10.194   0.931  17.174  0.0865  0.1455  0.1896
16612W        W21012  12.612   1.724  16.258 -0.3656  0.2232  0.1604
16613W        W21013  15.532   0.601  21.952  0.0607  0.1354 -0.0776
16614W        W21014   5.242   1.329   6.450  0.0046 -0.0888 -0.1383
16615W        W21015   3.399   3.436  43.622 -0.0068  0.3641  0.2570
16616W        W21016   8.812   4.985  42.238 -0.0059 -0.0299 -0.3712
16617W        W21017  13.359   6.190  33.722 -0.1097  0.1779 -0.1589
16618W        W21018  14.253   1.408   4.648 -0.4634 -0.0333 -0.1050
16619W        W21019  11.318   2.096  32.203  0.0272  0.2207  0.0986
16620W        W21020   6.489   5.990   5.610  0.2470 -0.1179  0.0345
16621W        W21021   7.636   4.478   8.292  0.1675 -0.0110 -0.0528
16622W        W21022   5.152   4.234  39.915  0.2279 -0.0763  0.2208
16623W        W21023   6.534   1.547  35.067 -0.1421 -0.0324  0.0464
16624W        W21024   6.696   3.697  14.869  0.0760 -0.3071 -0.1575
16625W        W21025  15.253   0.260  15.069  0.1315 -0.0511  0.0561
16626W        W21026   7.879   4.708  31.825 -0.0375  0.1288  0.0924
16627W        W21027   8.763   6.202  30.625 -0.1471 -0.2728 -0.1513
16628W        W21028   9.480   3.828  27.507  0.0711  0.0557 -0.2533
16629W        W21029   2.109   1.885  36.600  0.1751  0.0700 -0.0423
16630W        W21030  20.587   5.063  41.037 -0.1353  0.1559  0.1813
16631W        W21031   7.698   4.474  14.336  0.0477 -0.0947 -0.0735
16632W        W21032  19.173   6.040  41.736 -0.0009  0.1767 -0.0495
16633W        W21033  15.227   3.522  38.409  0.2352 -0.1130 -0.1747
16634W        W21034  20.392   1.617  16.040  0.2393 -0.0277  0.0892
16635W        W21035  17.788   4.881   7.187 -0.1515  0.1875  0.0858
16636W        W21036   5.813   5.676   3.779 -0.2442 -0.0830 -0.2615
16637W        W21037   2.813   4.967  28.955 -0.0141  0.3292  0.1820
16638W        W21038  18.050   0.180  33.937 -0.1724 -0.0518  0.0692
16639W        W21039   2.874   5.913  31.546  0.0939  0.1102  0.3474
16640W        W21040  16.143   6.332  33.711 -0.0427  0.1878  0.1042
16641W        W21041  12.923   2.056  19.498 -0.1477  0.1838 -0.0216
16642W        W21042   4.129   1.176  21.164  0.1390 -0.0120  0.1981
16643W        W21043  16.814   4.004  14.448  0.2522  0.0432  0.0044
16644W        W21044  18.209   4.984  45.027  0.1228 -0.0003 -0.2838
16645W        W21045   7.372   4.180   3.037  0.0032  0.1743  0.2541
16646W        W21046   2.651   5.653  34.956  0.1666  0.2523 -0.0964
16647W        W21047  13.687   0.792  13.090 -0.1566  0.0485 -0.1965
16648W        W21048   4.655   2.063  26.780  0.1259  0.0536  0.1479
16649W        W21049   7.430   1.013   2.319 -0.1624 -0.3050  0.2201
16650W        W21050  14.811   4.972   9.321 -0.0328  0.0463 -0.3016
16651W        W21051  14.318   0.754   6.206  0.0117 -0.1754  0.2307
16652W        W21052  16.575   6.334  39.996  0.2026 -0.0171 -0.2585
16653W        W21053   8.172   2.795  35.467 -0.0725 -0.0095  0.0184
16654W        W21054   7.579   4.086  33.165  0.0391 -0.1164 -0.0465
16655W        W21055  20.702   3.885  26.589 -0.0123  0.1385  0.0654
16656W        W21056  11.256   0.552   6.394  0.0165  0.0259 -0.4195
16657W        W21057   7.453   0.877   7.426 -0.0104  0.1211  0.2252
16658W        W21058  18.625   0.480  37.670  0.2174  0.1313  0.0433
16659W        W21059   0.626   3.395  25.873  0.2687 -0.2368  0.0717
16660W        W21060   1.028   3.927  28.679 -0.1564  0.1054 -0.1543
16661W        W21061   8.041   3.491  33.830 -0.2225 -0.2536 -0.1444
16662W        W21062   8.495   3.477   1.804 -0.1877  0.0507 -0.0071
16663W        W21063   8.862   1.526  39.876 -0.1212 -0.3087 -0.1882
16664W        W21064   9.854   3.735  29.784  0.1053  0.1775  0.3414
16665W        W21065  16.559   4.764  42.764  0.0628  0.0175  0.2116
16666W        W21066   9.249   3.261  15.062 -0.0944  0.2291 -0.1388
16667W        W21067  15.870   2.441  10.837  0.1575 -0.1555  0.1464
16668W        W21068  19.652   3.830  44.738  0.0052  0.4042 -0.1814
16669W        W21069  11.452   4.579  28.483  0.0038 -0.1263  0.0563
16670W        W21070   0.752   0.897  44.916  0.0549  0.0675  0.0005
16671W        W21071   3.103   5.975  21.473 -0.1847  0.1480 -0.2014
16672W        W21072  19.697   6.601   4.530  0.0370  0.0786 -0.1167
16673W        W21073  10.659   2.921  43.070 -0.1651  0.0707  0.2461
16674W        W21074  20.854   0.729   4.579 -0.0836  0.1263  0.2105
16675W        W21075  20.887   0.843  44.766 -0.1483 -0.1562  0.1937
16676W        W21076   8.634   5.582  38.550  0.0043  0.2436  0.0749
16677W        W21077  17.976   6.558  30.674 -0.2312  0.1882 -0.1660
16678W        W21078  12.504   6.331  13.319  0.1231 -0.1526  0.1964
16679W        W21079  11.740   3.604  18.699  0.0627  0.1434  0.0806
16680W        W21080   0.852   4.376   6.842 -0.0796 -0.1474 -0.0398
16681W        W21081   5.786   0.135   5.415 -0.0240  0.2543  0.1381
16682W        W21082   6.573   1.413  44.410  0.0648 -0.1144  0.0398
16683W        W21083   5.385   5.889   5.563 -0.0705  0.2129 -0.2821
16684W        W21084   3.785   2.740  43.188  0.2393  0.0508 -0.1547
16685W        W21085   8.684   1.343  18.292  0.0888 -0.3260 -0.0899
16686W        W21086   9.816   6.073  43.898 -0.1091  0.1881  0.1517
16687W        W21087  18.771   5.586  39.579 -0.1323  0.0125  0.1542
16688W        W21088   6.887   4.348  14.507 -0.2799  0.2400  0.0457
16689W        W21089   8.402   1.478  10.385  0.1134  0.0115  0.2374
16690W        W21090  12.402   5.800  10.201 -0.1455  0.0411 -0.1726
16691W        W21091   3.022   3.835   5.599  0.1736 -0.0939  0.0110
16692W        W21092   7.691   1.219  33.152  0.0789 -0.0797 -0.3798
16693W        W21093  11.820   4.478  20.404 -0.0604 -0.1056 -0.1923
16694W        W21094   8.136   1.406   1.152 -0.0592  0.0037  0.0268
16695W        W21095   4.844   5.214  29.391  0.3325  0.1747  0.0424
16696W        W21096   5.379   5.016  38.162  0.2924  0.1045 -0.0097
16697W        W21097  20.546   5.955   3.225  0.2410  0.1612 -0.0415
16698W        W21098  21.131   5.253  25.486 -0.3376  0.3267  0.0455
16699W        W21099  10.493   2.177  29.403 -0.0699 -0.1240 -0.0684
16700W        W21100  16.667   6.060  19.452  0.2215 -0.0069 -0.2598
16701W        W21101  17.722   5.451  37.038 -0.2462 -0.0658 -0.0717
16702W        W21102   1.708   5.418  45.094 -0.0296 -0.1731 -0.1001
16703W        W21103  20.981   1.781  11.946  0.0123  0.0645 -0.4108
16704W        W21104  10.826   5.495   9.744 -0.1772  0.1030  0.3928
16705W        W21105  12.519   2.336   7.920  0.1145 -0.0857  0.0563
16706W        W21106   4.163   0.246  42.439 -0.1385 -0.0928  0.1284
16707W        W21107   8.457   2.503  44.170  0.0336  0.2087 -0.1631
16708W        W21108  18.361   6.553  34.355  0.2272  0.2854 -0.2923
16709W        W21109  17.819   4.017  36.246  0.2458  0.4361 -0.3322
16710W        W21110  19.245   1.537  28.954 -0.0737 -0.0745 -0.2441
16711W        W21111   9.632   1.972   5.332  0.2947 -0.0621 -0.1272
16712W        W21112  11.378   1.782  36.726  0.1788  0.2096 -0.0700
16713W        W21113  19.558   1.661   9.250  0.0030  0.1655  0.0958
16714W        W21114  20.591   1.977  15.779  0.1181 -0.2206  0.1274
16715W        W21115   8.972   4.574  14.959 -0.1842  0.0030 -0.2022
16716W        W21116  14.030   5.896  24.001 -0.0784  0.0650  0.0894
16717W        W21117  14.260   1.701  22.516  0.3319 -0.1546 -0.1577
16718W        W21118   1.207   4.556  34.940 -0.4100 -0.0443 -0.1851
16719W        W21119  11.922   1.506   2.544 -0.0856 -0.1911  0.0705
16720W        W21120  11.115   1.888  42.334 -0.0179 -0.3021 -0.0173
16721W        W21121  16.230   6.318  34.649 -0.0842 -0.0919  0.2301
16722W        W21122  11.040   3.102  20.589  0.2872 -0.0503  0.2543
16723W        W21123  12.162   4.110  11.990 -0.3793 -0.4660 -0.0796
16724W        W21124   8.780   4.398  25.335  0.0580 -0.1435 -0.0002
16725W        W21125   5.135   1.439  36.402  0.2975  0.0155 -0.1437
16726W        W21126   6.393   3.973  35.243  0.0487 -0.1531 -0.2922
16727W        W21127  14.528   5.524   9.471 -0.0993  0.1860 -0.1702
16728W        W21128  15.433   0.306  22.691  0.0904  0.2251 -0.0420
16729W        W21129  16.131   2.609  28.784 -0.0741 -0.1046 -0.1093
16730W        W21130   3.660   1.052  26.058  0.2573 -0.1090 -0.2287
16731W        W21131  20.850   0.242  43.544 -0.1717 -0.0630  0.1121
16732W        W21132   3.468   3.099   4.155 -0.0839 -0.0231  0.0057
16733W        W21133  16.281   5.556  18.193  0.4499 -0.0669  0.2426
16734W        W21134   1.046   5.023  27.222 -0.2539 -0.1866 -0.2504
16735W        W21135  12.446   1.098  32.113 -0.0394 -0.0061 -0.1715
16736W        W21136  13.254   4.175  34.500  0.1685 -0.0539 -0.0880
16737W        W21137   5.409   5.689  36.735  0.3067 -0.1926 -0.1019
16738W        W21138   6.521   5.713  44.878 -0.2924  0.3972  0.2945
16739W        W21139  14.519   3.519  32.054  0.1172 -0.0803 -0.0579
16740W        W21140   6.304   5.840  13.500 -0.1537  0.0264  0.0765
16741W        W21141   8.806   4.437   9.960  0.0500 -0.3380 -0.3002
16742W        W21142   9.501   1.686  27.557 -0.0238  0.1936 -0.3236
16743W        W21143   0.114   5.899   1.631  0.1819 -0.0997 -0.2565
16744W        W21144   9.515   2.898  19.126  0.1765 -0.0489 -0.2364
16745W        W21145   8.672   3.435  10.404  0.1200 -0.1738 -0.0430
16746W        W21146   5.393   2.893   1.048 -0.3909  0.1210 -0.2313
16747W        W21147   2.427   5.797  37.388  0.0115 -0.1527 -0.1367
16748W        W21148  10.878   2.476   5.595 -0.1087 -0.0036 -0.1045
16749W        W21149  12.234   4.113  32.080 -0.0154  0.2321 -0.3076
16750W        W21150  13.912   3.962  10.599 -0.2101  0.1874  0.1034
16751W        W21151  20.790   3.910  30.841  0.1331  0.0990 -0.1723
16752W        W21152  13.155   4.255   3.172 -0.1485 -0.2666  0.0592
16753W        W21153  20.846   2.824  41.185  0.2244  0.1768 -0.5092
16754W        W21154   4.064   0.937  12.618 -0.1694 -0.2503  0.3075
16755W        W21155  12.620   3.464  44.512 -0.2205 -0.4376  0.1994
16756W        W21156  16.064   6.268  18.868 -0.0831  0.2161 -0.1300
16757W        W21157   0.877   1.642   4.637 -0.1209  0.0675 -0.0021
16758W        W21158  21.122   5.013  33.549 -0.0020 -0.0970 -0.0831
16759W        W21159   4.923   1.214  27.464  0.1116 -0.4593 -0.0315
16760W        W21160  13.328   0.298  33.024  0.0645 -0.0773  0.0059
16761W        W21161   2.687   1.445  20.356  0.1826  0.0080  0.1373
16762W        W21162   1.250   2.133   6.803 -0.0443  0.2272  0.2636
16763W        W21163  19.568   2.568  13.359 -0.1652 -0.2007 -0.1535
16764W        W21164   1.493   1.282   7.316 -0.3172 -0.0049  0.0951
16765W        W21165  14.215   0.847  43.130  0.1415  0.1088  0.2012
16766W        W21166  14.914   4.651  41.603 -0.0361  0.1014  0.2791
16767W        W21167   5.511   6.008   3.051 -0.1189 -0.1185  0.1108
16768W        W21168  17.569   2.899  34.981  0.0100 -0.0441  0.2448
16769W        W21169  19.611   1.995  41.806  0.1816 -0.1312 -0.1849
16770W        W21170  14.758   4.052  23.114  0.1896 -0.0376  0.3255
16771W        W21171   6.376   2.291  43.898  0.0120 -0.0269  0.2435
16772W        W21172  12.118   1.121   8.629  0.0993  0.0049 -0.2364
16773W        W21173  10.810   6.069   5.000  0.1211 -0.0902 -0.0738
16774W        W21174  10.817   5.582  34.643  0.2428  0.2439 -0.3596
16775W        W21175  14.790   3.139   6.531 -0.1182 -0.2450  0.0254
16776W        W21176  11.797   4.201  40.860  0.0878  0.0512  0.2954
16777W        W21177  14.752   3.256  42.159 -0.0707  0.2277 -0.1054
16778W        W21178   4.559   4.161  28.333 -0.0125  0.0126  0.2071
16779W        W21179  16.437   1.547  38.630  0.0379  0.1003 -0.1993
16780W        W21180  14.982   4.310   2.270 -0.2317  0.3764  0.1939
16781W        W21181   8.695   4.996  11.471 -0.3901 -0.0363 -0.0259
16782W        W21182   4.334   4.336  10.637 -0.2589 -0.3290  0.1600
16783W        W21183  16.874   4.384   7.177 -0.1517  0.1576 -0.0474
16784W        W21184   0.455   3.601   9.922  0.2625  0.1639 -0.0726
16785W        W21185   1.127   1.676  11.015  0.0636  0.2590 -0.0615
16786W        W21186  19.626   0.580  39.711 -0.0323 -0.0030 -0.2127
16787W        W21187   6.165   1.975  30.224 -0.2215  0.2532 -0.0401
16788W        W21188  16.569   3.620  34.710  0.0005  0.0500 -0.1453
16789W        W21189  13.508   2.935   5.189 -0.1377 -0.1206  0.3448
16790W        W21190  12.413   2.600  39.413 -0.1197  0.0908  0.0050
16791W        W21191  12.411   2.009   8.834  0.0922  0.0152 -0.4057
16792W        W21192  14.466   0.918  15.420 -0.1413  0.5238 -0.1238
16793W        W21193   6.959   2.620   5.174  0.1060  0.1647 -0.3785
16794W        W21194   7.999   3.806  35.292  0.1329  0.0939 -0.4507
16795W        W21195   4.527   5.820  25.465  0.1583 -0.1059  0.2884
16796W        W21196   4.869   2.767   9.333 -0.0162 -0.1835 -0.0682
16797W        W21197   6.936   2.880   6.947  0.1524  0.2457  0.0420
16798W        W21198   2.879   4.154   6.768 -0.3003  0.3161  0.0012
16799W        W21199  13.654   5.922  42.144  0.2017  0.1854 -0.0763
16800W        W21200  17.403   2.997  19.032  0.0455  0.0742  0.1127
16801W        W21201   4.270   4.774  14.251  0.1094 -0.0396  0.3533
16802W        W21202   1.607   0.757  24.383 -0.1853  0.0134 -0.1605
16803W        W21203   2.220   1.204  40.056  0.1746 -0.0191  0.0666
16804W        W21204   5.584   2.109   2.328 -0.2266  0.1673 -0.2508
16805W        W21205   0.739   6.116  37.378 -0.0733  0.1603  0.0940
16806W        W21206   0.833   2.716  29.871  0.0815 -0.0757 -0.1946
16807W        W21207  15.704   2.112  13.937  0.0029 -0.1131 -0.2533
16808W        W21208   0.960   3.727  43.050 -0.0607  0.0446  0.1471
16809W        W21209   2.307   0.325  32.354  0.0734  0.0583  0.2273
16810W        W21210  15.226   6.430  18.542  0.0596 -0.0619 -0.1976
16811W        W21211  11.309   1.571  33.364 -0.1186 -0.0620 -0.3153
16812W        W21212   5.065   1.734  12.540 -0.1000  0.2380  0.1763
16813W        W21213  19.666   5.836  29.346 -0.0090 -0.0160  0.0870
16814W        W21214  10.549   4.233   4.465  0.2414  0.1814 -0.0031
16815W        W21215   1.529   3.090   1.940  0.0393  0.0683 -0.2482
16816W        W21216  15.039   4.360  41.990  0.2297 -0.0190  0.0602
16817W        W21217  16.874   6.123  12.414  0.1057 -0.1391  0.1948
16818W        W21218  11.982   1.386  32.964 -0.0595  0.2359  0.0770
16819W        W21219   2.562   6.242   0.004 -0.0624 -0.0131  0.3685
16820W        W21220  14.759   6.593  36.259 -0.0996 -0.2030  0.2196
16821W        W21221   2.586   4.936  27.812  0.2510 -0.1253 -0.0003
16822W        W21222   3.087   6.505  25.911  0.2180  0.4732  0.1873
16823W        W21223   2.215   0.106  40.582  0.1892  0.2111 -0.3767
16824W        W21224   9.069   1.119  15.896  0.2833  0.2438 -0.2370
16825W        W21225   2.062   5.472   3.963  0.1037  0.1346  0.0358
16826W        W21226  17.265   0.180  37.528 -0.1847  0.0007  0.1201
16827W        W21227   5.015   4.220  28.565  0.2130 -0.1231  0.1432
16828W        W21228  15.315   0.588  17.502  0.0721  0.0017 -0.1435
16829W        W21229   2.416   4.057   3.778  0.1124  0.1505  0.4649
16830W        W21230   5.225   4.150   4.173 -0.0728 -0.4384  0.0943
16831W        W21231   3.032   4.337  14.840 -0.1479 -0.0536 -0.3053
16832W        W21232  17.495   0.078   7.490 -0.0970  0.1537  0.1949
16833W        W21233  13.545   2.074  43.039 -0.0620  0.0355 -0.1620
16834W        W21234  10.882   4.715  42.743  0.1628 -0.2767  0.0877
16835W        W21235  20.086   5.143  17.886 -0.1439 -0.1480 -0.1071
16836W        W21236  15.037   1.190  32.844  0.0511 -0.0781 -0.3790
16837W        W21237  17.943   0.278  16.106 -0.2668  0.0867  0.3011
16838W        W21238  17.020   0.058  16.544  0.1493 -0.3085 -0.0615
16839W        W21239  12.735   5.086  43.046 -0.3498  0.0141 -0.3361
16840W        W21240   6.723   4.292  41.026 -0.3699  0.2951 -0.1182
16841W        W21241   9.876   4.209  36.368  0.1369 -0.0902  0.1573
16842W        W21242   0.484   3.087  14.405  0.2404 -0.2209  0.1615
16843W        W21243   2.994   4.257  36.808 -0.1799 -0.0976 -0.1071
16844W        W21244   4.815   0.415  45.093  0.2181 -0.1182 -0.1896
16845W        W21245   7.712   6.470  34.946 -0.1780  0.2383 -0.0197
16846W        W21246   2.822   3.106  32.992  0.0698 -0.0311 -0.0826
16847W        W21247   1.925   0.404  42.776  0.2245 -0.0019 -0.1499
16848W        W21248  16.281   0.859  42.239 -0.1536  0.0213  0.1674
16849W        W21249   9.323   3.560  11.348  0.0423 -0.2151 -0.2167
16850W        W21250  16.852   6.079   9.853  0.0258 -0.1953 -0.0104
16851W        W21251  17.194   3.024   1.174  0.0497  0.0235  0.0175
16852W        W21252  20.333   6.464  12.802  0.0662 -0.2577  0.0328
16853W        W21253   9.256   1.750  27.125  0.1192 -0.3956 -0.1868
16854W        W21254  19.858   0.709  40.760 -0.0403  0.2247  0.1415
16855W        W21255  16.272   4.155  33.570  0.0791 -0.0306 -0.1926
16856W        W21256   2.281   2.333  28.146 -0.0711 -0.0878 -0.0601
16857W        W21257   2.987   3.664  27.633 -0.0263 -0.1873  0.1317
16858W        W21258   3.088   5.057   9.008  0.0657 -0.1030 -0.0921
16859W        W21259  18.175   4.832  29.616 -0.0301  0.3848 -0.0949
16860W        W21260   1.330   4.683  28.934 -0.1659 -0.5337  0.1238
16861W        W21261  14.163   5.547  33.549 -0.0320 -0.2288 -0.0503
16862W        W21262   8.857   5.962  39.344 -0.0602  0.3191  0.2010
16863W        W21263   4.099   3.996   6.002 -0.0697 -0.0935 -0.0030
16864W        W21264  19.180   1.762  36.628 -0.0128 -0.0259  0.0762
16865W        W21265   1.005   5.093  38.247  0.0726 -0.0124  0.0082
16866W        W21266   3.493   3.621  15.509  0.1347 -0.0857 -0.1686
16867W        W21267   1.474   6.115  43.866 -0.0776  0.0022  0.3543
16868W        W21268   0.941   1.481   9.856  0.4511 -0.0185 -0.1822
16869W        W21269   3.180   1.867  22.435  0.1992 -0.3461 -0.1372
16870W        W21270  15.962   3.327  11.284 -0.0882  0.0518  0.4162
16871W        W21271  16.100   5.200   9.368 -0.0668 -0.0689  0.0560
16872W        W21272  18.028   2.959  39.175 -0.2553  0.0587 -0.0334
16873W        W21273   2.035   1.959  33.952 -0.0734  0.3961  0.1532
16874W        W21274   2.963   6.601   5.706  0.1729  0.0489 -0.2978
16875W        W21275  18.093   2.400  29.764 -0.1397  0.0143 -0.3319
16876W        W21276   5.909   4.747  38.920  0.3879  0.2245 -0.2324
16877W        W21277   7.768   3.423   8.403  0.0078 -0.0905 -0.0696
16878W        W21278  13.797   3.005   2.839  0.1045  0.0153  0.1366
16879W        W21279  16.618   0.902   4.480  0.0755  0.1018  0.0497
16880W        W21280  20.409   5.312  40.579  0.1340  0.0050  0.1970
16881W        W21281  17.032   4.974  13.511 -0.1524  0.1473 -0.0468
16882W        W21282   4.115   3.173  10.699 -0.0391 -0.0528  0.2314
16883W        W21283   8.871   5.538  10.776 -0.2007 -0.1124  0.2049
16884W        W21284  11.278   4.895  41.561  0.0328 -0.0459 -0.0600
16885W        W21285  16.842   5.705   3.948  0.1207 -0.1694 -0.0340
16886W        W21286  17.243   1.818  34.298  0.1870  0.0158 -0.0947
16887W        W21287  17.862   1.242   9.870 -0.0037 -0.0291  0.0015
16888W        W21288   2.681   0.891  33.349 -0.1199  0.1690  0.1072
16889W        W21289  14.513   0.994  31.057  0.0953  0.0465 -0.0501
16890W        W21290   5.468   4.302  29.465  0.1999 -0.2878  0.1059
16891W        W21291  16.092   3.235  40.181 -0.0535 -0.1914  0.2804
16892W        W21292  21.160   6.412   6.769  0.0621  0.0323 -0.2031
16893W        W21293   9.986   0.125   9.926  0.0611 -0.1048  0.1087
16894W        W21294  13.777   0.024  35.058  0.4156  0.0172  0.0273
16895W        W21295   4.351   2.050   0.778  0.2515  0.0567 -0.0627
16896W        W21296  14.852   4.495  34.132  0.0538  0.1607 -0.2813
16897W        W21297  17.174   0.191  31.243  0.0214  0.0753 -0.1255
16898W        W21298  20.608   2.543  15.617 -0.0994 -0.0622 -0.1738
16899W        W21299  13.656   0.144   4.853 -0.4131 -0.3985  0.0114
16900W        W21300   0.362   4.651  14.831 -0.1722 -0.1558 -0.3088
16901W        W21301   9.888   0.767  41.702 -0.0756 -0.2056  0.0881
16902W        W21302  14.925   6.369   1.996  0.1753 -0.1436 -0.1477
16903W        W21303  10.899   4.979  30.144  0.0674 -0.0080  0.0344
16904W        W21304   0.481   0.053  39.034 -0.3473  0.0862  0.0847
16905W        W21305  16.043   4.681   2.548  0.0727 -0.0251 -0.3773
16906W        W21306   3.622   4.876   5.277 -0.0010  0.0844  0.2092
16907W        W21307  13.203   4.613  39.498  0.0123 -0.0355  0.0248
16908W        W21308   9.057   3.940  36.956 -0.0382 -0.0832  0.0072
16909W        W21309   0.783   1.614   3.712 -0.1041 -0.0628 -0.2477
16910W        W21310  13.709   4.825  41.774 -0.0506 -0.3228  0.0931
16911W        W21311   2.189   1.513   9.492 -0.0507  0.2828  0.1201
16912W        W21312   0.363   2.529  39.765  0.0069 -0.5175  0.1767
16913W        W21313   0.613   3.032   6.163  0.1481 -0.1599  0.0772
16914W        W21314   6.386   1.156  39.301 -0.1493  0.2407 -0.2368
16915W        W21315   5.870   5.158  15.013 -0.1158 -0.1504 -0.0821
16916W        W21316   2.477   2.749  27.183  0.1966 -0.3238  0.2623
16917W        W21317  20.765   1.621  37.188 -0.0448 -0.1209  0.0928
16918W        W21318  13.155   3.216   6.648  0.0196 -0.1660 -0.1725
16919W        W21319   0.675   1.237   7.575 -0.1726 -0.1216  0.0113
16920W        W21320  11.769   3.163  37.487 -0.3907  0.4889 -0.0401
16921W        W21321   3.571   1.058  13.855  0.0131 -0.0239  0.0023
16922W        W21322  12.417   3.164   5.725 -0.1976  0.1011 -0.1030
16923W        W21323   2.769   1.689   9.190 -0.0098 -0.2130 -0.0569
16924W        W21324  13.473   0.037  29.162  0.0544 -0.2460 -0.1900
16925W        W21325  21.154   2.970   8.968  0.0727 -0.3860 -0.3955
16926W        W21326  18.595   1.668  40.962  0.2201  0.3171 -0.3280
16927W        W21327  18.494   6.033  41.126  0.1151  0.0728 -0.1155
16928W        W21328  10.304   4.184  42.700 -0.1991  0.0698  0.1955
16929W        W21329   1.190   4.273  40.591  0.1790 -0.1081 -0.1800
16930W        W21330  12.154   4.248  39.027 -0.0130  0.1742 -0.2020
16931W        W21331  10.147   2.892  30.515  0.0841  0.1058 -0.3105
16932W        W21332  16.245   4.189  29.876 -0.1327  0.0460  0.0375
16933W        W21333   5.043   3.243   9.419 -0.0064 -0.1922 -0.1285
16934W        W21334   4.055   6.411  44.280  0.0087  0.0351 -0.0636
16935W        W21335  13.733   1.449  41.498 -0.1829  0.6265 -0.0421
16936W        W21336   0.327   5.253  24.422 -0.0103  0.0634  0.1678
16937W        W21337  15.753   5.979  32.060 -0.1378 -0.2545 -0.1046
16938W        W21338   0.415   6.604  40.368 -0.2551 -0.3625 -0.1269
16939W        W21339   6.087   0.336  25.236 -0.0455 -0.1880 -0.0995
16940W        W21340  17.793   3.930   4.307  0.0939  0.0590  0.0733
16941W        W21341  17.822   1.739   8.500  0.1066  0.0039  0.5091
16942W        W21342   5.581   5.463  43.118 -0.3013  0.1006  0.1802
16943W        W21343  17.296   3.501  33.975 -0.0505  0.1506  0.1533
16944W        W21344  18.712   4.557  18.572  0.1599  0.2571 -0.1655
16945W        W21345  10.701   3.560  30.251 -0.1708 -0.2816 -0.0829
16946W        W21346   3.073   3.679  38.867 -0.0997  0.4816  0.0890
16947W        W21347  13.060   3.233   2.096  0.0683 -0.0206  0.2845
16948W        W21348  20.825   2.697  28.735 -0.0264 -0.2820  0.1666
16949W        W21349   5.783   5.125  15.569 -0.1621  0.0864 -0.2055
16950W        W21350  11.102   0.393  13.714  0.2474  0.1595 -0.0396
16951W        W21351   9.482   5.711  26.114  0.0067 -0.1313  0.2145
16952W        W21352  18.266   1.705  34.524  0.0331 -0.0617 -0.1760
16953W        W21353   6.993   4.750  34.034 -0.0405  0.1015 -0.0926
16954W        W21354   7.995   1.454  36.594  0.0960  0.1158  0.2564
16955W        W21355  19.467   6.241  40.242 -0.0534 -0.2758 -0.2051
16956W        W21356   7.028   4.577  25.841 -0.1022 -0.2650  0.0074
16957W        W21357  19.047   0.444  41.450 -0.1213 -0.0805  0.0908
16958W        W21358  18.605   1.287  17.279 -0.1147 -0.0203  0.1117
16959W        W21359  13.363   0.698  31.405  0.0380  0.2944  0.0775
16960W        W21360  19.122   0.307   9.969  0.0126 -0.3227 -0.1246
16961W        W21361  14.171   5.341  44.622 -0.0540 -0.0184  0.1272
16962W        W21362   0.695   4.246   7.896  0.1177  0.4123  0.1446
16963W        W21363  18.844   4.090   4.652  0.2654  0.0478 -0.0599
16964W        W21364   3.970   4.403  31.501 -0.0950  0.1519 -0.2007
16965W        W21365   0.968   0.037  37.408 -0.1973  0.0662  0.2255
16966W        W21366  10.382   0.884  34.435  0.1230 -0.0185  0.1947
16967W        W21367   6.892   2.437  11.253 -0.2191  0.0642 -0.0826
16968W        W21368   4.630   5.659  38.608  0.1271 -0.1358  0.0083
16969W        W21369   4.784   3.581   9.814  0.2647  0.2542 -0.0416
16970W        W21370  20.436   1.983  12.715 -0.0140 -0.0797  0.0263
16971W        W21371   6.200   0.840   8.719 -0.1114  0.1462 -0.0209
16972W        W21372   5.537   5.176  34.433  0.1377 -0.0591  0.0396
16973W        W21373  12.216   1.343  16.003 -0.3823 -0.2827  0.2320
16974W        W21374   2.637   2.569  26.385 -0.1740 -0.0074 -0.5639
16975W        W21375  21.071   2.576  34.539  0.0988  0.3626  0.1449
16976W        W21376  16.296   6.338   3.438  0.2240  0.1871 -0.2982
16977W        W21377  20.113   4.423  37.797 -0.1990  0.0463 -0.1468
16978W        W21378   2.897   1.748  39.860  0.2635 -0.0499  0.4229
16979W        W21379  10.931   4.820   8.469 -0.2308 -0.1992  0.2661
16980W        W21380  14.761   0.619   2.976 -0.1969  0.1430  0.2070
16981W        W21381  10.154   3.129   6.622  0.0842 -0.0259  0.2645
16982W        W21382  18.674   4.196  17.491  0.0595 -0.1218 -0.1349
16983W        W21383  17.939   2.311  12.571  0.1000 -0.1400 -0.0502
16984W        W21384  14.689   1.302  16.996  0.2353  0.2242  0.0050
16985W        W21385   8.666   0.789  41.282  0.0690 -0.0093 -0.1554
16986W        W21386   3.875   4.130  41.663 -0.0031  0.0677 -0.1167
16987W        W21387   5.350   2.301   6.695  0.2523 -0.1534 -0.1382
16988W        W21388  13.141   4.928   0.598 -0.1736 -0.2968  0.4805
16989W        W21389   7.871   1.763  34.588 -0.1406  0.2269  0.2076
16990W        W21390  18.006   4.907  41.644  0.0510 -0.3695 -0.2985
16991W        W21391   0.202   5.193  16.136 -0.1526 -0.0846  0.1925
16992W        W21392   4.495   1.615  42.553  0.1618  0.0321 -0.1616
16993W        W21393   4.589   4.289  36.229  0.0579 -0.1708 -0.2876
16994W        W21394  13.644   3.784  33.829 -0.0092 -0.1005  0.0299
16995W        W21395  19.929   5.212  11.000 -0.0590 -0.6076 -0.0020
16996W        W21396   1.335   6.447  40.619 -0.1507  0.1135 -0.2580
16997W        W21397  11.918   3.509  42.177  0.0899  0.2095 -0.0329
16998W        W21398  14.014   4.074  15.634 -0.4774  0.1893 -0.0237
16999W        W21399   1.440   5.237  15.087 -0.0688 -0.0506 -0.0290
17000W        W21400  18.693   4.019  15.834 -0.0744 -0.0967 -0.3118
17001W        W21401  20.653   4.492  10.188 -0.0106 -0.2644 -0.1676
17002W        W21402  16.562   6.592   1.536 -0.0895 -0.2271 -0.0904
17003W        W21403  20.718   1.440   0.910 -0.1410 -0.0716  0.0205
17004W        W21404   9.761   1.892   8.929  0.1500  0.1396  0.0545
17005W        W21405  11.874   3.327  15.989  0.1401 -0.0430 -0.1632
17006W        W21406  16.609   2.746  16.561  0.3987 -0.4306  0.1077
17007W        W21407   9.169   0.872  29.737 -0.1782  0.0939 -0.0893
17008W        W21408  18.655   0.256   9.206  0.0836 -0.2847  0.0536
17009W        W21409   7.702   1.117  31.433 -0.1171  0.1117 -0.0942
17010W        W21410  12.828   0.656  22.336 -0.0794  0.3019 -0.3709
17011W        W21411  16.352   2.292  30.917  0.2232 -0.0877 -0.0730
17012W        W21412   5.806   6.370  26.068  0.3543  0.1114 -0.0190
17013W        W21413  15.441   5.506   9.829 -0.0864  0.2731 -0.2218
17014W        W21414   4.405   5.556  40.896  0.2837  0.1136  0.3300
17015W        W21415   5.007   5.275  24.195 -0.0614 -0.0786  0.1637
17016W        W21416  19.326   1.299  31.840  0.2301  0.0173 -0.1896
17017W        W21417   0.964   2.116   3.755 -0.0825  0.0427  0.1986
17018W        W21418   8.078   5.461   8.805  0.1453  0.1154  0.1264
17019W        W21419   8.788   6.022   3.816  0.0613 -0.0831  0.1711
17020W        W21420   5.053   2.999   2.569  0.0931 -0.1804  0.0065
17021W        W21421   0.084   1.904  29.720  0.2003 -0.0752 -0.1621
17022W        W21422   8.229   2.951   2.687 -0.4330 -0.1072  0.0917
17023W        W21423   3.141   0.458  29.167 -0.1573  0.1421 -0.1323
17024W        W21424  19.852   4.202  16.060 -0.0315  0.0256 -0.3583
17025W        W21425  16.208   2.294  44.156  0.1334 -0.0332 -0.0669
17026W        W21426   7.019   3.089  14.314 -0.0353  0.0301 -0.0538
17027W        W21427  16.229   5.908   7.227 -0.3183 -0.1221  0.0545
17028W        W21428  16.730   4.519   8.829 -0.1602  0.0881  0.0395
17029W        W21429  18.893   5.799  36.374  0.2881  0.2901 -0.2706
17030W        W21430   9.994   4.151  17.874 -0.1923 -0.2620 -0.0580
17031W        W21431  17.581   1.482  18.155  0.1954 -0.0469  0.1064
17032W        W21432  19.794   1.861  14.725 -0.1336 -0.3402 -0.0157
17033W        W21433  14.857   1.096  35.140 -0.0186  0.0845 -0.2444
17034W        W21434  18.825   3.938  10.505  0.4048 -0.0722 -0.0183
17035W        W21435   6.321   1.673   5.750  0.1392  0.1579  0.1399
17036W        W21436   1.587   5.136   6.048  0.0409  0.2018  0.0940
17037W        W21437  13.054   4.573   1.128 -0.0859 -0.0871 -0.0119
17038W        W21438   0.984   6.541   8.716  0.2310  0.1279 -0.1361
17039W        W21439  20.088   4.491  10.286 -0.0623 -0.0038 -0.1423
17040W        W21440  14.169   3.895  39.005 -0.0216 -0.2292 -0.0807
17041W        W21441  13.940   1.629  23.920 -0.0427  0.3145  0.1830
17042W        W21442   2.152   3.937  12.415  0.2150 -0.0366 -0.2722
17043W        W21443  16.598   3.573  37.710 -0.0151  0.0121  0.0079
17044W        W21444  16.789   1.411  39.477 -0.1341  0.0526 -0.2400
17045W        W21445   9.285   2.436  40.668 -0.1644  0.1583 -0.2993
17046W        W21446  15.828   2.635  45.068  0.0650 -0.2062  0.1067
17047W        W21447   2.120   0.366   1.292 -0.2909  0.3607 -0.0754
17048W        W21448  12.084   6.332  21.860 -0.0993 -0.3176  0.0334
17049W        W21449  16.530   4.506  36.167 -0.0494 -0.1594  0.0751
17050W        W21450  16.302   4.440  19.487 -0.2025  0.1742 -0.0632
17051W        W21451   7.561   5.986   3.027  0.0666  0.1619 -0.0659
17052W        W21452   4.331   1.921   2.802  0.0728 -0.1282 -0.2609
17053W        W21453   3.707   1.277   2.503 -0.0599  0.0482  0.2251
17054W        W21454   4.001   0.860  45.014  0.1263 -0.1681  0.0960
17055W        W21455  19.601   0.392  37.560 -0.1044 -0.0815  0.1387
17056W        W21456   3.426   3.861  38.161  0.1934 -0.0178  0.1924
17057W        W21457  17.078   3.312  28.421 -0.3181 -0.0923  0.1900
17058W        W21458  14.000   2.547  34.459  0.2148 -0.3216  0.1825
17059W        W21459   8.230   6.111  14.983  0.3009 -0.2508 -0.1233
17060W        W21460  14.155   5.757  16.860 -0.3146 -0.2206 -0.1283
17061W        W21461  12.786   0.139  12.614  0.1182 -0.0830 -0.1094
17062W        W21462  14.860   5.782  12.826 -0.1188 -0.0293  0.1457
17063W        W21463  13.814   0.417  34.661 -0.0586 -0.5607 -0.1158
17064W        W21464  11.001   3.474   6.092 -0.0013  0.1666  0.1266
17065W        W21465  20.619   5.422  26.184  0.2062  0.0746 -0.1378
17066W        W21466  12.535   2.730  18.110  0.1194  0.1606  0.3343
17067W        W21467  19.216   1.291  10.466 -0.0720 -0.0749  0.2286
17068W        W21468  19.210   4.457  38.276 -0.0025 -0.2315 -0.0003
17069W        W21469   5.421   0.579  10.366 -0.1046 -0.0610  0.1817
17070W        W21470   6.889   1.019   1.480  0.1120  0.0054  0.0871
17071W        W21471  20.718   5.563  39.295  0.2422  0.0834 -0.0138
17072W        W21472   3.957   0.400   0.110  0.3229 -0.3525  0.1498
17073W        W21473  19.622   5.765  34.765  0.0931 -0.0938  0.0301
17074W        W21474  18.994   6.357  30.819 -0.2869 -0.2329 -0.3205
17075W        W21475  13.989   1.969  35.655 -0.1526 -0.2066 -0.3458
17076W        W21476   4.122   5.646  38.372  0.0343  0.3378 -0.1986
17077W        W21477   6.903   3.162  12.637  0.1678  0.0428  0.0714
17078W        W21478   3.226   6.220  33.822  0.0150 -0.0718  0.0551
17079W        W21479   3.396   1.355  18.749  0.1809  0.1374 -0.0841
17080W        W21480  13.719   3.711   0.928  0.0597 -0.0782  0.3611
17081W        W21481  15.724   1.148  19.693  0.0242 -0.1155 -0.3704
17082W        W21482   9.654   3.501  27.980 -0.0518 -0.1077 -0.0635
17083W        W21483  15.345   2.198  12.792  0.2402  0.0865 -0.0048
17084W        W21484  15.123   3.178  38.116  0.1695  0.1038 -0.3493
17085W        W21485  20.893   2.998  16.452  0.1662 -0.2036 -0.1467
17086W        W21486  15.912   2.767   4.698 -0.1190 -0.0298  0.0828
17087W        W21487  15.066   0.117   6.749  0.2274  0.2146  0.1834
17088W        W21488   5.646   3.008  43.899  0.2655  0.1022  0.0788
17089W        W21489  16.270   6.136  36.481 -0.3613  0.0062  0.2830
17090W        W21490  20.956   4.823  15.939  0.3768 -0.0272  0.0257
17091W        W21491  12.649   4.880  38.551 -0.0642 -0.1580 -0.0160
17092W        W21492  15.452   5.586  39.386 -0.0059 -0.0969  0.2128
17093W        W21493   1.783   5.834   7.856 -0.1150  0.1511 -0.2686
17094W        W21494  14.628   6.426  22.984 -0.0078 -0.1570  0.1629
17095W        W21495   4.556   1.699  38.353  0.3583 -0.1182  0.5127
17096W        W21496  14.595   4.181  20.155 -0.1077 -0.0040  0.3667
17097W        W21497   9.849   3.195  35.134 -0.1168  0.2570  0.5119
17098W        W21498   0.226   2.565   7.843  0.0979  0.1772 -0.2012
17099W        W21499  10.240   3.486  11.776  0.1211 -0.0071 -0.0196
17100W        W21500   3.234   4.580   3.110  0.2050  0.0893  0.0061
17101W        W21501   5.106   3.321  36.476 -0.0524 -0.0863  0.0992
17102W        W21502  16.132   5.125  37.654 -0.0014 -0.0954  0.1808
17103W        W21503  10.346   1.795   1.097  0.0128  0.1304 -0.0636
17104W        W21504  12.479   1.709  34.077  0.1546 -0.1407 -0.0025
17105W        W21505   9.830   4.763  10.713  0.0193 -0.0431 -0.2082
17106W        W21506   1.106   1.783   0.654 -0.0998 -0.1016  0.0134
17107W        W21507   8.591   4.290  14.877 -0.0808 -0.0820  0.0498
17108W        W21508   5.477   2.708  12.532  0.0344 -0.1897  0.2657
17109W        W21509  12.018   0.744  11.705 -0.0254  0.1460  0.2206
17110W        W21510   3.134   2.466  10.319  0.0275  0.0926  0.2002
17111W        W21511   7.574   6.106  15.542  0.1279 -0.0351 -0.1137
17112W        W21512   0.592   3.340  26.367  0.2130 -0.1366  0.1886
17113W        W21513   3.477   0.403  38.468 -0.0389 -0.1984 -0.0450
17114W        W21514  20.116   3.236   5.868  0.0049  0.3711 -0.1798
17115W        W21515   5.529   5.698  32.586  0.0924  0.0779  0.2473
17116W        W21516  11.454   0.726   5.046 -0.0794  0.4312  0.0585
17117W        W21517   9.071   3.644  43.194 -0.0908  0.1415  0.0584
17118W        W21518   5.350   6.384   5.411 -0.0543  0.3034 -0.1212
17119W        W21519   7.916   1.546   5.286 -0.2521 -0.0832 -0.0530
17120W        W21520   9.161   2.068  31.195 -0.1176 -0.1074 -0.0970
17121W        W21521  13.525   2.785  20.779 -0.0756  0.0114 -0.1012
17122W        W21522  18.046   5.073  30.060  0.0883 -0.1215  0.1357
17123W        W21523   8.471   1.902  13.388 -0.1314 -0.0442  0.1451
17124W        W21524  19.513   0.150   8.699  0.0174  0.1061 -0.0465
17125W        W21525  14.640   4.550  15.203  0.1086 -0.2990  0.3124
17126W        W21526  16.357   2.599  20.947  0.0666 -0.1868 -0.4685
17127W        W21527   3.478   3.473  15.027  0.1795  0.0263  0.0341
17128W        W21528   1.993   4.497   3.762 -0.2008 -0.0896  0.0430
17129W        W21529  17.760   3.047  17.412 -0.2620 -0.1172  0.1121
17130W        W21530  16.343   5.401   1.475  0.0157  0.0383 -0.1172
17131W        W21531   2.978   5.662  40.357  0.1937  0.2204  0.1243
17132W        W21532  10.360   5.579  19.060 -0.3458 -0.0823 -0.2738
17133W        W21533   9.702   2.550   2.756 -0.0186 -0.2332  0.0050
17134W        W21534  13.065   3.221  14.358 -0.1299  0.3442 -0.0665
17135W        W21535   3.957   3.721  25.203 -0.3807 -0.1432 -0.0456
17136W        W21536  19.788   0.852  26.633  0.0308  0.1206 -0.4400
17137W        W21537   7.235   3.185  33.767 -0.1308 -0.1632 -0.1521
17138W        W21538   5.337   1.005   7.163  0.0117  0.1942  0.0868
17139W        W21539   7.661   5.582  11.957 -0.3102  0.0327 -0.1603
17140W        W21540   7.671   1.140  10.140  0.2370  0.1218  0.1365
17141W        W21541   4.141   4.068  40.691 -0.0288  0.1941 -0.1193
17142W        W21542   3.052   3.066  25.152 -0.2061 -0.3581 -0.1860
17143W        W21543   6.704   0.637  10.617  0.0291 -0.0495  0.1403
17144W        W21544  15.623   1.844  17.755 -0.0542 -0.0164  0.1816
17145W        W21545  18.147   5.719  19.063  0.0891  0.2844 -0.0746
17146W        W21546  12.223   2.092   3.303  0.0177  0.2791  0.1244
17147W        W21547  20.504   6.281   4.766  0.2790  0.1858  0.0826
17148W        W21548   1.651   5.408   5.107  0.2342 -0.0657 -0.0880
17149W        W21549  14.363   6.456  24.875 -0.2440  0.1067  0.0114
17150W        W21550   4.325   3.558   5.767 -0.1245  0.0805 -0.1202
17151W        W21551  18.039   0.234   1.825  0.2902 -0.2104  0.1727
17152W        W21552   8.801   3.366  34.463 -0.0970  0.0208 -0.0409
17153W        W21553  11.610   0.871  15.349 -0.0494 -0.2065 -0.2134
17154W        W21554  12.040   0.188   6.157  0.0698 -0.0658 -0.2135
17155W        W21555  19.635   3.396  43.884 -0.2267 -0.0895  0.2841
17156W        W21556  15.817   0.267  42.829  0.0937 -0.2204 -0.0322
17157W        W21557   4.761   4.723  32.231 -0.1416 -0.2941 -0.1270
17158W        W21558  14.026   3.181  44.649  0.0852  0.0530 -0.1069
17159W        W21559  10.017   5.972  39.781  0.1639 -0.3542  0.1473
17160W        W21560  16.547   5.565  43.078  0.2872 -0.0797 -0.2197
17161W        W21561  19.184   5.474  14.878  0.3583  0.2477 -0.2684
17162W        W21562   3.428   4.114   5.726 -0.2153 -0.0154  0.1114
17163W        W21563  20.895   1.077   6.609  0.2169 -0.0815  0.1707
17164W        W21564   6.988   3.527  15.601 -0.0550  0.0104  0.0694
17165W        W21565  10.223   1.011  30.662  0.0231  0.0013 -0.4386
17166W        W21566  10.724   4.585  31.806 -0.0489  0.2123 -0.0172
17167W        W21567   9.785   0.308  19.031  0.0879 -0.0539  0.0072
17168W        W21568  19.271   4.200  18.577 -0.2381  0.3288  0.1473
17169W        W21569   9.716   0.354  15.411  0.0112  0.0841 -0.0791
17170W        W21570   4.737   3.856  14.186 -0.1876 -0.2134 -0.3066
17171W        W21571  20.971   3.246   5.793 -0.2898  0.0481  0.0489
17172W        W21572   8.155   2.851  16.968  0.1259 -0.0343 -0.0813
17173W        W21573  20.141   0.137   4.224 -0.2591 -0.2770  0.3553
17174W        W21574   9.387   5.326  18.863 -0.1763  0.0892  0.1178
17175W        W21575  14.494   5.465   5.774  0.0395 -0.0872  0.0192
17176W        W21576  15.063   1.998  36.254  0.3400  0.0468 -0.2143
17177W        W21577   5.214   5.889  39.261  0.0666 -0.3001  0.1250
17178W        W21578   6.360   1.012   8.181 -0.0617 -0.4561 -0.0479
17179W        W21579   8.337   4.962   9.177 -0.0888  0.1342  0.0946
17180W        W21580  18.068   6.486  38.828 -0.1651  0.2575 -0.1302
17181W        W21581   1.387   3.751  35.945 -0.0693  0.0709  0.0565
17182W        W21582   5.723   2.401  12.102 -0.2975  0.1213 -0.1240
17183W        W21583   8.042   2.462   0.160  0.3234  0.1163  0.1608
17184W        W21584   5.972   1.020  41.764 -0.0144 -0.0781 -0.4016
17185W        W21585  14.877   3.478  18.681 -0.3106 -0.0044 -0.0243
17186W        W21586   3.683   4.090  24.103  0.0716 -0.0565  0.0737
17187W        W21587   4.240   3.539  23.794  0.0495 -0.1494 -0.0150
17188W        W21588   3.480   4.859   1.964 -0.1298 -0.1209  0.1467
17189W        W21589  18.178   1.967  14.670 -0.1116 -0.1719  0.0417
17190W        W21590  18.962   0.791  11.016 -0.1136 -0.1451 -0.1139
17191W        W21591  12.865   2.194  10.212  0.2533  0.2823 -0.0709
17192W        W21592   8.608   1.170  33.245 -0.0688  0.1424 -0.1384
17193W        W21593   8.767   2.860   2.664 -0.0176 -0.1608  0.2555
17194W        W21594  15.760   5.121  13.927  0.1906  0.0587  0.0714
17195W        W21595   5.443   3.189  28.467  0.0243 -0.2477  0.2802
17196W        W21596  21.016   5.352  30.006 -0.1617  0.2861  0.1492
17197W        W21597   0.860   0.749  11.690  0.1074 -0.1880 -0.1703
17198W        W21598  13.254   5.376  35.426 -0.1500  0.0462  0.0306
17199W        W21599  15.090   2.691  14.298 -0.1507 -0.0786 -0.3445
17200W        W21600  18.605   1.830   9.880  0.1960 -0.2127  0.0467
17201W        W21601  20.300   0.720   1.125  0.1737  0.0349 -0.0823
17202W        W21602   9.588   1.318   9.712 -0.3817  0.3074 -0.0223
17203W        W21603   9.338   4.313  27.424  0.3591  0.0182  0.3580
17204W        W21604   2.530   2.817  25.109 -0.2598  0.0354  0.1105
17205W        W21605   3.572   0.640  19.339 -0.1098  0.0837 -0.0737
17206W        W21606  21.052   5.501  33.693 -0.0562  0.1664 -0.2261
17207W        W21607   9.213   6.108  43.442  0.3789 -0.1186 -0.0244
17208W        W21608   0.884   1.350   0.813 -0.3121  0.2879 -0.5705
17209W        W21609  11.204   5.098  36.823  0.2509  0.2757  0.2122
17210W        W21610   9.371   0.302  10.462  0.1539 -0.0792  0.0921
17211W        W21611   7.915   6.539  12.087  0.2486 -0.0384  0.0673
17212W        W21612   5.798   5.933  36.961 -0.3395  0.1431 -0.0417
17213W        W21613  11.679   2.612  42.887 -0.0393 -0.0620  0.0287
17214W        W21614  13.668   1.876  23.287 -0.1378  0.0650  0.1683
17215W        W21615  14.222   5.153  37.120 -0.0643 -0.1093 -0.0446
17216W        W21616   9.707   1.447  39.401  0.1521  0.0170  0.0038
17217W        W21617  21.018   5.105   3.475  0.2450  0.2962 -0.0172
17218W        W21618   3.253   5.264  30.556 -0.1373 -0.0448 -0.3239
17219W        W21619   5.185   5.384   9.118 -0.0862 -0.1131  0.2392
17220W        W21620  16.626   5.830  20.339  0.0336 -0.0674 -0.0464
17221W        W21621   2.115   1.540  10.727  0.1789 -0.4303  0.0095
17222W        W21622  16.871   5.992  33.055  0.1129 -0.1723  0.2118
17223W        W21623  18.596   2.087  39.272  0.0525 -0.1286  0.0543
17224W        W21624  17.711   1.917  18.339 -0.0369 -0.2033 -0.0031
17225W        W21625  15.214   2.103  16.594 -0.1518 -0.0964 -0.0622
17226W        W21626  15.793   1.145  43.146  0.0392  0.0191  0.0669
17227W        W21627  12.632   3.643  37.151 -0.1171  0.1626 -0.1432
17228W        W21628  15.963   1.083  20.165 -0.1064 -0.0187  0.1700
17229W        W21629   2.361   0.792  26.626  0.3084  0.0221  0.0149
17230W        W21630  11.018   0.305  39.474  0.1158  0.0124 -0.0380
17231W        W21631  19.613   4.666  44.042 -0.0190 -0.0903  0.3976
17232W        W21632  18.844   4.237   6.666 -0.1090 -0.0248  0.2768
17233W        W21633  16.014   3.783  13.850 -0.0890 -0.0435  0.0016
17234W        W21634   0.396   3.349  34.671  0.0201 -0.0973 -0.2579
17235W        W21635  11.852   6.234   4.203 -0.0505  0.1867 -0.1700
17236W        W21636   7.457   4.025  43.933  0.1289 -0.4953 -0.2716
17237W        W21637   0.276   0.773  30.042  0.0463  0.2055 -0.0543
17238W        W21638   6.893   3.794  44.816 -0.1229 -0.0458  0.1035
17239W        W21639  20.287   1.117  43.932 -0.1690  0.0884 -0.1285
17240W        W21640  17.539   5.093  13.626 -0.1235 -0.2283 -0.0518
17241W        W21641  12.901   5.695  21.776 -0.2086  0.3838 -0.0551
17242W        W21642   6.622   1.527   4.084 -0.0756  0.0173 -0.2236
17243W        W21643   7.356   5.108  43.373 -0.2031  0.0992  0.1798
17244W        W21644   5.326   6.184  15.718  0.2004 -0.0612 -0.0036
17245W        W21645  10.419   5.740  15.889  0.0751 -0.2240  0.1446
17246W        W21646   9.443   1.809  42.784  0.0606 -0.0673 -0.0658
17247W        W21647  20.396   0.989  31.009  0.1604  0.2941 -0.0074
17248W        W21648  21.125   3.595  13.024 -0.1221  0.0019 -0.1012
17249W        W21649  20.464   3.651  40.795  0.0951  0.2251  0.0054
17250W        W21650   1.443   1.358  31.581  0.1348 -0.1465 -0.0902
17251W        W21651   8.577   0.199  31.703 -0.1835 -0.2390 -0.0992
17252W        W21652  13.958   2.360  30.786 -0.0656  0.0989 -0.1592
17253W        W21653  12.474   3.425   5.092 -0.0249  0.2227  0.0427
17254W        W21654   8.689   2.016  12.428  0.0834  0.0837  0.1365
17255W        W21655   6.008   0.430   7.363  0.1401 -0.3148 -0.1521
17256W        W21656  14.039   3.162   5.934  0.0918 -0.1644 -0.1729
17257W        W21657   5.053   4.493  38.144  0.0537  0.0297  0.1179
17258W        W21658  13.320   2.609  36.694 -0.0762  0.0105  0.2744
17259W        W21659   5.215   6.476  21.420 -0.1398 -0.0631 -0.0818
17260W        W21660   8.724   0.417  41.859  0.0444 -0.1878  0.0852
17261W        W21661   8.570   1.025   0.821  0.1597  0.1929  0.0164
17262W        W21662   1.556   1.469   5.729  0.0714 -0.2208 -0.1142
17263W        W21663   8.660   1.684  35.641 -0.1338  0.2074 -0.0684
17264W        W21664  18.513   2.454  11.501 -0.2109  0.1294 -0.1185
17265W        W21665   4.545   5.177   3.287 -0.0472 -0.0747 -0.2678
17266W        W21666   5.469   0.206  14.460 -0.3273  0.0853 -0.0431
17267W        W21667  12.099   5.482  18.094  0.2483  0.0322 -0.0057
17268W        W21668   2.717   3.969   2.503 -0.1166  0.2989 -0.1911
17269W        W21669   4.723   5.216  23.078  0.0860  0.1251  0.0555
17270W        W21670  16.523   5.846  38.635 -0.1873 -0.2312 -0.0610
17271W        W21671   1.517   6.020   1.595  0.3559  0.0857 -0.0251
17272W        W21672   1.616   2.546  43.555  0.5230  0.0284 -0.0449
17273W        W21673  16.844   5.184   1.608 -0.2368 -0.1528  0.0148
17274W        W21674  15.933   5.821   5.035 -0.0678  0.0850 -0.2054
17275W        W21675  20.432   6.017   1.797  0.2150  0.1195 -0.2599
17276W        W21676  18.959   2.400  39.560  0.2718  0.1095  0.0934
17277W        W21677  16.682   2.345  36.212 -0.0741  0.0048 -0.1964
17278W        W21678   6.274   2.396  16.331 -0.0116 -0.1382  0.0687
17279W        W21679   6.650   2.670   3.069  0.0629 -0.1489  0.3212
17280W        W21680   4.370   4.272  27.106 -0.3340  0.0825  0.3897
17281W        W21681   2.559   1.297  10.320  0.1999  0.1537  0.1755
17282W        W21682  16.813   0.546   0.286  0.1923 -0.2857 -0.3059
17283W        W21683  13.031   2.909  20.125 -0.0942  0.0285 -0.0550
17284W        W21684   0.058   0.203   7.698 -0.3290 -0.0051  0.0079
17285W        W21685  11.773   6.129  37.228  0.0260 -0.1688  0.1819
17286W        W21686  11.820   2.786  16.134 -0.0084  0.1934 -0.0394
17287W        W21687   1.261   4.634  14.398  0.2005 -0.1793 -0.0966
17288W        W21688   5.831   5.058  25.126  0.1354 -0.0995 -0.0586
17289W        W21689   9.048   4.197   8.859 -0.1683 -0.0268  0.1109
17290W        W21690  16.936   1.993  30.274  0.0691  0.2778 -0.2144
17291W        W21691   9.564   1.134  16.077 -0.1822  0.0286  0.1318
17292W        W21692  19.264   3.922   0.303 -0.1496  0.0301 -0.0554
17293W        W21693   2.520   5.978  40.005 -0.0183 -0.3112  0.2238
17294W        W21694  17.436   1.992  13.274 -0.4570 -0.3440  0.0608
17295W        W21695  19.537   5.902  16.036  0.3596 -0.4673 -0.0968
17296W        W21696   0.478   6.376   7.821  0.0270  0.2858  0.2011
17297W        W21697  12.436   2.316  37.843  0.1609 -0.1062 -0.0413
17298W        W21698  15.133   4.830  20.440  0.0254 -0.0310  0.1831
17299W        W21699  15.056   0.138  20.960  0.0469 -0.1301 -0.4645
17300W        W21700  10.992   5.462   2.452  0.3217 -0.3622 -0.1637
17301W        W21701   1.802   4.701  41.736 -0.0453 -0.0460  0.0937
17302W        W21702  17.722   5.556   3.805 -0.0659 -0.1964 -0.2271
17303W        W21703  11.593   5.192  30.129  0.3097  0.0251  0.1727
17304W        W21704   0.841   6.045  33.883  0.0756 -0.1099 -0.1381
17305W        W21705  11.975   5.745  31.060 -0.0465  0.2386 -0.0906
17306W        W21706   6.042   4.647  43.634 -0.2315 -0.0992 -0.0918
17307W        W21707   7.489   2.609  31.704 -0.1403 -0.1522 -0.1059
17308W        W21708   4.347   6.553  14.039  0.3553  0.1695 -0.0357
17309W        W21709  16.807   5.404   9.950  0.1900  0.3426  0.1990
17310W        W21710  16.471   2.037  20.450  0.1753  0.3815  0.2706
17311W        W21711   1.226   6.238   4.244  0.0319  0.0254 -0.3651
17312W        W21712  13.948   1.448  23.460 -0.2209 -0.0497 -0.2423
17313W        W21713  10.515   6.163  41.312 -0.0339 -0.3038  0.0405
17314W        W21714  19.793   0.774  29.556 -0.1101 -0.0444  0.2459
17315W        W21715  15.535   1.490  12.173 -0.1887  0.0157  0.2428
17316W        W21716   9.205   6.086   4.889 -0.0829 -0.1499  0.0677
17317W        W21717   2.801   1.429  25.399 -0.0390  0.3275  0.0669
17318W        W21718   4.177   0.137  36.062  0.0952 -0.1916  0.2170
17319W        W21719   9.032   5.885  15.056 -0.0193 -0.0890 -0.0155
17320W        W21720   8.618   3.777  31.453 -0.0855  0.2845  0.0516
17321W        W21721  11.500   2.837   6.617  0.0548  0.3068 -0.3083
17322W        W21722  10.307   1.373   5.656  0.2422 -0.1365 -0.0197
17323W        W21723  12.956   2.537   1.179 -0.1238  0.1694 -0.3642
17324W        W21724  12.505   2.977   4.900 -0.1510  0.0230  0.2040
17325W        W21725  16.439   4.317  16.449  0.0515  0.0818 -0.1760
17326W        W21726   8.937   1.961  11.112  0.3016 -0.3816 -0.2569
17327W        W21727   1.315   5.844  36.750 -0.0528  0.2617 -0.3569
17328W        W21728   7.621   5.884  41.063 -0.1280 -0.1438  0.2883
17329W        W21729  13.560   2.497   8.348 -0.0728  0.2004  0.1525
17330W        W21730   8.473   2.703   2.245 -0.2334  0.0601  0.0412
17331W        W21731  10.034   4.145   4.134  0.2065  0.0572  0.1403
17332W        W21732  20.868   3.075  11.229  0.0294 -0.0543 -0.0089
17333W        W21733  20.848   5.949   2.640 -0.4438 -0.0059 -0.2426
17334W        W21734   6.006   1.561  32.356 -0.1429  0.1400  0.0549
17335W        W21735  15.153   3.703  33.445 -0.0623 -0.1794  0.1409
17336W        W21736  19.636   4.896   0.504  0.0523  0.0435  0.0923
17337W        W21737  15.296   5.390   2.638  0.1014  0.0005  0.0632
17338W        W21738   9.469   4.350  27.873  0.0526 -0.2101 -0.1805
17339W        W21739  20.025   1.558   4.614 -0.2961 -0.1957  0.0331
17340W        W21740  11.594   0.083  29.047 -0.4681  0.1485  0.0591
17341W        W21741  13.833   5.222  30.470 -0.4341  0.0088 -0.1556
17342W        W21742   6.586   1.866  27.170 -0.1610 -0.0124  0.0955
17343W        W21743  16.331   1.503  33.216  0.0276 -0.2611 -0.0308
17344W        W21744   6.728   1.884   4.402  0.1356 -0.2785 -0.3085
17345W        W21745  16.468   3.051   9.312  0.0167  0.3632 -0.2138
17346W        W21746  16.462   3.153  18.296  0.1183  0.0301  0.0076
17347W        W21747  20.265   1.362  29.261  0.1737 -0.3360  0.1166
17348W        W21748   6.570   1.259  41.155  0.0224  0.0181 -0.0260
17349W        W21749  15.810   4.360  31.336  0.0752  0.0573  0.0519
17350W        W21750   0.148   3.934  42.094 -0.6076  0.2237  0.1012
17351W        W21751  12.961   6.361  34.173  0.2132  0.0861 -0.0752
17352W        W21752   1.792   1.349  29.254  0.2876  0.3262  0.0482
17353W        W21753   8.960   3.966  41.018  0.2503  0.2757 -0.5346
17354W        W21754  11.659   6.357  20.795 -0.0933 -0.0686 -0.0610
17355W        W21755  18.569   0.164   8.575 -0.0715  0.2134 -0.2437
17356W        W21756  14.884   4.562  40.104 -0.0625 -0.0867 -0.1273
17357W        W21757  20.870   3.706  35.684  0.1080  0.0170  0.0118
17358W        W21758  14.391   3.984  37.359 -0.2992  0.1288 -0.4044
17359W        W21759  19.500   1.395  18.854  0.2475 -0.1254 -0.1657
17360W        W21760  15.005   1.900  20.725 -0.2994  0.1172 -0.1845
17361W        W21761  15.498   2.420  39.374  0.1287  0.2066  0.2125
17362W        W21762  14.650   6.081  11.425 -0.2570 -0.1765  0.0248
17363W        W21763  14.215   5.840  12.785  0.0984  0.2375 -0.0748
17364W        W21764  15.949   4.255  35.357 -0.4996  0.0872 -0.0043
17365W        W21765   7.584   0.278  27.107 -0.0986 -0.0778 -0.1661
17366W        W21766   6.527   5.237  37.277 -0.3475 -0.1192  0.1731
17367W        W21767   4.899   0.453  44.062  0.0425 -0.2185  0.3527
17368W        W21768  12.818   0.863  13.964 -0.0827 -0.0012  0.2518
17369W        W21769   2.511   5.909  24.968  0.2536 -0.1861 -0.1949
17370W        W21770   0.114   5.651   8.772 -0.0402  0.2131 -0.5345
17371W        W21771   1.404   0.321  41.872  0.0982  0.1981  0.0784
17372W        W21772   7.459   1.144  14.811 -0.1493  0.3330  0.1790
17373W        W21773   5.359   1.404  31.716  0.0272 -0.0749 -0.1388
17374W        W21774   1.306   5.639  23.492  0.0653  0.1474 -0.1407
17375W        W21775  13.219   5.269  15.572 -0.1648  0.0998  0.2769
17376W        W21776   6.279   6.530  27.703 -0.3086  0.1623 -0.0869
17377W        W21777  11.353   0.927  44.282  0.0156  0.0244 -0.0676
17378W        W21778  20.257   0.836   6.987  0.1002  0.0961  0.1062
17379W        W21779  10.448   6.076  36.323 -0.0455 -0.1402 -0.1615
17380W        W21780   4.397   1.713  16.182  0.0470  0.3683 -0.0453
17381W        W21781  16.876   3.979  33.841  0.2561 -0.0377  0.0151
17382W        W21782  18.961   0.360  15.155  0.1093  0.1074  0.1200
17383W        W21783   9.405   1.077  28.905 -0.2058  0.1500  0.0082
17384W        W21784   7.943   1.976  34.160 -0.0567  0.0052  0.3548
17385W        W21785  16.675   0.598  34.672  0.1022  0.2098 -0.0489
17386W        W21786  12.670   2.661  10.274  0.0277  0.0156  0.2592
17387W        W21787  17.334   6.570   4.667  0.0296 -0.0875  0.1277
17388W        W21788   6.162   4.394   9.148 -0.2105 -0.0507 -0.0605
17389W        W21789   9.257   3.593  39.255  0.1221 -0.1741  0.0963
17390W        W21790   2.728   0.654  43.238 -0.2127 -0.2938 -0.0651
17391W        W21791   2.532   3.332  36.589 -0.0830  0.0453  0.2614
17392W        W21792   3.761   5.962  24.840 -0.2189  0.1952  0.0156
17393W        W21793  10.031   6.088   6.835 -0.1158 -0.0672  0.0391
17394W        W21794   3.120   1.462  15.169 -0.3922  0.0983  0.0204
17395W        W21795   3.674   2.564  18.859 -0.1875 -0.0708  0.2791
17396W        W21796   6.754   0.867  16.382 -0.1140  0.1493 -0.1832
17397W        W21797  17.142   1.908   0.538 -0.1966 -0.1213  0.0414
17398W        W21798  13.068   2.539  20.586  0.0292  0.1381 -0.1152
17399W        W21799   1.113   5.508  37.927 -0.1754  0.0241  0.2286
17400W        W21800  18.170   0.315  42.604 -0.1105  0.2421 -0.1616
17401W        W21801  12.006   3.591  19.793  0.2470 -0.1326  0.0942
17402W        W21802   0.489   3.177  15.397  0.0318 -0.3165  0.1021
17403W        W21803   3.439   1.077  35.436  0.2452 -0.3084 -0.1234
17404W        W21804  11.518   1.975  19.766  0.1038 -0.3578 -0.1729
17405W        W21805  20.164   6.076  39.807 -0.1644 -0.1078 -0.0088
17406W        W21806   2.650   2.298  25.194  0.1243  0.0168 -0.1288
17407W        W21807  19.035   3.281  36.537 -0.0575  0.6227  0.3009
17408W        W21808  13.939   1.509  39.268 -0.1279  0.4243 -0.0531
17409W        W21809  11.266   0.157  19.983  0.2181  0.1363 -0.1075
17410W        W21810  18.998   5.015  11.859  0.0462  0.2639  0.1343
17411W        W21811  12.580   0.389  10.716  0.0549 -0.2076 -0.2854
17412W        W21812   7.307   4.835  36.217  0.4187  0.0864 -0.1262
17413W        W21813   5.748   1.899  42.716 -0.1693  0.2476  0.0271
17414W        W21814  21.046   2.276  44.365  0.1124  0.0056 -0.1831
17415W        W21815  15.253   4.301  29.824 -0.4861  0.0086  0.0118
17416W        W21816  14.394   4.180  40.738 -0.0185 -0.1808 -0.1570
17417W        W21817   9.998   6.188  27.628 -0.1045  0.3563  0.2005
17418W        W21818  16.629   1.155  40.486 -0.0867  0.2437  0.0420
17419W        W21819   0.337   3.815  26.595  0.2019 -0.0881  0.0271
17420W        W21820  14.799   0.521  37.712 -0.1122  0.0039  0.0967
17421W        W21821  19.165   6.573  36.374 -0.0679  0.0233 -0.4107
17422W        W21822   4.546   4.094   3.026 -0.2972 -0.1008 -0.0158
17423W        W21823   4.781   0.458   1.406 -0.0480  0.0251  0.0278
17424W        W21824   6.949   4.079  34.641 -0.2029  0.0887  0.0218
17425W        W21825   9.809   1.652  14.293 -0.1596  0.0384  0.2302
17426W        W21826   5.161   1.724  26.563 -0.2494 -0.0142  0.3383
17427W        W21827  17.844   3.509  12.995  0.2586 -0.1926  0.0980
17428W        W21828   4.575   4.662   3.220  0.3431 -0.2762 -0.1110
17429W        W21829  15.081   3.417   0.403  0.0426 -0.3797 -0.0733
17430W        W21830  17.937   2.372  19.081 -0.1203 -0.2883 -0.0506
17431W        W21831  17.886   6.124  44.276  0.0957 -0.1903 -0.1922
17432W        W21832   3.106   6.442  36.903  0.3485  0.1368  0.1975
17433W        W21833  12.080   4.926   1.407  0.0020  0.1161  0.0532
17434W        W21834  13.340   5.739  42.491  0.0679 -0.1870  0.1304
17435W        W21835   8.616   0.530   6.282 -0.3182  0.0021 -0.0373
17436W        W21836   6.971   1.403   5.044 -0.1192  0.0686 -0.1838
17437W        W21837   3.675   6.449  42.987 -0.0768 -0.0067 -0.1123
17438W        W21838   4.828   1.528   3.846  0.0445 -0.0648  0.0925
17439W        W21839  15.195   2.763  18.062 -0.0775 -0.0415  0.2418
17440W        W21840  19.460   2.825  11.475 -0.1696 -0.0916  0.0675
17441W        W21841   4.304   4.616  15.137  0.1788 -0.0194 -0.1259
17442W        W21842  16.078   4.210   3.159 -0.1845  0.0566 -0.0383
17443W        W21843   8.767   4.376  17.570 -0.0079  0.2084  0.1659
17444W        W21844   3.860   3.302  36.647  0.0890 -0.0597 -0.0290
17445W        W21845   7.437   2.328  33.161  0.1219 -0.0560 -0.1089
17446W        W21846  16.111   4.270  30.896 -0.0995  0.0890 -0.1993
17447W        W21847  13.582   4.142   5.786 -0.0568 -0.1065  0.0762
17448W        W21848  20.721   1.561  34.602  0.0933 -0.1758  0.0488
17449W        W21849  19.974   0.513   5.832  0.2091 -0.1898  0.1135
17450W        W21850  16.665   2.159  12.293  0.0394 -0.1183 -0.3804
17451W        W21851   9.204   3.168  44.621  0.2689 -0.0241 -0.1197
17452W        W21852  14.546   1.954  14.794 -0.1913  0.0284  0.1334
17453W        W21853  14.445   5.045  28.820 -0.1103  0.4116 -0.1659
17454W        W21854  12.465   1.715  39.792  0.0739 -0.2853 -0.0455
17455W        W21855  10.138   0.460   6.622 -0.0229 -0.3025 -0.0170
17456W        W21856  20.186   4.820  15.812  0.2065 -0.0475 -0.3315
17457W        W21857  18.299   0.313  37.290 -0.0845  0.0615 -0.2829
17458W        W21858  13.869   2.199  30.253 -0.0280  0.1619 -0.1073
17459W        W21859  13.093   6.024  14.137 -0.0668 -0.1606  0.1128
17460W        W21860  13.903   5.407  24.154  0.2030 -0.1124 -0.0248
17461W        W21861   9.721   1.207  28.284  0.0130 -0.1175 -0.0846
17462W        W21862   4.645   6.355  41.708  0.0883 -0.0733  0.4541
17463W        W21863  10.785   4.997  36.549  0.0145 -0.2247 -0.1256
17464W        W21864   6.178   1.721  25.553  0.1293  0.0293  0.1483
17465W        W21865  20.363   4.955   5.173 -0.3931  0.1127 -0.0423
17466W        W21866   6.058   2.542  15.815  0.2411  0.2416  0.1120
17467W        W21867   8.165   4.309  27.846  0.1836 -0.0068 -0.3068
17468W        W21868   2.165   6.580  34.956  0.0772  0.0458  0.2420
17469W        W21869  13.295   4.059  34.026 -0.5228 -0.2181  0.0203
17470W        W21870  18.759   6.216  33.408 -0.1219  0.1602  0.0558
17471W        W21871  20.999   4.702   3.088 -0.0675 -0.2746  0.0641
17472W        W21872  15.300   2.957  21.584 -0.1934  0.1547  0.0409
17473W        W21873   0.054   5.973  31.985 -0.0217  0.2318 -0.5037
17474W        W21874   4.264   3.509  29.289 -0.0526 -0.1928 -0.3277
17475W        W21875  13.143   0.217  13.916  0.0397  0.3393  0.1449
17476W        W21876   3.056   0.991  22.188 -0.0431 -0.1406 -0.1493
17477W        W21877  21.133   5.861  45.033  0.1552 -0.0558  0.3264
17478W        W21878  15.437   2.399  14.567  0.0343 -0.0195  0.0889
17479W        W21879   3.561   6.393  12.266  0.0807  0.1712  0.2236
17480W        W21880  18.028   6.192  12.163  0.0968  0.2985 -0.0449
17481W        W21881  13.790   4.325  23.479 -0.2866  0.0916 -0.0764
17482W        W21882   2.096   0.400  44.512 -0.0716  0.3160  0.1127
17483W        W21883   6.608   3.712  41.542  0.0289  0.3890 -0.0009
17484W        W21884   1.877   0.552  26.387 -0.0457 -0.0544 -0.3183
17485W        W21885  16.268   5.005   3.508 -0.0112  0.1467 -0.3174
17486W        W21886   4.680   5.954  43.212  0.0804 -0.0710  0.1731
17487W        W21887  14.500   1.523  13.141 -0.1422  0.1470  0.0063
17488W        W21888   5.789   3.360  37.009 -0.2251  0.0606  0.0449
17489W        W21889   6.347   3.413   9.050 -0.3691 -0.0712  0.3238
17490W        W21890  11.626   3.115  10.815  0.0111  0.1261 -0.1094
17491W        W21891  21.099   3.727  26.361 -0.0660 -0.1381  0.2563
17492W        W21892   0.723   3.584  10.798  0.1923 -0.1333  0.1447
17493W        W21893  19.068   3.817   0.772 -0.3711 -0.0498  0.2311
17494W        W21894  10.665   2.712   0.183 -0.0399 -0.0261 -0.1672
17495W        W21895   0.755   0.352  11.071  0.1064  0.1670 -0.0131
17496W        W21896   5.849   4.044  38.456 -0.0560 -0.1958  0.3187
17497W        W21897  17.313   6.597   5.216  0.0985 -0.1597 -0.0930
17498W        W21898  15.022   2.070  22.618  0.1705 -0.0636 -0.1095
17499W        W21899   5.585   0.802  27.965  0.3076  0.0443 -0.0459
17500W        W21900  11.114   1.347  37.873 -0.1364  0.1128 -0.2434
17501W        W21901   2.215   0.055  33.550  0.0545 -0.1732 -0.1268
17502W        W21902  11.061   4.604  40.377  0.2124  0.1285  0.1858
17503W        W21903  18.339   1.475  29.377 -0.2209  0.1335 -0.4931
17504W        W21904   6.977   3.744   8.057  0.0538  0.0959 -0.0597
17505W        W21905  14.415   1.873  14.251  0.0038 -0.0479  0.1142
17506W        W21906  20.332   3.526  35.279  0.2511 -0.2568  0.2102
17507W        W21907   8.060   3.275   9.870  0.0600 -0.0789 -0.1260
17508W        W21908   9.192   1.946  11.604  0.1568 -0.0374  0.2483
17509W        W21909   6.645   4.979  13.736 -0.0842 -0.3713 -0.0374
17510W        W21910  16.730   5.488  44.079 -0.0112  0.1287  0.2505
17511W        W21911   9.710   1.184  14.045  0.1187 -0.1623  0.0586
17512W        W21912   5.584   3.999  11.584 -0.2099 -0.0776 -0.1779
17513W        W21913   9.989   3.154  27.256  0.0433 -0.0520 -0.0793
17514W        W21914   1.861   2.518   7.149 -0.1170 -0.0870 -0.0076
17515W        W21915  16.814   0.543  14.058 -0.4569  0.1487  0.4126
17516W        W21916   8.206   0.305   7.926  0.1165 -0.2892  0.0774
17517W        W21917  10.070   1.846   1.568 -0.0253 -0.1526  0.0701
17518W        W21918  20.084   3.634   7.828 -0.1011 -0.0008  0.1058
17519W        W21919   5.393   3.442   6.192 -0.0580 -0.0526  0.0431
17520W        W21920   4.950   4.083   8.598  0.0999  0.0592 -0.4953
17521W        W21921   3.674   0.776   0.245 -0.0447  0.1018  0.0694
17522W        W21922  15.137   5.533   3.563  0.1325  0.1789  0.0614
17523W        W21923  10.378   0.656  45.016 -0.0232  0.0977 -0.2557
17524W        W21924   6.106   4.276   4.009  0.1586 -0.0262 -0.1517
17525W        W21925  12.439   0.823   1.194 -0.0202 -0.0853 -0.0461
17526W        W21926  11.276   4.701   9.386  0.2921  0.0389  0.1067
17527W        W21927  20.782   6.433  11.960 -0.0919  0.2475 -0.1032
17528W        W21928  18.734   3.592  16.587 -0.2558 -0.1756  0.3550
17529W        W21929  19.275   3.227  43.070  0.1157  0.1595 -0.1115
17530W        W21930  17.336   2.687  40.283 -0.3409  0.0021 -0.0081
17531W        W21931   0.859   0.892  13.035  0.1057  0.0846 -0.3116
17532W        W21932  11.999   4.329   7.131  0.1598 -0.0213 -0.0694
17533W        W21933   7.277   3.485  16.461  0.2252 -0.0459 -0.1182
17534W        W21934  13.747   5.174  20.603 -0.0443 -0.0724  0.1533
17535W        W21935   1.703   5.800   8.932 -0.0886  0.0954 -0.0076
17536W        W21936   1.619   3.769  42.300  0.0224 -0.0711 -0.0066
17537W        W21937  13.076   3.090  13.713  0.1472 -0.2918 -0.0506
17538W        W21938   0.678   5.389  36.990 -0.0236  0.0231 -0.2230
17539W        W21939   4.520   1.929  40.538  0.0943  0.0113  0.0890
17540W        W21940  14.536   4.252  34.486  0.0540 -0.0481  0.0067
17541W        W21941  14.406   2.536   0.227  0.0742  0.0538  0.0254
17542W        W21942   8.248   5.150   9.977 -0.1302 -0.1132  0.1593
17543W        W21943   5.080   5.866  13.626 -0.0677 -0.3092  0.2634
17544W        W21944  18.342   0.397  32.083  0.1343  0.0762 -0.0024
17545W        W21945  18.805   4.672  31.242  0.2977 -0.1506 -0.0802
17546W        W21946  13.225   3.690  43.300  0.3721 -0.1422  0.1004
17547W        W21947   5.817   0.895  12.263  0.1629  0.1716 -0.2930
17548W        W21948  18.721   2.695  17.094  0.3869  0.0233 -0.0239
17549W        W21949  14.516   1.981  40.754  0.0475 -0.1751  0.1838
17550W        W21950  18.085   0.252  39.147 -0.0620 -0.1485  0.1968
17551W        W21951  16.831   4.294  38.597  0.0102  0.1610 -0.1360
17552W        W21952  18.032   0.352  43.078  0.2266  0.1062  0.1937
17553W        W21953   1.948   5.245  15.223  0.2015  0.1909 -0.3442
17554W        W21954  11.203   4.413   0.927  0.2726  0.3432  0.1867
17555W        W21955   6.472   1.349   5.408  0.0475 -0.1234 -0.2740
17556W        W21956  11.371   3.697  12.047  0.0173  0.1930  0.0177
17557W        W21957   9.830   2.314  15.479  0.0606  0.1866 -0.2481
17558W        W21958   3.048   1.249   6.460  0.3126  0.1934 -0.1495
17559W        W21959  13.545   2.362  34.511  0.0014 -0.0619 -0.0975
17560W        W21960   2.828   2.861  39.095 -0.0924  0.0192  0.1323
17561W        W21961   5.204   4.084  23.424  0.1684 -0.0198  0.1839
17562W        W21962  18.582   1.868  43.944  0.0383 -0.0415 -0.1129
17563W        W21963  14.005   2.052  21.121 -0.0473  0.1227 -0.0574
17564W        W21964   8.461   4.811  16.217 -0.1718  0.2463  0.1787
17565W        W21965   7.596   4.352  13.508  0.1139  0.1948  0.0052
17566W        W21966  11.296   2.167  43.630  0.0644 -0.0256 -0.0565
17567W        W21967   1.132   4.085   0.451 -0.3525  0.1101 -0.0503
17568W        W21968   2.831   5.385  43.112  0.1713 -0.0059 -0.0253
17569W        W21969   3.162   4.617  21.805 -0.1393  0.0547  0.4271
17570W        W21970  13.122   2.906  32.424  0.0576 -0.1619  0.1563
17571W        W21971   9.999   2.651  41.901  0.2377 -0.4599  0.1024
17572W        W21972   2.371   4.746   1.948  0.1444 -0.0259  0.1205
17573W        W21973  17.967   2.357   8.354 -0.3876  0.2299 -0.1597
17574W        W21974   9.391   1.287  10.151 -0.1728 -0.1501 -0.1751
17575W        W21975   2.107   6.237  41.022  0.1045 -0.1489 -0.0766
17576W        W21976   3.295   1.088  21.700 -0.0118  0.2923 -0.0104
17577W        W21977  14.168   4.250  36.842 -0.0968  0.0505  0.1385
17578W        W21978  17.670   0.005   8.573 -0.2337  0.0414  0.3387
17579W        W21979   9.440   2.029  13.196 -0.3192  0.1537  0.1988
17580W        W21980   7.806   4.945  37.580  0.1799  0.0513 -0.1123
17581W        W21981  20.738   4.187   5.524 -0.0600 -0.0278  0.0534
17582W        W21982  19.793   2.075   3.814  0.0599 -0.1212  0.2523
17583W        W21983   6.915   1.187  24.667  0.0841 -0.3344 -0.0631
17584W        W21984  10.125   3.310  17.734  0.3298 -0.0041 -0.0962
17585W        W21985  10.942   6.084   1.169 -0.0861 -0.1917 -0.1600
17586W        W21986  15.504   0.379  31.820  0.1065  0.0436 -0.3277
17587W        W21987  12.145   4.561   9.341 -0.2722 -0.0597  0.0701
17588W        W21988  18.900   1.318   3.991  0.3557 -0.0768  0.1231
17589W        W21989   7.004   6.548  39.161 -0.0407 -0.2202 -0.0699
17590W        W21990  16.930   3.327  37.285  0.3105 -0.1432  0.0473
17591W        W21991  12.222   5.770   4.793 -0.0295 -0.2263  0.1587
17592W        W21992  14.619   3.219  45.001 -0.0926 -0.1507 -0.1046
17593W        W21993  10.750   1.854  10.918 -0.1359  0.1923 -0.0012
17594W        W21994   3.835   1.316  30.075  0.2322 -0.1251 -0.0222
17595W        W21995   1.731   0.215   0.990 -0.3943  0.1877 -0.0225
17596W        W21996  15.418   3.496  37.326 -0.0687 -0.3009  0.1464
17597W        W21997   1.987   0.839  39.071 -0.0128 -0.0063 -0.2945
17598W        W21998  15.699   3.196  16.668  0.0758 -0.3144 -0.2529
17599W        W21999  20.790   1.793  25.397 -0.0551  0.2278 -0.0952
17600W        W22000   9.705   6.529  18.095  0.0923 -0.5204 -0.3732
17601W        W22001   8.386   0.159  43.634 -0.0166 -0.0291 -0.3807
17602W        W22002   8.799   5.087  31.867  0.0238 -0.0583  0.1994
17603W        W22003   4.384   5.008  11.214  0.1188 -0.2558  0.1738
17604W        W22004  10.372   4.345   1.984 -0.0251  0.0580  0.0629
17605W        W22005  10.522   1.546  39.167 -0.4508  0.1678 -0.0518
17606W        W22006   7.787   6.234  44.014  0.0899  0.1931  0.1648
17607W        W22007   6.618   4.554   7.461 -0.2851  0.1328 -0.0466
17608W        W22008  20.080   6.457  11.039  0.2785  0.1286 -0.0387
17609W        W22009  16.174   4.593  41.642  0.0494 -0.2741 -0.1750
17610W        W22010  13.076   2.322  11.044 -0.0152  0.0543 -0.0070
17611W        W22011  16.726   2.783  18.798 -0.0633 -0.0296 -0.1133
17612W        W22012   1.916   0.295   4.117  0.0378 -0.1663  0.0942
17613W        W22013   7.711   3.221   3.561 -0.1117  0.0817 -0.2830
17614W        W22014  16.648   4.762  20.778 -0.4337 -0.0258 -0.2237
17615W        W22015  12.520   5.444   2.199  0.0256 -0.0560 -0.0325
17616W        W22016  20.360   0.284  11.444  0.0268  0.0039 -0.0871
17617W        W22017  14.368   5.243  19.739  0.1857  0.1973  0.1113
17618W        W22018   6.116   1.146   6.710 -0.2256 -0.0381 -0.1219
17619W        W22019  17.661   3.108  16.356 -0.0815 -0.0691  0.0075
17620W        W22020   9.319   5.981  43.995  0.0751 -0.2035 -0.0705
17621W        W22021   7.427   1.921   1.223  0.3701 -0.5115 -0.0435
17622W        W22022   5.568   4.865   8.328 -0.0084  0.4891  0.0812
17623W        W22023  12.298   0.366  13.907  0.3032 -0.2821  0.0026
17624W        W22024  11.841   4.566   4.492 -0.2577 -0.1194  0.3838
17625W        W22025  13.861   4.275  39.059  0.2463  0.0118  0.0595
17626W        W22026   1.669   0.299   5.147  0.2146 -0.0606 -0.1848
17627W        W22027   0.709   2.588  13.491  0.0457 -0.1192  0.1384
17628W        W22028   2.796   3.644  40.639 -0.0222  0.1098 -0.1603
17629W        W22029   7.797   0.179  38.117 -0.0469  0.2085 -0.1772
17630W        W22030   0.115   6.326   2.517  0.1824  0.1705 -0.0826
17631W        W22031   8.532   0.502  16.659  0.0695  0.1565 -0.2445
17632W        W22032  13.262   0.143  42.561  0.3383 -0.0315 -0.0565
17633W        W22033   2.105   5.259   2.538  0.0260  0.1226  0.0581
17634W        W22034  14.037   3.153  17.194  0.2265  0.0662 -0.0429
17635W        W22035   5.389   5.615  45.107  0.1989  0.0779 -0.0909
17636W        W22036  13.691   0.941  30.377 -0.1225  0.0967 -0.0157
17637W        W22037   4.788   2.651  31.866 -0.2919  0.2366  0.0740
17638W        W22038   0.543   1.892  25.397 -0.0136 -0.0784 -0.2774
17639W        W22039  15.618   4.761  10.429  0.0856  0.2076 -0.1993
17640W        W22040   5.955   5.637  37.980  0.0041  0.0665 -0.3136
17641W        W22041  14.970   4.390  37.945 -0.2095  0.3735  0.1657
17642W        W22042  21.170   3.241  13.351 -0.2493 -0.4647  0.1672
17643W        W22043  15.658   1.965  10.627  0.1741  0.1639 -0.3233
17644W        W22044  15.517   0.141   6.922 -0.1339 -0.0225 -0.3736
17645W        W22045   1.451   3.364  35.601  0.1064  0.3887 -0.1641
17646W        W22046  15.330   5.627  33.813 -0.1849  0.0512  0.1343
17647W        W22047   5.724   1.447  23.549  0.1042  0.3574  0.0076
17648W        W22048  14.704   2.737   5.654  0.0923  0.0393  0.2877
17649W        W22049  17.787   0.619   8.697  0.1461 -0.3070  0.2575
17650W        W22050   5.056   4.085  40.452 -0.1186 -0.3586  0.1285
17651W        W22051   5.197   0.479   7.921  0.3143  0.1860 -0.1895
17652W        W22052  15.820   3.644  33.723  0.3382 -0.2594  0.0179
17653W        W22053  10.053   5.813  33.016 -0.1421  0.0656 -0.0212
17654W        W22054   2.142   5.151  25.554  0.1645 -0.2814  0.2114
17655W        W22055  19.750   2.410  33.351 -0.0808 -0.4516  0.1802
17656W        W22056   8.798   2.501   5.139 -0.3828 -0.0939  0.2041
17657W        W22057  18.420   1.942  28.653 -0.0714 -0.1692 -0.0362
17658W        W22058   7.788   2.153  32.156  0.1177 -0.2484 -0.1264
17659W        W22059   5.158   4.124  31.402 -0.0361 -0.0012 -0.2682
17660W        W22060   2.330   4.146  33.812  0.2748  0.2725  0.4992
17661W        W22061   9.422   1.918  45.043 -0.1868  0.0655 -0.0171
17662W        W22062  12.742   3.051  21.356  0.0764 -0.2642  0.0162
17663W        W22063   7.054   3.022  26.597  0.0140  0.1460  0.1079
17664W        W22064  15.976   0.481  40.770 -0.1914 -0.0869 -0.2089
17665W        W22065  14.090   1.562  34.272 -0.1495 -0.3092 -0.0075
17666W        W22066  19.830   4.057   2.289 -0.1419 -0.2420 -0.0223
17667W        W22067  13.927   5.889  35.943  0.0279  0.0143 -0.0555
17668W        W22068  13.454   4.563  37.308  0.1560  0.1598 -0.0090
17669W        W22069  18.333   1.778  37.745  0.1061 -0.0228  0.0945
17670W        W22070  11.901   3.058  33.738  0.1971 -0.1640 -0.2238
17671W        W22071   4.310   1.683   4.027  0.1923  0.1413 -0.3543
17672W        W22072  11.672   4.648  18.900  0.0304  0.2474 -0.0657
17673W        W22073   8.786   6.426  10.988  0.1663 -0.0402  0.3017
17674W        W22074  19.354   5.213  27.504 -0.0982  0.1250 -0.2102
17675W        W22075  16.826   4.219  10.823  0.4381  0.1913 -0.1823
17676W        W22076  13.165   5.138  22.323 -0.3702 -0.0625 -0.0432
17677W        W22077  17.253   4.185  31.445 -0.0024  0.1850 -0.0928
17678W        W22078  15.814   0.898  40.604  0.1804  0.0317 -0.2173
17679W        W22079  14.954   1.343  40.195 -0.0294 -0.2207 -0.0107
17680W        W22080   6.754   2.549  13.734 -0.1019  0.1238  0.1503
17681W        W22081   8.262   0.694  14.227  0.0694 -0.1040  0.1252
17682W        W22082   3.850   0.721  20.115  0.0537 -0.0952  0.1618
17683W        W22083   6.740   4.639  11.163  0.1438 -0.2462 -0.2453
17684W        W22084   7.492   4.597  26.015 -0.0621 -0.0198  0.0570
17685W        W22085  20.800   0.078   3.715 -0.1781 -0.2213  0.1048
17686W        W22086  13.989   4.093   9.126  0.2271  0.0764 -0.0509
17687W        W22087   3.028   5.900   1.625 -0.0149  0.0563 -0.1254
17688W        W22088  15.620   1.739   3.303 -0.0717  0.0841  0.2321
17689W        W22089   6.532   6.533  13.220 -0.1613  0.0437 -0.1084
17690W        W22090  13.354   6.251  44.231 -0.1747  0.3093  0.5690
17691W        W22091  15.428   4.518   5.537  0.2993 -0.1231 -0.0337
17692W        W22092  11.513   5.013  33.426  0.0588 -0.2672  0.0575
17693W        W22093   9.874   5.967  36.989 -0.1135  0.0140 -0.0820
17694W        W22094   1.320   2.759   0.786 -0.2795 -0.0716  0.2747
17695W        W22095   2.591   3.395  13.507 -0.4977 -0.1738  0.2648
17696W        W22096  19.784   1.068  35.700  0.1115 -0.1424 -0.1320
17697W        W22097   0.033   3.993  15.429 -0.0769 -0.0669  0.1718
17698W        W22098   1.902   0.814  24.894  0.1629  0.0297 -0.0534
17699W        W22099  13.732   5.284  13.546 -0.0093 -0.0045 -0.1531
17700W        W22100  18.276   1.432   5.608 -0.0984  0.2007 -0.0458
17701W        W22101   8.510   0.083  31.224  0.3936 -0.2138 -0.0973
17702W        W22102  16.292   2.750  36.885  0.1374 -0.0845  0.0271
17703W        W22103   9.096   3.483  31.283  0.1901 -0.0082  0.0513
17704W        W22104   5.926   5.331  27.209  0.3570 -0.0558  0.1012
17705W        W22105   9.529   1.557  19.608 -0.3520  0.1057  0.0271
17706W        W22106   9.576   3.419   1.981  0.0420 -0.2216 -0.1984
17707W        W22107   1.800   5.206  34.518  0.1245 -0.2738  0.1867
17708W        W22108   8.538   0.341  14.511  0.0590  0.2330  0.1439
17709W        W22109   3.961   1.690  30.512  0.0346 -0.3789 -0.1750
17710W        W22110  17.268   3.580   5.428  0.0307  0.1047  0.0131
17711W        W22111   7.437   4.073  11.775  0.2175 -0.2048 -0.0976
17712W        W22112  12.185   5.692  36.255 -0.1809  0.3977 -0.2253
17713W        W22113  11.454   0.667  14.777 -0.0498  0.2572  0.0816
17714W        W22114   6.258   2.838   5.380 -0.1716 -0.4014 -0.3946
17715W        W22115   0.671   5.128  43.569 -0.0800  0.1037 -0.1957
17716W        W22116   2.207   1.719   3.176  0.2964  0.1097 -0.3023
17717W        W22117   8.083   0.932  45.099  0.1356  0.0669  0.2328
17718W        W22118   0.969   5.500   8.387  0.1587 -0.4072  0.1473
17719W        W22119  16.319   6.218  21.264  0.0591  0.0840  0.0624
17720W        W22120   7.245   2.718  44.701 -0.2131  0.1390 -0.2346
17721W        W22121  20.813   5.265  11.226  0.1873  0.2232  0.0678
17722W        W22122  13.298   5.990   4.841 -0.2352  0.1029  0.0704
17723W        W22123   9.708   4.328  10.982  0.1741 -0.1270  0.0528
17724W        W22124  12.958   4.768  11.753 -0.3716  0.1651 -0.0722
17725W        W22125  17.095   2.065   5.485 -0.3108 -0.1918  0.1773
17726W        W22126  13.220   1.438   5.260 -0.1789  0.0346  0.2992
17727W        W22127   3.181   0.015  23.985  0.1689  0.3297  0.2037
17728W        W22128  18.054   4.806  42.350 -0.1186 -0.0618 -0.0617
17729W        W22129  12.143   3.890  18.825 -0.0382 -0.2506  0.2855
17730W        W22130  13.405   1.652  21.742 -0.0140 -0.1947  0.1196
17731W        W22131   3.420   6.282  21.145 -0.1685  0.0109 -0.1272
17732W        W22132   5.048   4.029  42.921 -0.1797 -0.0090 -0.1573
17733W        W22133  12.815   3.380   9.882 -0.0393 -0.0722  0.1460
17734W        W22134  16.903   5.740  11.042 -0.0342 -0.1405 -0.0730
17735W        W22135  14.433   3.256  18.568 -0.0007  0.0758 -0.4179
17736W        W22136  14.325   0.227  16.108  0.0635 -0.0940 -0.3392
17737W        W22137  15.709   0.934  10.592  0.0015  0.1240  0.0170
17738W        W22138  13.165   4.456  40.842 -0.0926 -0.0941 -0.1132
17739W        W22139  19.496   0.922  18.483 -0.0431 -0.0326 -0.3543
17740W        W22140  10.485   1.091  19.534 -0.0200 -0.2351 -0.0976
17741W        W22141  15.718   6.090  10.533 -0.1644 -0.0333  0.0512
17742W        W22142  12.663   5.376   8.814  0.2316 -0.1942  0.1229
17743W        W22143  18.605   3.158   1.907 -0.4208 -0.0009  0.0804
17744W        W22144   0.554   1.588  32.217 -0.0155  0.1467  0.0325
17745W        W22145   5.200   4.758  29.313 -0.0487 -0.0435 -0.0579
17746W        W22146   2.230   4.723  38.620 -0.0790  0.0060 -0.2450
17747W        W22147   2.069   6.571  25.997 -0.0247 -0.2067 -0.2135
17748W        W22148  15.378   2.462  23.959  0.0681  0.1732 -0.1906
17749W        W22149   6.755   0.348  14.032  0.0552  0.0756  0.2061
17750W        W22150   4.508   0.343   4.308 -0.1382 -0.1414  0.1471
17751W        W22151   8.102   3.020  11.286 -0.0122 -0.3746  0.1522
17752W        W22152  18.630   2.190  15.849 -0.1200  0.2593  0.2040
17753W        W22153   3.446   2.183  32.978 -0.0537  0.0152  0.2912
17754W        W22154  18.607   4.870  40.359  0.2980 -0.1074  0.1269
17755W        W22155   9.669   5.987  43.413  0.0280  0.1837 -0.1258
17756W        W22156  14.896   2.367  20.793  0.3601 -0.0579 -0.0422
17757W        W22157   3.175   3.449  11.730  0.0162  0.2210 -0.0336
17758W        W22158   2.353   1.741  41.213  0.0598 -0.3187  0.1055
17759W        W22159  19.594   0.336   0.728 -0.2522  0.1707 -0.0882
17760W        W22160  10.952   5.836  39.929  0.4581 -0.0648 -0.0132
17761W        W22161   0.165   2.462  31.149 -0.0514 -0.1981  0.0985
17762W        W22162  15.928   0.219   6.646 -0.0904  0.2393 -0.0899
17763W        W22163  18.847   3.045  38.366  0.0456 -0.1808  0.1325
17764W        W22164  12.477   5.610  44.122 -0.0451 -0.0209 -0.1648
17765W        W22165  18.069   6.549   6.413 -0.1036  0.1138  0.0410
17766W        W22166  20.238   6.398  29.016  0.0359 -0.0677  0.1609
17767W        W22167   7.413   6.403  43.630  0.0010 -0.0261 -0.3143
17768W        W22168  11.095   2.132  38.991  0.0537 -0.0051  0.0974
17769W        W22169  14.263   3.277   9.902  0.1029 -0.1157 -0.3577
17770W        W22170  16.518   6.337  32.343 -0.0851  0.0088  0.0075
17771W        W22171  12.383   2.181   1.798 -0.4451  0.0464 -0.0517
17772W        W22172  11.332   4.354  15.686 -0.2716 -0.2668 -0.0905
17773W        W22173   3.859   5.093  36.213  0.2730 -0.3577 -0.0007
17774W        W22174  11.963   6.400  30.271 -0.0454 -0.3066 -0.1147
17775W        W22175   1.284   2.208  26.395  0.3279  0.3932 -0.1065
17776W        W22176  18.940   0.726  18.370  0.1762 -0.0641 -0.1783
17777W        W22177   6.474   0.235  43.974  0.1257 -0.1290 -0.2733
17778W        W22178  10.429   1.009  37.741  0.0621 -0.1650 -0.0394
17779W        W22179  13.456   1.022   1.692  0.0627  0.0115  0.1825
17780W        W22180   0.161   0.784   6.762 -0.1218  0.1333 -0.0280
17781W        W22181  13.124   1.734  36.247  0.1809  0.2400 -0.2056
17782W        W22182  15.210   4.704  16.889  0.1045 -0.0105  0.0184
17783W        W22183   1.276   1.118   1.031  0.0085  0.0087  0.1461
17784W        W22184   4.046   3.370  44.195 -0.0583  0.3900  0.4025
17785W        W22185  16.406   4.347  40.685 -0.3133 -0.4064  0.0760
17786W        W22186   5.746   2.826  43.055 -0.2178  0.0870  0.4738
17787W        W22187  13.844   1.928   5.603 -0.2388  0.0352  0.1322
17788W        W22188   1.392   1.160  32.046  0.1305  0.3823  0.0488
17789W        W22189  18.979   5.135  36.396 -0.2100  0.0252  0.0526
17790W        W22190   5.832   1.769   4.774 -0.0485  0.0461  0.0141
17791W        W22191  18.211   2.397  11.137 -0.3406 -0.1510 -0.2814
17792W        W22192   1.004   2.426   3.372  0.1386 -0.0224 -0.0803
17793W        W22193   2.160   4.145  26.957  0.3424  0.1315 -0.0223
17794W        W22194  18.161   0.896  34.316  0.0937 -0.3316  0.0146
17795W        W22195  20.770   3.232  42.536 -0.1410 -0.1265 -0.0953
17796W        W22196  10.876   0.183  11.821 -0.5927 -0.1350 -0.0680
17797W        W22197   4.449   4.281  22.937 -0.1206  0.0415  0.0731
17798W        W22198  10.492   4.334  31.285 -0.0531 -0.1982 -0.1511
17799W        W22199  17.773   6.362   5.043  0.1613  0.2072  0.0440
17800W        W22200  12.747   4.983  13.154 -0.0658 -0.1092 -0.3634
17801W        W22201   9.677   4.386   0.025  0.2327  0.3148  0.2153
17802W        W22202  14.885   3.760   0.829  0.2651 -0.1295 -0.0605
17803W        W22203  15.042   5.489  41.922 -0.1194  0.1424 -0.4162
17804W        W22204  13.392   0.784  10.818  0.1452 -0.0491  0.2297
17805W        W22205  13.338   6.136  18.827 -0.1956  0.0829 -0.1466
17806W        W22206  12.873   4.842   2.551  0.0141 -0.1658 -0.1478
17807W        W22207   9.556   1.141  18.719 -0.2247 -0.0323 -0.0864
17808W        W22208   6.159   2.065  12.742  0.1496  0.1414  0.0431
17809W        W22209   2.937   2.410  41.090 -0.0787 -0.1352 -0.2015
17810W        W22210  20.641   1.689  42.798 -0.0445  0.2475  0.5423
17811W        W22211   8.630   1.673  33.376 -0.0700 -0.0698 -0.0503
17812W        W22212  13.238   2.149  13.342 -0.1841  0.0937  0.4774
17813W        W22213   8.659   0.151   0.347 -0.1172  0.2287  0.0494
17814W        W22214  15.689   0.524  15.552 -0.2659 -0.1328  0.1459
17815W        W22215   8.657   0.061  17.677 -0.1351  0.0703  0.2791
17816W        W22216  13.225   0.421  22.585  0.0543 -0.3712 -0.0868
17817W        W22217   9.198   5.517  31.798  0.0199  0.0565  0.0517
17818W        W22218  15.489   0.057   5.445  0.1325  0.2836 -0.1293
17819W        W22219  11.082   2.167  40.186  0.1285  0.1094 -0.0165
17820W        W22220  13.230   5.440  11.184  0.1876 -0.2440 -0.1045
17821W        W22221  20.410   6.370  38.993  0.1423  0.0454 -0.2999
17822W        W22222   9.210   4.677   5.739 -0.2477  0.1191 -0.1256
17823W        W22223   2.726   0.371  42.500 -0.3859  0.0620 -0.1490
17824W        W22224   0.700   5.770   9.835  0.3529  0.3526  0.3815
17825W        W22225   7.889   2.773  24.599 -0.3027  0.1923 -0.0716
17826W        W22226   0.067   3.063  15.646 -0.1677 -0.1985 -0.1798
17827W        W22227   4.692   0.003  35.855  0.4012  0.2546  0.0984
17828W        W22228  14.649   5.225  44.662  0.0853 -0.1751  0.0369
17829W        W22229   9.903   5.925  40.734  0.3567  0.0989  0.0268
17830W        W22230   6.727   3.262  15.238 -0.2906  0.0114  0.0003
17831W        W22231   0.500   3.736  39.322  0.3261 -0.1124 -0.0556
17832W        W22232   3.986   2.994   3.527  0.0914 -0.2001  0.0881
17833W        W22233   7.994   1.412  26.929 -0.1769  0.1216  0.2271
17834W        W22234  13.757   2.818  18.013  0.3325 -0.0697 -0.0223
17835W        W22235  12.055   4.453  42.273  0.1580 -0.1286  0.2380
17836W        W22236  16.949   1.267   7.273 -0.0387 -0.1093 -0.2445
17837W        W22237  11.736   5.747  20.630 -0.0745  0.3216  0.3094
17838W        W22238  10.199   6.491   1.941  0.3294  0.0565  0.0454
17839W        W22239   0.823   2.501  37.726 -0.1949 -0.0050 -0.0525
17840W        W22240  17.184   6.493   7.830 -0.0161 -0.0893  0.0583
17841W        W22241   9.980   3.556  32.348  0.0411 -0.0543  0.1777
17842W        W22242  12.233   1.131   0.866  0.4818  0.2561 -0.2686
17843W        W22243   2.195   1.486  28.940 -0.1880 -0.0409  0.2071
17844W        W22244  20.917   2.382  26.336 -0.0103  0.0992 -0.2988
17845W        W22245   3.900   4.855  23.111  0.0726 -0.0673  0.0727
17846W        W22246   4.722   3.089   6.666 -0.0891  0.0738 -0.0734
17847W        W22247  19.152   4.659  44.263 -0.0156  0.2135  0.1438
17848W        W22248   1.557   2.177   2.035  0.1647 -0.4194  0.0680
17849W        W22249  13.899   5.247  17.541 -0.3571  0.0445 -0.0172
17850W        W22250  20.146   2.007  26.707 -0.1409 -0.2708 -0.2926
17851W        W22251   0.282   4.460  39.447  0.2208  0.0484 -0.2149
17852W        W22252   8.017   0.750  34.667 -0.0929 -0.4401  0.0710
17853W        W22253  10.507   4.197   3.968 -0.1858 -0.0958  0.1683
17854W        W22254   0.655   5.847  26.571  0.1558 -0.3513  0.0193
17855W        W22255  12.131   3.360  44.595 -0.1094  0.1595  0.0625
17856W        W22256  15.118   6.060  29.587  0.1325 -0.0125 -0.1989
17857W        W22257   0.006   5.748  30.940  0.0557 -0.3712  0.1360
17858W        W22258  13.283   6.494  41.326  0.1750  0.0531 -0.0008
17859W        W22259   2.136   2.709  23.159  0.0772  0.2523 -0.1440
17860W        W22260   4.426   3.197  21.276 -0.2739 -0.0858 -0.0222
17861W        W22261   6.066   5.039  16.556 -0.1702 -0.3198  0.1596
17862W        W22262   9.839   4.038  10.038 -0.2820 -0.1137 -0.0512
17863W        W22263   9.570   6.486  10.225  0.1173  0.0721  0.0209
17864W        W22264   4.615   3.183  37.818  0.2452  0.2610 -0.0892
17865W        W22265  10.885   5.735  42.640  0.1045  0.0263  0.0076
17866W        W22266   4.957   1.223  35.363 -0.4377  0.0798  0.0593
17867W        W22267   1.151   5.607   2.601  0.1201  0.1450  0.2847
17868W        W22268  19.600   3.346  15.262  0.1086  0.2168  0.2184
17869W        W22269  18.966   0.908  32.697  0.1153  0.1851  0.1623
17870W        W22270   9.392   4.590  34.432 -0.1275 -0.2721 -0.2429
17871W        W22271  16.447   3.940  12.338 -0.0397 -0.1110  0.0676
17872W        W22272   4.214   0.787   5.827  0.0716  0.0335 -0.0016
17873W        W22273   8.445   0.869  33.675 -0.3597 -0.2843  0.2999
17874W        W22274  14.172   3.082  10.959  0.1454  0.1636  0.2232
17875W        W22275   9.771   1.649  41.967  0.1059  0.1876  0.2682
17876W        W22276  13.726   4.933   1.458  0.1424  0.1166 -0.3496
17877W        W22277   7.757   6.115   3.485 -0.0878 -0.1885 -0.1366
17878W        W22278   4.790   6.470  28.232  0.2769 -0.0134 -0.0212
17879W        W22279  15.982   6.548  40.877 -0.1740  0.0968 -0.2045
17880W        W22280   1.333   2.713  11.457  0.1291  0.1290 -0.0436
17881W        W22281  14.396   1.121  11.558 -0.3226 -0.3233 -0.4383
17882W        W22282   8.946   5.948  27.448 -0.2487 -0.3907  0.2758
17883W        W22283  18.722   0.075  43.728  0.1007 -0.0313 -0.0277
17884W        W22284  15.381   6.169  34.159  0.0023 -0.0842 -0.1127
17885W        W22285  20.903   1.753   4.438  0.1007  0.0921 -0.4082
17886W        W22286   5.687   1.590   2.188  0.0830 -0.1012  0.0998
17887W        W22287   0.821   0.428  38.742 -0.1029  0.0170  0.1295
17888W        W22288  17.501   6.514  11.853  0.0050 -0.0516 -0.0022
17889W        W22289  11.777   1.290  11.386 -0.0859 -0.0687 -0.3115
17890W        W22290   1.006   0.819  10.640  0.0088  0.2436  0.3033
17891W        W22291  13.393   4.250  39.208  0.2229  0.0810  0.2574
17892W        W22292  16.095   3.342  38.011 -0.1002 -0.0212  0.1681
17893W        W22293  17.076   0.952   9.598  0.2970 -0.0083  0.1536
17894W        W22294   3.313   6.304  37.389  0.1467  0.2389 -0.1565
17895W        W22295  20.265   0.334  10.940  0.2264  0.1026 -0.1615
17896W        W22296  13.801   4.260  28.667  0.1630  0.2801 -0.0469
17897W        W22297   1.542   4.936  38.323  0.2132  0.3911  0.2287
17898W        W22298   0.095   4.183  29.995 -0.0945 -0.1291  0.2541
17899W        W22299  18.683   0.542  43.623 -0.1534  0.2246 -0.1083
17900W        W22300  14.799   0.281  31.718 -0.2299 -0.3089  0.2701
17901W        W22301  18.278   3.023   4.456  0.0042 -0.1841  0.0540
17902W        W22302   2.896   6.207  14.681  0.1275  0.0479 -0.1286
17903W        W22303  19.655   6.122  18.205  0.2699  0.1885  0.3086
17904W        W22304  12.021   4.576  40.087 -0.0853 -0.3335 -0.0214
17905W        W22305   6.355   5.544  23.804 -0.1499 -0.3012 -0.2358
17906W        W22306   5.840   5.648  11.994 -0.0493 -0.3272 -0.2552
17907W        W22307   4.807   3.337  28.915  0.1847  0.2604  0.0212
17908W        W22308   6.450   1.355   9.725  0.1767  0.0511 -0.2767
17909W        W22309   8.122   4.562  34.260 -0.0949  0.0632 -0.2919
17910W        W22310   5.065   1.404   8.317  0.3082  0.1532 -0.1386
17911W        W22311   9.948   1.332  16.965 -0.1554 -0.0638  0.0295
17912W        W22312  14.249   4.332  34.921 -0.2335 -0.0721 -0.1909
17913W        W22313  20.755   1.380  30.796 -0.0280  0.2639  0.0388
17914W        W22314   7.170   5.870  15.275 -0.1056 -0.1564  0.0206
17915W        W22315   2.232   0.302  28.785  0.0652 -0.5419  0.0493
17916W        W22316   3.356   0.994  14.308 -0.0403 -0.1025 -0.2091
17917W        W22317   2.672   2.448  29.020  0.1236  0.4886 -0.0275
17918W        W22318  11.575   3.433   0.172 -0.0759  0.1116 -0.1426
17919W        W22319   3.058   5.235  32.065 -0.0344  0.2471  0.0101
17920W        W22320  20.897   4.905   4.391  0.1761  0.0857 -0.0228
17921W        W22321  13.756   0.718   3.663  0.1498 -0.0848  0.4206
17922W        W22322  15.263   2.568  45.041  0.0428 -0.2003  0.1550
17923W        W22323  19.043   4.398  27.613 -0.0216  0.1173  0.3038
17924W        W22324  12.832   3.646  43.630 -0.0412  0.0679 -0.1401
17925W        W22325   8.359   6.241  31.467  0.1887 -0.2186  0.1635
17926W        W22326   9.874   1.341  39.912  0.0631 -0.0621 -0.3114
17927W        W22327   8.532   1.538   5.424 -0.1169  0.0380  0.1206
17928W        W22328   3.042   0.699  39.991  0.1493  0.1027 -0.0279
17929W        W22329  19.509   0.775  11.114  0.0098  0.3420 -0.2430
17930W        W22330   7.982   4.738  32.711  0.3026  0.1632 -0.0532
17931W        W22331  13.719   1.446  18.174 -0.1410  0.4091 -0.2355
17932W        W22332   6.275   6.088   8.564 -0.1340  0.1549  0.0701
17933W        W22333   9.619   5.846   6.815 -0.1105 -0.0187 -0.1150
17934W        W22334   9.881   3.304  35.629  0.3127  0.2446 -0.0923
17935W        W22335  17.592   2.573  10.755 -0.0456  0.2718 -0.0059
17936W        W22336  13.204   2.825   6.264 -0.1429 -0.2220  0.1176
17937W        W22337  15.548   2.603  29.718  0.0208 -0.2104  0.0197
17938W        W22338   8.335   2.819  42.043  0.0856  0.1042 -0.2607
17939W        W22339  18.307   2.500  17.313 -0.0489 -0.0530 -0.1273
17940W        W22340   7.714   3.725  43.526  0.0044  0.3902  0.1992
17941W        W22341   0.580   4.858   0.712  0.2304  0.1288 -0.0606
17942W        W22342   7.887   1.939   8.303 -0.0829  0.0286  0.0879
17943W        W22343  11.638   2.132  28.501  0.0797 -0.0622 -0.0924
17944W        W22344  19.568   0.582   7.832  0.0551 -0.1101 -0.1276
17945W        W22345  11.026   1.945  21.219 -0.1095  0.0351 -0.2007
17946W        W22346   0.834   0.395  43.392  0.2540  0.1545  0.2830
17947W        W22347   1.967   2.878  42.641  0.1175  0.3108 -0.1022
17948W        W22348  12.500   0.035  33.252 -0.2455  0.0351 -0.0065
17949W        W22349   8.755   0.357  36.338  0.2547 -0.2124  0.0059
17950W        W22350  18.312   2.109  41.169 -0.4024 -0.1154  0.0931
17951W        W22351   4.820   1.625  26.924 -0.2061 -0.1251 -0.2620
17952W        W22352  19.351   3.555  13.477 -0.1307  0.0445 -0.0485
17953W        W22353   4.529   3.982  25.117 -0.0013 -0.1946 -0.1675
17954W        W22354  10.592   5.163  34.831  0.0955  0.2386 -0.0148
17955W        W22355  20.425   4.513  39.647 -0.0223  0.1287  0.0539
17956W        W22356  17.150   3.450  33.199  0.1565  0.0921 -0.1346
17957W        W22357   0.934   1.273   1.393 -0.0319 -0.1844 -0.0129
17958W        W22358   5.083   1.733  13.201  0.0756  0.1435  0.0101
17959W        W22359   2.178   4.982  30.315  0.1102  0.2084 -0.0109
17960W        W22360  12.840   2.078  22.424 -0.1338 -0.3223  0.0141
17961W        W22361  13.454   3.802  20.250  0.3034  0.1925  0.0568
17962W        W22362   8.828   4.137  28.247  0.2033 -0.4165 -0.1218
17963W        W22363  14.310   3.529   3.349 -0.0429 -0.0868  0.1215
17964W        W22364   6.349   2.887  15.567  0.1201  0.0598  0.3534
17965W        W22365  17.160   1.921  28.153  0.2683 -0.1634 -0.0091
17966W        W22366  12.883   6.223  36.056 -0.1858 -0.0302  0.1411
17967W        W22367   2.968   5.933  27.300 -0.0711 -0.0523  0.0634
17968W        W22368  12.048   3.886   3.941 -0.2567  0.1968 -0.0419
17969W        W22369  13.866   6.007  34.123  0.0840 -0.2513 -0.7166
17970W        W22370  17.337   4.318  16.642 -0.3467  0.3522 -0.2808
17971W        W22371   1.690   3.743  39.443  0.1808  0.1196  0.0088
17972W        W22372  19.687   1.232  10.185  0.1775  0.2738  0.2464
17973W        W22373   2.896   5.172   4.186  0.0666 -0.2503  0.1945
17974W        W22374   5.880   5.143  43.429 -0.0129 -0.2679 -0.0981
17975W        W22375  18.772   0.435   6.815  0.0608 -0.0872 -0.3300
17976W        W22376  13.205   4.137   9.828 -0.1251  0.0377 -0.1784
17977W        W22377  19.098   5.559  12.856 -0.0471  0.1811  0.2266
17978W        W22378   5.654   0.823  10.678  0.4214 -0.0239 -0.1237
17979W        W22379   9.588   4.361   9.555 -0.0504  0.1203  0.2729
17980W        W22380   5.494   1.385   9.137  0.2702  0.1226  0.1846
17981W        W22381  11.319   1.690   3.371  0.0851  0.2983 -0.0472
17982W        W22382   1.481   1.982   5.848  0.1481  0.1673  0.0927
17983W        W22383  20.365   2.966  10.880  0.0961  0.1304  0.1912
17984W        W22384   2.643   2.201  21.933  0.0783 -0.1729 -0.2816
17985W        W22385  10.852   5.521  31.498 -0.0933 -0.0554 -0.1230
17986W        W22386  18.181   5.423   8.838  0.0333  0.0876 -0.2521
17987W        W22387  12.882   4.962   8.941 -0.2303  0.1206 -0.1968
17988W        W22388  20.812   5.512  13.168  0.1581 -0.0769 -0.0606
17989W        W22389   7.782   1.210  34.045 -0.0858  0.2417 -0.2283
17990W        W22390   5.762   4.266  14.289 -0.2756  0.0152 -0.2269
17991W        W22391  18.186   5.787  40.780 -0.2192 -0.0123 -0.1667
17992W        W22392   8.020   2.718   3.736 -0.0388 -0.2463  0.0215
17993W        W22393  20.007   1.117  27.679  0.2280  0.1344  0.1698
17994W        W22394   5.315   4.745  34.395  0.2372  0.0782  0.0748
17995W        W22395  16.853   2.244  29.234 -0.2195 -0.1090  0.1231
17996W        W22396  10.244   0.064   4.659  0.3051 -0.2404 -0.0596
17997W        W22397  10.261   3.193  28.616 -0.0057 -0.2105  0.2627
17998W        W22398   8.768   1.829   5.738  0.0834  0.1002 -0.0643
17999W        W22399  17.922   3.098  35.328 -0.2056 -0.0313 -0.1494
18000W        W22400   3.270   4.697   8.621  0.1421  0.1442  0.3127
18001W        W22401   3.735   2.934  29.191 -0.1667  0.0231  0.0642
18002W        W22402   1.234   3.974  36.951 -0.3984  0.2101  0.1943
18003W        W22403   7.066   3.549  40.008 -0.0925  0.2157 -0.0767
18004W        W22404   5.502   3.168  41.472 -0.1155  0.3556  0.1556
18005W        W22405   1.423   3.715   3.705  0.1418 -0.0200 -0.2474
18006W        W22406   1.191   4.347  11.498 -0.2159 -0.0631 -0.1578
18007W        W22407   1.105   1.464   1.829  0.2045  0.1475  0.1394
18008W        W22408   9.489   5.662  28.475 -0.1536  0.1231  0.1386
18009W        W22409   3.557   0.879  38.365  0.0904  0.1297  0.1744
18010W        W22410  10.189   0.660   0.779  0.0325  0.2321  0.1680
18011W        W22411  14.820   3.656  42.583 -0.1419 -0.1953  0.2242
18012W        W22412   7.068   6.385  15.404  0.1940 -0.2506  0.1266
18013W        W22413  14.538   4.162  28.491  0.0847 -0.0299  0.1980
18014W        W22414   6.374   5.705  27.827  0.1527  0.1341 -0.0939
18015W        W22415  18.010   4.470  39.092  0.2357 -0.0087  0.2160
18016W        W22416  11.727   1.510  16.319 -0.0421 -0.1530 -0.0970
18017W        W22417  15.220   6.195  41.435 -0.2405 -0.0256 -0.0067
18018W        W22418   9.389   6.362  15.987  0.0398 -0.0271 -0.2585
18019W        W22419  17.779   3.309  10.102  0.0015  0.1165 -0.0930
18020W        W22420  10.805   1.820   7.784 -0.0262  0.0492 -0.0022
18021W        W22421   9.618   2.170   1.840 -0.3324  0.0146  0.5547
18022W        W22422   1.555   3.667   2.526 -0.0352  0.3191 -0.0628
18023W        W22423   6.503   2.406  14.816  0.0840 -0.0074  0.1075
18024W        W22424  14.707   2.698  34.181 -0.0924 -0.1088  0.4069
18025W        W22425   7.898   0.691  44.230  0.1221 -0.1218 -0.2429
18026W        W22426  16.912   1.398  14.668  0.3631  0.1285 -0.2051
18027W        W22427  16.700   4.534  33.823  0.2887  0.1386 -0.1390
18028W        W22428   9.270   0.839  30.599  0.3200 -0.0611 -0.4309
18029W        W22429   2.280   5.252  22.544 -0.1009 -0.1735  0.0807
18030W        W22430  14.984   6.276  15.101 -0.0317 -0.2047  0.1177
18031W        W22431   4.687   2.159   5.880  0.2051  0.1171  0.0898
18032W        W22432  17.960   4.084   2.456  0.1020  0.0661  0.2154
18033W        W22433  12.409   2.571  13.119  0.0493 -0.3063 -0.1107
18034W        W22434  15.751   0.049  15.720 -0.1172  0.0017  0.0004
18035W        W22435   5.529   0.303  38.841 -0.1290 -0.1611  0.0494
18036W        W22436  16.813   4.114  15.278  0.1165 -0.0443  0.0662
18037W        W22437   2.829   3.751  24.030  0.2975  0.2110 -0.0264
18038W        W22438  16.908   4.783   5.010 -0.0275 -0.3266  0.3736
18039W        W22439   7.774   5.225   0.900  0.1931  0.0732  0.1088
18040W        W22440  11.463   4.412  10.856  0.0584 -0.2665 -0.2567
18041W        W22441  20.847   3.616  39.273 -0.0900  0.0286  0.0485
18042W        W22442  14.816   4.260  28.913  0.0780 -0.1307 -0.1648
18043W        W22443   4.292   1.016  42.338 -0.0527  0.1873  0.1114
18044W        W22444   1.384   2.174   7.314  0.0668 -0.0924  0.0190
18045W        W22445  11.160   5.015   1.736  0.0187 -0.1766  0.2338
18046W        W22446  14.126   2.024  35.206  0.1793 -0.0007  0.1660
18047W        W22447   7.584   0.912  10.757 -0.1551 -0.0505  0.1523
18048W        W22448   9.871   5.863  30.220 -0.0556 -0.6070 -0.0071
18049W        W22449  11.495   6.056  36.415 -0.0169  0.4063 -0.2461
18050W        W22450   4.825   1.490  29.980  0.0943  0.3845 -0.1122
18051W        W22451   5.205   6.386   4.905  0.1574 -0.2325  0.5885
18052W        W22452  14.620   4.154  45.104 -0.0400  0.0260 -0.0279
18053W        W22453  19.540   2.433  44.695  0.2372  0.0625 -0.0677
18054W        W22454  18.655   5.857  42.134  0.2647 -0.3336  0.0912
18055W        W22455   8.158   0.467  26.855  0.1019  0.1299 -0.0975
18056W        W22456   6.569   2.603  38.011 -0.1511  0.0985  0.3322
18057W        W22457   3.894   4.745  35.278  0.1635 -0.1463  0.0969
18058W        W22458   5.844   5.956  40.563  0.3024 -0.0824 -0.0251
18059W        W22459  13.427   3.733  34.319 -0.1523 -0.0379  0.0059
18060W        W22460   1.330   0.929  40.361  0.0507 -0.1082  0.1644
18061W        W22461   0.172   5.757   9.768 -0.1213 -0.0800  0.1486
18062W        W22462   9.101   1.172   2.648  0.1093  0.3250  0.0691
18063W        W22463   8.255   2.063   7.946 -0.0850  0.0054 -0.1544
18064W        W22464  13.098   5.683  15.202 -0.0182 -0.0589 -0.0199
18065W        W22465   6.693   5.691   7.856  0.1115  0.1413  0.2685
18066W        W22466   9.302   3.098  44.069 -0.1228  0.0704 -0.2177
18067W        W22467   7.775   2.863  30.457 -0.2461  0.1086 -0.3344
18068W        W22468  10.352   2.443  17.507 -0.2961 -0.1655 -0.1967
18069W        W22469   8.318   4.030  28.240  0.0353  0.1153 -0.1371
18070W        W22470  18.939   3.756  12.750 -0.3124 -0.3389  0.1486
18071W        W22471  20.917   5.405   0.871 -0.3109 -0.0177 -0.0356
18072W        W22472   1.431   0.079   8.897 -0.1292  0.0830 -0.2059
18073W        W22473  16.523   2.612  17.151  0.3414 -0.0583 -0.1577
18074W        W22474  16.760   6.164  13.054 -0.2827 -0.0060 -0.1397
18075W        W22475  18.293   1.342   6.134 -0.0759  0.0955 -0.2490
18076W        W22476   3.847   5.026  37.203 -0.0076 -0.1267  0.0891
18077W        W22477   7.925   6.448   2.306  0.0456  0.1628  0.4181
18078W        W22478  12.808   2.820  14.376 -0.0357  0.1297  0.0464
18079W        W22479   4.375   1.568  36.306  0.0226 -0.3223 -0.1046
18080W        W22480  15.834   2.250   0.658 -0.1866 -0.1518  0.0559
18081W        W22481  20.270   1.836  37.666  0.2809 -0.0998  0.1262
18082W        W22482   5.781   6.508  13.703  0.3172 -0.1365 -0.0588
18083W        W22483  19.891   1.740  42.241 -0.0517  0.3574  0.0052
18084W        W22484   7.417   5.111  40.074  0.3419  0.0148  0.2970
18085W        W22485   5.738   3.989  22.554  0.0005  0.0933  0.1050
18086W        W22486   3.136   3.597  32.304  0.0672 -0.1786 -0.0290
18087W        W22487   8.422   0.867  44.000 -0.1297 -0.1790 -0.3124
18088W        W22488  12.575   3.531  20.671  0.1202  0.3873 -0.0222
18089W        W22489  20.001   2.233  26.295  0.5794  0.1611 -0.0642
18090W        W22490  15.034   5.199  21.287  0.0822  0.3052 -0.1122
18091W        W22491  19.620   6.367  14.804  0.2941  0.0796 -0.0614
18092W        W22492  16.781   2.289   8.075 -0.2521 -0.1614  0.0672
18093W        W22493  16.292   0.392  42.931 -0.3375 -0.0179 -0.3068
18094W        W22494  14.987   3.602  15.321 -0.2024  0.1610  0.2620
18095W        W22495  12.900   0.472  31.761 -0.3264  0.1624 -0.2050
18096W        W22496  14.729   0.474  42.983  0.0097  0.0854  0.1032
18097W        W22497  18.835   0.198  41.830  0.0203  0.0006 -0.2518
18098W        W22498   7.113   5.969  26.374 -0.0270  0.0298 -0.1913
18099W        W22499   5.702   5.948  29.514 -0.1144  0.1542 -0.0764
18100W        W22500   1.330   5.709   4.134 -0.3642  0.3350  0.0014
18101W        W22501  11.955   5.936   8.740 -0.2056 -0.0433 -0.1225
18102W        W22502  19.054   0.184  14.648  0.0076  0.1650 -0.1424
18103W        W22503   2.509   1.587  34.160  0.0548 -0.0510 -0.1080
18104W        W22504  11.483   2.553   9.569  0.0036  0.0460 -0.1131
18105W        W22505   8.043   4.730   2.230  0.1843 -0.0081  0.2203
18106W        W22506   1.891   3.731  31.836 -0.0842  0.1123 -0.0595
18107W        W22507   3.406   6.522   3.205 -0.0131 -0.0590  0.1701
18108W        W22508   9.531   5.647   1.223  0.1966  0.1230  0.2193
18109W        W22509   4.733   4.528  26.876 -0.2015  0.0695 -0.1744
18110W        W22510   4.275   2.561  39.497 -0.0028 -0.2956 -0.2213
18111W        W22511  17.791   4.820  37.909 -0.0860  0.1329 -0.2962
18112W        W22512  18.854   1.671   9.420 -0.0114  0.0157 -0.2049
18113W        W22513   7.232   1.835  30.080 -0.0436  0.0241  0.2424
18114W        W22514  19.499   6.352   0.726 -0.1155 -0.1921  0.0264
18115W        W22515  12.279   3.605  11.121  0.0975 -0.2582 -0.2897
18116W        W22516   3.815   4.891  42.918 -0.1616  0.0741  0.2615
18117W        W22517  10.288   6.192  44.037  0.1530 -0.0005  0.3181
18118W        W22518   5.555   0.580  25.576  0.2320  0.0117  0.1203
18119W        W22519  13.995   0.838   0.895 -0.1788  0.2636 -0.1019
18120W        W22520  12.993   2.089   7.626  0.1159  0.0521 -0.4551
18121W        W22521  18.592   0.257   4.932 -0.0263  0.1124  0.0078
18122W        W22522  15.255   1.606  10.543 -0.2344  0.0431  0.1786
18123W        W22523   6.472   6.196  11.726  0.2169 -0.0180 -0.3323
18124W        W22524   3.302   4.165  23.228  0.1239 -0.3245 -0.0622
18125W        W22525  19.651   4.459  27.850  0.1258 -0.3733 -0.1214
18126W        W22526  17.643   5.626  33.119  0.0059 -0.1529  0.0834
18127W        W22527  10.199   3.823  29.027 -0.1891  0.0939  0.0429
18128W        W22528   9.789   3.819   7.334 -0.0034 -0.1822 -0.1011
18129W        W22529   1.171   3.339   7.010 -0.2193  0.1103  0.0200
18130W        W22530   9.600   5.071  14.728 -0.2400 -0.0530 -0.0990
18131W        W22531   3.534   0.418   3.157 -0.2109  0.1573 -0.0840
18132W        W22532  16.796   3.769  10.339  0.0480  0.2272  0.0486
18133W        W22533   6.018   5.589   0.500  0.1559 -0.0962  0.0118
18134W        W22534   8.896   3.771  29.233  0.0060 -0.0827 -0.2258
18135W        W22535  11.449   0.244   9.409  0.0741  0.2271 -0.0574
18136W        W22536  20.918   1.159  43.565  0.2088 -0.0959  0.3403
18137W        W22537   6.222   0.260  29.733  0.3986  0.0767  0.2900
18138W        W22538   2.801   4.940  29.502  0.2146 -0.0033 -0.1183
18139W        W22539  20.203   6.401  15.544  0.0893 -0.3463 -0.3665
18140W        W22540   7.961   4.116   3.373 -0.3110  0.0071 -0.0652
18141W        W22541  19.848   6.588   9.493  0.0371 -0.0524  0.3706
18142W        W22542   9.687   5.101  12.112 -0.1242  0.1664 -0.1170
18143W        W22543  17.781   2.829   8.416 -0.0415 -0.0194 -0.1543
18144W        W22544   9.378   6.145  27.825 -0.0060  0.3606 -0.1831
18145W        W22545  16.262   1.749  44.196  0.0182 -0.2007  0.1194
18146W        W22546   8.100   3.110   4.864  0.1263  0.0488  0.1468
18147W        W22547   6.458   1.526  43.926  0.4626 -0.1398  0.1819
18148W        W22548   3.513   4.311  32.624  0.1760 -0.2781  0.1305
18149W        W22549  16.605   1.757   2.903 -0.0508 -0.1854  0.0641
18150W        W22550  13.715   3.600  18.368 -0.0421 -0.2487  0.0328
18151W        W22551   8.219   4.400   5.596  0.1701  0.1138 -0.1645
18152W        W22552   4.548   2.864  10.301 -0.0450 -0.1466  0.1493
18153W        W22553   8.117   5.030   1.331 -0.2237  0.3238 -0.3224
18154W        W22554  20.863   2.431   1.669 -0.0303  0.3756  0.0844
18155W        W22555  14.067   1.470  36.801  0.0678 -0.1328 -0.1029
18156W        W22556  11.624   1.228  37.372  0.1600  0.2379  0.0137
18157W        W22557  19.041   5.440  43.581  0.2539  0.0438  0.0913
18158W        W22558   2.697   5.813  26.342 -0.1751 -0.0712  0.0789
18159W        W22559  17.655   2.038   1.408 -0.0050  0.1116  0.1050
18160W        W22560  20.458   3.936  11.855 -0.0890  0.0033  0.0370
18161W        W22561   5.149   5.319  40.744 -0.3315  0.0346  0.1582
18162W        W22562   5.981   3.021  40.131 -0.1035 -0.2837  0.0925
18163W        W22563   6.076   2.580  24.243  0.2661  0.0229 -0.0944
18164W        W22564   9.034   4.556   4.228  0.0810  0.2426  0.2683
18165W        W22565   0.087   0.838  25.135  0.0355  0.0253  0.2836
18166W        W22566  20.479   2.485  11.060 -0.0654 -0.0124  0.3278
18167W        W22567   0.653   2.449  12.009  0.0734 -0.4933 -0.0515
18168W        W22568   1.265   4.715   2.052 -0.0592 -0.0785 -0.0143
18169W        W22569  12.632   4.681  31.781 -0.1430 -0.1060  0.1697
18170W        W22570  14.700   2.273  10.458 -0.0672  0.1067 -0.0342
18171W        W22571  14.159   3.796   9.547  0.0892 -0.1342 -0.0282
18172W        W22572  16.886   3.022   0.585  0.1521  0.0188  0.0420
18173W        W22573  15.666   1.481   3.983  0.0265 -0.0802  0.3247
18174W        W22574   9.452   4.917  11.165 -0.0212 -0.1237  0.1064
18175W        W22575   6.232   3.749   5.198 -0.1210 -0.2434  0.3747
18176W        W22576  14.360   6.499  32.500  0.2152  0.3334  0.0913
18177W        W22577  17.637   5.498  28.436 -0.1881 -0.3141 -0.2943
18178W        W22578  18.446   1.577  37.283 -0.2371  0.3757 -0.2084
18179W        W22579  15.055   1.531  31.193  0.1528  0.2621 -0.0372
18180W        W22580  15.687   3.223  21.351  0.2061 -0.0028 -0.1017
18181W        W22581  21.079   4.531  10.613 -0.3024 -0.4837  0.1819
18182W        W22582  16.463   0.067  21.891 -0.0765 -0.0380 -0.5262
18183W        W22583   1.052   5.552  35.082  0.1150  0.0221 -0.0549
18184W        W22584   3.761   0.191  23.237 -0.3564  0.0728  0.0894
18185W        W22585   7.221   0.782  34.155  0.1896 -0.1112  0.0742
18186W        W22586   9.265   0.270  10.917  0.1728 -0.2668  0.0617
18187W        W22587   1.811   4.534  41.197 -0.1904 -0.3843  0.2901
18188W        W22588  12.772   4.968  34.930 -0.2392 -0.0383  0.1376
18189W        W22589   5.924   6.446  29.438  0.1079 -0.0546  0.0355
18190W        W22590   4.429   4.381  11.948 -0.0347  0.0317  0.2388
18191W        W22591  13.169   4.830   3.857 -0.0995  0.0890  0.1422
18192W        W22592  11.355   0.981  38.392 -0.1040  0.1528  0.2509
18193W        W22593   1.896   4.430  30.030  0.0017  0.0030 -0.1278
18194W        W22594  17.591   1.419  13.050  0.2913  0.0205 -0.0785
18195W        W22595  12.708   2.135  11.406 -0.1628 -0.2621  0.0805
18196W        W22596   1.994   4.113  11.495 -0.2003 -0.0699 -0.2872
18197W        W22597   7.453   5.347  16.497  0.0691  0.3304 -0.3575
18198W        W22598   0.053   5.597   3.641 -0.1768 -0.0794 -0.1445
18199W        W22599   6.016   4.684  30.456  0.0221  0.2461 -0.1771
18200W        W22600  12.369   1.327  29.928  0.0093 -0.1035  0.0584
18201W        W22601   8.165   5.687  40.571  0.4015  0.1886 -0.1486
18202W        W22602   9.948   2.586  43.718 -0.0356  0.2943 -0.1170
18203W        W22603  18.806   4.887  42.992 -0.0221  0.0390  0.0790
18204W        W22604  10.982   1.472   1.593  0.0687 -0.2237 -0.2634
18205W        W22605  13.246   2.186  12.695  0.0748 -0.0349  0.0817
18206W        W22606   5.012   0.940  30.625  0.2848 -0.0962  0.2458
18207W        W22607  15.633   2.933   3.617 -0.0604  0.1946  0.0188
18208W        W22608   9.324   3.491   4.088  0.1651 -0.2013 -0.1173
18209W        W22609  11.578   4.234  43.232  0.1102 -0.0375  0.0628
18210W        W22610   3.453   5.122   1.102  0.0310 -0.0063 -0.1389
18211W        W22611  16.139   3.660  38.467 -0.0623 -0.0298 -0.4506
18212W        W22612  13.604   5.368   3.015 -0.0118 -0.0898  0.1220
18213W        W22613  10.395   3.104  30.061  0.3507 -0.0311 -0.1745
18214W        W22614   3.180   3.283   9.381  0.1363  0.0305 -0.1048
18215W        W22615  13.583   1.832   8.202 -0.4417  0.1647 -0.1296
18216W        W22616  10.101   5.477  20.634 -0.0102  0.2185 -0.1434
18217W        W22617  10.201   6.052  42.187 -0.0329 -0.1294 -0.2130
18218W        W22618   7.914   1.602  15.312  0.3148  0.0151 -0.2581
18219W        W22619   3.724   1.096  44.060 -0.0334 -0.1212 -0.1636
18220W        W22620  20.398   1.203   1.264  0.1043 -0.2089 -0.0311
18221W        W22621   4.486   0.110  30.014 -0.3565 -0.2276  0.1100
18222W        W22622   4.469   4.963   1.973 -0.0035 -0.4342 -0.0211
18223W        W22623   9.935   3.220  33.284 -0.0386  0.0889  0.2562
18224W        W22624   4.843   3.136  23.148  0.1089 -0.1644 -0.0463
18225W        W22625   1.012   3.856  38.053  0.0649 -0.2052 -0.2261
18226W        W22626   8.452   1.266   9.760  0.1320  0.1256  0.1264
18227W        W22627  14.814   1.041  17.725 -0.2800 -0.0360 -0.0406
18228W        W22628   3.470   3.119  42.250 -0.2255 -0.1001  0.0511
18229W        W22629  13.567   3.025  13.779  0.1370  0.0378  0.0068
18230W        W22630  16.409   2.521  39.074 -0.0625 -0.0204 -0.0413
18231W        W22631  12.772   4.125  34.523  0.1835 -0.0445 -0.2241
18232W        W22632   5.965   3.737  43.352  0.0748 -0.0693 -0.2155
18233W        W22633   3.318   1.420  11.270 -0.1425  0.2359 -0.2700
18234W        W22634  18.449   4.149   8.682 -0.1346  0.0382 -0.0239
18235W        W22635  18.198   2.402  21.016  0.0712  0.2128  0.1087
18236W        W22636  10.111   1.266  38.525 -0.2442  0.1314  0.0193
18237W        W22637  18.858   0.291  39.348 -0.0425 -0.3367 -0.1653
18238W        W22638  14.238   3.465  17.724  0.0234 -0.2767 -0.0217
18239W        W22639   8.103   5.800  41.920 -0.0662 -0.0750 -0.0139
18240W        W22640   7.215   5.045  40.523  0.0583 -0.2028  0.0976
18241W        W22641  19.604   2.982   4.431 -0.0236 -0.0318 -0.1508
18242W        W22642   3.718   1.405   7.090 -0.0307 -0.2072  0.1374
18243W        W22643  11.609   1.047  21.157  0.1073 -0.1879  0.0308
18244W        W22644  18.042   4.430  43.441  0.0517 -0.0316  0.1441
18245W        W22645  18.620   0.604  13.291  0.1776 -0.2810 -0.0514
18246W        W22646   9.860   4.656  43.791 -0.0861  0.1099 -0.0953
18247W        W22647   2.937   0.066   2.286 -0.1003 -0.1268  0.0830
18248W        W22648  16.653   4.992  31.786  0.0911  0.0831  0.2035
18249W        W22649   7.295   0.953  32.917  0.1154 -0.2146  0.3929
18250W        W22650   5.700   4.107  41.853  0.0681 -0.2152  0.2969
18251W        W22651  20.938   4.556  35.099 -0.1880  0.1786  0.3300
18252W        W22652   4.239   4.277  40.245  0.1297  0.1526  0.3255
18253W        W22653  11.379   2.863   9.905  0.0273  0.0130 -0.0112
18254W        W22654  16.603   3.280  33.043 -0.1237 -0.0126 -0.0289
18255W        W22655  14.233   5.857  31.109  0.0578  0.0759 -0.2644
18256W        W22656   8.927   4.103  39.838  0.1151 -0.2859 -0.2485
18257W        W22657  14.855   3.301  21.687  0.0249 -0.0361  0.0179
18258W        W22658   8.532   0.856  44.857 -0.0222  0.2380  0.2213
18259W        W22659  18.620   4.198   7.861 -0.2134  0.1617 -0.0273
18260W        W22660   6.777   4.870  29.438 -0.1231 -0.0570 -0.1323
18261W        W22661  15.165   2.962  42.111 -0.2878 -0.0806  0.2550
18262W        W22662  18.529   0.908  19.395  0.0667 -0.1953  0.0274
18263W        W22663  15.956   6.575   0.104  0.3807 -0.2967  0.1995
18264W        W22664   5.590   1.253  14.296  0.1737  0.1461 -0.3955
18265W        W22665  20.868   2.859  35.968  0.2591 -0.0868  0.2157
18266W        W22666   6.040   2.322  32.672 -0.1546 -0.1147  0.1644
18267W        W22667  13.865   3.709  10.071  0.3781  0.1123 -0.0231
18268W        W22668   5.423   5.194  29.287 -0.1115 -0.0770 -0.0739
18269W        W22669   7.803   6.516  14.658  0.0060  0.1505 -0.2546
18270W        W22670   9.238   1.252   6.049 -0.1149  0.0683 -0.1604
18271W        W22671  18.503   5.359  13.655  0.2009  0.0958 -0.0517
18272W        W22672  20.206   3.277   8.742 -0.3121  0.0305  0.0218
18273W        W22673   6.592   2.528  41.949  0.0190 -0.2423  0.3273
18274W        W22674   8.396   2.858   6.212  0.0128  0.2501  0.0908
18275W        W22675  18.230   1.110  29.715 -0.0178 -0.1093 -0.1033
18276W        W22676   6.990   4.834  42.343 -0.0896 -0.0957  0.1383
18277W        W22677  11.917   1.275  41.409 -0.1135  0.0707  0.3062
18278W        W22678  15.794   4.544  12.585 -0.2638  0.1581  0.0494
18279W        W22679   2.072   2.440  26.943  0.2215  0.2476  0.0248
18280W        W22680  13.000   4.957  15.231  0.2253  0.3083 -0.3034
18281W        W22681  14.606   4.055   4.623 -0.0598  0.2548 -0.1357
18282W        W22682  14.769   4.058  41.016 -0.0166 -0.0952 -0.0854
18283W        W22683   7.346   0.759  31.499  0.2326 -0.1766 -0.2819
18284W        W22684   3.475   2.196  12.340  0.3253  0.1115 -0.0258
18285W        W22685   2.632   4.804  41.426  0.2843 -0.1985 -0.0723
18286W        W22686   4.555   1.152   8.034 -0.1253  0.0433  0.1229
18287W        W22687  18.013   5.788   0.613 -0.3032 -0.1490 -0.1803
18288W        W22688  19.801   0.079  12.628 -0.0392 -0.2865  0.0738
18289W        W22689  12.582   4.537   1.277 -0.2837  0.2058  0.1102
18290W        W22690   6.874   1.826   1.955 -0.1845 -0.0093 -0.1031
18291W        W22691  10.219   3.306  44.297 -0.1513  0.1538 -0.1065
18292W        W22692   1.377   2.288  42.146  0.0189 -0.0828  0.0365
18293W        W22693  11.499   1.069  14.116 -0.1087  0.0789  0.1687
18294W        W22694  12.586   5.911  43.555 -0.2208 -0.1713  0.2579
18295W        W22695  20.096   3.052  12.291 -0.0699  0.1222  0.1585
18296W        W22696  13.485   3.354  22.465 -0.1974 -0.3256 -0.2205
18297W        W22697   8.085   3.491   6.948 -0.1369  0.2479  0.2383
18298W        W22698   5.950   2.232  28.860  0.1399 -0.1582 -0.2032
18299W        W22699  18.704   6.331  14.584 -0.1608 -0.1172  0.1678
18300W        W22700  13.797   5.259  31.270 -0.4311  0.0733 -0.1031
18301W        W22701   9.797   4.012  41.468  0.3430 -0.0266  0.0287
18302W        W22702  16.095   0.009  17.216  0.2583 -0.3697  0.3313
18303W        W22703  14.213   0.703   1.389 -0.2602 -0.0037 -0.1870
18304W        W22704  20.039   1.654  31.730  0.3950 -0.0099 -0.0372
18305W        W22705   0.960   5.166  34.170 -0.0811 -0.0565 -0.1187
18306W        W22706   2.327   2.975  13.439  0.0338 -0.2794  0.0057
18307W        W22707   6.176   0.799  10.412  0.1160  0.1440  0.3549
18308W        W22708   6.415   2.286  34.016 -0.0236 -0.0953 -0.1609
18309W        W22709  13.265   1.529  41.938 -0.2281 -0.2239  0.2912
18310W        W22710   7.406   5.564  34.874  0.0972  0.2387  0.0889
18311W        W22711   6.702   5.079  44.965 -0.0052  0.1847  0.0998
18312W        W22712   3.145   1.714   6.321  0.3337 -0.0372  0.1990
18313W        W22713  18.139   3.969  39.825 -0.2352 -0.1817 -0.0047
18314W        W22714   2.078   6.260   4.555 -0.5918 -0.0806 -0.3867
18315W        W22715  16.094   0.984  15.691  0.0658 -0.1469 -0.0721
18316W        W22716  11.703   0.032  32.866 -0.1470  0.0892  0.0230
18317W        W22717  18.430   6.272  29.113  0.0753 -0.0123  0.2881
18318W        W22718   3.119   0.674   8.792  0.0191  0.2011 -0.0754
18319W        W22719   5.879   3.812  42.821 -0.0561 -0.1594  0.0966
18320W        W22720  12.783   3.834  41.566 -0.1245 -0.0610  0.0808
18321W        W22721   9.074   2.915  16.604  0.1154  0.0391  0.0393
18322W        W22722  13.704   1.213  11.437 -0.0398 -0.1094  0.1895
18323W        W22723   8.792   4.828   3.010 -0.1391 -0.2744 -0.2735
18324W        W22724   0.084   0.156  24.641 -0.1880 -0.0845  0.3438
18325W        W22725  15.774   5.610  36.352 -0.0918  0.1928 -0.2558
18326W        W22726   6.124   4.012  26.928 -0.0658  0.1778  0.1038
18327W        W22727   1.216   1.954  27.411 -0.1674 -0.0061  0.2074
18328W        W22728  11.042   1.599  44.485 -0.0404 -0.2486 -0.3971
18329W        W22729   6.128   3.265   0.869  0.2538  0.0886  0.0706
18330W        W22730  14.264   5.881  32.739 -0.1620  0.0103 -0.1116
18331W        W22731   7.402   6.276  42.065  0.0041  0.0916  0.1377
18332W        W22732   7.256   5.775  42.174  0.0379 -0.2575 -0.5085
18333W        W22733   2.394   6.286  22.462  0.2204 -0.0327  0.0936
18334W        W22734  12.352   2.734  29.557  0.2678 -0.3549  0.0450
18335W        W22735   8.590   6.123  27.135 -0.1552 -0.0644  0.1828
18336W        W22736   0.578   1.575  32.686  0.3265 -0.0561 -0.5255
18337W        W22737  15.943   3.334  36.116 -0.0679 -0.1597 -0.1070
18338W        W22738   1.641   6.086  29.659 -0.0473 -0.1582  0.1374
18339W        W22739  14.487   0.152  17.438  0.2114  0.1772 -0.1204
18340W        W22740  13.114   6.241  19.769 -0.1707 -0.0777 -0.2203
18341W        W22741  17.564   6.349  35.179  0.2795 -0.1933  0.1624
18342W        W22742  17.712   1.608  29.378  0.3322 -0.1768 -0.0917
18343W        W22743  14.578   5.005  17.062  0.1785  0.2085  0.1551
18344W        W22744   6.115   2.884  16.116 -0.3481 -0.1340  0.0179
18345W        W22745   3.734   0.448  44.820 -0.1460  0.0367 -0.1628
18346W        W22746   1.692   4.169  37.189  0.0107 -0.1052  0.2872
18347W        W22747  21.095   2.133  10.978  0.1619 -0.1019 -0.0892
18348W        W22748  17.332   2.932  36.993  0.0483  0.0778  0.0307
18349W        W22749   6.966   6.548  40.599 -0.1667 -0.0253  0.0367
18350W        W22750   3.543   5.264  15.234  0.2029 -0.0937  0.0500
18351W        W22751   9.007   3.005   8.571  0.2069 -0.1757  0.0086
18352W        W22752   4.306   0.265  25.294 -0.1097 -0.0894  0.3282
18353W        W22753   3.359   0.695  26.316  0.4045 -0.1736 -0.2081
18354W        W22754  14.587   1.531  39.861 -0.0827 -0.0819  0.0213
18355W        W22755   1.042   4.195  27.610  0.0770  0.0504 -0.1592
18356W        W22756   5.920   3.585  10.889 -0.4197 -0.0989  0.1063
18357W        W22757  12.856   1.970  22.893 -0.1481  0.2243  0.2265
18358W        W22758   3.156   0.389  15.214 -0.1518  0.0572  0.0327
18359W        W22759   4.692   1.154  10.255 -0.0005  0.1599  0.2447
18360W        W22760  10.492   4.648  10.028  0.1158 -0.3173  0.0736
18361W        W22761  18.574   1.726  33.622  0.1327  0.0865 -0.1561
18362W        W22762  15.556   2.078  44.330  0.1827  0.1284 -0.1045
18363W        W22763  20.842   2.205  12.488  0.1564  0.0653 -0.1834
18364W        W22764  19.682   0.237  40.095 -0.1635  0.0307 -0.3911
18365W        W22765  12.654   5.375  34.539 -0.0530  0.3609 -0.1433
18366W        W22766  13.586   6.445  12.553  0.1099  0.0869 -0.2991
18367W        W22767   0.500   3.662  33.715 -0.0835  0.1305 -0.1636
18368W        W22768  11.479   5.734   1.362 -0.1429  0.2522 -0.3192
18369W        W22769  16.548   4.036  18.455  0.0656  0.1290  0.1470
18370W        W22770  17.245   1.152  32.875  0.0252 -0.0106 -0.2666
18371W        W22771  14.079   0.765  17.397  0.0347  0.1653 -0.0781
18372W        W22772  12.419   3.210  16.660 -0.0636 -0.1223 -0.1024
18373W        W22773   1.080   5.350   4.420 -0.1967  0.2966  0.0286
18374W        W22774  19.620   0.599  33.358  0.0488 -0.2095 -0.0487
18375W        W22775   4.891   6.009   4.622 -0.1222  0.1366 -0.0776
18376W        W22776  19.985   6.467  27.154  0.0236 -0.0690 -0.5377
18377W        W22777  13.581   3.255  18.774  0.0212 -0.3182  0.1110
18378W        W22778  16.744   5.432  41.169  0.2392  0.0685  0.0825
18379W        W22779   1.338   6.375  15.667 -0.0209 -0.0396 -0.2144
18380W        W22780  15.519   1.154  32.886 -0.2060 -0.3990 -0.0494
18381W        W22781  20.332   3.336  38.011  0.2660 -0.1809 -0.2151
18382W        W22782  13.782   2.923  41.504  0.0354 -0.2769 -0.1257
18383W        W22783   5.800   5.587  34.265 -0.1235 -0.1072  0.0944
18384W        W22784   7.197   4.233  40.905 -0.1331  0.0950 -0.2781
18385W        W22785   8.986   1.107  43.088 -0.1148  0.0860 -0.1114
18386W        W22786  17.296   6.057   1.617 -0.1308 -0.3306 -0.0709
18387W        W22787   1.517   4.890  41.385 -0.1094 -0.0471  0.1010
18388W        W22788  14.372   6.215  16.700  0.0866  0.0291  0.0828
18389W        W22789  16.806   2.099  42.350  0.2227  0.0523 -0.1110
18390W        W22790   8.502   3.905   3.428 -0.0939  0.0970  0.1416
18391W        W22791  18.335   2.100  19.360  0.0717  0.0149 -0.2300
18392W        W22792  10.394   3.740   3.061  0.1951 -0.2034 -0.0363
18393W        W22793  15.829   2.933  41.828  0.1942 -0.3834  0.0666
18394W        W22794   8.700   2.514  41.773  0.0964  0.1983 -0.0944
18395W        W22795   6.900   5.144   8.714  0.0085 -0.0643 -0.3520
18396W        W22796  11.775   2.678  33.519  0.1170  0.2019  0.0790
18397W        W22797   7.169   3.772   7.195  0.0851  0.0449 -0.0156
18398W        W22798   2.535   2.271   4.069  0.0851  0.2850  0.1497
18399W        W22799   1.589   3.500  40.561  0.0703  0.1336 -0.2487
18400W        W22800  12.210   1.852  40.736  0.0508  0.2114  0.0620
18401W        W22801  14.858   5.017   3.561 -0.1469 -0.1074 -0.0487
18402W        W22802  20.566   2.676  30.830  0.3271  0.0427 -0.2318
18403W        W22803   9.065   4.412  30.589 -0.0225  0.2891  0.2312
18404W        W22804  17.577   3.887  12.147  0.1390 -0.2962 -0.3155
18405W        W22805   7.216   1.721  33.863 -0.1182 -0.2240  0.1191
18406W        W22806   2.126   0.349  24.997 -0.2304  0.2394  0.2029
18407W        W22807  12.222   3.065  17.566  0.1991 -0.1065  0.1492
18408W        W22808  12.202   1.779  16.982 -0.1472 -0.1110  0.1948
18409W        W22809  12.017   5.910  13.941 -0.1249 -0.1490  0.2354
18410W        W22810  18.459   2.840  34.037 -0.1223 -0.0590  0.0657
18411W        W22811  18.817   1.454  38.345  0.1109  0.1624  0.2693
18412W        W22812  11.077   3.967   5.995  0.1256 -0.0933  0.2478
18413W        W22813   4.647   1.102  43.867  0.1287  0.2308  0.0005
18414W        W22814  15.962   1.298  38.586  0.1147  0.2725 -0.0860
18415W        W22815   3.835   1.003  15.122 -0.0720 -0.0464  0.2260
18416W        W22816  11.905   2.969  35.176 -0.0569  0.1058 -0.2579
18417W        W22817   6.564   4.951   3.546 -0.0993  0.0676  0.3567
18418W        W22818   7.620   1.926   2.898 -0.1057 -0.2114  0.0042
18419W        W22819  18.426   5.936  15.524  0.2109 -0.0341 -0.0136
18420W        W22820   1.647   5.085  24.676 -0.1597  0.3164  0.2416
18421W        W22821  15.764   2.026  37.967  0.1682 -0.1730  0.2264
18422W        W22822   7.706   0.665  16.231 -0.2497  0.0127  0.0912
18423W        W22823   8.871   0.143  10.518  0.1356  0.2427 -0.3472
18424W        W22824  13.238   0.355  40.299 -0.3231 -0.1448  0.0586
18425W        W22825  15.589   2.188  18.814  0.0479  0.2422  0.0120
18426W        W22826  14.349   3.652  11.710 -0.1986 -0.0904  0.0344
18427W        W22827   5.814   2.854  32.669 -0.3574 -0.1285 -0.0531
18428W        W22828  14.814   4.893  39.665  0.1122 -0.2327 -0.1408
18429W        W22829  14.156   5.893   4.807  0.1733 -0.1517 -0.0463
18430W        W22830   3.426   0.329  33.105  0.0704 -0.0346 -0.2122
18431W        W22831   2.882   2.475   2.966  0.0749 -0.1027  0.1797
18432W        W22832   8.087   4.911   7.236  0.2532 -0.3791 -0.0288
18433W        W22833  17.059   5.875  41.289  0.0646  0.0992 -0.0382
18434W        W22834   3.957   6.128   5.945 -0.5649 -0.1291 -0.1179
18435W        W22835   0.320   3.254  30.990 -0.1064  0.0978 -0.1325
18436W        W22836  14.180   3.455  20.905 -0.1351 -0.0588  0.3442
18437W        W22837   5.127   2.083  26.938 -0.0940  0.2352  0.1588
18438W        W22838  11.845   0.626  16.121 -0.2087  0.0543 -0.0091
18439W        W22839   1.891   5.988  42.931  0.1988  0.2503 -0.1309
18440W        W22840  19.994   4.079  42.220 -0.0453 -0.1250 -0.1723
18441W        W22841   5.558   6.257   6.362 -0.0838  0.1918  0.0670
18442W        W22842   7.099   4.300  32.412  0.0849  0.0128  0.1257
18443W        W22843   1.233   3.438  36.769  0.2621 -0.0245  0.0910
18444W        W22844  19.902   3.639  15.798  0.1384 -0.0450  0.1780
18445W        W22845   4.331   0.396  41.627 -0.1852  0.1325  0.0415
18446W        W22846  16.552   3.759  13.346 -0.2120 -0.2480  0.1883
18447W        W22847  11.563   0.731   4.279  0.3695 -0.2034  0.1716
18448W        W22848  12.215   4.306  44.660  0.2544 -0.0531  0.2330
18449W        W22849   3.858   0.076  12.706  0.0033  0.2895  0.0025
18450W        W22850  11.493   5.850   6.775  0.2490  0.2010 -0.1139
18451W        W22851  12.906   3.069  33.733 -0.0171  0.2340  0.0851
18452W        W22852   2.315   5.984   6.584  0.1734  0.3021 -0.0180
18453W        W22853  10.632   5.106   6.314 -0.3240 -0.2323  0.0483
18454W        W22854  14.550   1.277  23.925  0.0267 -0.0260  0.0395
18455W        W22855   6.103   2.827  30.878  0.2118  0.0257  0.2062
18456W        W22856  19.859   4.076  39.180 -0.2679  0.0247  0.0725
18457W        W22857  13.218   3.997  32.723 -0.0703  0.0197  0.0574
18458W        W22858   5.481   2.010  23.758  0.1558 -0.1816  0.0855
18459W        W22859   7.681   6.182   1.184 -0.1701  0.1350  0.1137
18460W        W22860   7.974   5.492  44.515  0.0298 -0.1357 -0.0502
18461W        W22861   4.796   0.494  34.384 -0.0215  0.2168 -0.1074
18462W        W22862  14.537   3.068  16.429  0.0032 -0.2526  0.0215
18463W        W22863   6.946   5.791   7.419  0.1808  0.1722  0.0449
18464W        W22864  10.502   3.110  15.471 -0.0565  0.2035 -0.2486
18465W        W22865   3.287   6.371   5.357 -0.1895 -0.2305  0.0328
18466W        W22866   1.861   1.437   2.277  0.2733  0.5691  0.1287
18467W        W22867  10.505   5.450  28.508 -0.2041  0.1298 -0.2273
18468W        W22868  13.995   1.735  37.976  0.0501 -0.2292  0.0248
18469W        W22869  19.561   0.892  32.806  0.1350  0.0396  0.4400
18470W        W22870   7.302   5.268  28.737  0.0323 -0.1585 -0.0154
18471W        W22871   0.483   4.548  24.841 -0.0436 -0.2363 -0.0377
18472W        W22872  18.615   0.076  35.440 -0.3038 -0.1626 -0.2476
18473W        W22873  14.111   4.537   3.506 -0.1117 -0.2561 -0.0476
18474W        W22874  12.549   3.056  20.381  0.2259 -0.0334 -0.0085
18475W        W22875   8.085   0.325  30.509 -0.0923  0.1666 -0.2038
18476W        W22876  17.957   0.129  36.938 -0.4216  0.2035  0.1933
18477W        W22877  12.145   2.715  19.576 -0.0998  0.1226  0.0445
18478W        W22878   8.002   6.036  43.087  0.0252 -0.0963 -0.0549
18479W        W22879  16.903   1.055   1.783 -0.2523  0.1530 -0.0288
18480W        W22880  21.012   6.398   2.946  0.1130 -0.0688 -0.1269
18481W        W22881  16.599   2.196   2.008  0.1256  0.2138 -0.2024
18482W        W22882  14.597   1.356  12.676 -0.1162 -0.0551  0.0013
18483W        W22883   9.810   4.614  17.446 -0.2104  0.0277  0.1762
18484W        W22884  11.666   2.087   7.547  0.1784 -0.0697  0.1823
18485W        W22885   4.583   0.559  37.677  0.1260  0.2300  0.0706
18486W        W22886  20.840   1.837  38.959  0.2843  0.2275 -0.2322
18487W        W22887  11.501   4.391  32.848  0.3803  0.1306 -0.1405
18488W        W22888  21.143   3.296  38.085 -0.2596  0.0351 -0.1056
18489W        W22889   0.921   0.669  35.371 -0.0830 -0.1754  0.0340
18490W        W22890   3.348   4.311  37.332 -0.0037  0.1119  0.0420
18491W        W22891   4.846   0.330   5.585  0.0121  0.0639 -0.1995
18492W        W22892  16.343   0.655  41.411  0.1096  0.0196 -0.0868
18493W        W22893  18.672   5.184  31.981 -0.1440 -0.3187 -0.1382
18494W        W22894   4.114   4.048  11.359 -0.2275 -0.2159  0.1111
18495W        W22895  13.786   3.208  29.983  0.0999  0.0420 -0.1705
18496W        W22896  11.924   4.552  16.447 -0.1396  0.4318  0.1404
18497W        W22897  16.764   2.585  42.257 -0.0597  0.0345 -0.1800
18498W        W22898   5.047   1.056  43.416  0.2215 -0.0444  0.0298
18499W        W22899   2.029   4.064  10.082  0.1758  0.1128 -0.2941
18500W        W22900  20.159   3.231  16.247 -0.3511  0.0188 -0.0010
18501W        W22901   8.712   0.128  38.124 -0.0971 -0.1982 -0.0936
18502W        W22902  20.551   1.995   0.324  0.1486  0.1058  0.0972
18503W        W22903  20.074   6.145  14.669 -0.1127 -0.1417  0.0459
18504W        W22904   8.234   0.020   0.528  0.1271 -0.0820  0.4477
18505W        W22905   3.617   6.379  19.736  0.1086 -0.0123  0.2783
18506W        W22906   4.825   3.674   8.891 -0.3243  0.2097 -0.1183
18507W        W22907   8.301   6.505  14.707  0.1261  0.1697 -0.2493
18508W        W22908  18.456   4.797  18.966  0.0130 -0.1798 -0.0587
18509W        W22909   7.191   2.837  35.061 -0.1267 -0.0178 -0.0027
18510W        W22910  20.698   3.116  42.070 -0.0925  0.0903 -0.1112
18511W        W22911   2.062   5.359  32.416 -0.2262 -0.1613 -0.0498
18512W        W22912   9.855   1.635  38.282 -0.1221 -0.2870  0.0505
18513W        W22913   7.579   6.060  25.025 -0.0444  0.0960 -0.0295
18514W        W22914   4.056   0.631   0.529 -0.2173  0.2938  0.0250
18515W        W22915  17.804   3.410  11.556  0.1081  0.0915 -0.2124
18516W        W22916   7.676   4.671  15.353 -0.1236  0.1837  0.0883
18517W        W22917   1.197   2.803   8.993 -0.0650  0.3024 -0.0064
18518W        W22918  18.558   5.474  29.411  0.0780  0.1155 -0.1295
18519W        W22919  13.068   4.402   0.662 -0.1779  0.1845  0.2375
18520W        W22920   6.928   0.980  39.035 -0.0434  0.1204 -0.1469
18521W        W22921  10.602   0.543  11.616 -0.0293 -0.1749  0.3426
18522W        W22922   0.421   1.488   5.084 -0.2447  0.0261  0.3014
18523W        W22923  12.244   6.086  37.239  0.0482  0.0663  0.2828
18524W        W22924   1.152   2.702  42.963  0.0099 -0.1176 -0.0483
18525W        W22925   6.459   2.583   7.099 -0.2008 -0.1631  0.3876
18526W        W22926  15.013   2.046  11.379  0.1134 -0.0967 -0.0399
18527W        W22927   8.750   0.660   3.271 -0.0145  0.0735 -0.2225
18528W        W22928  12.563   5.315   3.574 -0.1108 -0.0633  0.0600
18529W        W22929   8.003   3.615  15.352  0.0818  0.3059 -0.2286
18530W        W22930   5.182   6.287   0.738 -0.3399 -0.1415  0.2168
18531W        W22931   8.706   1.027   8.849  0.0373 -0.3612  0.2344
18532W        W22932   5.492   0.486  27.472  0.4475  0.0425 -0.1194
18533W        W22933   7.726   3.652  11.793  0.2410  0.3027 -0.0201
18534W        W22934   0.271   2.337   4.218 -0.0925 -0.0359  0.2297
18535W        W22935  10.663   5.671  41.449 -0.2055  0.3433  0.0062
18536W        W22936  12.720   1.875  12.785  0.1937 -0.1853  0.0094
18537W        W22937   5.202   6.547  40.437  0.0258 -0.2102  0.0787
18538W        W22938   1.607   4.273  25.796  0.2661  0.2498 -0.1416
18539W        W22939  14.861   2.556  19.049 -0.3025  0.0994 -0.0636
18540W        W22940   8.574   3.255  26.352 -0.2829 -0.2814 -0.3658
18541W        W22941  15.386   2.420  20.889  0.1535 -0.0149  0.0593
18542W        W22942   4.848   0.311  28.062 -0.0406  0.0934  0.1364
18543W        W22943   5.685   0.907  10.144  0.0434 -0.0191 -0.1641
18544W        W22944   3.528   6.296  20.216 -0.0337  0.0388 -0.4622
18545W        W22945  18.316   2.457  19.715  0.0409 -0.1917 -0.1872
18546W        W22946  13.433   1.157  40.189 -0.2562 -0.2050  0.1373
18547W        W22947   0.198   5.275  36.564  0.0479 -0.0399 -0.0361
18548W        W22948  17.421   0.423   5.660  0.2604 -0.4119  0.1684
18549W        W22949   0.422   3.470   2.732 -0.1932  0.0376  0.0742
18550W        W22950  11.968   4.493  18.134  0.1917  0.3057  0.1414
18551W        W22951   6.112   4.452  27.404  0.4336 -0.0506  0.2885
18552W        W22952  13.353   6.298  42.305  0.2240  0.1283 -0.0392
18553W        W22953   6.532   5.763   3.833 -0.2430 -0.0147  0.4511
18554W        W22954  20.059   0.248   8.810  0.0288 -0.0362  0.0556
18555W        W22955   6.877   0.685  24.827 -0.2018 -0.0124 -0.1009
18556W        W22956   4.761   1.913   3.133 -0.0383 -0.3303  0.1410
18557W        W22957  16.775   5.358  28.482 -0.0932  0.0894  0.2763
18558W        W22958  10.686   3.432   9.548  0.1677  0.0033  0.2667
18559W        W22959  13.629   1.369  17.472  0.0531  0.0050 -0.1006
18560W        W22960   1.997   2.084   4.112  0.0106 -0.0619  0.5073
18561W        W22961   3.240   5.881  34.797 -0.1227  0.1686 -0.1779
18562W        W22962  15.816   2.589   8.222 -0.0033 -0.0999 -0.0873
18563W        W22963  18.473   0.490  40.552  0.0804  0.2225 -0.0018
18564W        W22964   6.946   2.082  24.901 -0.1310  0.2435 -0.0418
18565W        W22965  20.667   0.679  16.455 -0.0424 -0.0220 -0.0565
18566W        W22966  17.487   2.188  15.034  0.0214 -0.0614  0.2481
18567W        W22967   0.610   5.701  25.248  0.0530  0.1787  0.0357
18568W        W22968  18.437   0.512   8.004  0.1305  0.1453  0.1029
18569W        W22969  20.873   5.581  26.664  0.0624  0.0197  0.3633
18570W        W22970   5.712   4.668  41.642  0.0469 -0.0290 -0.1257
18571W        W22971  12.343   0.449  15.335 -0.5120 -0.0096 -0.0003
18572W        W22972   4.385   1.980   8.935  0.0614  0.2025  0.1560
18573W        W22973  12.301   0.648  42.963 -0.1548  0.0277 -0.0183
18574W        W22974  18.335   4.711  35.103  0.0631  0.1941 -0.0133
18575W        W22975  13.362   4.620  21.253  0.0610 -0.2114  0.1607
18576W        W22976  19.905   0.419  32.082  0.0658  0.0560  0.0121
18577W        W22977   4.395   3.667   5.139  0.0613 -0.3233  0.2211
18578W        W22978  14.793   4.946   6.572  0.3131  0.0794  0.0159
18579W        W22979  10.125   6.298   8.909 -0.0637  0.1358  0.0667
18580W        W22980  17.584   5.034  42.346  0.0916 -0.1088  0.1531
18581W        W22981  15.840   4.584   1.560 -0.0282  0.0298 -0.3378
18582W        W22982  16.372   0.524  34.244  0.0780 -0.0825  0.2016
18583W        W22983   8.833   2.038  10.301 -0.0443 -0.0702  0.0674
18584W        W22984   3.209   2.357  34.306 -0.0580 -0.2384  0.0233
18585W        W22985   0.456   2.745  31.710 -0.1075  0.0347 -0.0009
18586W        W22986   1.916   1.016   9.650  0.3574 -0.0128 -0.2006
18587W        W22987   8.711   6.009  17.586  0.0185 -0.0736 -0.1325
18588W        W22988  12.360   2.102  35.206  0.0440  0.0810  0.0546
18589W        W22989  12.438   0.854  10.253 -0.2809  0.0998 -0.0759
18590W        W22990  18.298   0.106   5.343  0.0040 -0.1655 -0.0815
18591W        W22991  14.668   1.907  38.600 -0.1535 -0.0650 -0.0338
18592W        W22992   1.195   0.005   6.216 -0.0761  0.0662  0.0140
18593W        W22993   6.318   0.504   4.214  0.0453 -0.0309  0.3267
18594W        W22994   7.290   3.302  43.548 -0.0381  0.0527 -0.2443
18595W        W22995  19.418   3.559  34.925  0.0340  0.1689 -0.0503
18596W        W22996  20.889   0.187  40.251  0.0169 -0.0301  0.1086
18597W        W22997   7.803   0.771  31.863 -0.1555 -0.0884  0.1974
18598W        W22998   6.257   4.664   0.642  0.0543 -0.1346  0.1164
18599W        W22999   2.344   5.642  24.162 -0.2316 -0.4780 -0.1850
18600W        W23000  14.074   5.695  35.416 -0.0361  0.0695 -0.0475
18601W        W23001  20.306   3.050   3.194 -0.2196 -0.2131 -0.0089
18602W        W23002   4.979   3.048  44.471 -0.1139  0.0167 -0.2704
18603W        W23003   0.703   3.771  27.891  0.3134 -0.0427 -0.0264
18604W        W23004  14.745   1.082   5.421 -0.2279 -0.0327  0.0706
18605W        W23005   8.011   4.662   0.390 -0.0172 -0.0325  0.1472
18606W        W23006   5.351   3.286  26.995 -0.0037  0.1358 -0.0880
18607W        W23007  20.967   0.691   9.661  0.2159 -0.0175 -0.0842
18608W        W23008   9.742   6.457   7.557 -0.2713 -0.1198 -0.2138
18609W        W23009  10.258   4.184   1.354  0.0620  0.1021  0.2155
18610W        W23010  14.519   6.220  12.985  0.1078  0.1049  0.0914
18611W        W23011  11.929   2.585  20.942  0.3517  0.1620  0.0637
18612W        W23012   2.751   6.333  38.316  0.0310  0.0334 -0.2033
18613W        W23013   7.897   5.522   3.856  0.0666 -0.1501 -0.0014
18614W        W23014  15.970   0.858  41.148 -0.0715  0.1149  0.3557
18615W        W23015  18.430   1.065  15.566  0.0227  0.0888  0.2359
18616W        W23016  16.712   0.570  20.695 -0.1928 -0.0288 -0.0651
18617W        W23017  16.860   4.302  40.345  0.3142 -0.0608  0.1678
18618W        W23018   3.667   3.100   7.747  0.1602  0.4027 -0.1348
18619W        W23019   8.296   4.048  12.334 -0.1484  0.2127  0.0112
18620W        W23020   8.414   2.244  45.154  0.1458 -0.0269  0.1564
18621W        W23021   0.830   1.396  36.012  0.1014 -0.0125 -0.0038
18622W        W23022  10.817   4.599   4.129  0.1431  0.1140  0.4418
18623W        W23023   5.554   5.438   4.203 -0.0099 -0.1410  0.1016
18624W        W23024  14.941   4.030  33.171 -0.0955 -0.3575 -0.0159
18625W        W23025   0.732   6.492  42.651  0.1027 -0.3601 -0.1653
18626W        W23026   4.397   0.223  38.444 -0.1914  0.1531  0.0780
18627W        W23027   7.577   1.799  43.251  0.0630 -0.1046  0.2431
18628W        W23028   8.343   3.709  10.116 -0.1440  0.3709 -0.0529
18629W        W23029  19.115   0.160   0.741  0.1617  0.0496 -0.2834
18630W        W23030   7.839   3.550  14.467  0.0613  0.1194 -0.0342
18631W        W23031   5.428   1.142  35.616  0.1373  0.1147 -0.1441
18632W        W23032  15.052   6.594  34.726  0.0236 -0.1445  0.1272
18633W        W23033  20.531   1.677  10.563  0.1384 -0.2060  0.0059
18634W        W23034   7.496   2.270  39.314 -0.1084 -0.3002 -0.0045
18635W        W23035  18.972   0.496  17.032  0.2337  0.2219  0.1922
18636W        W23036  10.029   0.718  17.595  0.1678 -0.0248  0.0323
18637W        W23037  19.062   5.458  13.553  0.0032 -0.2808 -0.1260
18638W        W23038  10.586   0.211  19.214  0.2122  0.0106 -0.0810
18639W        W23039  17.027   0.250  30.399  0.1466 -0.2980  0.2696
18640W        W23040  20.562   2.312  14.245 -0.1205 -0.0145 -0.2112
18641W        W23041   8.194   3.667   8.640 -0.1026  0.1044 -0.0066
18642W        W23042  19.009   2.837   6.838  0.3128  0.1181 -0.2060
18643W        W23043  10.785   2.640  27.819  0.2954  0.3467  0.1498
18644W        W23044   0.319   5.960   2.189 -0.1120 -0.1195 -0.1550
18645W        W23045   7.700   5.508   2.362 -0.1297 -0.2943 -0.0831
18646W        W23046   7.019   1.099   2.766 -0.2100  0.1174  0.1412
18647W        W23047  14.073   4.195  32.916 -0.0154  0.1616 -0.1269
18648W        W23048  14.654   6.261  13.993 -0.0248 -0.2188 -0.2375
18649W        W23049   1.946   2.141   8.129 -0.0505  0.0851  0.0549
18650W        W23050  16.226   2.561  41.706 -0.0739  0.1494 -0.1358
18651W        W23051   0.390   4.291  44.109 -0.2865  0.2336 -0.0992
18652W        W23052  11.053   4.736  32.208 -0.3249 -0.1866 -0.1231
18653W        W23053   9.737   6.331  31.623 -0.2032 -0.0776 -0.2158
18654W        W23054  14.266   4.964  33.440 -0.1964 -0.5883 -0.1011
18655W        W23055  10.828   2.216  43.872 -0.0450 -0.0256  0.1461
18656W        W23056  19.937   2.367   6.915  0.0595  0.0690  0.1928
18657W        W23057  15.598   5.427   9.320  0.3267 -0.2493 -0.0550
18658W        W23058  12.351   2.754   7.509 -0.1734 -0.0445 -0.1447
18659W        W23059   6.260   4.234  27.905  0.0825 -0.0052  0.2499
18660W        W23060   4.170   1.087  43.762 -0.2753  0.1153  0.1357
18661W        W23061  18.107   3.685  29.136 -0.0187 -0.2988  0.1174
18662W        W23062  11.876   3.376   7.190  0.2588 -0.0568  0.0951
18663W        W23063   2.400   0.548   3.274 -0.0646 -0.0918  0.2051
18664W        W23064  19.260   2.352  33.906  0.1928 -0.2199 -0.0101
18665W        W23065  13.224   0.872  18.977  0.0337  0.0785 -0.0133
18666W        W23066   6.164   5.833  13.968  0.1687 -0.1514  0.0529
18667W        W23067  11.684   4.737   9.098 -0.2473 -0.1107  0.2261
18668W        W23068  20.969   4.515   5.814 -0.0424 -0.0138 -0.3356
18669W        W23069   4.149   3.546  36.896 -0.3840 -0.0120 -0.2345
18670W        W23070   1.774   2.745  40.318 -0.0667 -0.0406 -0.2176
18671W        W23071   8.834   4.522  33.176 -0.0417 -0.1620  0.0598
18672W        W23072   3.906   5.297  29.383  0.1329 -0.1732  0.2114
18673W        W23073   8.104   2.361   0.649 -0.0202  0.0994 -0.2057
18674W        W23074  13.972   3.762  12.555 -0.2870  0.0212  0.2220
18675W        W23075  13.667   1.710  10.023 -0.1996 -0.0042 -0.1269
18676W        W23076  17.413   3.466   6.698 -0.0529  0.0006 -0.1425
18677W        W23077  13.055   6.238  40.682 -0.0062 -0.0620  0.3538
18678W        W23078  16.416   0.560  13.713 -0.1585  0.0211 -0.0975
18679W        W23079   8.112   1.329   5.883 -0.1557 -0.0827 -0.2780
18680W        W23080   4.285   3.906  34.197 -0.1763 -0.1178  0.2581
18681W        W23081   9.577   6.374   8.552 -0.1237  0.3190  0.1269
18682W        W23082  19.505   0.886  41.886  0.1102  0.0290 -0.0490
18683W        W23083  10.018   4.564  20.682 -0.0103 -0.3546 -0.1166
18684W        W23084  20.521   6.122  45.028  0.2706 -0.0952  0.0206
18685W        W23085   6.376   1.221   7.092  0.4238  0.1814 -0.0383
18686W        W23086  17.308   6.355   8.294 -0.0029  0.0371 -0.3686
18687W        W23087  18.611   3.859   5.620 -0.0009 -0.3601 -0.1302
18688W        W23088   6.187   6.525   4.744 -0.1201  0.1981 -0.0171
18689W        W23089   6.470   1.798  12.418  0.0819  0.1688  0.3568
18690W        W23090   2.144   5.908  36.183  0.0708  0.1783 -0.1126
18691W        W23091   4.374   2.945  40.771  0.0371  0.0524  0.2567
18692W        W23092   8.890   3.736  11.017  0.1091 -0.0951 -0.0566
18693W        W23093   6.507   5.809  30.171 -0.1560 -0.1505 -0.0085
18694W        W23094  10.918   1.226  16.969 -0.0529 -0.0564  0.0711
18695W        W23095  17.618   5.286  38.057  0.0396 -0.3865  0.0524
18696W        W23096  16.702   4.784  41.572  0.0143 -0.2393 -0.2644
18697W        W23097  15.267   2.915  34.680  0.0829  0.0222  0.3447
18698W        W23098  21.141   1.154  39.439 -0.1356  0.1586  0.2819
18699W        W23099   9.053   5.462  27.239 -0.0296 -0.0632 -0.2455
18700W        W23100   4.478   3.494  22.175 -0.1194  0.0366 -0.2512
18701W        W23101   6.268   3.769   1.017 -0.0910  0.1708  0.0294
18702W        W23102  18.752   3.667  19.340 -0.0983  0.1163  0.1134
18703W        W23103   3.801   0.529  39.322 -0.0635  0.0665  0.1135
18704W        W23104   1.555   5.122  39.152 -0.0584  0.0306  0.0732
18705W        W23105   7.883   0.234   0.212 -0.0767 -0.0117 -0.3543
18706W        W23106  12.537   0.196   0.184 -0.1149  0.0288 -0.0743
18707W        W23107   5.268   1.592  12.018 -0.0413 -0.0326 -0.0842
18708W        W23108   1.137   1.091  30.547 -0.1916 -0.2670 -0.2225
18709W        W23109  20.361   4.811  17.480  0.4774  0.0892 -0.2117
18710W        W23110  13.315   5.128  40.771  0.3252  0.1377 -0.0913
18711W        W23111   8.653   2.275  16.827 -0.1154 -0.0008 -0.0733
18712W        W23112  15.396   4.675   6.076  0.3030  0.2478  0.2302
18713W        W23113   5.719   1.414   6.386 -0.0658  0.2158  0.0586
18714W        W23114  11.891   0.854   3.270 -0.0110  0.3712 -0.0459
18715W        W23115  20.875   3.974   5.979  0.0103  0.3802  0.0900
18716W        W23116  11.065   2.637  11.742  0.1224 -0.1996  0.1395
18717W        W23117  16.499   0.329   9.149  0.0682 -0.3188  0.1813
18718W        W23118   2.324   2.863  40.764  0.0450  0.1244  0.1697
18719W        W23119   4.164   3.277  25.343 -0.0461  0.1149  0.4199
18720W        W23120  19.041   6.287  28.660 -0.2954 -0.3415  0.1207
18721W        W23121  14.684   5.040  42.894  0.0373  0.1537  0.2066
18722W        W23122  11.564   1.549   0.626  0.0537 -0.0695  0.0639
18723W        W23123  16.833   5.068  10.442  0.2355 -0.0714 -0.1526
18724W        W23124   5.802   4.746   2.305  0.1415  0.3650  0.3527
18725W        W23125  20.295   2.465  28.560 -0.0929  0.1377  0.3064
18726W        W23126   9.094   5.479   1.702 -0.1524 -0.2956 -0.1868
18727W        W23127   9.002   5.549   8.990 -0.1309  0.1939 -0.1212
18728W        W23128  14.237   5.146  45.057 -0.0639  0.3431 -0.1666
18729W        W23129  12.940   5.157   9.426  0.4425 -0.1144 -0.2924
18730W        W23130   5.164   0.804  39.383  0.0457  0.0448 -0.2971
18731W        W23131  17.076   4.712  31.834 -0.2797 -0.1903 -0.0462
18732W        W23132  19.092   2.931  36.007 -0.0010  0.1984 -0.1264
18733W        W23133   1.738   2.053   6.954  0.0105 -0.0935 -0.0007
18734W        W23134  10.111   6.026  34.498  0.1000  0.2960  0.1181
18735W        W23135  18.000   6.392   3.261  0.2236 -0.0263 -0.1341
18736W        W23136  19.632   2.570  40.746 -0.1833  0.0997  0.2016
18737W        W23137   8.059   0.091   5.876  0.3544 -0.0221 -0.2192
18738W        W23138  14.699   2.556  19.785  0.0445  0.0813 -0.1519
18739W        W23139   1.978   4.961   0.915  0.1482  0.2519  0.1936
18740W        W23140  17.765   4.258  11.770  0.1186 -0.2107  0.0942
18741W        W23141  19.964   4.612  42.005 -0.0609  0.3174  0.0954
18742W        W23142   7.340   3.662  31.944  0.2108  0.1372 -0.0152
18743W        W23143   3.677   2.891  40.801  0.1091 -0.2300  0.2665
18744W        W23144   9.438   1.304  12.558 -0.1160  0.3448 -0.2362
18745W        W23145   8.552   2.810  12.682 -0.1940  0.1459  0.2449
18746W        W23146   3.596   0.758   8.011  0.2796  0.1669 -0.0141
18747W        W23147  20.128   5.983   7.283  0.1770 -0.1810 -0.1687
18748W        W23148   6.604   6.354  36.494 -0.0527 -0.0512 -0.2765
18749W        W23149   4.412   3.036  23.933 -0.0358 -0.1385 -0.2608
18750W        W23150   2.736   2.533  28.513  0.2089  0.3294  0.2449
18751W        W23151  12.225   1.906  44.933 -0.0593  0.0642 -0.0689
18752W        W23152   9.142   3.673  10.536 -0.0665 -0.2542  0.0946
18753W        W23153  20.028   2.497  14.284 -0.2494 -0.0144 -0.0924
18754W        W23154   0.303   4.588  13.767 -0.0060  0.3416  0.1492
18755W        W23155   3.686   2.903  38.873  0.1552 -0.1897 -0.0179
18756W        W23156   4.403   5.342   1.151 -0.0358 -0.0685 -0.2852
18757W        W23157   5.534   6.366  40.859  0.2642  0.1699 -0.2641
18758W        W23158   7.423   4.977  34.315  0.0931  0.1549  0.1922
18759W        W23159   8.591   3.773  37.500  0.4557 -0.0708 -0.0393
18760W        W23160   8.436   0.653   2.575 -0.0461  0.1919  0.1167
18761W        W23161  12.602   5.664  35.551 -0.2310 -0.1745 -0.0809
18762W        W23162   5.191   2.242   5.936 -0.0353  0.1028 -0.1238
18763W        W23163  10.315   5.073  18.843 -0.1476  0.0906  0.0581
18764W        W23164   6.155   3.595   3.458  0.0134 -0.2726 -0.1502
18765W        W23165   1.805   6.029  36.596 -0.0624  0.2080 -0.2521
18766W        W23166  18.903   0.334  16.152  0.1864 -0.0745 -0.0538
18767W        W23167  11.416   5.133  30.815  0.3223 -0.2456 -0.1737
18768W        W23168  13.623   1.101  14.145 -0.0292  0.1871  0.1690
18769W        W23169  14.693   0.509  36.358 -0.0230  0.1435  0.0888
18770W        W23170   9.625   0.210  28.278 -0.0981 -0.1755  0.2655
18771W        W23171   6.237   5.765  39.063 -0.2159 -0.1423 -0.1469
18772W        W23172   9.321   1.769  18.363 -0.1155 -0.1447 -0.0781
18773W        W23173   7.125   6.154  33.707 -0.2374 -0.0646  0.0268
18774W        W23174   1.962   5.461  12.694  0.3540  0.1300 -0.1543
18775W        W23175   4.744   4.607  42.263  0.1334 -0.0342 -0.0238
18776W        W23176   5.663   6.180  32.800  0.0661 -0.2182 -0.1443
18777W        W23177  17.260   0.419   9.457 -0.1119  0.0294 -0.2059
18778W        W23178   6.621   5.599   1.247  0.2210 -0.1257 -0.2083
18779W        W23179   8.292   3.528  11.741  0.1297  0.1676  0.0027
18780W        W23180  13.737   2.779  34.122  0.0327  0.0292 -0.1077
18781W        W23181   4.522   0.395  21.182  0.0734  0.0131  0.3338
18782W        W23182  16.258   1.844   5.186  0.0871 -0.2425 -0.0253
18783W        W23183  17.046   4.795   4.024  0.0107  0.0744  0.0431
18784W        W23184   3.192   3.239  32.615  0.1762  0.2145  0.0840
18785W        W23185   0.894   2.397   7.077 -0.2518  0.0956  0.1358
18786W        W23186  15.923   6.253  19.863  0.0565  0.2863  0.1701
18787W        W23187  17.685   5.066  41.242 -0.1763 -0.2424  0.0955
18788W        W23188  10.463   0.080   5.749  0.2831 -0.0758  0.2185
18789W        W23189  11.557   3.324  20.563  0.0255  0.2097  0.1252
18790W        W23190  15.935   2.637   2.580  0.0789 -0.2720 -0.1087
18791W        W23191   2.129   1.538  33.106 -0.0270 -0.1263  0.1570
18792W        W23192   7.020   5.909  25.883 -0.2255 -0.0534 -0.1791
18793W        W23193  12.465   1.903   1.398 -0.2131  0.1772 -0.2682
18794W        W23194   1.786   4.680  34.359 -0.0629 -0.1384  0.1033
18795W        W23195   9.896   0.470   3.751 -0.2262 -0.0155 -0.0379
18796W        W23196   4.409   2.142  25.767  0.0816 -0.0001  0.2299
18797W        W23197   3.202   0.603  43.393 -0.2322  0.1038 -0.1303
18798W        W23198  13.137   1.139   6.351 -0.0431 -0.1540  0.0908
18799W        W23199   6.989   3.551   2.269 -0.0056  0.0338  0.0783
18800W        W23200   6.216   5.402  28.307 -0.0285 -0.1273 -0.1121
18801W        W23201  10.049   4.978  33.365 -0.0079 -0.3776  0.1761
18802W        W23202  10.568   6.451  12.450  0.0578  0.0674 -0.3854
18803W        W23203   3.652   0.546  40.222  0.0375  0.0267  0.0568
18804W        W23204  20.479   2.679   3.981  0.2756  0.2914  0.0253
18805W        W23205   8.433   5.766  14.436 -0.1756  0.4796  0.1942
18806W        W23206   1.577   2.077  36.452 -0.2037 -0.2359  0.2914
18807W        W23207   3.187   4.888   7.220  0.0050  0.1574 -0.1027
18808W        W23208  19.540   5.313  29.611 -0.0782  0.1657 -0.0170
18809W        W23209  11.208   4.688  16.429 -0.0912 -0.4226 -0.0388
18810W        W23210  16.166   2.962  30.207  0.0401 -0.0912  0.0643
18811W        W23211   6.394   4.053  32.905  0.1306  0.1397 -0.0090
18812W        W23212  12.937   5.187   6.627  0.2034 -0.0523 -0.0878
18813W        W23213   9.184   4.019  26.526  0.1926 -0.0563  0.2122
18814W        W23214   1.138   6.346  43.625  0.0774 -0.1784  0.1648
18815W        W23215   1.357   2.238  43.847 -0.1048  0.1083  0.1664
18816W        W23216   7.479   4.329   5.160 -0.1388  0.2467  0.0549
18817W        W23217  16.202   4.311   8.748  0.0060 -0.0640 -0.3106
18818W        W23218  14.715   4.543  16.798  0.2871 -0.0561 -0.2517
18819W        W23219  15.029   2.117   8.041  0.5075 -0.1490  0.0554
18820W        W23220  13.214   2.878   3.309  0.0909  0.0078  0.0660
18821W        W23221   8.348   5.370   6.142 -0.1980  0.1765 -0.0585
18822W        W23222   4.297   4.316  41.940 -0.1957 -0.0562  0.2018
18823W        W23223   9.105   6.343  39.586 -0.0270  0.2402  0.1833
18824W        W23224  13.285   5.883   3.940  0.4566  0.2397 -0.0814
18825W        W23225   6.302   0.538  13.290  0.0254 -0.1199  0.0291
18826W        W23226   0.014   1.555  10.156  0.0686 -0.0985  0.2930
18827W        W23227   7.647   1.375  24.844  0.0259 -0.1251 -0.2128
18828W        W23228   4.881   2.742  12.108  0.0713 -0.1718 -0.0662
18829W        W23229  19.784   4.614  38.158 -0.1162 -0.4574  0.1558
18830W        W23230  19.400   4.843  30.362  0.2375 -0.1525 -0.0432
18831W        W23231  12.017   0.747   6.913  0.0962 -0.1305  0.1926
18832W        W23232   9.062   1.674  41.207  0.0505  0.3529  0.1593
18833W        W23233  11.717   1.094  28.598  0.0053  0.2028  0.1266
18834W        W23234   9.841   2.612  17.603 -0.2581  0.0033 -0.1599
18835W        W23235   2.803   2.666  23.983 -0.3116  0.1002 -0.2763
18836W        W23236   8.611   1.748  16.641  0.1869  0.0143  0.0104
18837W        W23237   5.682   4.177  13.615  0.3205  0.1524  0.3381
18838W        W23238  21.046   2.544  14.447  0.1364 -0.2335  0.1399
18839W        W23239   2.552   1.276   9.111 -0.0909  0.1243 -0.0394
18840W        W23240   5.269   0.896   9.088  0.1591  0.0899  0.2227
18841W        W23241   4.982   5.484   8.659 -0.1005 -0.0342  0.1232
18842W        W23242   4.878   5.516  39.985  0.1194 -0.2251 -0.1229
18843W        W23243  16.536   0.871  20.144 -0.0135 -0.0144  0.0354
18844W        W23244  19.976   5.519   4.415 -0.1164 -0.0155  0.0643
18845W        W23245   9.197   0.209  37.304  0.0170 -0.1855 -0.0936
18846W        W23246  18.581   2.893   8.107  0.1267  0.2368 -0.0587
18847W        W23247  14.518   3.915  36.880  0.0565 -0.1113  0.1994
18848W        W23248  18.305   3.798  37.097 -0.1561 -0.0237  0.2168
18849W        W23249  10.192   3.236  44.801  0.1813  0.0364 -0.1179
18850W        W23250  18.609   3.763  38.845  0.2683 -0.1998 -0.0542
18851W        W23251   5.108   0.436  43.581 -0.0494 -0.1213 -0.0536
18852W        W23252  18.639   2.455  18.736 -0.3579  0.0662  0.2058
18853W        W23253  14.019   3.545  25.304  0.2627 -0.0353 -0.2051
18854W        W23254   3.815   5.068  34.773 -0.1620 -0.2305 -0.0298
18855W        W23255   6.738   3.706  34.960  0.0715 -0.0730 -0.0034
18856W        W23256  17.143   6.479  37.950 -0.1118 -0.0625 -0.3162
18857W        W23257   5.036   0.778  10.060  0.1229 -0.2572  0.1017
18858W        W23258   6.343   3.480  41.899 -0.3238 -0.5030  0.2731
18859W        W23259  19.877   2.188   0.027 -0.0744 -0.2087  0.0576
18860W        W23260  20.461   5.693   7.568 -0.0876 -0.1724  0.0029
18861W        W23261   4.185   0.102  37.011  0.1043  0.2729 -0.2041
18862W        W23262  16.715   5.398  17.966 -0.2420 -0.0253  0.1081
18863W        W23263  13.878   4.487  42.786 -0.2428 -0.3813  0.0919
18864W        W23264  16.515   2.332  12.916 -0.0402 -0.0300  0.2560
18865W        W23265  16.297   5.824  33.736 -0.1862 -0.1765 -0.2605
18866W        W23266  16.947   6.426  18.946 -0.1975 -0.1518  0.1093
18867W        W23267  10.633   6.568  12.987 -0.1890  0.3857 -0.1069
18868W        W23268   1.606   5.132  32.370 -0.0008 -0.1043 -0.0154
18869W        W23269  17.141   1.271  36.179  0.0250 -0.0054  0.1106
18870W        W23270   0.621   1.719  11.210 -0.2738 -0.2544  0.0239
18871W        W23271   5.068   1.136  42.890 -0.0296  0.0850  0.2377
18872W        W23272  17.164   6.252  43.784 -0.2728 -0.0580  0.0536
18873W        W23273   1.042   4.400  42.003 -0.0240 -0.2091 -0.0943
18874W        W23274  11.471   3.095   5.174  0.0235  0.0539 -0.2073
18875W        W23275  17.555   3.123  19.879  0.0284  0.1469  0.2719
18876W        W23276  16.017   5.358  30.979 -0.2740 -0.0054 -0.1437
18877W        W23277   6.038   0.716  25.697 -0.1679  0.1724 -0.0914
18878W        W23278   4.972   5.504   7.736  0.0815  0.0740  0.3336
18879W        W23279  11.781   1.724  13.875  0.0076  0.0206  0.3032
18880W        W23280  14.207   3.668  33.885  0.0913  0.2224 -0.1472
18881W        W23281  13.157   1.174   3.683 -0.3408 -0.0853  0.1781
18882W        W23282  13.594   5.874  30.320  0.0771  0.0819 -0.0090
18883W        W23283   7.067   1.294  36.299  0.2718  0.1324 -0.0931
18884W        W23284  14.884   0.548  13.386 -0.2628  0.1974  0.0367
18885W        W23285   0.032   6.035  13.714 -0.1674  0.0439 -0.0364
18886W        W23286   2.718   2.594  40.529 -0.0238 -0.2077  0.0700
18887W        W23287   9.757   5.486  16.020 -0.4047 -0.0165 -0.1562
18888W        W23288   2.148   3.205  43.174  0.0686  0.1907 -0.0706
18889W        W23289  16.354   1.980   4.624 -0.1957  0.1820 -0.2016
18890W        W23290  17.712   5.761  40.508  0.0698 -0.0854 -0.1559
18891W        W23291   0.476   1.094  11.679  0.1316  0.0431 -0.0764
18892W        W23292  19.783   2.982   7.860 -0.1160 -0.1824  0.1848
18893W        W23293  17.017   5.090  35.654 -0.3925  0.2561 -0.0792
18894W        W23294   9.518   2.183  18.111  0.0886 -0.1701  0.0444
18895W        W23295   0.366   1.117  32.049  0.1515  0.0055  0.1927
18896W        W23296  16.679   2.082  33.181 -0.1589 -0.2738  0.0949
18897W        W23297  13.503   0.278  31.643 -0.0557  0.1921 -0.0034
18898W        W23298   2.806   2.871  40.993  0.0639  0.0869  0.1614
18899W        W23299   8.561   3.861   2.919  0.0068 -0.0877  0.2427
18900W        W23300  17.969   1.353  35.370  0.0554 -0.2596  0.0225
18901W        W23301  17.613   1.263   0.236  0.3449  0.0728  0.3899
18902W        W23302  11.560   5.800   4.230 -0.2579 -0.0919  0.3628
18903W        W23303  18.525   5.411  43.289  0.0515 -0.2062 -0.1958
18904W        W23304  20.269   4.355  28.793 -0.0673  0.1952  0.1527
18905W        W23305   1.073   3.623  15.440 -0.5444  0.1015 -0.1062
18906W        W23306  13.978   2.683   6.263 -0.0043 -0.2416 -0.0650
18907W        W23307   6.047   4.836  44.772 -0.0653  0.0997  0.1008
18908W        W23308   6.194   6.322  31.586 -0.2859 -0.2279 -0.1524
18909W        W23309   9.665   0.269  32.370  0.1104  0.0048  0.1438
18910W        W23310   9.264   0.654  17.128 -0.0829 -0.1119  0.0798
18911W        W23311   0.832   5.134  13.634 -0.1032  0.3699 -0.3269
18912W        W23312  17.377   0.256  16.874  0.0379 -0.1027  0.1713
18913W        W23313  13.467   0.691  42.393  0.1011 -0.1455 -0.0789
18914W        W23314   1.597   6.105  40.181  0.0606  0.2603 -0.0327
18915W        W23315   5.527   1.006  25.321 -0.0083 -0.0903 -0.1608
18916W        W23316  18.582   2.226  28.152  0.0585  0.0184 -0.0245
18917W        W23317  18.269   1.479   9.074 -0.1050  0.2969  0.1268
18918W        W23318  18.577   3.855  33.312 -0.0232 -0.0281 -0.2698
18919W        W23319   0.698   2.214  41.404 -0.1247 -0.0117 -0.1108
18920W        W23320   6.245   0.193  15.032  0.1063 -0.1235  0.0204
18921W        W23321  13.114   2.915   0.899 -0.0788  0.0735  0.1240
18922W        W23322   5.385   5.755  11.238  0.0530  0.1310  0.0447
18923W        W23323   9.029   1.962   3.150  0.0012  0.0195  0.1878
18924W        W23324  10.648   1.589  44.132  0.0629 -0.1011 -0.0540
18925W        W23325  15.708   5.063  42.648 -0.1217  0.2227  0.1200
18926W        W23326  12.015   1.817  30.804 -0.0883 -0.1130 -0.0473
18927W        W23327   0.315   5.962  15.641 -0.1289  0.0808  0.0186
18928W        W23328   0.645   4.053   9.247 -0.0014 -0.0102 -0.1335
18929W        W23329   1.299   5.765  44.257  0.5358 -0.1758 -0.0624
18930W        W23330  15.407   0.580   5.302  0.2189 -0.1992  0.0294
18931W        W23331  10.929   3.804  34.891  0.0464 -0.3019  0.2752
18932W        W23332  14.812   1.963   2.763 -0.3639 -0.1439 -0.5646
18933W        W23333   9.067   2.766  28.491 -0.0569  0.1331 -0.2341
18934W        W23334   4.962   4.855  43.174  0.1808 -0.0468  0.3826
18935W        W23335   1.558   4.153  35.734  0.2017 -0.1677  0.0888
18936W        W23336   3.940   4.976  12.022  0.1541  0.2374 -0.3638
18937W        W23337   1.651   6.025   4.371 -0.0185 -0.2532 -0.0207
18938W        W23338  15.883   3.518  21.785  0.0631 -0.3545  0.1177
18939W        W23339   8.808   1.639   7.313  0.1321  0.1281  0.1463
18940W        W23340   6.877   0.520   3.060  0.0483 -0.1841 -0.2900
18941W        W23341  19.335   1.769  14.595  0.0696 -0.0615  0.0627
18942W        W23342  11.657   2.522  38.605  0.1341  0.4188  0.0390
18943W        W23343   7.849   1.543  38.578 -0.0883 -0.0535  0.0785
18944W        W23344   3.939   1.713  14.437  0.4412 -0.3343 -0.2006
18945W        W23345   2.054   3.672  40.196 -0.1564  0.3113 -0.1815
18946W        W23346  12.361   1.066   0.375  0.1820 -0.1907  0.0468
18947W        W23347   7.114   1.374  43.901 -0.0954  0.1472  0.0312
18948W        W23348   3.732   1.772   6.193  0.3102 -0.2193 -0.0987
18949W        W23349   2.304   0.571   8.007  0.2211 -0.0238  0.1458
18950W        W23350  14.833   3.875  16.245 -0.0689 -0.0042  0.1640
18951W        W23351  15.889   2.966  38.304  0.0701 -0.0198 -0.1600
18952W        W23352   1.178   0.902  26.917 -0.1829  0.0769 -0.2460
18953W        W23353   9.610   0.115  14.140  0.0181 -0.1375 -0.0940
18954W        W23354   8.224   1.889  27.560 -0.0311  0.0290 -0.1546
18955W        W23355   2.549   0.378   4.063 -0.1658  0.3499 -0.0097
18956W        W23356  20.840   5.902  40.558 -0.0122 -0.2900 -0.0870
18957W        W23357  20.542   4.436  37.442  0.4021  0.0019  0.1550
18958W        W23358   4.772   4.523  41.790  0.0032  0.1048 -0.1289
18959W        W23359  13.529   3.338  28.983 -0.0952 -0.2051  0.3029
18960W        W23360   9.672   0.854  15.644  0.2261  0.1939  0.3187
18961W        W23361   1.432   2.709  32.700  0.0505 -0.0332  0.2454
18962W        W23362  18.318   5.286  34.192  0.1757  0.1428 -0.2283
18963W        W23363  10.108   0.948  29.580 -0.1504 -0.0668 -0.0122
18964W        W23364   9.687   0.789   8.026 -0.1314  0.1189 -0.1913
18965W        W23365   5.049   0.913  42.206  0.0246  0.1512 -0.0531
18966W        W23366  16.659   0.844  16.899  0.1645  0.1465 -0.3230
18967W        W23367   1.707   2.841  10.557 -0.2668 -0.2423 -0.1511
18968W        W23368  17.717   3.133   6.652  0.0428  0.1553 -0.0373
18969W        W23369  20.490   3.432   9.236  0.0411 -0.0667  0.0211
18970W        W23370  10.359   0.427  32.154 -0.0590  0.2123 -0.0356
18971W        W23371   5.595   1.133  44.133  0.1072 -0.1196 -0.0599
18972W        W23372  14.988   6.290  19.715  0.1304  0.1692  0.0848
18973W        W23373   5.326   3.386   8.834 -0.0260 -0.1103  0.0334
18974W        W23374  13.989   2.897  23.010  0.1224  0.0263  0.2443
18975W        W23375  18.431   3.743  10.210 -0.2870 -0.0514  0.2012
18976W        W23376   3.199   3.346  35.680  0.0277  0.2165  0.3248
18977W        W23377  20.186   2.429  27.658  0.0784 -0.0524 -0.1003
18978W        W23378   1.275   1.456  29.245  0.2100 -0.0311  0.3143
18979W        W23379  12.135   1.424  37.299  0.3390 -0.0981  0.1285
18980W        W23380   5.524   0.464  22.251  0.0181  0.0878 -0.1844
18981W        W23381   0.757   1.251   6.208 -0.0655 -0.0780 -0.1507
18982W        W23382  19.148   5.263   5.836  0.1062 -0.0381  0.0764
18983W        W23383   1.353   5.780   1.082 -0.2004  0.3897  0.2224
18984W        W23384  19.975   3.724   5.568 -0.2387 -0.2770 -0.0009
18985W        W23385  15.937   1.305  41.328  0.1266 -0.1376  0.2431
18986W        W23386   9.373   4.102  41.683 -0.0995  0.0865 -0.0941
18987W        W23387  14.300   4.204  13.439  0.2576 -0.1076  0.0601
18988W        W23388  20.443   4.103  13.528 -0.0146  0.1276 -0.0877
18989W        W23389   4.417   4.258  20.878 -0.2995  0.3829 -0.1924
18990W        W23390  14.913   4.645   4.065 -0.0896  0.3785 -0.0442
18991W        W23391  12.981   2.805  11.928  0.0004  0.2441  0.2209
18992W        W23392  20.662   3.811   9.504  0.0307  0.3478  0.2774
18993W        W23393  13.617   0.884  43.834  0.1598 -0.3197 -0.0994
18994W        W23394  16.630   4.994  30.140  0.2335 -0.0926  0.0985
18995W        W23395   1.655   5.342  25.557 -0.0484  0.1819  0.1689
18996W        W23396  15.406   5.953  31.622  0.1870 -0.0825  0.0610
18997W        W23397  20.266   5.554  34.408  0.0859 -0.2130  0.0114
18998W        W23398   3.090   4.343   5.451  0.0402 -0.0006 -0.2125
18999W        W23399   6.030   5.129  37.398 -0.1683 -0.3249  0.0238
19000W        W23400  19.432   3.685  44.213  0.3032  0.0073  0.1379
19001W        W23401  16.339   5.644  29.454  0.1578 -0.0565  0.1392
19002W        W23402  20.078   5.224  40.958 -0.0042  0.2286 -0.0090
19003W        W23403  20.429   3.612   4.615 -0.0676  0.0741  0.0430
19004W        W23404  10.167   6.168  43.496 -0.0751  0.3417  0.2512
19005W        W23405   5.092   1.224  26.623  0.0355 -0.2382 -0.0988
19006W        W23406   3.316   4.314  23.786  0.3780  0.0025  0.0897
19007W        W23407  13.990   6.035  19.840 -0.1574 -0.3277 -0.0569
19008W        W23408   5.170   4.532  32.389  0.0050  0.1068  0.2059
19009W        W23409   3.955   2.870  10.349 -0.1677 -0.0698  0.0283
19010W        W23410  14.656   5.668  13.309 -0.1090 -0.3506 -0.2268
19011W        W23411  19.602   0.497  36.512 -0.0274 -0.0362  0.0899
19012W        W23412   0.977   2.192  13.605 -0.4362 -0.2395  0.1925
19013W        W23413   3.357   6.315  11.390  0.1694 -0.1670  0.0655
19014W        W23414  12.571   3.472  33.941  0.1073  0.0844 -0.1118
19015W        W23415   6.718   0.882  13.255  0.0348 -0.1589 -0.1686
19016W        W23416  13.182   4.381  16.003 -0.0495  0.1696  0.3952
19017W        W23417   1.391   0.548  11.925  0.0946 -0.0041  0.1965
19018W        W23418  10.975   3.335  15.702  0.2605  0.1812 -0.0344
19019W        W23419  10.696   4.709  13.738 -0.3012 -0.0904 -0.0807
19020W        W23420   1.058   6.508  28.425  0.2536  0.0766  0.3621
19021W        W23421   3.884   6.271  10.137  0.1325 -0.2534 -0.1568
19022W        W23422  10.594   2.330  41.721 -0.0722 -0.1102 -0.2679
19023W        W23423   9.782   1.840  41.459  0.1349 -0.0373  0.0212
19024W        W23424  11.241   3.192   0.573  0.0298 -0.0518  0.0870
19025W        W23425   2.034   4.719  33.572 -0.3459  0.2053  0.1990
19026W        W23426   5.270   0.680  40.937 -0.0056  0.2647  0.2238
19027W        W23427   4.201   5.625  10.678  0.3197 -0.0160 -0.1522
19028W        W23428  13.272   4.458  19.336  0.1457  0.0490  0.0637
19029W        W23429   9.724   1.606  32.770 -0.0200 -0.1474  0.0308
19030W        W23430  11.830   0.171  42.466 -0.2045  0.0130 -0.2047
19031W        W23431  17.764   5.580  34.098 -0.1190  0.2175  0.0911
19032W        W23432   7.089   1.077  12.154  0.0049  0.1629  0.2127
19033W        W23433   9.776   1.340  32.017  0.1038 -0.1176 -0.5191
19034W        W23434  19.884   5.715  27.781  0.1889  0.1619  0.1326
19035W        W23435  19.929   0.606  41.798  0.3389  0.1243  0.0033
19036W        W23436   7.415   0.236  39.102  0.0182 -0.2206  0.0548
19037W        W23437   2.187   1.790  27.472 -0.2239  0.1087 -0.1150
19038W        W23438   7.621   4.324  27.971 -0.0984  0.1819  0.1714
19039W        W23439   9.884   1.838  34.382 -0.2508  0.1721  0.2090
19040W        W23440  17.228   0.579  20.428  0.3187  0.3299 -0.2244
19041W        W23441   8.418   2.374  25.186 -0.0342 -0.2161 -0.0917
19042W        W23442  13.213   4.358  37.696 -0.1008 -0.0847 -0.0177
19043W        W23443  19.303   5.294  13.940 -0.2103  0.0114 -0.1250
19044W        W23444  20.681   1.594  10.107  0.4670 -0.2318  0.1205
19045W        W23445  20.584   4.681   2.651  0.0811 -0.2150  0.3108
19046W        W23446   3.571   1.019   5.079 -0.0351 -0.0369  0.1258
19047W        W23447  16.999   4.738  30.328 -0.3112 -0.1163  0.0312
19048W        W23448  18.066   5.695   2.460 -0.3123 -0.0260 -0.4421
19049W        W23449   4.718   0.240  39.090  0.0459 -0.0793  0.2051
19050W        W23450  12.730   0.318  19.665 -0.0137 -0.0380 -0.2840
19051W        W23451  11.088   0.364   2.563 -0.0927 -0.3279 -0.1275
19052W        W23452  11.782   4.086  42.683 -0.0981 -0.0748 -0.3322
19053W        W23453   0.497   5.722  26.057 -0.1310 -0.2145 -0.0184
19054W        W23454  15.418   4.757  41.184  0.2593  0.1370 -0.2254
19055W        W23455  19.932   3.496  29.563  0.0247  0.0968  0.2499
19056W        W23456   7.534   5.817   3.814  0.2695 -0.0533  0.0492
19057W        W23457   8.602   5.920   6.963 -0.4461 -0.2496 -0.0565
19058W        W23458  15.925   0.420   7.628 -0.2301  0.0118  0.2068
19059W        W23459  19.453   2.523  28.957 -0.1622  0.0691 -0.0270
19060W        W23460   7.184   5.947  12.499 -0.0983 -0.2344  0.1696
19061W        W23461   5.023   2.916  38.376  0.1061  0.0605 -0.1988
19062W        W23462   7.361   3.919  32.729 -0.1672 -0.2102  0.1737
19063W        W23463   4.053   1.435  29.626  0.1422  0.0469 -0.0018
19064W        W23464  15.470   0.536  43.085 -0.0413  0.0257 -0.1081
19065W        W23465   7.526   5.374   2.843 -0.0828 -0.0312 -0.1451
19066W        W23466  18.420   0.231  42.121  0.2290 -0.1009  0.3164
19067W        W23467   8.058   0.855  12.919 -0.1953  0.0875  0.1370
19068W        W23468   5.440   6.153   6.841 -0.0373  0.0953 -0.0569
19069W        W23469  19.582   5.489  14.570  0.2247 -0.3744 -0.0542
19070W        W23470  21.081   6.468  14.084  0.1320  0.0491 -0.0528
19071W        W23471  11.897   3.664  34.506  0.1759  0.0290  0.4132
19072W        W23472   8.058   5.725  25.853  0.3531 -0.2240 -0.0494
19073W        W23473  17.903   4.757  13.498  0.0827  0.0212  0.1809
19074W        W23474  13.256   5.640   6.597 -0.0279 -0.0990 -0.1886
19075W        W23475   6.518   0.243  42.293 -0.3574 -0.1254  0.0122
19076W        W23476  20.743   3.377  38.366 -0.0846 -0.2560  0.1210
19077W        W23477  14.419   0.630   2.605  0.1477 -0.1154 -0.0963
19078W        W23478  17.637   4.304  18.417  0.1519  0.1219 -0.0387
19079W        W23479  16.751   4.888   4.494 -0.3750  0.4760  0.0232
19080W        W23480  14.174   2.699  31.971  0.1944 -0.1098  0.1826
19081W        W23481   2.521   5.646  28.271  0.0823  0.0440  0.2537
19082W        W23482  12.232   0.331   9.461  0.1570  0.2542  0.4767
19083W        W23483  11.437   1.372  12.411 -0.0924 -0.0014 -0.2448
19084W        W23484  11.725   5.017  27.886 -0.1845 -0.0284  0.1990
19085W        W23485   3.156   6.328  25.456 -0.0398  0.1836 -0.1558
19086W        W23486  10.272   6.296   6.051 -0.0757  0.0112  0.1112
19087W        W23487  17.689   2.799  38.206 -0.0976  0.0682 -0.0672
19088W        W23488  12.898   4.432   9.205 -0.2237 -0.4119 -0.3162
19089W        W23489  13.637   1.175   3.999 -0.3458  0.0071 -0.0011
19090W        W23490  19.710   5.640  28.865  0.0262  0.1642 -0.1889
19091W        W23491   2.663   3.009  42.264  0.1085 -0.1829  0.2610
19092W        W23492   1.055   0.390  31.649  0.3232 -0.0891  0.0981
19093W        W23493   1.102   4.007  42.333 -0.2863  0.1809  0.1999
19094W        W23494  16.330   4.501  34.486 -0.0328 -0.1327 -0.2331
19095W        W23495   6.520   5.778  28.718 -0.1082  0.0306  0.1821
19096W        W23496   5.848   0.238  12.832 -0.1155 -0.0560 -0.1991
19097W        W23497  16.560   4.082  36.529  0.0150 -0.0769  0.0332
19098W        W23498  10.880   1.609   4.277 -0.2251  0.0311 -0.0122
19099W        W23499  18.865   4.229  39.149  0.0332  0.0324  0.1037
19100W        W23500  18.063   1.283  34.631 -0.0035 -0.1002 -0.1098
19101W        W23501  14.663   6.192  25.213  0.3589  0.0459  0.1651
19102W        W23502   4.882   0.933  44.228 -0.0138  0.2559 -0.1695
19103W        W23503   5.572   1.980  29.830 -0.0949  0.1465 -0.1642
19104W        W23504  10.663   1.084   3.153 -0.1096 -0.1380 -0.0495
19105W        W23505  20.545   2.992   4.705  0.0974  0.4055 -0.0882
19106W        W23506   3.420   0.331  44.294 -0.0160 -0.0134 -0.1196
19107W        W23507  18.526   5.176   5.203  0.2111 -0.0142 -0.0263
19108W        W23508  14.657   0.100  43.328 -0.5751  0.0178 -0.0593
19109W        W23509  17.926   5.532  30.138 -0.4026 -0.1744  0.0440
19110W        W23510   0.981   6.047  10.083  0.0046  0.0688  0.0660
19111W        W23511   4.626   1.434  21.149  0.2776  0.2133 -0.0883
19112W        W23512  14.198   3.497  36.742  0.1948 -0.2404 -0.1753
19113W        W23513   7.942   3.206  10.856  0.1738  0.1717  0.1110
19114W        W23514  12.445   4.292  29.753 -0.0820  0.2021  0.3207
19115W        W23515  20.606   5.491   4.229  0.0813 -0.0670  0.2115
19116W        W23516  16.853   2.988   5.588 -0.2092 -0.1847  0.0934
19117W        W23517  13.014   2.521  17.961  0.1030 -0.0130 -0.0722
19118W        W23518   4.432   5.230  42.375  0.0149 -0.1701 -0.1343
19119W        W23519  19.602   3.585  30.327  0.0254  0.0185 -0.0263
19120W        W23520   9.266   4.290   2.336  0.0939 -0.0772 -0.0492
19121W        W23521  17.294   2.416  29.584 -0.2152  0.2602  0.0606
19122W        W23522  11.602   2.583  13.973 -0.0184 -0.2296 -0.3328
19123W        W23523   5.198   1.875   2.937  0.2568 -0.0397 -0.1015
19124W        W23524  12.058   6.518  33.580  0.0793 -0.0322  0.1127
19125W        W23525  17.852   3.748   8.117  0.0929  0.0340 -0.0629
19126W        W23526   4.024   0.312  37.823 -0.0629 -0.3314  0.1173
19127W        W23527   4.466   2.252  22.172  0.3217  0.0402  0.1458
19128W        W23528   9.254   2.209   2.791  0.0342  0.3066  0.0480
19129W        W23529   3.143   4.797  30.730 -0.0082  0.0604 -0.0975
19130W        W23530   4.645   1.208  44.602 -0.4211 -0.1314  0.1082
19131W        W23531  15.030   0.299   1.588 -0.2725  0.2278  0.1246
19132W        W23532   3.360   5.647  29.634  0.2808 -0.1175  0.0144
19133W        W23533  12.330   6.041  39.784 -0.1928 -0.2754  0.0989
19134W        W23534   9.954   3.404  32.801  0.0687 -0.1051 -0.2753
19135W        W23535   8.934   0.009   2.531  0.1541 -0.1128 -0.1336
19136W        W23536  14.325   6.182   1.328  0.0084 -0.0077 -0.1224
19137W        W23537  12.067   1.202  10.094  0.0935 -0.1338  0.0838
19138W        W23538   3.757   3.887  21.533 -0.0766  0.0008 -0.2769
19139W        W23539  15.318   6.340  17.657 -0.1970  0.0231  0.2853
19140W        W23540  10.359   3.748  31.549  0.0736  0.0755  0.0650
19141W        W23541  18.567   1.821  32.133 -0.0715 -0.1339  0.2979
19142W        W23542  10.396   0.057  33.192 -0.0498  0.2212 -0.0615
19143W        W23543   6.036   6.419   7.462 -0.1214  0.2416  0.0136
19144W        W23544   3.102   2.294  10.971  0.1123  0.3661  0.1410
19145W        W23545   0.598   0.159   3.625  0.2640  0.0970  0.2259
19146W        W23546  19.420   5.304  30.172  0.1533  0.1726  0.1242
19147W        W23547  15.774   4.151   6.091 -0.1669 -0.0482  0.0418
19148W        W23548  18.217   5.073  18.020  0.2861 -0.2553  0.0858
19149W        W23549   5.120   0.839  25.697  0.1516 -0.2283 -0.1605
19150W        W23550  20.661   2.358  37.360 -0.0450 -0.1191 -0.2709
19151W        W23551  15.622   3.960   7.136 -0.1421  0.2178 -0.1420
19152W        W23552   5.437   0.523  24.610  0.0203 -0.1386  0.1057
19153W        W23553  12.732   3.618  36.238  0.2318  0.1933  0.1659
19154W        W23554  16.988   3.986  13.167  0.0645 -0.1539  0.1674
19155W        W23555   9.893   5.055   1.623 -0.2836  0.1018 -0.1765
19156W        W23556   5.176   3.498  41.126 -0.1097 -0.0887 -0.2308
19157W        W23557  20.691   3.171  39.985 -0.3999 -0.3033 -0.0884
19158W        W23558  11.385   3.767   4.618  0.0947  0.0913 -0.0771
19159W        W23559   5.651   1.927   3.239 -0.1314  0.0217 -0.1002
19160W        W23560  15.623   2.015   6.074 -0.2028 -0.1281 -0.1692
19161W        W23561   9.494   0.189  33.808 -0.0845 -0.0697  0.0688
19162W        W23562  13.791   2.487  24.245  0.1852  0.1063  0.0838
19163W        W23563  13.446   5.678  42.955  0.0610  0.1346  0.2105
19164W        W23564  10.662   0.313   7.350 -0.0109  0.0196  0.2711
19165W        W23565   6.410   6.558  14.111 -0.1354 -0.0939  0.0430
19166W        W23566   0.757   2.731   1.930  0.1930  0.1982  0.0184
19167W        W23567   5.394   2.269  13.631 -0.3347 -0.0805 -0.0810
19168W        W23568  17.600   4.689  41.951  0.1357 -0.2872 -0.0358
19169W        W23569   2.537   2.587   8.194  0.0155 -0.0528 -0.2746
19170W        W23570   7.235   3.032  36.272  0.1526  0.1215  0.0337
19171W        W23571   4.937   0.172   5.109 -0.0964  0.3508  0.1837
19172W        W23572  16.901   5.161  38.370  0.0784  0.0891 -0.1648
19173W        W23573  16.615   5.761  16.048 -0.0883 -0.0709 -0.3575
19174W        W23574  11.062   4.540  38.320 -0.1217 -0.0163 -0.1186
19175W        W23575   5.914   1.125  22.832 -0.0275 -0.1143  0.0060
19176W        W23576   2.766   4.619   5.720 -0.0601  0.1901 -0.0077
19177W        W23577   9.955   5.529   2.112  0.1033 -0.1355  0.2124
19178W        W23578   0.223   2.500  38.523 -0.0508 -0.1624 -0.1432
19179W        W23579   4.650   2.670   4.164  0.0615 -0.2126  0.1281
19180W        W23580  17.024   2.318   0.948  0.1308  0.1341 -0.2723
19181W        W23581  13.357   4.063  37.306  0.1821  0.0778 -0.2703
19182W        W23582  16.866   2.350  40.674 -0.1447 -0.1309  0.0388
19183W        W23583   2.471   3.675  15.658 -0.0584  0.4664 -0.1508
19184W        W23584  17.374   1.127   3.363  0.0585 -0.0416  0.0563
19185W        W23585   6.125   4.096  36.660  0.0376 -0.3377 -0.2220
19186W        W23586   0.619   1.062   2.499 -0.0360 -0.1218  0.2840
19187W        W23587  14.595   2.052   1.000  0.2346  0.1666  0.0099
19188W        W23588  12.788   6.003  33.793 -0.1076 -0.1162 -0.0468
19189W        W23589  14.699   4.746  23.883  0.0296 -0.1394 -0.0307
19190W        W23590  11.437   0.936  10.601  0.2149 -0.0083 -0.0769
19191W        W23591  15.141   2.557  38.583  0.2692  0.2314 -0.0993
19192W        W23592   1.504   5.827  28.494  0.1601  0.0046 -0.0456
19193W        W23593  14.150   4.856  13.924  0.1690 -0.0296 -0.1326
19194W        W23594  20.726   1.970  37.711 -0.3430  0.0126  0.0572
19195W        W23595   7.167   2.153  16.642  0.2337  0.2277 -0.2786
19196W        W23596  13.505   4.920  21.876 -0.2209 -0.1975  0.0661
19197W        W23597  11.089   1.706  30.369  0.0082  0.0606  0.1465
19198W        W23598  19.172   4.475  41.020  0.0678  0.2098  0.0229
19199W        W23599   7.079   2.838  11.059 -0.0948  0.0532 -0.3274
19200W        W23600   8.440   3.898  13.538  0.0647 -0.1982  0.0777
19201W        W23601  12.970   5.690   6.162  0.1244 -0.1217  0.0753
19202W        W23602  14.423   5.953  34.331 -0.0451 -0.2621 -0.0159
19203W        W23603  11.417   3.798  39.072 -0.1483 -0.0589 -0.0369
19204W        W23604  15.050   0.570  29.197 -0.0063 -0.0670 -0.0619
19205W        W23605  17.269   5.808  21.065 -0.1273  0.1526 -0.1290
19206W        W23606   2.359   1.702  44.876 -0.4099 -0.1487  0.3373
19207W        W23607  18.566   3.384  30.062 -0.0268 -0.2115 -0.2688
19208W        W23608   0.685   4.903  29.594  0.5163  0.0814 -0.2995
19209W        W23609   4.882   1.130  20.752 -0.1519  0.4575 -0.2315
19210W        W23610  10.104   4.506   3.731 -0.3361  0.1822 -0.0345
19211W        W23611  17.086   5.248   4.372 -0.1293 -0.4121 -0.4487
19212W        W23612   4.813   0.630  11.172 -0.1303 -0.0180 -0.3100
19213W        W23613   0.979   6.461  23.704  0.2408  0.2230  0.0350
19214W        W23614  19.116   4.700   2.034 -0.0402  0.2224 -0.0308
19215W        W23615  19.881   2.952  40.907 -0.3029 -0.1216 -0.0695
19216W        W23616   0.897   5.891  28.335  0.0140  0.0476  0.1042
19217W        W23617   2.934   6.013   4.018 -0.2766 -0.3269  0.2182
19218W        W23618  21.091   5.229  41.818  0.0484  0.1457  0.0307
19219W        W23619   5.148   1.393   7.758  0.1623  0.1346 -0.1125
19220W        W23620  16.411   1.716   6.445  0.0416 -0.0039  0.1779
19221W        W23621   6.938   3.113   4.775 -0.1198  0.2526 -0.0985
19222W        W23622   8.441   2.113  41.893  0.1355  0.0260  0.0794
19223W        W23623   5.309   1.322  42.134  0.0954 -0.1423  0.2076
19224W        W23624  15.607   1.604  19.726  0.1941  0.1270 -0.3193
19225W        W23625  20.205   3.814  26.599  0.1924  0.1331 -0.1555
19226W        W23626  13.187   6.077  40.035  0.0432  0.2127 -0.0106
19227W        W23627  10.932   6.371  16.374 -0.1793 -0.3247  0.0092
19228W        W23628  10.837   4.316  41.832 -0.2436  0.2295  0.2798
19229W        W23629  15.641   0.794  18.344 -0.0647  0.1317 -0.0263
19230W        W23630   0.810   2.992   4.186 -0.2141 -0.3637  0.0818
19231W        W23631  17.176   5.586  33.885  0.0598  0.0522  0.1700
19232W        W23632   5.146   6.178  12.987 -0.1955 -0.0529 -0.3032
19233W        W23633  18.454   4.970  33.815  0.5664 -0.0111  0.1814
19234W        W23634   8.810   2.918   6.777  0.0332  0.1427  0.2396
19235W        W23635  10.914   3.101  18.572  0.2413  0.4306 -0.1087
19236W        W23636  18.563   1.282   6.976  0.1019 -0.0668 -0.2280
19237W        W23637  20.683   3.227  43.074  0.2739  0.0336 -0.3563
19238W        W23638   1.908   3.699   6.648 -0.2522 -0.0255  0.2504
19239W        W23639  15.069   4.786  15.831  0.3996  0.2242  0.1281
19240W        W23640  13.980   0.854  11.623  0.2174 -0.2685 -0.1681
19241W        W23641  19.609   1.503  40.003 -0.2220  0.0314 -0.1324
19242W        W23642  14.057   0.618  38.302  0.2780 -0.1685 -0.1025
19243W        W23643  14.247   0.565  18.314 -0.1161  0.1390  0.0414
19244W        W23644  16.559   2.396  20.084 -0.0251 -0.0515 -0.0022
19245W        W23645   8.389   1.128  32.713 -0.0860  0.1599  0.2418
19246W        W23646  16.564   5.591   8.600  0.0639  0.0059  0.2080
19247W        W23647  14.706   0.490  12.716 -0.1014 -0.2741 -0.1204
19248W        W23648   6.753   5.252  15.202 -0.2150  0.2356 -0.0524
19249W        W23649  12.369   0.178   5.648 -0.0060  0.0141  0.4226
19250W        W23650  10.671   1.037  33.449  0.2136 -0.0626  0.3751
19251W        W23651  11.769   0.709  20.842  0.2288  0.2969  0.3393
19252W        W23652  20.524   1.072  25.378 -0.0402  0.0895  0.3056
19253W        W23653   3.353   3.879  35.055  0.0369  0.3366  0.1564
19254W        W23654  11.082   6.313  10.980  0.0781  0.2805 -0.1672
19255W        W23655   6.568   5.349  43.501 -0.2489  0.2384 -0.2647
19256W        W23656   3.345   0.433  26.768 -0.4277  0.1737  0.0864
19257W        W23657   8.625   5.009  13.411 -0.0617  0.1661  0.3077
19258W        W23658   8.127   0.849  16.598 -0.0338  0.0621 -0.2216
19259W        W23659   3.863   0.078   5.539 -0.2026  0.1135  0.1408
19260W        W23660   8.476   4.908  34.293 -0.0446 -0.2421  0.1217
19261W        W23661  18.284   6.500  42.861  0.0201 -0.3159  0.5081
19262W        W23662  14.778   0.861  24.276 -0.1936 -0.0772  0.1469
19263W        W23663  13.859   5.251  14.064 -0.0101 -0.1754 -0.0696
19264W        W23664   1.676   2.292  29.406 -0.2391  0.0315 -0.1276
19265W        W23665  21.113   1.622  25.932 -0.1900  0.2348  0.1324
19266W        W23666   4.387   5.671  35.293  0.0801 -0.0800  0.1725
19267W        W23667   0.740   2.612   6.614 -0.1582  0.1741  0.1815
19268W        W23668   7.387   3.419   6.080 -0.0716  0.0088  0.1869
19269W        W23669   3.575   0.776   9.661  0.1636  0.1580  0.3748
19270W        W23670   5.716   1.565  23.103  0.0031 -0.2740 -0.2348
19271W        W23671   7.573   1.611  26.629 -0.1131 -0.0692  0.0877
19272W        W23672   1.757   6.522   2.241 -0.1989  0.2360  0.0323
19273W        W23673   8.608   0.008  35.012  0.1145 -0.1063 -0.1793
19274W        W23674   4.574   4.656   3.757 -0.0435  0.1075 -0.2405
19275W        W23675   3.692   3.517  30.520  0.0826  0.3392  0.1213
19276W        W23676  15.804   5.408   1.248  0.1190  0.1351  0.4252
19277W        W23677  10.561   5.317  44.478  0.0764 -0.2337 -0.0525
19278W        W23678  10.436   4.942  32.990 -0.0027  0.0296  0.0016
19279W        W23679   6.496   6.354  42.380 -0.1553 -0.0886  0.2317
19280W        W23680   1.122   0.213  25.589 -0.1551 -0.1351  0.1754
19281W        W23681  13.851   2.928  13.294  0.1043 -0.0331  0.1786
19282W        W23682  15.108   3.802   2.443  0.0646  0.2934  0.2066
19283W        W23683  14.619   4.790  33.731 -0.4232  0.2224 -0.1242
19284W        W23684   9.385   3.316  32.967  0.1818  0.0409  0.1897
19285W        W23685  19.818   0.004  37.268  0.1208 -0.0647 -0.1159
19286W        W23686   7.720   6.177  28.758  0.1809 -0.0878 -0.0004
19287W        W23687  13.701   0.402  22.794  0.0328 -0.0368 -0.0911
19288W        W23688  18.108   6.309   0.400 -0.0469 -0.1277 -0.2099
19289W        W23689   1.831   2.149  40.430 -0.0034  0.0684 -0.1306
19290W        W23690   0.759   5.530  33.819 -0.0951  0.0309  0.0904
19291W        W23691  13.950   3.135  16.406  0.0252 -0.0657 -0.2769
19292W        W23692  19.013   1.983   7.096  0.0619  0.2475  0.0635
19293W        W23693  20.019   4.003  36.849  0.2046 -0.0751  0.1792
19294W        W23694  16.231   1.357   5.285  0.0633 -0.1328 -0.0833
19295W        W23695  15.730   1.003   7.528 -0.4183 -0.2155  0.1765
19296W        W23696  17.064   0.170  11.778  0.1497 -0.2221 -0.0822
19297W        W23697   5.973   3.562   4.860 -0.1497  0.2051  0.0891
19298W        W23698  19.293   2.304   8.334 -0.1296  0.3359  0.2040
19299W        W23699   8.372   6.354  36.770 -0.2556 -0.1906 -0.1970
19300W        W23700  13.709   5.034   4.587  0.0028  0.2271 -0.2963
19301W        W23701  17.921   2.484   7.073 -0.0049 -0.2365  0.1753
19302W        W23702   4.539   0.774  20.815 -0.1390  0.0104 -0.3569
19303W        W23703   5.179   5.095  43.875  0.1190  0.2094  0.2867
19304W        W23704  18.114   3.455  35.013 -0.2276 -0.0140  0.5030
19305W        W23705   5.327   2.943   1.602 -0.0804 -0.3509  0.1840
19306W        W23706  10.654   4.258   2.421 -0.0740 -0.2053  0.0137
19307W        W23707  20.541   5.712  42.536  0.0738 -0.1327  0.0133
19308W        W23708  18.481   1.885   9.242  0.0131  0.1422 -0.0263
19309W        W23709   8.929   6.450  44.829 -0.0431  0.6386  0.1389
19310W        W23710  15.039   4.451   8.280  0.0394  0.2492  0.0590
19311W        W23711   3.857   5.192  41.892  0.0308 -0.2222 -0.3010
19312W        W23712   1.040   3.505   8.413 -0.0123 -0.1051  0.3052
19313W        W23713  14.827   1.489  18.765 -0.4373 -0.0842 -0.0821
19314W        W23714   2.617   0.827  35.983 -0.0266 -0.2062  0.5530
19315W        W23715   1.329   4.512  28.030 -0.3746 -0.0959 -0.0126
19316W        W23716  16.327   0.015  14.811  0.2833 -0.0545 -0.2269
19317W        W23717  16.907   1.435   3.384  0.0803 -0.4271  0.3327
19318W        W23718  20.092   4.254  10.922 -0.1276  0.0964 -0.1239
19319W        W23719   6.624   3.721  27.106 -0.1843  0.0988 -0.1761
19320W        W23720  17.798   0.967  10.308  0.2069  0.0740 -0.2474
19321W        W23721  11.958   6.430  38.956 -0.0527 -0.2294  0.0715
19322W        W23722   2.725   0.123  29.303  0.1843  0.1233 -0.0905
19323W        W23723   3.443   4.233   9.600  0.1157 -0.2682  0.2576
19324W        W23724  13.081   2.536  15.547 -0.1254  0.3326  0.2071
19325W        W23725   4.952   5.027  27.473  0.0403  0.0375 -0.1522
19326W        W23726  18.898   0.042  35.890 -0.2575  0.3180 -0.2252
19327W        W23727   7.429   3.587   2.057  0.1321  0.0630  0.0867
19328W        W23728  12.414   2.208   5.424  0.2921 -0.0701  0.0365
19329W        W23729   9.509   6.109  35.783 -0.0688  0.0751  0.0429
19330W        W23730  13.573   5.451  33.375 -0.1651 -0.0829  0.1011
19331W        W23731   8.118   6.060   3.191 -0.2182  0.0898 -0.1725
19332W        W23732   9.047   5.925   7.867 -0.1887 -0.0904  0.0638
19333W        W23733   5.595   3.403   2.148  0.1012  0.1084  0.3062
19334W        W23734   5.237   2.280   7.548 -0.0676 -0.3102  0.0067
19335W        W23735   0.744   5.627  32.581 -0.1057  0.1099 -0.0927
19336W        W23736   2.905   6.203   2.353  0.2050  0.3827  0.0887
19337W        W23737  10.166   1.022  35.974  0.4362 -0.0867 -0.1120
19338W        W23738   6.491   2.442  23.821  0.0393 -0.0453  0.0846
19339W        W23739  13.027   1.292  18.070 -0.1262 -0.0906  0.1704
19340W        W23740  19.790   2.177  11.559  0.1857  0.2772 -0.1280
19341W        W23741  14.249   5.107  39.861 -0.0132 -0.4282  0.0217
19342W        W23742  19.665   6.319  38.181 -0.5472 -0.2666 -0.0434
19343W        W23743   0.017   1.451  17.016 -0.0806 -0.1106  0.1124
19344W        W23744   8.500   3.939  27.697 -0.2711 -0.0595  0.2261
19345W        W23745  17.259   3.693  32.716 -0.1094  0.1207 -0.0506
19346W        W23746  15.391   1.127   1.943 -0.1016  0.0075  0.1153
19347W        W23747  17.849   4.582  30.217  0.0959  0.2403 -0.1658
19348W        W23748   5.506   0.245   5.024  0.2783 -0.0525  0.0664
19349W        W23749   2.223   3.528  34.433  0.1915  0.0065  0.0417
19350W        W23750  13.755   3.643  31.537 -0.2737  0.2133  0.0353
19351W        W23751   6.328   0.115  33.324 -0.0431 -0.4996 -0.0959
19352W        W23752   5.842   4.458  12.439  0.0558  0.0781  0.1615
19353W        W23753   2.741   0.549  35.596  0.0132 -0.2290 -0.0139
19354W        W23754  19.405   4.798   4.491 -0.0378  0.3028  0.3589
19355W        W23755   1.396   0.685  34.157 -0.2598  0.2382  0.0772
19356W        W23756   4.736   1.540  33.682 -0.0173  0.1703 -0.2113
19357W        W23757   8.817   3.713  40.645 -0.0293  0.0158  0.1982
19358W        W23758   2.290   3.543  42.812  0.1320 -0.1061 -0.0699
19359W        W23759  15.222   1.884  12.229  0.0801 -0.1597  0.1688
19360W        W23760   5.623   4.778  12.759 -0.0853  0.1953  0.1335
19361W        W23761   3.727   4.017  40.397  0.2042 -0.1225 -0.0942
19362W        W23762   6.399   1.369   8.554 -0.0337 -0.0850 -0.0653
19363W        W23763  10.770   0.889  41.730  0.3612  0.0920  0.0261
19364W        W23764   5.246   1.598  41.223 -0.2978  0.1893 -0.1157
19365W        W23765  11.510   1.986   8.032  0.0198 -0.0788  0.2218
19366W        W23766   8.973   0.198  14.702 -0.0119 -0.0356  0.1439
19367W        W23767  17.479   4.553  43.881  0.3446  0.2509 -0.1355
19368W        W23768  10.441   4.703  11.373 -0.1950  0.1039  0.2840
19369W        W23769  13.926   0.150  10.467  0.1504  0.1479  0.0718
19370W        W23770   4.929   1.065  22.949  0.0231  0.1457  0.1068
19371W        W23771   3.751   4.151  42.225  0.2183 -0.0491 -0.1114
19372W        W23772   4.355   2.492  44.203 -0.3076 -0.0472 -0.0102
19373W        W23773   1.080   4.572   5.684  0.0786  0.0889  0.2063
19374W        W23774  12.170   1.430  28.347  0.0471  0.0077  0.0178
19375W        W23775  12.653   5.217  42.514  0.1183 -0.0296 -0.1334
19376W        W23776   8.711   5.625  32.704 -0.0038 -0.1003  0.0148
19377W        W23777   0.300   6.227   4.775  0.0021  0.0425 -0.1699
19378W        W23778  16.158   4.578  33.947 -0.0691  0.1108  0.2758
19379W        W23779   7.783   0.749   7.792  0.1950  0.1501  0.0844
19380W        W23780  15.138   0.194  43.216  0.1599 -0.0759 -0.1601
19381W        W23781   6.825   6.056   8.688  0.0401 -0.0480  0.2044
19382W        W23782  18.393   4.957   8.115 -0.1891  0.0942 -0.1936
19383W        W23783   7.833   6.546  10.592  0.0833  0.0314 -0.5235
19384W        W23784   0.343   4.152  28.873 -0.0264  0.2153 -0.1100
19385W        W23785   8.115   6.076  12.469 -0.4321 -0.1946  0.0665
19386W        W23786  17.944   3.499  21.794  0.2037  0.1219 -0.0631
19387W        W23787   0.721   1.939   9.807 -0.0554  0.0456 -0.2781
19388W        W23788   0.446   6.546  33.213 -0.0623  0.1290 -0.0258
19389W        W23789  19.658   2.936  11.925 -0.1820 -0.1912 -0.2821
19390W        W23790  15.800   4.557  44.041  0.2590  0.0391 -0.2516
19391W        W23791   0.868   3.520   0.885 -0.0734 -0.2350 -0.0925
19392W        W23792   7.328   5.825  16.232  0.0731 -0.4921  0.1120
19393W        W23793   1.960   0.280   0.107  0.0866 -0.1048 -0.0687
19394W        W23794  15.744   4.895  20.731  0.0964  0.1389 -0.1130
19395W        W23795  16.454   1.918  39.116  0.1964 -0.2045  0.2588
19396W        W23796  12.407   0.448  17.254 -0.0789 -0.0763  0.0921
19397W        W23797   3.944   2.261  39.771 -0.0466 -0.0011  0.0947
19398W        W23798   9.077   4.205  34.975  0.1269  0.0641  0.2342
19399W        W23799   4.512   6.081  27.923 -0.0920 -0.0630  0.0502
19400W        W23800  19.972   0.526  28.668 -0.2876 -0.1368  0.1367
19401W        W23801  12.671   0.431  40.015  0.0112 -0.2397 -0.3409
19402W        W23802   9.968   6.174  10.036 -0.0398  0.0082 -0.0431
19403W        W23803  14.049   5.623  39.943  0.1227 -0.0173  0.2565
19404W        W23804   0.099   6.477  11.124 -0.1151  0.2054 -0.2649
19405W        W23805  10.169   0.547  34.752 -0.0604  0.0987  0.0783
19406W        W23806   0.805   2.151  15.420 -0.0956  0.1305 -0.3029
19407W        W23807   4.790   2.462   3.219 -0.2099 -0.0009 -0.2712
19408W        W23808   5.823   4.756  34.604 -0.1406  0.1999 -0.0795
19409W        W23809  16.700   3.157   3.656 -0.0343 -0.0530 -0.0279
19410W        W23810  10.222   4.300  39.777 -0.1153  0.0907 -0.0334
19411W        W23811  15.845   1.947  17.143  0.1609 -0.0035 -0.2929
19412W        W23812  15.785   3.920   6.544  0.0468  0.0777  0.0502
19413W        W23813   8.963   0.478  10.168  0.0221 -0.1829 -0.1568
19414W        W23814   5.327   1.646  15.002 -0.0315 -0.1274 -0.1950
19415W        W23815   0.006   3.120  38.622  0.2011 -0.0420 -0.0124
19416W        W23816  19.898   3.071  33.957 -0.2289  0.2991 -0.1715
19417W        W23817  12.196   5.264  38.349  0.1434 -0.0891  0.1304
19418W        W23818  19.153   0.850   3.708  0.0611  0.3009 -0.0354
19419W        W23819  15.914   1.139  21.187 -0.4061  0.1244 -0.1171
19420W        W23820   0.518   2.643  38.118 -0.0757  0.0327 -0.4219
19421W        W23821  10.505   2.535  35.324  0.0300  0.0164  0.1213
19422W        W23822  18.845   2.086  41.197 -0.0357  0.0849 -0.4142
19423W        W23823   4.113   1.328   1.343  0.2170  0.2846  0.0535
19424W        W23824   1.823   5.200  32.836  0.0077 -0.0377 -0.3322
19425W        W23825   6.357   5.294  35.214 -0.0975  0.1351 -0.1692
19426W        W23826   2.411   6.262   2.330  0.1604 -0.1468 -0.1456
19427W        W23827   8.800   2.024  39.567  0.1233 -0.2475  0.0495
19428W        W23828  20.274   0.365   6.889 -0.2647 -0.0153 -0.0304
19429W        W23829  12.179   5.479  44.998 -0.0528 -0.0784  0.0228
19430W        W23830  18.474   3.762  34.669 -0.1342  0.0443  0.2546
19431W        W23831  14.146   2.004  38.467  0.0167 -0.1815  0.0086
19432W        W23832  12.726   3.892  22.861 -0.3185 -0.0745 -0.3391
19433W        W23833  13.964   2.230  16.896  0.3388  0.0130 -0.0229
19434W        W23834  16.200   5.808  11.008  0.4100 -0.1002  0.2946
19435W        W23835   5.099   4.296  15.916  0.3324 -0.0442  0.2581
19436W        W23836   9.758   5.759  13.135  0.4120  0.0390 -0.0607
19437W        W23837  12.442   0.633  31.927 -0.0703  0.0794 -0.3270
19438W        W23838  13.787   5.253   1.116 -0.2150 -0.0404  0.1411
19439W        W23839  14.254   2.978  41.362 -0.1307 -0.0157 -0.1961
19440W        W23840  17.123   5.708  43.837 -0.4135  0.3228  0.3358
19441W        W23841  11.740   3.672  20.237  0.0791 -0.0096  0.0416
19442W        W23842   6.066   1.317   7.858 -0.0792 -0.1253  0.0633
19443W        W23843  16.390   3.631  11.234 -0.0943 -0.0508 -0.0065
19444W        W23844  11.681   2.016  21.333 -0.2697  0.1131 -0.2737
19445W        W23845  18.972   0.643  38.051  0.1650  0.1011  0.4096
19446W        W23846  13.643   2.466  45.093 -0.3179  0.2157  0.1995
19447W        W23847   4.729   4.276  15.025 -0.3117  0.1837 -0.4346
19448W        W23848   1.624   2.425  33.867  0.0670  0.3032 -0.1534
19449W        W23849   0.748   5.779   5.932  0.3059 -0.2119 -0.0073
19450W        W23850   5.886   2.033  33.253 -0.0619  0.0658 -0.1588
19451W        W23851   7.068   0.157  38.639  0.0809  0.0355 -0.0749
19452W        W23852  10.802   4.704   3.216  0.0894  0.0155 -0.2946
19453W        W23853  11.183   4.820   3.648  0.0158  0.0978 -0.1155
19454W        W23854  18.023   5.087  37.502  0.0994  0.2287 -0.0222
19455W        W23855   1.675   0.892   8.688  0.2019  0.1590  0.1871
19456W        W23856  15.417   4.363  37.734 -0.4756  0.2539 -0.0020
19457W        W23857  11.471   0.501  39.462 -0.0875 -0.0854 -0.1826
19458W        W23858   7.493   0.765  34.599 -0.1529  0.0989  0.0507
19459W        W23859   6.079   5.503  25.826  0.0713 -0.0089 -0.1121
19460W        W23860   3.278   2.818  43.312  0.0220 -0.1135  0.1471
19461W        W23861   4.998   1.982  44.251 -0.0626  0.0056  0.2979
19462W        W23862   6.307   3.233  25.821 -0.1613  0.0451 -0.0645
19463W        W23863  17.803   4.059  21.096  0.1075  0.0969  0.0274
19464W        W23864  18.417   5.526  41.130 -0.2806 -0.3152 -0.0226
19465W        W23865   8.928   1.007   0.401  0.3381  0.2799  0.1819
19466W        W23866   5.738   0.200  38.332 -0.0847  0.2780  0.2494
19467W        W23867   5.275   2.846  31.253  0.1065 -0.0631 -0.0458
19468W        W23868   4.094   5.872  30.163 -0.0220  0.1544  0.0558
19469W        W23869  17.037   1.870  16.250  0.3222 -0.0459 -0.2830
19470W        W23870  11.940   6.192  13.037  0.0560 -0.1443  0.0590
19471W        W23871   8.774   4.999   3.992 -0.1365 -0.0433  0.0666
19472W        W23872   5.683   3.414  39.367 -0.0804  0.0286 -0.1361
19473W        W23873   6.705   6.166  10.216  0.1856 -0.0734 -0.1422
19474W        W23874   1.944   5.029  31.954 -0.1634  0.0416 -0.1253
19475W        W23875  14.215   3.605  10.831  0.1652  0.0238  0.2046
19476W        W23876  19.640   3.389   6.147  0.0481  0.0480 -0.0649
19477W        W23877  20.953   3.898  10.764 -0.2085 -0.0480 -0.0740
19478W        W23878   0.609   6.442  29.962  0.1839  0.2373  0.0187
19479W        W23879   9.842   0.401  31.864 -0.0882  0.3354  0.1985
19480W        W23880   8.254   4.783   7.689  0.0562  0.0450  0.0935
19481W        W23881   4.219   4.040  23.867 -0.1459 -0.4742  0.3771
19482W        W23882   4.562   1.436   7.541  0.2125 -0.1312 -0.3041
19483W        W23883  11.916   4.308   0.294  0.0791 -0.1878  0.2565
19484W        W23884   3.418   5.558  35.866 -0.0977  0.1391 -0.1864
19485W        W23885   2.654   0.531  30.147 -0.0415 -0.0885 -0.1333
19486W        W23886   1.417   1.180   3.985  0.0681 -0.1142 -0.1394
19487W        W23887   1.215   6.302   1.328  0.1574  0.1619  0.1463
19488W        W23888   8.382   2.653  34.286 -0.1745  0.0052  0.0314
19489W        W23889   4.485   2.405   8.626  0.1086 -0.0880 -0.0862
19490W        W23890  15.110   0.739   3.322  0.0485  0.2489 -0.1362
19491W        W23891  18.675   0.429  35.772 -0.0281 -0.3455 -0.3133
19492W        W23892  14.824   2.461  33.691 -0.2119  0.1314  0.1803
19493W        W23893   9.936   1.645   5.112  0.2448 -0.2191 -0.0938
19494W        W23894  14.684   2.294   4.011 -0.0504  0.1446 -0.0313
19495W        W23895  12.920   0.638  29.382 -0.1452 -0.1770 -0.0902
19496W        W23896  20.186   0.987  14.190 -0.1947  0.2078 -0.0004
19497W        W23897   1.851   0.579  22.364  0.4077 -0.0036  0.2015
19498W        W23898   6.178   2.082  10.575 -0.0678 -0.3130  0.0882
19499W        W23899  17.595   1.972  37.076 -0.2377 -0.1736 -0.0690
19500W        W23900  15.763   0.291  35.577  0.1080 -0.1438 -0.3363
19501W        W23901  19.348   0.080  41.190 -0.2113 -0.0295  0.1793
19502W        W23902   5.013   6.182  31.053 -0.0290  0.0975  0.0744
19503W        W23903   4.507   5.874   5.315 -0.2390  0.2693 -0.0597
19504W        W23904  15.096   6.442  14.186 -0.1832  0.3813 -0.1169
19505W        W23905  20.419   0.708   5.748  0.2725 -0.0163  0.0180
19506W        W23906  19.189   5.775   5.694  0.0345  0.0499 -0.0770
19507W        W23907  12.707   2.983  35.270 -0.1270 -0.2128 -0.2212
19508W        W23908   7.415   3.907  24.068  0.0212  0.1214 -0.3642
19509W        W23909   7.792   5.592   3.353  0.0264 -0.1556 -0.0947
19510W        W23910  13.304   0.577  36.240 -0.0714 -0.2414 -0.1436
19511W        W23911   2.894   5.859  38.066  0.2957 -0.0584 -0.1875
19512W        W23912  13.460   1.018   3.284 -0.0358 -0.0034  0.0656
19513W        W23913  11.907   1.912  32.986 -0.0731 -0.0935  0.0656
19514W        W23914   8.058   2.348  35.229 -0.3864 -0.2582  0.0636
19515W        W23915   8.715   5.566   8.078  0.0637  0.1385  0.1640
19516W        W23916  12.297   3.740  10.391  0.1862 -0.1107 -0.2088
19517W        W23917   8.577   3.064  10.949 -0.0198 -0.2286 -0.2694
19518W        W23918  16.747   1.563  36.118  0.1516 -0.0057 -0.2727
19519W        W23919   6.262   4.017  42.120  0.1040 -0.2789 -0.1035
19520W        W23920   5.760   1.806  27.881  0.1372 -0.3742  0.0234
19521W        W23921   3.151   2.016  10.196  0.0639  0.0741 -0.1435
19522W        W23922   5.456   4.132   5.736  0.0175  0.1884  0.1105
19523W        W23923   4.682   1.270  41.599  0.1758 -0.0534  0.2718
19524W        W23924   6.701   3.521  37.283 -0.1958 -0.0113  0.1667
19525W        W23925  16.295   6.151  15.155  0.2595 -0.0938 -0.0141
19526W        W23926  16.814   2.685   3.502 -0.0702  0.2472  0.2109
19527W        W23927   0.134   3.140   3.674 -0.2161  0.2240  0.1371
19528W        W23928  12.460   2.343  19.714  0.4106  0.0252  0.2096
19529W        W23929  19.111   4.421   4.857 -0.2337 -0.2637  0.4448
19530W        W23930  10.222   1.127  44.832  0.0032  0.0095 -0.0025
19531W        W23931   8.760   4.748  13.008 -0.3747  0.0331 -0.0307
19532W        W23932  11.603   1.400   8.721  0.0678  0.1905  0.2399
19533W        W23933  21.159   1.995  40.259  0.0649  0.0720  0.0653
19534W        W23934   1.949   5.332   7.767 -0.0278  0.2575 -0.2476
19535W        W23935   9.513   4.539  36.697 -0.0374  0.2691 -0.0907
19536W        W23936   5.261   4.967  22.792 -0.3147  0.0824 -0.2381
19537W        W23937  17.150   4.522   8.563 -0.0573 -0.0255 -0.2198
19538W        W23938   9.866   4.811  40.598  0.1683 -0.0331  0.1202
19539W        W23939  11.685   1.409   6.262  0.1126  0.1216  0.2709
19540W        W23940  15.014   0.183   9.672  0.2951  0.0839 -0.1985
19541W        W23941   2.507   3.727  39.376 -0.1016  0.2022  0.3444
19542W        W23942   5.247   6.552   2.177 -0.1512  0.2555  0.2372
19543W        W23943  13.442   6.168  41.649 -0.4257 -0.2078  0.2875
19544W        W23944   4.816   6.462   5.476  0.0979 -0.1485 -0.2837
19545W        W23945  14.333   1.493   9.529  0.1852  0.0218 -0.0481
19546W        W23946   0.398   3.404  36.573  0.1718  0.1211 -0.2007
19547W        W23947   9.640   2.733  33.726 -0.0776 -0.2058  0.0908
19548W        W23948   1.210   1.454   8.521  0.0431 -0.1041 -0.1485
19549W        W23949   7.389   5.222  31.468 -0.1735  0.0113 -0.3081
19550W        W23950   3.724   5.223   3.016  0.0606  0.3564  0.0012
19551W        W23951   8.941   4.899  38.167 -0.1202  0.1340 -0.1960
19552W        W23952  17.393   3.468  15.537  0.0182 -0.4965  0.0365
19553W        W23953   5.721   3.989  41.134  0.1519  0.0241 -0.1951
19554W        W23954  16.357   3.882  44.383  0.2313  0.2481  0.0928
19555W        W23955   0.469   4.932  28.328  0.0847  0.2427 -0.1507
19556W        W23956  18.853   2.688   3.705 -0.1142  0.0822  0.1982
19557W        W23957  19.969   5.031   6.424 -0.2051  0.2029 -0.0034
19558W        W23958   4.626   5.250  33.726 -0.0967  0.4223  0.2543
19559W        W23959  15.528   0.872  32.014  0.0571 -0.1552 -0.2369
19560W        W23960  10.879   1.655  27.853  0.0789 -0.2165 -0.2810
19561W        W23961   3.451   1.488  14.383  0.0321  0.0669  0.1101
19562W        W23962   8.435   1.069  25.814  0.0577 -0.1446  0.0086
19563W        W23963  13.218   4.870  19.927 -0.0026  0.3683 -0.1365
19564W        W23964   7.699   5.486  40.202  0.0302  0.1892  0.1881
19565W        W23965  10.165   5.407  30.293  0.1586 -0.1539  0.3398
19566W        W23966  17.838   1.093  14.826 -0.1391 -0.1163 -0.2998
19567W        W23967   3.098   2.335  25.571  0.0625  0.0766  0.1804
19568W        W23968  11.147   3.686  29.301 -0.1851  0.0808 -0.0295
19569W        W23969   4.785   6.165   9.506  0.2163 -0.0525 -0.1383
19570W        W23970   3.980   0.161  30.180  0.0998  0.1584 -0.2939
19571W        W23971   9.733   4.468  12.905 -0.0657 -0.0134  0.0748
19572W        W23972  10.146   4.723  19.175  0.2118  0.0002 -0.0625
19573W        W23973   7.720   4.319  37.391 -0.2580 -0.2310  0.0949
19574W        W23974   8.607   1.849  44.922  0.1144 -0.0995  0.1569
19575W        W23975   9.406   0.934  13.004 -0.0747  0.0944 -0.0748
19576W        W23976  20.964   3.057  25.834 -0.0287 -0.0661  0.2746
19577W        W23977   3.199   1.782   8.352  0.0724 -0.1755  0.4062
19578W        W23978  10.950   5.985   2.502  0.1509 -0.0004  0.1373
19579W        W23979  12.534   1.616   9.310  0.4226  0.1212 -0.3842
19580W        W23980   2.721   6.025   8.852  0.0143  0.1045  0.0487
19581W        W23981  18.896   1.932  43.301  0.3269  0.0350  0.0908
19582W        W23982   3.596   0.116   4.650  0.0690 -0.1349  0.0356
19583W        W23983  17.834   2.757  11.280 -0.3516  0.0081 -0.0159
19584W        W23984  13.679   0.302  42.327  0.0623  0.2491  0.0294
19585W        W23985   7.848   2.855  28.645 -0.2960 -0.1071  0.0966
19586W        W23986   7.764   2.814  39.242 -0.1347  0.0646 -0.0265
19587W        W23987  15.419   0.896   9.178  0.1530 -0.0733 -0.0184
19588W        W23988   3.232   1.694  30.305  0.0072 -0.2734  0.0768
19589W        W23989  13.681   2.462  21.858  0.0496 -0.0838  0.3443
19590W        W23990  13.950   4.391  37.297  0.3510  0.0815  0.0268
19591W        W23991  15.536   6.494   6.478 -0.0643 -0.0406  0.0262
19592W        W23992   5.294   5.622  41.609  0.3091  0.2095 -0.0101
19593W        W23993  13.419   1.343  35.081  0.1106  0.1562  0.0921
19594W        W23994  13.873   6.493  12.078 -0.3039 -0.1438  0.0166
19595W        W23995   4.128   2.908   7.166 -0.1948 -0.0977  0.0373
19596W        W23996   6.654   4.438  34.337  0.2666 -0.2593 -0.1248
19597W        W23997   1.772   5.561  13.677 -0.0200 -0.0018  0.0108
19598W        W23998  11.676   2.313  15.857 -0.1546 -0.3355  0.1216
19599W        W23999   4.296   0.408   5.466 -0.2737 -0.0693  0.2084
19600W        W24000   1.427   0.553  27.694 -0.1837  0.0057  0.1234
19601W        W24001  15.158   3.315  44.445 -0.0841  0.1285 -0.0369
19602W        W24002  19.352   5.184  37.315 -0.3593 -0.0705 -0.2468
19603W        W24003  14.256   3.481  29.858 -0.1822 -0.0261 -0.0984
19604W        W24004  18.981   6.511  17.690 -0.0053  0.0112 -0.0833
19605W        W24005   0.082   4.494  30.371 -0.0782  0.1185  0.1254
19606W        W24006   5.379   2.410   8.029  0.1371  0.0877  0.4000
19607W        W24007  13.182   0.518   5.540 -0.0314  0.1016 -0.3227
19608W        W24008  20.850   3.711  32.152 -0.1532 -0.0391  0.0158
19609W        W24009   1.977   1.990  44.727  0.1279 -0.0467 -0.1715
19610W        W24010  20.582   2.525   6.107 -0.1042  0.2450  0.0812
19611W        W24011  15.662   3.228   7.269 -0.2048  0.1042 -0.0182
19612W        W24012  18.672   3.221  36.220  0.2646 -0.0922  0.0877
19613W        W24013  20.444   0.581  25.064  0.0061  0.1393 -0.1556
19614W        W24014   4.352   1.913  34.746  0.1503  0.2285  0.0467
19615W        W24015  13.837   2.257  34.023  0.2212  0.1869  0.1407
19616W        W24016  11.464   1.566   8.278 -0.1147  0.3298  0.1421
19617W        W24017  16.375   3.854  20.594 -0.0215 -0.3609  0.1884
19618W        W24018   9.992   2.578  31.536 -0.1519  0.1498  0.0466
19619W        W24019   3.747   3.061   2.674  0.0481 -0.0233 -0.0394
19620W        W24020   3.047   5.864  39.779 -0.0865  0.2652  0.1283
19621W        W24021  20.448   0.929   6.546  0.2363  0.2279  0.2934
19622W        W24022  14.393   5.985  35.587 -0.5430 -0.3912  0.2767
19623W        W24023  11.206   4.552  30.876 -0.1913 -0.2146  0.1644
19624W        W24024  14.396   4.605  42.125  0.0883 -0.0483  0.1691
19625W        W24025  19.654   5.338  15.163  0.2236 -0.2623  0.0935
19626W        W24026  14.027   0.282  32.423  0.0786  0.1273  0.0946
19627W        W24027   1.281   4.740   6.979  0.0818  0.0309 -0.1553
19628W        W24028   6.783   0.245   9.811  0.1076 -0.1224  0.1183
19629W        W24029   7.591   3.297  40.036 -0.2184  0.0219  0.1038
19630W        W24030   0.582   3.055  16.361  0.2371 -0.0625 -0.0766
19631W        W24031  16.374   4.937  15.397  0.0377  0.1103 -0.1981
19632W        W24032  13.418   4.079  15.551  0.4189  0.3357  0.0283
19633W        W24033  13.625   6.324  19.692  0.1594 -0.1429 -0.0856
19634W        W24034  15.565   5.481   5.071  0.0199 -0.1593  0.0226
19635W        W24035  14.460   4.809  34.299 -0.5764 -0.0731  0.1952
19636W        W24036   7.442   5.809   7.485 -0.3384 -0.1153  0.2669
19637W        W24037  10.276   4.892  10.424  0.0833 -0.3319 -0.0423
19638W        W24038   0.579   2.396  45.017 -0.2341  0.2442 -0.1195
19639W        W24039   7.892   0.910   9.350  0.0458  0.0939 -0.0003
19640W        W24040  15.394   3.507  18.776 -0.1438  0.1621 -0.0899
19641W        W24041   4.101   5.961   3.039 -0.0569  0.0486  0.1014
19642W        W24042   1.695   0.760  23.155 -0.2095  0.1049  0.0400
19643W        W24043  19.203   0.467  30.578 -0.3603 -0.0170  0.3306
19644W        W24044  15.353   2.451  20.005 -0.2790 -0.1052 -0.1650
19645W        W24045   3.103   4.762  23.942  0.1904  0.0297  0.2172
19646W        W24046  19.940   3.368  43.458  0.0313 -0.1948  0.0928
19647W        W24047  15.501   6.019  31.094 -0.2475  0.0140  0.3725
19648W        W24048  16.922   6.488  10.563 -0.2639  0.0853  0.1807
19649W        W24049  10.348   2.518  29.080  0.1707 -0.1274  0.1391
19650W        W24050   5.618   6.066  25.301  0.3424  0.1611  0.0182
19651W        W24051  12.206   0.794  29.938  0.0229  0.1531  0.3306
19652W        W24052   7.860   2.445  43.486 -0.1098 -0.0090  0.0530
19653W        W24053   0.997   0.339  23.445 -0.1259 -0.1145 -0.1930
19654W        W24054  11.557   1.881  32.561 -0.0588 -0.0253 -0.0100
19655W        W24055   1.863   4.951   8.081  0.0319  0.0684 -0.2258
19656W        W24056   0.271   3.650   7.130  0.0067  0.2768  0.2716
19657W        W24057  12.734   2.079  41.473  0.0545 -0.0516  0.0912
19658W        W24058   6.255   2.331  38.414 -0.1265  0.1325 -0.3644
19659W        W24059  18.268   1.689   7.674 -0.2701  0.4121 -0.3666
19660W        W24060  17.574   3.203  20.807 -0.0183 -0.1099 -0.0657
19661W        W24061  12.033   3.130  32.644  0.0647 -0.3411 -0.3656
19662W        W24062  11.084   4.630  45.039  0.1345  0.1727 -0.0556
19663W        W24063   7.391   3.918  12.732  0.0221 -0.0448 -0.1219
19664W        W24064  14.734   3.224  41.203  0.2187  0.0546 -0.4073
19665W        W24065  12.927   3.222  35.854  0.0007  0.0919 -0.0831
19666W        W24066  12.341   3.280  37.083  0.2085 -0.2412  0.2221
19667W        W24067   9.662   4.327   2.753 -0.2414  0.0111 -0.0225
19668W        W24068  17.768   3.704  31.120  0.0912 -0.2637  0.2886
19669W        W24069   7.827   0.485   2.970  0.0643 -0.1008  0.3291
19670W        W24070  11.519   2.503  41.505  0.1958  0.0323  0.1963
19671W        W24071  12.049   2.456  19.144 -0.0097 -0.0478 -0.1327
19672W        W24072  16.104   3.801  34.707  0.0456 -0.0501 -0.0677
19673W        W24073  16.798   1.263   2.906  0.1190 -0.1113 -0.0788
19674W        W24074   8.835   5.608  27.787 -0.1997  0.0533 -0.0201
19675W        W24075  16.033   2.236  32.649  0.0527  0.1458 -0.0059
19676W        W24076   7.165   1.315  41.320 -0.0560  0.0442 -0.0001
19677W        W24077  15.069   6.033  24.233  0.0840  0.1897 -0.0435
19678W        W24078  20.288   4.707   0.840  0.1087 -0.3030 -0.2660
19679W        W24079  18.598   2.166  34.013 -0.0340 -0.0640  0.0606
19680W        W24080  18.563   3.021  18.671 -0.0988  0.0251 -0.2330
19681W        W24081  20.200   5.482   1.800 -0.0974 -0.0155 -0.2220
19682W        W24082   6.988   1.866  38.717  0.2039 -0.1759 -0.0954
19683W        W24083  14.523   4.442  10.914  0.0105  0.0328 -0.1332
19684W        W24084  15.559   3.232   9.307 -0.3624  0.4224 -0.2661
19685W        W24085  15.479   4.054   0.973  0.0308 -0.1678 -0.3079
19686W        W24086  18.184   6.226   0.979  0.3630  0.2129  0.0627
19687W        W24087   0.655   5.571   2.394 -0.1887 -0.0768 -0.0336
19688W        W24088  14.521   1.105  18.824 -0.1538  0.0004 -0.1399
19689W        W24089  11.216   3.272   4.707 -0.3230 -0.1121 -0.0350
19690W        W24090   4.664   2.725  28.838  0.0733  0.0884  0.3003
19691W        W24091  10.756   2.462  28.791 -0.0380 -0.1488  0.0286
19692W        W24092  12.218   5.329  14.901 -0.2719 -0.0303  0.2624
19693W        W24093  20.470   3.887  44.912 -0.0282  0.2409  0.0741
19694W        W24094   8.124   2.106  29.604 -0.1606 -0.0841 -0.0986
19695W        W24095   9.185   1.644   3.609 -0.1635  0.0238  0.1778
19696W        W24096  17.360   6.148  44.216  0.2302  0.2949  0.2578
19697W        W24097   8.865   2.349   2.484 -0.0359 -0.0154 -0.1317
19698W        W24098   7.218   1.475  38.911 -0.2553 -0.1941 -0.1655
19699W        W24099  18.168   1.380  31.158  0.0390  0.2394 -0.0660
19700W        W24100   0.162   0.031  28.160  0.0124 -0.0623  0.0712
19701W        W24101  18.651   0.856  12.595 -0.2248  0.1401  0.1071
19702W        W24102  10.268   5.567  36.227  0.1207 -0.0610  0.0343
19703W        W24103   7.010   0.615  11.841  0.2160 -0.1276 -0.0523
19704W        W24104  20.309   2.464  39.332 -0.1533 -0.3352 -0.1657
19705W        W24105  13.573   0.540  19.750 -0.0589  0.2142  0.0693
19706W        W24106   6.201   1.031   4.200 -0.0932  0.0164 -0.0799
19707W        W24107   1.925   1.259  35.727 -0.0111  0.1522 -0.1485
19708W        W24108  11.705   0.201   4.027  0.3120 -0.0036 -0.1172
19709W        W24109  10.456   1.702  38.276 -0.1605  0.1304  0.1248
19710W        W24110   3.549   0.475  30.515 -0.4098 -0.0635  0.0548
19711W        W24111  10.676   5.995  12.933  0.2198 -0.0915 -0.0431
19712W        W24112   0.159   4.473  39.984  0.0426  0.1974  0.1511
19713W        W24113  18.146   2.834  29.447  0.3683  0.1467  0.2300
19714W        W24114   6.448   2.484   1.441  0.3659 -0.2793  0.3586
19715W        W24115  10.415   0.864   0.327  0.2091 -0.1558  0.2004
19716W        W24116   5.023   5.393  27.845  0.1543 -0.0230  0.0939
19717W        W24117   2.651   3.947   7.273  0.2365  0.1364  0.0057
19718W        W24118  12.972   6.027  43.216  0.1666  0.0823  0.4155
19719W        W24119   4.560   6.268   3.141  0.0330  0.4088  0.0598
19720W        W24120  17.833   6.207  40.933  0.2814  0.0787  0.1903
19721W        W24121   5.530   3.379  44.838 -0.1049 -0.1083 -0.1381
19722W        W24122   6.394   1.040  36.935  0.3743  0.0586 -0.2438
19723W        W24123  15.565   4.057  32.745 -0.0871 -0.1050 -0.2062
19724W        W24124   5.213   1.147  44.538 -0.0945  0.0668  0.2139
19725W        W24125  10.627   2.898  20.404  0.1206  0.0075 -0.0138
19726W        W24126  19.478   5.842   0.683  0.3194 -0.0545  0.1343
19727W        W24127   5.883   3.262  14.651 -0.0128 -0.0720  0.2310
19728W        W24128   1.193   1.002   5.970 -0.2913 -0.2234  0.0795
19729W        W24129   7.643   1.366   6.657  0.0262  0.1582  0.0458
19730W        W24130  16.961   0.548  29.925  0.0910  0.0082  0.0474
19731W        W24131  13.834   0.209  16.131  0.1101 -0.1662  0.1517
19732W        W24132   4.754   1.711   8.005  0.1720  0.1812  0.2261
19733W        W24133  14.138   2.438  14.185  0.4156  0.0517 -0.2342
19734W        W24134   1.140   5.333  12.863  0.0582 -0.0555  0.0953
19735W        W24135  14.465   3.221  28.586  0.1732  0.0736 -0.1938
19736W        W24136  12.887   0.492  18.414 -0.1729 -0.0848  0.1846
19737W        W24137  20.086   5.952  27.397 -0.1461 -0.2117  0.0521
19738W        W24138   6.424   1.516  32.050 -0.2091  0.2524  0.1458
19739W        W24139   2.542   1.944  14.113 -0.2508  0.2684  0.0254
19740W        W24140   7.983   4.427  12.771  0.2173  0.1513  0.2016
19741W        W24141   1.582   3.253  24.329 -0.0571  0.0762  0.1338
19742W        W24142   9.590   5.271  11.595 -0.0802  0.1133  0.1279
19743W        W24143  16.561   2.719   1.893  0.2107 -0.1308  0.0427
19744W        W24144   9.327   1.202  37.504  0.1547 -0.0601 -0.1075
19745W        W24145  16.766   2.578  33.056 -0.2368 -0.0966 -0.0816
19746W        W24146   8.669   5.018   1.066 -0.2978 -0.1592 -0.4141
19747W        W24147   9.438   2.378   6.167 -0.0945 -0.0035  0.4122
19748W        W24148  14.991   5.658  16.449  0.1450 -0.0362  0.1975
19749W        W24149  13.186   3.548  41.354  0.1191  0.1174  0.0322
19750W        W24150   6.719   4.393  33.219 -0.0399 -0.0639  0.0683
19751W        W24151  13.830   3.835  19.613  0.2802 -0.1557  0.0438
19752W        W24152   1.068   5.231  11.717  0.3573  0.4872 -0.0514
19753W        W24153  21.137   0.829  31.369 -0.0541 -0.0636  0.0434
19754W        W24154  12.023   4.745  22.002 -0.4417 -0.1188  0.3177
19755W        W24155  12.353   4.022  37.505  0.1035 -0.1654 -0.0600
19756W        W24156  10.112   3.005   5.639 -0.2052  0.1036 -0.1396
19757W        W24157  14.919   3.692   7.594  0.0088 -0.1807 -0.0571
19758W        W24158   2.978   4.708   4.031 -0.2732 -0.1113  0.1195
19759W        W24159  14.269   1.224   5.495  0.1424 -0.0524  0.0068
19760W        W24160  15.347   3.531  18.268 -0.0133  0.0525  0.0631
19761W        W24161  11.544   3.886  41.618  0.2500  0.2576  0.1873
19762W        W24162   9.960   5.291  29.785  0.3468 -0.2512 -0.0821
19763W        W24163  14.624   5.804   4.908 -0.0917 -0.2413 -0.1411
19764W        W24164   7.890   3.958   7.669  0.0570  0.1966 -0.1427
19765W        W24165  12.093   1.351  31.343  0.0226  0.1360  0.1589
19766W        W24166   2.899   1.789  23.618  0.0058  0.1435  0.1214
19767W        W24167  11.108   2.276   6.124 -0.0284 -0.1578 -0.0963
19768W        W24168   4.501   4.516  44.247  0.0452  0.1453  0.1597
19769W        W24169  14.488   0.844  20.596  0.2208  0.2925  0.0321
19770W        W24170  19.697   5.171  28.623  0.1347  0.0355 -0.0298
19771W        W24171  19.099   0.642  28.548  0.1593  0.2590 -0.2903
19772W        W24172   2.381   4.510  30.289  0.1886  0.1799 -0.1918
19773W        W24173  15.832   3.322   3.450  0.0991  0.0274  0.1581
19774W        W24174  12.112   4.954  10.658  0.0756 -0.5654 -0.0886
19775W        W24175  18.209   3.960  43.641  0.0914  0.0620  0.2736
19776W        W24176   0.037   4.100  32.249 -0.3098 -0.2639 -0.1728
19777W        W24177   9.744   2.374  37.058  0.1861  0.2560 -0.1750
19778W        W24178  12.591   1.443  33.119  0.3359  0.0712  0.1431
19779W        W24179  12.959   5.344  18.483  0.1168  0.2184 -0.2552
19780W        W24180   1.868   1.854  38.286 -0.0431  0.0560 -0.0432
19781W        W24181   6.931   6.541  30.968  0.2450 -0.1819 -0.0206
19782W        W24182  13.635   3.831  11.045 -0.0480 -0.1345  0.0546
19783W        W24183   0.311   4.383  31.708  0.0163 -0.0859  0.0617
19784W        W24184   5.701   6.364  14.525  0.1741 -0.3246  0.1076
19785W        W24185   9.927   1.268  41.482 -0.0690  0.2957  0.3858
19786W        W24186  18.267   2.439  38.664  0.2003  0.0422 -0.0837
19787W        W24187   1.099   2.326  30.247  0.1058  0.4043 -0.0722
19788W        W24188  17.136   4.371  21.488  0.0006 -0.1020  0.1549
19789W        W24189  10.204   4.669   7.263 -0.1310  0.0325  0.3196
19790W        W24190  20.921   6.235  26.032  0.0702 -0.1831  0.0437
19791W        W24191  11.354   2.536  12.908  0.0600 -0.5563  0.1116
19792W        W24192  13.501   0.565  23.853 -0.0934  0.2490 -0.1178
19793W        W24193   0.987   0.794  34.433 -0.2653 -0.2046  0.1521
19794W        W24194  12.188   1.013  11.321 -0.3849  0.1884 -0.3311
19795W        W24195  17.437   3.440  15.004  0.0863  0.2150 -0.2813
19796W        W24196  17.429   1.139  40.179 -0.0893 -0.0736  0.0982
19797W        W24197  10.919   1.173  39.802  0.1046  0.2237  0.2037
19798W        W24198  17.175   5.465  41.918  0.0863  0.1708 -0.2304
19799W        W24199   6.902   4.646  27.167  0.1252 -0.0376  0.2470
19800W        W24200  19.680   0.009  34.624 -0.2500 -0.0572 -0.2556
19801W        W24201   4.032   2.825  32.953  0.0965  0.1286 -0.1498
19802W        W24202  13.812   2.200  31.330  0.0113 -0.0120  0.4550
19803W        W24203   6.520   6.390   2.545 -0.1485 -0.1164 -0.0888
19804W        W24204   1.856   5.333  23.869  0.0109  0.1445  0.0123
19805W        W24205  11.514   0.342  35.946  0.1041  0.2494 -0.1799
19806W        W24206   8.875   2.511  27.351 -0.2689  0.0170 -0.1711
19807W        W24207   5.743   2.513  43.964 -0.2319 -0.2824 -0.0088
19808W        W24208  20.418   0.841   5.231  0.3230 -0.1443 -0.5561
19809W        W24209  11.341   3.967  19.484  0.2130 -0.1794 -0.2812
19810W        W24210  12.294   3.043   3.903 -0.0257  0.2631 -0.1124
19811W        W24211   7.825   1.293   4.863  0.0229  0.1202 -0.1981
19812W        W24212  14.423   6.090  36.118  0.1380  0.3529 -0.2257
19813W        W24213   3.700   4.019  32.986  0.2057  0.2350 -0.0752
19814W        W24214  16.857   5.626  17.105 -0.0552  0.2981  0.1744
19815W        W24215   0.779   3.635   6.631  0.0300  0.0009  0.0945
19816W        W24216  10.129   5.249   6.386  0.1905  0.2728  0.0516
19817W        W24217   5.478   0.439  43.960  0.1298 -0.0742 -0.0899
19818W        W24218  11.991   5.499  36.668 -0.0168 -0.2380  0.0501
19819W        W24219   3.606   3.618  42.327 -0.1092 -0.0668  0.0461
19820W        W24220  16.622   0.093  32.050 -0.0726  0.2138  0.1582
19821W        W24221   6.217   1.909  30.714  0.3089  0.1076 -0.0499
19822W        W24222   6.736   1.028  39.625  0.0999 -0.0344 -0.2184
19823W        W24223  17.604   2.241  16.516  0.0142 -0.3182 -0.0535
19824W        W24224  14.780   0.424  45.080 -0.2047 -0.0851  0.3056
19825W        W24225  11.520   3.892  31.974 -0.0695 -0.2496  0.1703
19826W        W24226  16.819   4.625  38.239  0.4122 -0.3072  0.2218
19827W        W24227   0.185   2.452  11.468  0.2195 -0.3480  0.0925
19828W        W24228   9.158   2.860  15.373 -0.0715  0.2191  0.3481
19829W        W24229   4.055   3.413  26.344  0.2122  0.0142 -0.0618
19830W        W24230  18.860   6.253  37.188 -0.1389  0.1351 -0.1675
19831W        W24231  15.239   4.168  15.937  0.2302  0.0182  0.1599
19832W        W24232   7.041   2.357  41.135 -0.0079  0.0757  0.3939
19833W        W24233  12.063   0.539  10.031 -0.0915 -0.0391  0.3443
19834W        W24234  18.153   2.063   8.739  0.1847  0.1526 -0.0880
19835W        W24235  17.326   3.660  43.579 -0.1554 -0.3064 -0.1085
19836W        W24236   3.559   4.371  11.320 -0.2020  0.0359 -0.2087
19837W        W24237   0.397   4.995   2.954 -0.3509  0.1768  0.1654
19838W        W24238  15.492   2.083   2.315  0.1455  0.0141 -0.0152
19839W        W24239   0.538   6.314   3.527 -0.2273  0.1921 -0.1976
19840W        W24240  11.247   6.195   7.072 -0.2451  0.0549  0.1498
19841W        W24241  17.239   3.755  33.575 -0.1929  0.3050 -0.3549
19842W        W24242   4.270   1.153  37.190  0.3386  0.0054  0.1862
19843W        W24243  12.106   1.333  36.367  0.2496 -0.0219 -0.1271
19844W        W24244   7.008   6.406   0.571 -0.0832 -0.3263  0.1624
19845W        W24245  11.334   4.971  42.065  0.1906 -0.1375  0.1391
19846W        W24246   8.969   1.813   6.178 -0.1121 -0.3528 -0.0619
19847W        W24247   0.498   1.272   0.122  0.1106 -0.2118  0.2402
19848W        W24248  15.156   1.504  30.292  0.3602  0.2139 -0.0285
19849W        W24249   5.036   3.134  24.615  0.2179  0.0805  0.2082
19850W        W24250   0.036   3.475  40.536  0.1572 -0.1182  0.2511
19851W        W24251  12.228   5.398  16.807 -0.1299 -0.0827  0.0280
19852W        W24252  14.255   2.699  24.495  0.0687  0.2098  0.1852
19853W        W24253  19.894   6.055  15.314  0.3431 -0.2488  0.1547
19854W        W24254  16.014   5.087  22.541  0.0481 -0.3936 -0.0404
19855W        W24255  10.885   4.555   4.645  0.1490 -0.1407 -0.3972
19856W        W24256  10.793   2.905  40.443 -0.1089 -0.3735  0.0286
19857W        W24257  13.331   1.543  31.609 -0.0900 -0.0404 -0.0065
19858W        W24258  17.206   2.706  39.812  0.0568  0.0551 -0.0320
19859W        W24259  17.678   5.301   4.216  0.0818 -0.1646  0.3871
19860W        W24260  16.504   5.449  37.356 -0.0871  0.0584  0.0407
19861W        W24261   1.573   0.574  37.004  0.0067 -0.0419 -0.0660
19862W        W24262   6.952   3.749  14.477 -0.5530 -0.0677  0.0561
19863W        W24263   5.901   3.345  32.944 -0.3919 -0.1362  0.1233
19864W        W24264  19.822   0.053  15.786 -0.1230 -0.0178  0.2168
19865W        W24265   3.728   3.379  29.082  0.0278  0.2434  0.1669
19866W        W24266   3.288   3.068   0.896 -0.1438  0.1027  0.1022
19867W        W24267   9.580   3.196  15.940 -0.0791 -0.0370  0.0733
19868W        W24268   8.012   6.014  10.356 -0.1475 -0.0592  0.1399
19869W        W24269   5.861   5.784  27.519  0.0613  0.2123  0.1352
19870W        W24270   3.589   6.139  40.903 -0.2146 -0.3197 -0.1150
19871W        W24271  15.284   1.707  41.531  0.3596  0.0504 -0.1064
19872W        W24272  19.998   3.588  14.956  0.1523  0.5214 -0.1249
19873W        W24273  10.228   0.419  16.900 -0.1342 -0.0500  0.2519
19874W        W24274   8.978   1.341  42.121  0.1205  0.0174  0.0509
19875W        W24275  20.316   6.539  44.336  0.1873  0.2409  0.0878
19876W        W24276  10.956   0.942  38.054  0.2977 -0.2433  0.1604
19877W        W24277  11.224   5.056  16.835  0.0106 -0.1079  0.0407
19878W        W24278   1.972   3.092   0.143 -0.0747 -0.3367 -0.1139
19879W        W24279  11.354   5.002  37.366 -0.2234  0.0564 -0.2197
19880W        W24280  16.701   2.238  38.185  0.3510  0.1477 -0.0464
19881W        W24281  15.676   4.079  39.708  0.2261  0.0581  0.4202
19882W        W24282  14.955   0.035   4.649  0.0522  0.0681 -0.1029
19883W        W24283   6.721   0.906   6.172 -0.0877 -0.3513  0.0846
19884W        W24284  14.498   4.419   1.616 -0.1418  0.1284  0.0949
19885W        W24285  20.363   1.546  25.517  0.0552 -0.0054 -0.2110
19886W        W24286  15.795   5.333  14.926 -0.0949  0.0696 -0.0673
19887W        W24287   7.920   4.799  28.266 -0.1680 -0.2472 -0.1192
19888W        W24288  15.623   2.505  35.811 -0.1631  0.0769 -0.0908
19889W        W24289  13.806   0.244   8.468  0.0036  0.1532  0.0385
19890W        W24290   5.706   0.338  37.867 -0.0446 -0.3135 -0.0715
19891W        W24291  18.671   1.334   9.812 -0.5235  0.3767 -0.2996
19892W        W24292   7.506   3.559  33.042  0.2017 -0.0442 -0.1428
19893W        W24293  11.717   4.749  33.787 -0.2765 -0.2233  0.2687
19894W        W24294   5.689   2.604   7.584 -0.0602 -0.0165 -0.0502
19895W        W24295   8.470   6.529  13.060 -0.0219  0.1548  0.1244
19896W        W24296   5.256   4.957  36.208 -0.1324 -0.0142 -0.0204
19897W        W24297   6.507   0.466  42.776 -0.2394  0.2559 -0.0902
19898W        W24298   6.345   4.434   4.885  0.1270 -0.0521 -0.3365
19899W        W24299  13.089   0.825  28.785 -0.0628 -0.0466 -0.1616
19900W        W24300  16.614   5.150  39.111  0.3632 -0.1395  0.0168
19901W        W24301   9.675   4.869  39.056 -0.0091 -0.2669  0.0125
19902W        W24302   9.846   4.977   2.128  0.1558  0.1337  0.1426
19903W        W24303  12.059   5.202  11.139  0.0667  0.1309  0.1838
19904W        W24304   3.295   3.987  36.439  0.2795  0.1506  0.1285
19905W        W24305  14.914   4.473   6.764 -0.5526 -0.0922 -0.1713
19906W        W24306  11.913   5.359   4.513  0.0183  0.1289  0.0243
19907W        W24307  14.749   1.901  23.403 -0.0545  0.1122  0.1172
19908W        W24308   3.816   5.406  30.974 -0.1271 -0.1161  0.0667
19909W        W24309   2.189   4.564  42.856  0.1194 -0.0831  0.0296
19910W        W24310  15.067   6.247   8.840  0.0032 -0.0747 -0.2280
19911W        W24311  15.242   6.425  13.666 -0.0392 -0.0729  0.0341
19912W        W24312  12.486   3.661  18.467 -0.0590 -0.0345  0.1100
19913W        W24313  18.674   1.720  41.494  0.0049 -0.2296 -0.0355
19914W        W24314   7.601   1.906  28.870 -0.0605 -0.0394  0.4078
19915W        W24315  13.899   2.021  43.786 -0.1503  0.2801  0.2725
19916W        W24316  20.957   6.106  34.805  0.1710 -0.0198  0.0039
19917W        W24317  13.284   5.827   7.478 -0.1032  0.0168  0.0889
19918W        W24318   1.535   3.831  33.655  0.2044  0.0661 -0.3315
19919W        W24319  13.625   1.903   5.086  0.2047  0.0620 -0.1215
19920W        W24320   4.661   5.667  26.994  0.2280  0.0771 -0.3449
19921W        W24321   7.335   4.842  31.771  0.4283  0.0740 -0.1384
19922W        W24322   8.863   2.365  34.945 -0.1800 -0.0589  0.0288
19923W        W24323   5.547   6.115  27.696 -0.1418 -0.0467 -0.3693
19924W        W24324  11.058   5.573  43.691 -0.0339  0.0169  0.0263
19925W        W24325  14.330   0.553  39.679  0.0798  0.2432 -0.1416
19926W        W24326   7.651   5.441  28.233 -0.0346 -0.2933  0.2860
19927W        W24327  14.967   0.342  30.883  0.0239  0.1963 -0.1484
19928W        W24328  11.234   4.277  14.995 -0.0146 -0.1447  0.0872
19929W        W24329   9.432   3.015  17.567  0.0898 -0.0282 -0.3631
19930W        W24330  12.014   5.878  16.683 -0.0061  0.1007 -0.3395
19931W        W24331  19.974   0.259  26.818 -0.1188  0.2012 -0.0445
19932W        W24332   2.384   5.458  30.717  0.1663 -0.0700  0.0967
19933W        W24333   3.023   2.314   8.395  0.0817  0.1431  0.0974
19934W        W24334  19.171   5.041  36.851  0.0505 -0.4149  0.3439
19935W        W24335   9.202   5.018  35.589  0.1757  0.3547  0.4428
19936W        W24336  12.561   4.451  10.872  0.1134 -0.1936  0.0579
19937W        W24337  16.177   1.506  29.199 -0.0112  0.1009 -0.2433
19938W        W24338  15.442   4.057  19.809  0.0430  0.0190  0.1046
19939W        W24339  12.298   2.756  21.299  0.1720 -0.2951 -0.0437
19940W        W24340   3.690   2.591  15.235 -0.1348 -0.0549 -0.1310
19941W        W24341   0.454   3.084   9.090  0.2199  0.0678 -0.3127
19942W        W24342  20.027   4.737  41.176 -0.5080  0.2521  0.0312
19943W        W24343  16.844   6.134  37.611 -0.3308  0.2290  0.0959
19944W        W24344  15.477   5.250  18.245  0.0477 -0.1310 -0.1449
19945W        W24345   6.710   1.076  32.657  0.0413 -0.0117 -0.0229
19946W        W24346   8.807   0.135  12.462 -0.0397 -0.0615 -0.0341
19947W        W24347   4.729   0.554   8.200 -0.2489  0.0799  0.1106
19948W        W24348  17.346   1.324   9.261  0.2088 -0.0427  0.2740
19949W        W24349  19.033   4.114  13.484  0.1263 -0.0089 -0.0625
19950W        W24350   6.121   0.958  16.829 -0.3098 -0.0916 -0.1111
19951W        W24351  20.515   3.751  30.387 -0.2619  0.0775  0.1962
19952W        W24352  17.121   4.168  44.818  0.0397 -0.3263 -0.2155
19953W        W24353   5.031   2.361  28.609  0.0741 -0.1319 -0.0832
19954W        W24354   1.170   1.552  11.750  0.0927 -0.0926  0.2018
19955W        W24355  17.064   5.186  41.522 -0.1357  0.2541 -0.1302
19956W        W24356  16.526   3.198  43.821  0.0355  0.2492  0.0305
19957W        W24357   1.197   0.839  31.092  0.0600 -0.0044 -0.1161
19958W        W24358  20.675   0.018  28.923 -0.0892  0.0763 -0.1093
19959W        W24359  18.595   3.322  12.861 -0.1040  0.0947 -0.0302
19960W        W24360   3.126   5.704  41.573 -0.0249  0.0922  0.1197
19961W        W24361  17.977   3.968   5.645 -0.1151 -0.0940 -0.0269
19962W        W24362   8.840   1.617  34.316 -0.3804 -0.0787  0.1280
19963W        W24363  17.567   1.160  18.524  0.2332 -0.0084 -0.0104
19964W        W24364  17.990   4.429  28.602 -0.0360  0.1206 -0.0894
19965W        W24365   8.054   0.113  28.821  0.0775  0.1328 -0.0967
19966W        W24366  13.259   1.840   1.813  0.0080  0.1205 -0.2488
19967W        W24367  11.042   1.263  30.036  0.2444  0.0877  0.1036
19968W        W24368   8.394   0.846  15.849 -0.1935  0.0912 -0.0864
19969W        W24369   3.299   5.967  44.420  0.2624  0.2999 -0.0044
19970W        W24370   3.911   4.345  24.554  0.2235 -0.2097 -0.4469
19971W        W24371  14.167   3.808  31.786  0.1957  0.0031 -0.0123
19972W        W24372   6.130   2.722   1.119  0.3148  0.2217 -0.2517
19973W        W24373  19.903   4.924  11.531  0.0580 -0.1300  0.1159
19974W        W24374  17.005   0.823   1.346 -0.2163  0.3407  0.1043
19975W        W24375   7.116   2.067  12.107 -0.1875 -0.2914 -0.3649
19976W        W24376  10.318   4.717   1.345 -0.2627  0.2599  0.2635
19977W        W24377  19.868   4.988  34.158  0.0446  0.1825 -0.0666
19978W        W24378  13.470   6.311   7.446 -0.0634  0.4686  0.0007
19979W        W24379  12.049   4.889  40.900  0.1690  0.0033  0.1062
19980W        W24380   6.344   1.876  41.356 -0.1012  0.3880 -0.0027
19981W        W24381  11.686   1.751  37.192  0.0218  0.1661 -0.4325
19982W        W24382  10.543   1.013   8.732 -0.4489  0.0710 -0.0023
19983W        W24383   5.536   6.578  41.836 -0.0756 -0.0210  0.0479
19984W        W24384  10.861   6.295   5.541  0.0579 -0.1326 -0.0403
19985W        W24385   2.380   4.602   6.149  0.1388  0.2058 -0.0177
19986W        W24386  14.938   4.568  33.401  0.2949  0.1389 -0.1473
19987W        W24387  15.066   2.180  39.361  0.0492  0.1183 -0.0346
19988W        W24388  13.957   1.241  18.886 -0.1191 -0.0161  0.0224
19989W        W24389  11.820   0.811  42.960 -0.0731 -0.1927 -0.0351
19990W        W24390   4.297   3.083   9.951  0.0564 -0.0258  0.1138
19991W        W24391   1.834   5.116  14.405 -0.3122  0.0284  0.0306
19992W        W24392  19.473   0.650  17.138 -0.0236  0.4466 -0.2453
19993W        W24393   3.007   0.902  36.309 -0.3067 -0.0415 -0.0341
19994W        W24394   2.615   5.943  10.800 -0.2091 -0.0509 -0.0680
19995W        W24395   4.739   2.971  36.442  0.0371 -0.2614  0.0278
19996W        W24396   4.349   1.565  26.636  0.2216 -0.4375 -0.1339
19997W        W24397   5.981   1.272  44.977 -0.1140  0.0665  0.3448
19998W        W24398  20.621   5.575  15.360  0.0835 -0.4289  0.0060
19999W        W24399  17.715   5.605  21.174  0.3567  0.4689 -0.0925
20000W        W24400  19.570   0.998  38.385  0.0449 -0.0639 -0.2623
20001W        W24401   2.582   2.041   8.374  0.0465  0.1894  0.1430
20002W        W24402   1.883   1.812  29.091 -0.0987 -0.4138 -0.0441
20003W        W24403   5.627   6.039  44.933  0.0860 -0.1469 -0.0415
20004W        W24404   6.597   2.136  41.014 -0.1565 -0.1352  0.1077
20005W        W24405  16.100   3.996  18.806 -0.0015  0.2836 -0.1641
20006W        W24406  14.408   5.895   7.679 -0.0217  0.2817 -0.1333
20007W        W24407  13.017   4.854  14.403  0.3157 -0.0420 -0.1772
20008W        W24408   5.823   1.230   1.030 -0.1488 -0.1336  0.0821
20009W        W24409  19.897   3.248  37.744 -0.0835 -0.2341  0.1577
20010W        W24410  11.207   0.220   8.024  0.0902  0.1999 -0.1394
20011W        W24411   2.791   5.036  41.930  0.2222  0.3513 -0.0385
20012W        W24412   1.281   2.650  37.587  0.1980 -0.1366 -0.2457
20013W        W24413  10.362   2.738  28.672 -0.2286 -0.3135  0.3272
20014W        W24414   6.931   2.139  37.303 -0.0810 -0.2628  0.2956
20015W        W24415   4.812   6.416  32.714  0.3028 -0.1917 -0.0262
20016W        W24416   6.373   2.001  27.635 -0.0981 -0.2221 -0.0151
20017W        W24417  19.002   1.325  41.493  0.1620  0.2242  0.1358
20018W        W24418   4.593   0.562  42.332 -0.0804 -0.1787 -0.0592
20019W        W24419  11.959   1.129  17.762 -0.0436  0.1770 -0.0344
20020W        W24420   3.427   3.652   3.385  0.0692  0.0499  0.3524
20021W        W24421  17.829   0.797  34.675  0.0571 -0.0824  0.0469
20022W        W24422   5.087   0.358  31.913 -0.1354  0.1759 -0.0357
20023W        W24423   0.363   5.282  27.995 -0.0496  0.0413  0.0338
20024W        W24424  21.098   4.530   5.133 -0.2313  0.0822  0.1651
20025W        W24425  12.992   3.473  20.304  0.3025  0.0351 -0.1060
20026W        W24426  20.903   2.995   7.694  0.3667 -0.2286  0.0404
20027W        W24427   7.899   4.785  29.761 -0.2269 -0.1563 -0.1107
20028W        W24428  15.053   6.543  22.011  0.0596  0.0054  0.2830
20029W        W24429  15.577   5.215  22.219 -0.3305 -0.1768  0.0616
20030W        W24430  13.058   0.938  34.647 -0.0702  0.3184 -0.0257
20031W        W24431  20.073   1.276   6.202  0.2992  0.2045  0.0653
20032W        W24432  15.188   5.086  41.521  0.1842  0.0374 -0.0610
20033W        W24433   2.207   1.827  26.955 -0.1996 -0.0637  0.4280
20034W        W24434   8.907   0.561   0.601  0.1335  0.1519 -0.1645
20035W        W24435   7.415   2.195  43.541  0.0675  0.2529  0.1203
20036W        W24436  12.232   4.309  20.602  0.1369  0.0262 -0.1514
20037W        W24437   5.999   3.659   9.300 -0.4192  0.3843 -0.0926
20038W        W24438   4.142   5.363   4.614 -0.2284 -0.1857 -0.1515
20039W        W24439   7.098   1.209  15.190  0.0664 -0.0457 -0.1056
20040W        W24440   3.681   2.086  19.637 -0.3723  0.3682  0.0457
20041W        W24441   4.083   5.887  37.464  0.1315 -0.1187 -0.3064
20042W        W24442   1.809   1.034  15.490 -0.0479 -0.1755 -0.0464
20043W        W24443  18.139   6.427  17.582 -0.1068  0.0835 -0.1782
20044W        W24444  11.408   6.077   5.549 -0.0804 -0.4312 -0.1209
20045W        W24445  11.747   0.849  29.679  0.1938  0.3331 -0.0525
20046W        W24446  16.463   2.178  34.348 -0.2206  0.0421 -0.1530
20047W        W24447  12.834   1.960  11.862 -0.1265  0.0661 -0.0064
20048W        W24448  16.219   5.710   6.431 -0.4409  0.1862 -0.1054
20049W        W24449   2.733   5.886  41.838  0.2613  0.0686 -0.1235
20050W        W24450  21.127   0.176  29.043 -0.1373  0.2884  0.0847
20051W        W24451  16.268   1.142   7.003 -0.0480 -0.1790  0.0236
20052W        W24452   1.953   1.159  25.486 -0.0456 -0.1011 -0.2156
20053W        W24453   3.810   5.580  25.489 -0.3359 -0.1074  0.1839
20054W        W24454  15.486   3.158  11.456  0.1394  0.0671  0.1070
20055W        W24455   0.501   0.039   2.774  0.0655 -0.1129  0.2306
20056W        W24456   4.489   6.548  29.052 -0.1050  0.0316 -0.1848
20057W        W24457  11.184   0.450  17.804  0.2244 -0.2820 -0.1002
20058W        W24458   1.363   1.124  29.605  0.0519  0.0173  0.1152
20059W        W24459  17.186   3.462  20.601 -0.1236 -0.1143 -0.1020
20060W        W24460   0.230   4.195  29.406 -0.0083 -0.0251 -0.0372
20061W        W24461  20.142   4.045  34.422 -0.0243 -0.4070 -0.0025
20062W        W24462  10.670   5.256  13.733  0.1089  0.1452  0.0980
20063W        W24463  16.433   3.417  15.124 -0.1036  0.0754 -0.0854
20064W        W24464   7.348   5.098  38.329  0.1023  0.0835 -0.0369
20065W        W24465   0.907   3.478  24.512 -0.2137  0.0030 -0.1272
20066W        W24466  15.209   2.987   0.298 -0.1683  0.3131 -0.0098
20067W        W24467  21.085   3.131  39.139  0.0900  0.0233  0.2049
20068W        W24468  14.928   3.745  21.434  0.2931  0.0002 -0.3745
20069W        W24469  10.242   4.162  11.233  0.0997  0.3023  0.3121
20070W        W24470  11.613   2.796  19.260  0.1149  0.0686 -0.0578
20071W        W24471   8.509   4.208  16.266  0.0022 -0.1731  0.0094
20072W        W24472   9.153   2.976  15.995 -0.0500  0.1389 -0.0427
20073W        W24473  10.942   0.001  35.853 -0.4878  0.1113  0.0968
20074W        W24474  17.213   6.349  35.569  0.0497 -0.1819  0.3417
20075W        W24475   1.147   3.680  26.324  0.1736 -0.1217 -0.0835
20076W        W24476  18.237   0.404  14.018  0.1467  0.3458 -0.1205
20077W        W24477  15.049   1.207  23.886  0.1682  0.0984  0.0444
20078W        W24478   5.590   0.021   3.689  0.0116  0.3469  0.2649
20079W        W24479   9.863   0.053   2.728  0.0273  0.1208 -0.1445
20080W        W24480   1.818   4.291  34.751 -0.0107  0.1936 -0.0945
20081W        W24481   3.746   3.923   1.833  0.0946 -0.1344 -0.4535
20082W        W24482  15.321   2.824   5.996  0.2892  0.3698  0.0201
20083W        W24483  15.314   2.160  37.633  0.1072  0.0113 -0.0723
20084W        W24484  13.685   4.868  23.570 -0.1676 -0.1364  0.0382
20085W        W24485  15.878   4.689  30.703 -0.0865  0.1360  0.0423
20086W        W24486  18.528   3.869   6.751 -0.1183  0.4967  0.1442
20087W        W24487   2.143   3.029  28.580  0.1975 -0.0488 -0.1453
20088W        W24488   3.958   3.482   2.020 -0.1379  0.0008  0.1392
20089W        W24489   2.065   3.986  21.139  0.2654 -0.0769 -0.0355
20090W        W24490   4.032   1.640  28.251  0.1465  0.1263  0.1222
20091W        W24491   7.096   0.021  36.738  0.2460  0.0262  0.2458
20092W        W24492  18.273   2.019   3.208 -0.3489 -0.0014  0.0039
20093W        W24493   6.004   0.531  33.134  0.3283  0.2248 -0.0853
20094W        W24494  13.807   4.942   2.544  0.0011 -0.3694 -0.1136
20095W        W24495  19.462   0.313  16.018  0.1765 -0.1847  0.0416
20096W        W24496   0.426   6.449  29.013  0.0412  0.1256 -0.0528
20097W        W24497   9.276   4.720   6.740  0.2444 -0.4360 -0.0915
20098W        W24498   1.935   3.493   0.634 -0.0056 -0.0002 -0.1866
20099W        W24499   4.068   6.439   3.351 -0.1784  0.0659 -0.0591
20100W        W24500   4.963   5.212  36.523 -0.0552 -0.0206 -0.2032
20101W        W24501  13.931   3.600  30.337  0.0169 -0.0580  0.2487
20102W        W24502   9.046   2.642  36.361 -0.1145  0.4513  0.4234
20103W        W24503   0.581   4.736  34.149  0.1080  0.2443 -0.0072
20104W        W24504   3.810   6.116  38.340  0.0787  0.1080  0.0969
20105W        W24505   7.616   4.747  10.013  0.0453 -0.0849 -0.1723
20106W        W24506   7.427   4.910  14.427  0.2552  0.1183  0.2051
20107W        W24507  20.699   6.310   9.197 -0.0560  0.0091 -0.2858
20108W        W24508  16.497   1.305  12.651  0.1582 -0.1002  0.3623
20109W        W24509  19.516   6.189  28.483  0.4135 -0.0623 -0.0266
20110W        W24510   4.326   1.421  36.781 -0.4307 -0.0476 -0.2610
20111W        W24511   6.039   2.354  30.555 -0.1105  0.1066 -0.3506
20112W        W24512  17.840   5.170  34.927  0.0851  0.0469  0.0581
20113W        W24513   4.266   5.482   5.079  0.1173 -0.2973 -0.2174
20114W        W24514   6.495   2.035  25.217 -0.0068 -0.3983 -0.2942
20115W        W24515   7.873   4.023  14.351 -0.2166  0.0691 -0.0102
20116W        W24516  15.766   2.199   2.742  0.0961  0.1254 -0.4448
20117W        W24517  12.267   5.405  30.745  0.1134 -0.0311 -0.0524
20118W        W24518  21.158   2.447  10.075 -0.0456  0.3375  0.0066
20119W        W24519  17.143   3.487   2.878 -0.1639 -0.0325  0.1182
20120W        W24520   1.823   3.124  24.875  0.2778  0.1656 -0.1271
20121W        W24521   3.982   4.583  26.894  0.0826  0.0758 -0.0781
20122W        W24522   7.537   1.543  25.766 -0.2186  0.0113  0.1109
20123W        W24523  16.855   4.050  13.637 -0.0974  0.0552  0.1615
20124W        W24524   4.028   2.981  32.463  0.1965 -0.4201 -0.1148
20125W        W24525  11.846   0.759   2.211  0.1693  0.3065 -0.3491
20126W        W24526   3.100   1.170  33.531  0.1429  0.1354  0.1131
20127W        W24527   5.814   1.469  41.966  0.1147 -0.4155 -0.0029
20128W        W24528  12.007   0.002  29.818  0.3643 -0.0374  0.0943
20129W        W24529   7.012   0.936  28.928  0.0033 -0.1207 -0.1019
20130W        W24530  10.414   0.178  33.800  0.3884  0.4061  0.1958
20131W        W24531   6.320   0.931  26.080  0.2675  0.1370  0.0749
20132W        W24532   4.850   6.132  42.125  0.0766  0.0323 -0.1274
20133W        W24533   0.185   6.020  10.909 -0.2890 -0.1074  0.1748
20134W        W24534   2.507   6.039  10.035  0.2942 -0.1049 -0.1871
20135W        W24535   6.967   3.389  39.088  0.0795  0.0785 -0.1963
20136W        W24536   4.614   1.955   4.984 -0.0087  0.0135  0.0407
20137W        W24537  10.040   5.596  19.621 -0.0132 -0.2645  0.3456
20138W        W24538   3.639   3.804  13.835  0.3693 -0.0631  0.0284
20139W        W24539   0.028   5.118   7.461 -0.1361  0.1531 -0.0064
20140W        W24540   8.469   3.763  36.972 -0.1273 -0.0523 -0.0342
20141W        W24541   2.093   3.338  24.540 -0.0776 -0.1386 -0.0757
20142W        W24542   3.054   4.902  26.522  0.0255  0.1312  0.0269
20143W        W24543  11.304   5.197  32.543 -0.0656 -0.2371  0.1631
20144W        W24544   2.661   6.338  43.068  0.2027 -0.4430 -0.2307
20145W        W24545  13.935   3.227  10.425  0.1833  0.1305  0.1748
20146W        W24546   5.148   2.471   1.538  0.2179 -0.0277 -0.1018
20147W        W24547  14.275   2.408  42.392 -0.1771 -0.1474 -0.1179
20148W        W24548  15.260   0.605   6.872  0.0112 -0.1780  0.1048
20149W        W24549   2.830   3.749  41.656 -0.0362 -0.0017  0.0070
20150W        W24550  19.266   4.552   9.178 -0.5178  0.0846 -0.0124
20151W        W24551  19.766   0.260  40.971  0.0248 -0.1944 -0.0399
20152W        W24552   2.585   0.808   2.803 -0.1811  0.0608  0.0940
20153W        W24553  18.166   2.753  42.832  0.0771 -0.0111 -0.2487
20154W        W24554  13.834   6.173  16.870 -0.4556 -0.0287 -0.0267
20155W        W24555   8.338   3.571  27.972 -0.0501 -0.1918 -0.1073
20156W        W24556  10.764   5.085  40.679 -0.2314  0.0091  0.3715
20157W        W24557   9.709   1.891  16.736 -0.2308 -0.0678 -0.0440
20158W        W24558  14.702   5.457  20.924 -0.0633 -0.3464  0.1442
20159W        W24559  18.573   1.173  28.875 -0.3118  0.0200 -0.2815
20160W        W24560  12.995   2.967   9.282  0.1798 -0.1147 -0.1774
20161W        W24561   1.616   6.091  12.925 -0.0520  0.1677  0.1381
20162W        W24562  18.279   3.382  16.370 -0.0194  0.3063 -0.2836
20163W        W24563  13.573   2.544  13.390 -0.0944 -0.0965 -0.1851
20164W        W24564   7.975   0.001  11.079  0.0619  0.0906 -0.1010
20165W        W24565   5.298   2.878  31.755 -0.1142  0.0443  0.0426
20166W        W24566  20.271   5.614  10.649 -0.1178  0.2300 -0.0914
20167W        W24567  20.413   1.980  37.144  0.2046  0.1280 -0.3485
20168W        W24568  19.489   5.724   5.158 -0.0197  0.1063 -0.1122
20169W        W24569   5.484   3.974   8.424  0.0023 -0.1675  0.2963
20170W        W24570  14.853   4.400   3.181  0.0968 -0.1877  0.2357
20171W        W24571   3.734   3.867  23.108  0.1110 -0.1588  0.0845
20172W        W24572  12.003   5.479  10.558  0.0912 -0.1830  0.0992
20173W        W24573  11.213   4.430   5.985 -0.0931  0.3708 -0.0057
20174W        W24574  15.027   5.445  13.712 -0.2274 -0.1812 -0.0775
20175W        W24575  10.180   5.869   6.389  0.4463 -0.1915  0.3227
20176W        W24576   6.578   2.712  16.060  0.4407  0.0518  0.0515
20177W        W24577   9.322   6.215   7.514 -0.0806 -0.2101  0.2156
20178W        W24578  21.099   1.891  42.567 -0.2240 -0.3469 -0.1960
20179W        W24579  16.750   0.352  11.346 -0.1249  0.1763 -0.0580
20180W        W24580  19.315   4.217  29.674  0.1571  0.2117  0.1740
20181W        W24581   9.063   5.474  32.306  0.3500  0.0876  0.1570
20182W        W24582   8.004   2.731  31.736  0.2312  0.0500  0.0780
20183W        W24583   1.657   4.345  12.229 -0.4629  0.1025 -0.1483
20184W        W24584   8.923   5.957  12.937  0.0481 -0.1276 -0.1509
20185W        W24585  17.216   4.486  11.978 -0.0503  0.0428 -0.3134
20186W        W24586   1.072   4.037   6.588  0.0092  0.1390 -0.2010
20187W        W24587   5.017   5.092  14.144 -0.0771 -0.0108  0.1859
20188W        W24588   7.591   2.364  16.417 -0.0808  0.1541  0.1492
20189W        W24589  16.199   1.870  37.301 -0.1090 -0.1417  0.1016
20190W        W24590  14.861   5.083  15.219  0.2082  0.0582  0.4398
20191W        W24591   6.868   1.556   7.189 -0.1842  0.1164  0.1396
20192W        W24592  15.483   0.003   8.174  0.1560  0.1840 -0.0122
20193W        W24593  13.428   1.533  22.223 -0.1221 -0.1160  0.1332
20194W        W24594   0.922   0.100  36.200 -0.0783 -0.0792 -0.0886
20195W        W24595   7.696   0.573  38.944 -0.5796  0.0024 -0.0059
20196W        W24596   5.183   4.015  34.587  0.2098  0.0650 -0.0292
20197W        W24597   6.186   3.035  14.301  0.0258 -0.0686 -0.3348
20198W        W24598  16.962   0.824  33.183  0.4370  0.2383 -0.1099
20199W        W24599   0.137   0.342  42.088 -0.0991  0.0627 -0.1193
20200W        W24600   1.012   4.035   5.569  0.0045  0.0761  0.0860
20201W        W24601   8.943   1.627  14.719  0.2504  0.0811  0.2314
20202W        W24602  14.824   2.037   1.584 -0.3273 -0.1431  0.2301
20203W        W24603  20.294   1.520  27.459  0.0432  0.0596  0.2282
20204W        W24604   4.460   5.831  21.704 -0.0553 -0.2286 -0.1854
20205W        W24605  18.260   0.794   6.232 -0.1735 -0.0645 -0.1055
20206W        W24606  16.892   4.441  43.107  0.1262  0.0622  0.1376
20207W        W24607  11.606   2.534  18.182  0.0634 -0.0265  0.3808
20208W        W24608  13.984   3.152  32.933  0.1789  0.0539  0.2480
20209W        W24609  14.413   6.231  41.599 -0.2040  0.0173 -0.1724
20210W        W24610  20.806   3.293   8.717  0.2235  0.0302 -0.0642
20211W        W24611   5.225   0.091  35.769  0.0892  0.2581  0.0761
20212W        W24612   7.887   5.048  43.280  0.0624  0.0810 -0.2042
20213W        W24613   9.011   0.812  42.101  0.2510  0.0218 -0.0903
20214W        W24614   3.954   2.373  33.224 -0.1384  0.0118 -0.3328
20215W        W24615  13.678   3.156  15.974  0.3295 -0.4736  0.1172
20216W        W24616   1.020   3.932  13.841  0.1395  0.0899  0.1718
20217W        W24617   4.230   1.193  22.268  0.2662 -0.2448  0.3111
20218W        W24618  20.873   5.218  44.547  0.0959 -0.0586 -0.1394
20219W        W24619   6.482   4.605  44.707  0.1357  0.2907 -0.0657
20220W        W24620  15.676   4.304  13.039  0.2758  0.1520  0.1187
20221W        W24621  16.600   3.928  30.207  0.2120  0.0863  0.0969
20222W        W24622  20.661   2.195  42.700 -0.0719 -0.0144  0.1607
20223W        W24623   7.589   3.581  33.831  0.0469  0.1110  0.3927
20224W        W24624  15.327   6.473   3.944  0.0685  0.0726  0.1129
20225W        W24625  11.493   3.251  21.085 -0.0385  0.2737 -0.0293
20226W        W24626   4.050   2.008  37.203  0.0864  0.0058  0.0886
20227W        W24627  11.581   4.211  14.609  0.2784  0.1208  0.0483
20228W        W24628  11.113   3.573  41.397 -0.1894  0.1447 -0.1797
20229W        W24629  14.887   1.301  39.460  0.2030 -0.0046 -0.3084
20230W        W24630  15.697   3.309  23.247 -0.0747 -0.1290  0.0615
20231W        W24631   9.096   2.930   7.211 -0.0801 -0.0695  0.1440
20232W        W24632   9.225   6.465  11.280  0.0405  0.0042  0.0619
20233W        W24633  15.146   4.096  13.025 -0.1269  0.0689  0.1882
20234W        W24634  20.227   3.067  29.845 -0.4047  0.1519  0.2096
20235W        W24635  13.962   3.556  30.852  0.1475 -0.0865  0.2104
20236W        W24636  20.084   0.201  10.025 -0.2118 -0.0707 -0.0646
20237W        W24637  17.132   3.978  33.125  0.0658  0.0851  0.0820
20238W        W24638   9.807   0.506  40.076  0.1564 -0.0562 -0.0285
20239W        W24639   5.326   5.717  12.731 -0.0089 -0.3864  0.0399
20240W        W24640   9.977   1.730  19.077 -0.0400  0.1809 -0.2222
20241W        W24641   4.747   6.116  27.278  0.0847  0.3030  0.0112
20242W        W24642   4.742   4.494  42.877  0.2175 -0.1990  0.2612
20243W        W24643  13.066   3.725   1.696 -0.1258  0.1711  0.2297
20244W        W24644  18.612   1.990   7.846 -0.1112  0.2101 -0.3552
20245W        W24645   2.582   2.321  36.138 -0.1311  0.2040 -0.3006
20246W        W24646   1.248   3.809  43.545 -0.1241  0.2439 -0.1260
20247W        W24647  20.894   0.440  28.725  0.0170 -0.0458 -0.3123
20248W        W24648  14.540   3.761   6.821  0.1462 -0.0508  0.0732
20249W        W24649   5.936   2.092  14.107 -0.2125 -0.1985  0.0072
20250W        W24650  14.590   1.255  11.003  0.1853 -0.3864  0.1899
20251W        W24651  16.524   5.941  15.548  0.2244  0.0482  0.1397
20252W        W24652   5.360   4.365  39.481 -0.1517 -0.1057  0.0568
20253W        W24653  15.210   3.171  35.571  0.0559  0.0591  0.0517
20254W        W24654   4.732   0.006  37.043 -0.0982  0.3666  0.0921
20255W        W24655   0.080   0.620   5.706 -0.2606  0.0430 -0.1386
20256W        W24656  13.295   6.336   1.572  0.0686 -0.1646 -0.0746
20257W        W24657  17.127   4.660  33.907  0.1542  0.1125  0.1295
20258W        W24658  12.924   4.288  11.365 -0.0435 -0.0660 -0.1575
20259W        W24659  11.953   5.203  42.004  0.2967  0.0462 -0.2033
20260W        W24660  12.055   5.489  21.181 -0.1374 -0.1389 -0.0333
20261W        W24661  12.503   1.079  43.135 -0.0070  0.0852 -0.2150
20262W        W24662  10.283   5.161  39.821  0.0912 -0.1972 -0.1248
20263W        W24663  10.879   2.169  33.910 -0.4757 -0.1467  0.0401
20264W        W24664   9.496   3.169  38.410  0.4033 -0.1914 -0.2732
20265W        W24665  20.938   1.756   9.126 -0.2272  0.4259  0.2724
20266W        W24666   7.617   4.401  30.277  0.0197  0.0412  0.0774
20267W        W24667  10.641   0.514  16.569  0.0771 -0.2056 -0.1255
20268W        W24668   5.805   2.510   2.094 -0.1438  0.1135 -0.1711
20269W        W24669  19.713   3.977   2.756  0.2089 -0.1586 -0.0033
20270W        W24670  16.182   4.021  31.537  0.1059 -0.0418 -0.3047
20271W        W24671  19.646   3.055   3.490 -0.0631  0.0740 -0.2365
20272W        W24672   4.009   3.777  21.914  0.0050 -0.2241 -0.1128
20273W        W24673  14.869   3.034  10.600 -0.3246  0.3802 -0.0791
20274W        W24674  16.824   2.601  39.380 -0.1248  0.0152  0.0230
20275W        W24675  17.549   6.106   0.698 -0.1366  0.0350  0.1013
20276W        W24676  16.518   4.950  12.131 -0.0399 -0.0445 -0.1265
20277W        W24677   9.505   4.664  13.493  0.0769 -0.3307 -0.1247
20278W        W24678   3.427   2.072   6.637  0.4017  0.0349  0.1128
20279W        W24679   7.088   1.786  11.719  0.2082 -0.3967  0.1636
20280W        W24680  11.975   2.094   6.408  0.0604 -0.0143 -0.0454
20281W        W24681  17.786   4.355  36.826 -0.1904  0.0016  0.2764
20282W        W24682   9.606   5.107  41.366  0.1163 -0.1197 -0.1846
20283W        W24683  20.587   1.766  16.481 -0.1313  0.0758  0.4544
20284W        W24684   3.173   0.470  42.925 -0.0443 -0.0277 -0.1761
20285W        W24685   6.349   5.036  23.891  0.2982  0.0484  0.0227
20286W        W24686   7.369   1.056  35.298 -0.3036 -0.0751 -0.0912
20287W        W24687  15.976   0.900   0.682  0.0864  0.1136  0.1315
20288W        W24688  20.815   4.125  12.108 -0.0296  0.0707 -0.0476
20289W        W24689   4.756   2.886  12.650 -0.1620  0.1663  0.0020
20290W        W24690  18.977   0.598  42.196  0.2529  0.0062  0.1302
20291W        W24691   7.094   6.511  10.012 -0.2058 -0.0400 -0.1455
20292W        W24692  12.203   2.134  31.339 -0.0224  0.3954 -0.0770
20293W        W24693  19.280   3.456  32.255  0.3275  0.1625  0.1271
20294W        W24694   1.825   1.563  26.661  0.2536 -0.3040  0.3699
20295W        W24695   2.564   2.005   2.935 -0.0601 -0.2168 -0.0264
20296W        W24696  11.314   3.898   8.313 -0.0282  0.1427 -0.0724
20297W        W24697  11.825   6.199  29.694 -0.0466  0.1239  0.0824
20298W        W24698  18.349   3.874   2.759 -0.2072  0.0950  0.1534
20299W        W24699   9.429   4.350  12.519 -0.1512 -0.0685  0.0928
20300W        W24700  13.408   4.829  15.757 -0.1701 -0.0054 -0.2672
20301W        W24701  13.014   4.824  39.070 -0.1030  0.1582 -0.2767
20302W        W24702  14.739   3.497  44.195 -0.0513 -0.3259 -0.2093
20303W        W24703   1.467   5.312  43.570 -0.2464  0.2176  0.1655
20304W        W24704   4.442   2.535  27.445  0.0706  0.1102  0.2392
20305W        W24705   1.626   1.167  41.217  0.0753  0.1855 -0.0791
20306W        W24706  18.811   1.825   3.963 -0.2767  0.1186  0.2907
20307W        W24707  20.594   1.631  28.703  0.2112 -0.0609 -0.0762
20308W        W24708  12.023   5.706  20.156  0.0483 -0.4480  0.1666
20309W        W24709   1.080   4.638  30.061  0.1430 -0.1057  0.1077
20310W        W24710   8.556   5.548  31.793  0.0761 -0.0048 -0.4525
20311W        W24711  11.803   3.930   3.446  0.1250  0.1934  0.0769
20312W        W24712  18.357   5.242  40.698 -0.2570 -0.1334 -0.0060
20313W        W24713   9.992   0.105  29.841  0.1768 -0.0545  0.3335
20314W        W24714  12.177   0.739  38.257 -0.2909  0.0427  0.2800
20315W        W24715  16.970   5.193  44.558 -0.0478  0.0328 -0.2156
20316W        W24716   9.333   0.069  12.866  0.1235 -0.0801  0.3704
20317W        W24717   9.797   2.602  14.501 -0.2028 -0.1760  0.0104
20318W        W24718   7.755   4.152  26.641  0.2588  0.2016  0.3128
20319W        W24719   9.097   6.541   9.203 -0.1144 -0.0313  0.2483
20320W        W24720   5.476   3.378  31.943 -0.1256 -0.0385  0.2032
20321W        W24721   2.367   4.925   4.808 -0.1497 -0.1508 -0.0641
20322W        W24722  15.445   2.771   9.163  0.2589  0.0187  0.0986
20323W        W24723  19.876   0.427   6.301  0.0960  0.1354  0.1123
20324W        W24724  12.716   0.439  16.197 -0.2533  0.1919 -0.1331
20325W        W24725  20.097   0.827  43.558 -0.4231  0.1192 -0.2318
20326W        W24726   0.461   4.742   5.056 -0.0637  0.2351  0.1236
20327W        W24727   6.185   3.274  36.531 -0.0989 -0.2597  0.1328
20328W        W24728  11.656   1.585  44.179 -0.0938 -0.1676  0.1884
20329W        W24729   3.451   1.661  44.828 -0.2104  0.0992 -0.4670
20330W        W24730  13.677   2.844  22.477 -0.1258  0.1490 -0.2494
20331W        W24731  18.060   1.207  38.856  0.1844  0.1576 -0.2078
20332W        W24732  12.640   0.657  44.611  0.2684  0.2962 -0.0092
20333W        W24733   1.570   3.090   7.221  0.1035  0.0376  0.1939
20334W        W24734   9.456   2.523   7.866  0.1411 -0.1983  0.0400
20335W        W24735  15.642   3.594  12.297  0.1992  0.1592  0.0460
20336W        W24736   7.374   1.859   8.414 -0.4234  0.0707 -0.0320
20337W        W24737  10.606   0.230  10.688  0.1002  0.0037  0.0498
20338W        W24738   9.275   2.525  18.896  0.1470  0.0261  0.0103
20339W        W24739   2.094   0.625  37.583 -0.3488 -0.1433  0.1495
20340W        W24740  11.317   4.366  11.916 -0.0437  0.1152  0.0246
20341W        W24741   1.428   5.666  40.246 -0.1044 -0.0369 -0.0669
20342W        W24742   3.697   0.600   4.781 -0.0568  0.0175 -0.1601
20343W        W24743  12.057   3.170   4.898  0.5153  0.0076  0.2689
20344W        W24744  10.488   6.337  14.650  0.3442 -0.2519  0.1582
20345W        W24745   1.044   4.904  25.816  0.0173 -0.0553 -0.2001
20346W        W24746   7.153   0.803  43.832 -0.0303 -0.0160  0.2234
20347W        W24747  17.086   2.051   1.762  0.0836  0.3007  0.4297
20348W        W24748   0.521   3.865  32.797  0.0498 -0.0690  0.3339
20349W        W24749   9.285   3.736  33.760  0.0617  0.0656 -0.2056
20350W        W24750  19.633   0.674  25.066  0.1303 -0.1351  0.1466
20351W        W24751  17.885   5.041   8.890 -0.0329 -0.2176  0.2151
20352W        W24752   9.168   3.459  27.722  0.0938  0.0312 -0.2916
20353W        W24753  15.921   0.880  35.840 -0.1827  0.0961  0.0841
20354W        W24754  12.723   2.953  28.812  0.1926  0.0317  0.0824
20355W        W24755   3.899   4.373  14.854  0.2027  0.0108  0.2224
20356W        W24756   6.951   3.110  13.589 -0.3503 -0.3102  0.1368
20357W        W24757  20.119   5.767  30.992 -0.0057 -0.3348 -0.2102
20358W        W24758  19.566   4.005   5.598 -0.0133  0.1017  0.0400
20359W        W24759   1.487   0.067  12.124 -0.2880 -0.1127 -0.4737
20360W        W24760   1.138   5.445  32.336 -0.0064  0.3163  0.4211
20361W        W24761   5.474   5.012   5.320  0.2755  0.2905 -0.0329
20362W        W24762   5.327   4.297  37.514  0.1363  0.2618  0.3533
20363W        W24763  10.282   1.922   0.061 -0.3269  0.0415 -0.2721
20364W        W24764  17.004   3.521  16.111 -0.0851 -0.0099  0.0754
20365W        W24765  14.665   6.317  44.392  0.1609  0.1375 -0.1243
20366W        W24766   6.383   6.158  25.343 -0.0914  0.0680  0.1277
20367W        W24767   8.656   3.025  34.045 -0.1644  0.1205 -0.0321
20368W        W24768   1.067   5.110  12.319  0.0168  0.0873  0.2848
20369W        W24769  18.383   5.462   3.477  0.0076  0.1454  0.0513
20370W        W24770   8.153   6.069  42.629 -0.0719  0.5327  0.0751
20371W        W24771   7.959   5.693  13.260 -0.1998 -0.1085 -0.1498
20372W        W24772   3.807   6.221  43.606 -0.1128 -0.1744  0.2034
20373W        W24773  16.668   5.824   5.476 -0.1923 -0.2418  0.1753
20374W        W24774   4.557   2.922  37.280  0.2189  0.1831  0.1510
20375W        W24775   6.671   6.165  29.879  0.2444 -0.1775 -0.0273
20376W        W24776   3.731   0.981  39.150 -0.3556  0.1643 -0.1169
20377W        W24777   6.575   3.231  38.847  0.0844 -0.2784 -0.5095
20378W        W24778   9.341   1.030  32.152 -0.1342 -0.0321 -0.0452
20379W        W24779  16.332   2.865  19.105  0.0748  0.1499 -0.2535
20380W        W24780   1.179   3.058   7.620 -0.0104  0.1188 -0.0416
20381W        W24781   7.974   1.753  30.754 -0.1481  0.0445 -0.2840
20382W        W24782   3.231   5.873   2.093 -0.2368 -0.2193  0.1212
20383W        W24783   5.888   0.170  26.347 -0.0160 -0.0275  0.0640
20384W        W24784  12.120   4.470  18.858  0.1192  0.1186  0.1183
20385W        W24785   4.437   2.612  36.277  0.1005  0.1080 -0.2128
20386W        W24786   0.614   0.326  45.044 -0.0496 -0.1942  0.1485
20387W        W24787  20.686   4.461   0.993  0.0719 -0.0782 -0.0336
20388W        W24788   4.249   5.456  34.828  0.4080  0.2532  0.1683
20389W        W24789   4.239   6.479  43.834  0.2053  0.2500 -0.1482
20390W        W24790  17.673   3.983  20.206  0.2591 -0.1346  0.2114
20391W        W24791   0.775   4.999  12.706 -0.0665 -0.0389 -0.0662
20392W        W24792  19.586   0.720  30.254 -0.0260  0.1351  0.0716
20393W        W24793  14.026   4.836  29.486  0.0491 -0.1469  0.0395
20394W        W24794   6.257   1.651  11.307  0.2140  0.0056  0.0403
20395W        W24795   7.178   2.112  29.657 -0.1150  0.1131 -0.0638
20396W        W24796  14.102   5.380  30.877  0.2168  0.0520 -0.1177
20397W        W24797   6.279   5.109  25.385  0.0514 -0.1279 -0.0989
20398W        W24798  18.701   0.996  35.039  0.0391  0.1258 -0.0617
20399W        W24799   4.120   6.520  34.170 -0.0035  0.1468  0.0101
20400W        W24800  14.148   2.455  33.032 -0.0836  0.1925 -0.2288
20401W        W24801  14.976   4.944  41.975 -0.2609  0.3266 -0.1440
20402W        W24802  12.461   0.863   7.810  0.0676  0.0912  0.2724
20403W        W24803  16.533   1.363  32.448  0.1203  0.0220  0.0280
20404W        W24804  10.014   3.370   4.199  0.3677  0.4053 -0.0357
20405W        W24805   9.524   0.352  41.263  0.5299  0.0821  0.2271
20406W        W24806  10.295   4.123  41.899  0.0791  0.1021 -0.3705
20407W        W24807   0.785   0.879  37.253 -0.1736 -0.2326 -0.0447
20408W        W24808  15.447   1.924  35.067 -0.2122  0.1866  0.0750
20409W        W24809  10.235   5.940   2.955 -0.0819  0.0240  0.1533
20410W        W24810  17.912   3.076  37.319 -0.1964 -0.0495  0.1524
20411W        W24811  19.862   6.436  39.942  0.0735 -0.1845 -0.0576
20412W        W24812  12.176   3.957  21.410  0.0431 -0.0528 -0.2601
20413W        W24813   7.010   6.584  36.162  0.0719  0.1690 -0.0092
20414W        W24814   9.225   3.143  42.303 -0.0596 -0.2983  0.2080
20415W        W24815  10.503   0.578  30.608 -0.0060  0.0423 -0.1554
20416W        W24816   5.599   1.148  33.542 -0.6618  0.1847  0.1903
20417W        W24817   2.791   2.974  21.762 -0.1626 -0.3154  0.0846
20418W        W24818  16.759   3.372   1.832 -0.0487 -0.4087  0.3840
20419W        W24819  10.353   2.779   8.838  0.0342  0.0713 -0.0456
20420W        W24820   2.835   2.587  15.721  0.4481 -0.0882  0.2171
20421W        W24821  11.286   2.066   7.240  0.2129  0.4491  0.0590
20422W        W24822  10.528   1.223  29.835  0.0029 -0.1123  0.2779
20423W        W24823   5.726   0.311  29.090 -0.0599 -0.1285 -0.3852
20424W        W24824  14.427   3.216  10.556  0.0114  0.0131  0.1987
20425W        W24825   0.301   4.380  28.303 -0.1684 -0.0856  0.0136
20426W        W24826  14.818   2.294  37.647  0.3424 -0.0301  0.0252
20427W        W24827   8.217   5.443  32.512  0.1553 -0.1827  0.0267
20428W        W24828   3.223   1.129   2.268  0.4830  0.2191  0.1679
20429W        W24829   1.490   6.570   5.807 -0.1337  0.0910 -0.1040
20430W        W24830   8.572   3.330  37.162 -0.2008  0.2551  0.3417
20431W        W24831  10.491   2.746  31.355  0.1488  0.0646 -0.1531
20432W        W24832  15.602   4.078  43.986  0.0078  0.0830  0.0725
20433W        W24833  13.829   6.002  31.345 -0.2837 -0.1222 -0.2272
20434W        W24834   5.909   1.440  31.732  0.0417 -0.1118 -0.0030
20435W        W24835  19.336   1.667  16.030  0.1312  0.5021 -0.0652
20436W        W24836  16.473   3.945  31.185  0.0897  0.2246  0.0419
20437W        W24837  10.810   1.627  35.507 -0.1668 -0.4852  0.0117
20438W        W24838  11.831   1.572   1.942  0.0606  0.0537 -0.3355
20439W        W24839  11.156   3.745  41.932 -0.2255 -0.1219  0.0755
20440W        W24840   2.715   4.846  30.397 -0.0000  0.1654  0.2038
20441W        W24841  10.691   2.937  11.701  0.0826  0.1837 -0.1523
20442W        W24842   4.843   0.093  11.427 -0.0112  0.0152  0.0144
20443W        W24843   6.924   0.819  36.209  0.0603 -0.1218  0.1602
20444W        W24844  20.990   0.655   0.146 -0.1090  0.1710  0.1052
20445W        W24845   8.557   4.367  10.356  0.0686 -0.2227  0.0961
20446W        W24846  14.229   1.451  13.986 -0.0083 -0.1368  0.0447
20447W        W24847  15.197   5.577  41.350 -0.0804 -0.0317 -0.0545
20448W        W24848   5.466   4.654  15.508  0.0317 -0.3057 -0.1231
20449W        W24849   8.573   5.077   9.576  0.1917 -0.1451 -0.0569
20450W        W24850  11.715   2.824  29.774 -0.0900 -0.0272  0.1423
20451W        W24851   6.747   4.240   5.915  0.0111  0.1621 -0.2386
20452W        W24852  19.619   4.972   9.105  0.0838  0.0807  0.0546
20453W        W24853  19.286   5.360  28.847  0.0052 -0.1735  0.1065
20454W        W24854   9.035   3.745  32.852  0.0574  0.0451 -0.0131
20455W        W24855  13.502   2.264  17.036 -0.3007 -0.1461  0.1316
20456W        W24856  11.639   5.131  18.967  0.3125 -0.1433 -0.2448
20457W        W24857  12.613   4.382   3.248  0.3222 -0.0077 -0.1872
20458W        W24858  12.244   2.994  15.814 -0.0835 -0.0887  0.2098
20459W        W24859  18.986   1.428  43.181 -0.0156 -0.1675 -0.0506
20460W        W24860  11.301   3.356   8.292  0.1794 -0.0641  0.0948
20461W        W24861  10.481   0.559  20.169  0.0276 -0.0792 -0.0159
20462W        W24862   5.380   3.947  30.351  0.3096 -0.0298 -0.0708
20463W        W24863   7.023   6.596  28.823 -0.0165 -0.0693  0.2146
20464W        W24864   6.217   0.216  36.339  0.1559  0.0095  0.1863
20465W        W24865   6.869   4.450  40.543 -0.2993  0.3189 -0.4237
20466W        W24866  20.172   4.279   8.830 -0.0793  0.0175 -0.1020
20467W        W24867   2.627   2.669  13.645  0.0164 -0.0934 -0.5291
20468W        W24868  16.427   5.295  29.804  0.2517 -0.0760  0.2363
20469W        W24869  13.268   5.075   1.807 -0.3108  0.0802  0.2291
20470W        W24870  13.376   4.473  34.951  0.1589  0.3021 -0.3106
20471W        W24871  19.391   0.749  14.161  0.1040 -0.1474  0.0170
20472W        W24872  13.366   3.429  12.634  0.0026 -0.0098  0.0216
20473W        W24873   2.547   0.233  10.397  0.0276  0.2003 -0.2258
20474W        W24874   8.077   2.332  39.151  0.0837 -0.0340  0.2994
20475W        W24875  15.227   5.967   3.799 -0.2135  0.1600  0.1340
20476W        W24876  20.303   6.150  26.893 -0.0843  0.0295  0.0986
20477W        W24877  19.606   1.516  33.704  0.3396 -0.1614 -0.0578
20478W        W24878   0.290   1.279  16.522  0.1966 -0.1293 -0.1676
20479W        W24879   7.363   4.788  39.705  0.1532 -0.1721  0.1016
20480W        W24880   1.766   3.726  35.561 -0.0073 -0.2743 -0.4087
20481W        W24881  10.054   3.923  11.634  0.1166  0.0924  0.0513
20482W        W24882   5.941   4.991  31.876  0.0196  0.0306 -0.2152
20483W        W24883   2.409   5.948  31.334 -0.0681 -0.0785 -0.1000
20484W        W24884   7.921   3.705  40.522 -0.2812 -0.0739 -0.0574
20485W        W24885  20.469   0.339   7.393  0.0446  0.0115  0.0732
20486W        W24886   0.393   4.052  14.422 -0.0017 -0.0503  0.0053
20487W        W24887   6.365   1.421  25.940  0.0974 -0.0603  0.0763
20488W        W24888  12.781   1.724  18.191  0.0553  0.4235  0.0795
20489W        W24889  15.968   2.396  33.147 -0.0552  0.1366 -0.1616
20490W        W24890   9.608   5.107   7.341  0.0231  0.0268  0.3572
20491W        W24891   0.394   4.175  11.909  0.1885  0.4719 -0.2289
20492W        W24892   9.769   3.549  39.453  0.1727  0.1799 -0.4150
20493W        W24893  11.881   1.666  38.662  0.1045 -0.3025 -0.0456
20494W        W24894   8.131   0.581  43.743  0.0293  0.2489 -0.0913
20495W        W24895  14.246   6.271   5.146  0.0649 -0.0406  0.1663
20496W        W24896  21.058   3.714  43.662 -0.4960 -0.0397  0.0294
20497W        W24897   0.103   0.125  43.934 -0.2290  0.1065  0.0766
20498W        W24898  12.490   1.174  30.387  0.0918 -0.1609  0.3751
20499W        W24899  14.673   0.904  11.891  0.2837 -0.3018 -0.0180
20500W        W24900   1.749   0.219   3.077 -0.1592  0.1461 -0.0829
20501W        W24901   4.531   1.367  22.610 -0.0274  0.1746 -0.0440
20502W        W24902  19.838   2.199  28.472  0.2068 -0.0823  0.0325
20503W        W24903  20.898   3.954  42.543  0.1363  0.2122  0.1268
20504W        W24904   5.375   4.939  43.393 -0.0188 -0.0721 -0.1792
20505W        W24905   1.654   2.657  38.371 -0.1307  0.0975 -0.1849
20506W        W24906   1.620   0.632  33.728  0.1450  0.2996  0.1832
20507W        W24907  14.233   1.286   0.641  0.0925 -0.2956  0.0810
20508W        W24908   1.257   3.444  42.623 -0.0419  0.0062  0.2766
20509W        W24909  16.613   3.702  10.780 -0.1279 -0.1234  0.3265
20510W        W24910   7.264   5.875  28.091 -0.0814  0.2542  0.1258
20511W        W24911  17.281   3.115  40.072  0.0351  0.0664 -0.0622
20512W        W24912  10.718   1.649   5.724  0.1567  0.0301 -0.1333
20513W        W24913   4.575   2.324  10.420 -0.1169 -0.2142  0.0953
20514W        W24914  16.955   3.218  32.139 -0.2226 -0.1063  0.0396
20515W        W24915  15.930   6.302  20.901  0.1029  0.1164 -0.1623
20516W        W24916  11.933   4.484   7.820 -0.2842  0.1529 -0.1242
20517W        W24917   8.190   1.701  30.047 -0.1072 -0.1054 -0.1717
20518W        W24918  17.667   1.610  33.166 -0.0134  0.1469  0.3260
20519W        W24919  13.445   0.979  18.101  0.2080 -0.1444 -0.0386
20520W        W24920  13.434   2.056  22.162 -0.3411 -0.0173 -0.1380
20521W        W24921   1.109   1.642   9.045 -0.0564 -0.3202 -0.2197
20522W        W24922  19.583   3.451  30.826  0.0058 -0.0523  0.3100
20523W        W24923   0.211   0.551  33.730  0.0883  0.0200  0.2078
20524W        W24924  17.941   4.674  18.216 -0.0049 -0.1322 -0.1828
20525W        W24925   2.885   1.974  28.854  0.3429  0.0440  0.2318
20526W        W24926   5.544   1.389  10.765 -0.0292 -0.2185 -0.3854
20527W        W24927  12.650   5.514  32.410 -0.1825  0.1155  0.0184
20528W        W24928   0.612   2.769   4.949 -0.0464  0.0162 -0.2134
20529W        W24929  13.828   6.466  23.316 -0.1518 -0.2186 -0.1196
20530W        W24930   0.305   2.271  16.779  0.0683 -0.1590 -0.0479
20531W        W24931  17.196   4.376  19.970 -0.1905  0.1632 -0.3416
20532W        W24932  16.293   0.038  38.213 -0.2216  0.0705 -0.0008
20533W        W24933  13.143   4.940  10.320  0.3050 -0.0401  0.1138
20534W        W24934   2.589   2.160  37.643 -0.1396  0.2326 -0.0759
20535W        W24935   2.796   3.298   1.175  0.2191 -0.1270  0.3380
20536W        W24936  11.879   1.397   3.948 -0.0231  0.1507 -0.1136
20537W        W24937  19.095   4.749  16.739 -0.1538  0.0885 -0.0621
20538W        W24938   1.970   1.274  33.591 -0.0917  0.6888  0.2028
20539W        W24939  17.260   0.526   7.192  0.0844  0.0567  0.0957
20540W        W24940  18.373   3.025  14.083  0.0176 -0.1695  0.0104
20541W        W24941  12.596   0.947  20.681 -0.3524  0.2092 -0.0964
20542W        W24942  20.623   3.791  11.276 -0.0287  0.0018  0.0365
20543W        W24943   3.697   3.349  10.310  0.2061 -0.0961 -0.2443
20544W        W24944  12.405   2.672  15.494 -0.2125  0.0021 -0.0028
20545W        W24945   0.181   5.088  44.561  0.0681  0.1714 -0.0376
20546W        W24946   1.564   0.071   8.388 -0.1257 -0.2318  0.2979
20547W        W24947   0.789   6.130   9.012  0.1269  0.0289  0.3110
20548W        W24948   2.756   1.090   1.074  0.0450  0.0394  0.2146
20549W        W24949  19.353   2.802  27.361 -0.1429  0.0452 -0.3518
20550W        W24950   5.010   5.153  14.640 -0.1353  0.0103 -0.0131
20551W        W24951   9.675   6.296  18.958 -0.0205 -0.1178  0.2701
20552W        W24952   3.058   4.041  41.054 -0.1300 -0.2238 -0.1715
20553W        W24953   4.812   1.752   8.704 -0.1553  0.0280 -0.0625
20554W        W24954   3.803   0.879  36.550  0.1938 -0.2286  0.2288
20555W        W24955   2.589   0.596   7.069  0.0023 -0.1165 -0.3264
20556W        W24956  17.024   1.493  16.567 -0.1750 -0.1031 -0.2124
20557W        W24957  17.676   1.246  17.669 -0.1301 -0.0815  0.0205
20558W        W24958  21.063   0.294  13.561  0.1454 -0.5280 -0.1465
20559W        W24959   7.772   1.630   6.161 -0.1338 -0.1011 -0.2038
20560W        W24960  17.311   1.699  18.572  0.0867  0.1621 -0.1081
20561W        W24961   0.243   5.368   9.405 -0.2500  0.1700  0.0160
20562W        W24962  18.460   2.152   6.291 -0.1925 -0.2134 -0.0621
20563W        W24963   5.763   4.374  33.441 -0.0730 -0.1838  0.2362
20564W        W24964   5.119   5.992  33.504  0.3403  0.1006 -0.2508
20565W        W24965   3.889   0.366  37.350 -0.2183  0.2358 -0.1574
20566W        W24966  18.386   2.935  40.718  0.0063  0.0700 -0.1329
20567W        W24967   2.646   4.979  35.784  0.0410  0.0634 -0.0069
20568W        W24968   0.043   0.778  11.703 -0.1693 -0.0358  0.0579
20569W        W24969  17.188   0.542  11.039 -0.0216 -0.3392 -0.2592
20570W        W24970  16.327   4.444  44.344  0.1309  0.1331  0.1500
20571W        W24971   2.112   0.694  12.729  0.3028 -0.1416  0.1685
20572W        W24972  16.496   3.285   5.769 -0.1153  0.0865  0.0505
20573W        W24973  19.866   1.090   4.573 -0.1166  0.0878  0.2413
20574W        W24974  15.352   4.184  17.622 -0.0421  0.0926 -0.1465
20575W        W24975  20.823   6.125  32.743 -0.0912  0.3522 -0.0769
20576W        W24976  15.811   3.896  38.721  0.2021  0.2443  0.3129
20577W        W24977   8.281   3.026  36.224  0.0662 -0.1791 -0.3202
20578W        W24978  16.302   4.860  17.721  0.2393  0.0129  0.2587
20579W        W24979   0.341   1.299   2.218 -0.1450 -0.2068  0.0045
20580W        W24980   4.451   0.093   5.817 -0.1717  0.3549 -0.0420
20581W        W24981  18.438   0.011   0.251  0.0303  0.1284 -0.0212
20582W        W24982  19.672   1.081   7.745 -0.0005  0.1629  0.1945
20583W        W24983  19.730   5.490   1.686  0.0450 -0.2862  0.2284
20584W        W24984  13.469   0.690  12.219 -0.1656 -0.2013 -0.2278
20585W        W24985   8.638   2.635  36.146  0.2941  0.0431 -0.0439
20586W        W24986  18.198   3.507  43.909  0.1016 -0.0597  0.0874
20587W        W24987  19.658   1.713  16.478  0.0668  0.3534 -0.3827
20588W        W24988   2.553   0.018  22.825 -0.2083 -0.0541  0.1102
20589W        W24989   8.829   5.418  31.420 -0.2515 -0.2069 -0.1178
20590W        W24990   1.338   5.155   9.778  0.0394 -0.2075 -0.3339
20591W        W24991   0.764   2.972  43.275  0.0085 -0.2707 -0.2195
20592W        W24992   6.900   5.380   3.721 -0.1467 -0.0432 -0.0464
20593W        W24993  19.113   0.842  28.036  0.2604  0.0961 -0.1686
20594W        W24994   8.456   1.528  28.969  0.3324 -0.0381 -0.0386
20595W        W24995   8.849   1.148  37.386 -0.0641 -0.2104  0.1651
20596W        W24996   5.535   3.961   6.225  0.1627 -0.3157 -0.0388
20597W        W24997  11.278   3.757  31.524 -0.0167  0.4130  0.1214
20598W        W24998   1.105   1.350  14.587 -0.1060  0.1330  0.0831
20599W        W24999  11.123   3.749  12.632 -0.0728 -0.0885 -0.4431
20600W        W25000  12.740   1.185  41.850 -0.1908  0.2376 -0.3190
20601W        W25001   2.036   4.594  37.290 -0.0526  0.0098  0.0553
20602W        W25002  13.184   1.805  21.357  0.0967 -0.2532 -0.0978
20603W        W25003  13.518   2.048   9.656 -0.0736  0.3277 -0.4405
20604W        W25004   5.812   0.465  15.260 -0.0354 -0.1445  0.0680
20605W        W25005  19.823   0.052  29.170 -0.2310  0.0876 -0.2964
20606W        W25006   3.946   3.074  23.157 -0.1202 -0.0238  0.1361
20607W        W25007  11.177   6.087  13.245  0.2017 -0.1502 -0.0879
20608W        W25008   2.444   0.493  38.414 -0.1200  0.2439 -0.1523
20609W        W25009   8.130   3.400  43.498  0.3439 -0.3700  0.0567
20610W        W25010  18.056   2.266  42.044 -0.1272 -0.0604 -0.0338
20611W        W25011   7.665   1.755  14.450  0.1151  0.0313  0.1205
20612W        W25012   2.189   3.287  42.363 -0.1446  0.1785  0.1205
20613W        W25013   1.664   1.078  23.549  0.0431  0.0359 -0.0783
20614W        W25014   3.603   4.636   0.967 -0.0386 -0.0205 -0.1742
20615W        W25015   3.377   6.286  44.771  0.0273 -0.0011  0.1014
20616W        W25016  12.577   2.701  16.796  0.0650 -0.1692  0.1131
20617W        W25017   2.665   6.299  11.670 -0.2887  0.2118 -0.1763
20618W        W25018   7.246   1.917  33.002  0.0922 -0.3419  0.1112
20619W        W25019  19.465   2.415  17.780 -0.0916 -0.1662 -0.0664
20620W        W25020  14.493   3.249  19.100  0.1917 -0.0793  0.3163
20621W        W25021   0.544   2.835   2.375  0.0210  0.0147 -0.1592
20622W        W25022  18.931   4.002  35.074  0.1055  0.1263  0.4557
20623W        W25023  11.485   2.546  30.208 -0.0671 -0.0923  0.1358
20624W        W25024   3.006   5.379  38.090  0.1757 -0.0195  0.0770
20625W        W25025  20.050   5.232   9.205  0.0613  0.0746  0.0353
20626W        W25026   9.690   0.872  37.753  0.2746 -0.4493 -0.3268
20627W        W25027   4.773   3.286  10.215 -0.3115 -0.0262 -0.1082
20628W        W25028  20.689   5.321  10.392  0.1475  0.2510 -0.0912
20629W        W25029   2.781   0.948  10.686  0.3455 -0.2425  0.0018
20630W        W25030   4.873   2.736  23.936  0.1559  0.1673  0.1239
20631W        W25031   2.746   0.215   6.349 -0.2480 -0.2320  0.1654
20632W        W25032   4.266   0.591  35.840 -0.2299  0.1391  0.1404
20633W        W25033   0.769   6.174   0.290 -0.1672 -0.1521  0.2081
20634W        W25034   0.616   5.664  14.360  0.3200  0.1525  0.0436
20635W        W25035  14.656   4.255  35.193 -0.0797 -0.0194  0.0686
20636W        W25036   3.832   3.051  13.398 -0.0965 -0.0455  0.3400
20637W        W25037   1.889   6.074  37.460 -0.0756 -0.0524  0.1138
20638W        W25038   4.370   2.551  22.616 -0.0158  0.0612 -0.1182
20639W        W25039  19.979   3.728  40.498  0.1127  0.0992  0.0253
20640W        W25040   5.197   0.191  41.036  0.2796 -0.0606  0.2854
20641W        W25041  18.488   0.760  37.241  0.1544  0.2118  0.3094
20642W        W25042  21.040   5.208  28.901 -0.2507 -0.1613 -0.1533
20643W        W25043   7.370   1.872  16.202 -0.2068  0.0110 -0.0443
20644W        W25044   4.520   4.081   4.848 -0.1330 -0.3366 -0.4074
20645W        W25045  15.045   1.384  23.232 -0.0489 -0.0774 -0.1785
20646W        W25046  14.722   2.244  15.148 -0.2806  0.2005  0.1744
20647W        W25047   2.286   4.996  14.894 -0.0579  0.0115 -0.1413
20648W        W25048  17.413   6.337   2.488 -0.0616 -0.1438  0.2282
20649W        W25049  11.975   6.120  18.731 -0.2011 -0.1145  0.3897
20650W        W25050  10.225   6.354  40.870  0.0443 -0.0830  0.0764
20651W        W25051  12.802   4.647  35.280 -0.2181  0.2268  0.0861
20652W        W25052  19.798   3.568  39.263 -0.0142  0.0171  0.0699
20653W        W25053  11.147   5.368   1.346  0.2032 -0.0341  0.2196
20654W        W25054   7.119   3.223  41.481 -0.0648 -0.0784  0.1522
20655W        W25055  21.031   5.268  15.655 -0.0123  0.3045  0.2061
20656W        W25056   2.812   1.482  29.063 -0.1167 -0.0197 -0.2628
20657W        W25057   3.745   6.459  39.684 -0.0617 -0.3680  0.2615
20658W        W25058   6.441   4.471   6.424  0.0998 -0.0047 -0.2590
20659W        W25059   2.289   0.202  38.005 -0.2174  0.1403  0.0843
20660W        W25060  18.144   0.932  43.145  0.1478  0.0790  0.0743
20661W        W25061  20.041   4.052  34.942 -0.0662 -0.0272  0.1381
20662W        W25062   7.754   5.492  32.351  0.1363 -0.2042  0.0515
20663W        W25063  15.051   6.597  34.097 -0.2928  0.4550 -0.1751
20664W        W25064  17.930   0.639  44.814  0.0710  0.0066 -0.0782
20665W        W25065   0.126   5.736  32.842  0.1657 -0.0336  0.1079
20666W        W25066  13.346   5.968  31.774  0.0346  0.0495  0.1082
20667W        W25067  16.834   5.310  36.942 -0.0693  0.0763 -0.0995
20668W        W25068  13.796   5.512   6.207 -0.1328 -0.1389 -0.0823
20669W        W25069  13.775   4.355  17.910  0.2837 -0.3624 -0.1590
20670W        W25070   5.453   1.049  26.997 -0.3483  0.2405  0.1344
20671W        W25071   4.327   3.242  30.339  0.1390 -0.2912 -0.0441
20672W        W25072  16.540   4.268  17.020 -0.0920 -0.0687  0.2421
20673W        W25073   1.078   4.272  30.789 -0.0263 -0.0637 -0.1259
20674W        W25074   0.546   5.145  34.493 -0.0060 -0.2437 -0.1754
20675W        W25075   9.492   1.377  40.475  0.0601 -0.0828 -0.0131
20676W        W25076   0.965   0.223  13.123 -0.2376 -0.1076  0.2962
20677W        W25077  21.064   3.748  38.337 -0.2421  0.0483  0.2119
20678W        W25078  12.701   2.207  15.309  0.1584  0.2027  0.0139
20679W        W25079  12.502   5.045  33.729 -0.3011  0.0041  0.0073
20680W        W25080   1.707   4.439  42.780  0.0046 -0.1006  0.1369
20681W        W25081  10.887   0.449   7.747  0.0909  0.0588  0.0812
20682W        W25082   1.311   5.769  10.430  0.1123  0.0259 -0.1406
20683W        W25083   8.651   5.347   4.427  0.2346  0.1380 -0.0892
20684W        W25084   9.001   1.181  41.521 -0.0193 -0.0371 -0.1905
20685W        W25085   1.142   6.056  12.217 -0.3682 -0.0691  0.1700
20686W        W25086   0.486   4.248  25.854 -0.2658  0.0697 -0.3170
20687W        W25087  14.416   2.251  23.335 -0.2103 -0.0589 -0.0535
20688W        W25088  13.070   4.616  43.692  0.0265 -0.0789  0.0271
20689W        W25089  15.262   2.541  31.928  0.2367 -0.0813  0.1857
20690W        W25090  13.030   5.714  18.897  0.2886 -0.1316 -0.0510
20691W        W25091  18.104   5.114  35.364  0.0078  0.1130 -0.1197
20692W        W25092   4.085   1.416  42.387  0.0230 -0.4407 -0.0077
20693W        W25093   5.883   1.891  23.412  0.2365 -0.0584 -0.0215
20694W        W25094  17.440   5.686  16.474 -0.2804  0.0681  0.0560
20695W        W25095  19.261   2.365  14.125 -0.0075 -0.1535  0.0026
20696W        W25096   4.085   6.406   8.114  0.0952 -0.1514  0.0143
20697W        W25097  12.161   5.609  16.288  0.2480 -0.1985 -0.2397
20698W        W25098   8.056   2.019  35.938 -0.1980 -0.0103 -0.0701
20699W        W25099  17.409   1.965  31.590 -0.0834  0.0495  0.0583
20700W        W25100   1.782   5.769  30.269  0.1317 -0.1579  0.3227
20701W        W25101   4.566   2.618  25.832  0.0530 -0.1021 -0.0450
20702W        W25102   8.164   2.623  37.569  0.2039  0.0065  0.0529
20703W        W25103  17.359   1.488   3.049  0.2441 -0.1572 -0.0471
20704W        W25104  14.397   5.985   2.641  0.2002  0.1762  0.0707
20705W        W25105   4.234   1.181  38.818  0.2595  0.1267  0.1725
20706W        W25106   9.596   3.921  10.616  0.0013 -0.0189  0.0510
20707W        W25107  11.723   3.324  14.941 -0.2621  0.0571  0.1751
20708W        W25108  20.116   2.250   6.380  0.1443  0.1211 -0.1062
20709W        W25109  17.317   1.375   1.738 -0.0477  0.0163 -0.1285
20710W        W25110  19.375   6.280   8.567  0.1088  0.1622 -0.0630
20711W        W25111  17.160   0.427  18.628  0.0243  0.3880  0.0007
20712W        W25112  15.097   3.491  29.504 -0.2429 -0.0677  0.0474
20713W        W25113   8.336   3.361  14.447  0.1957  0.0735 -0.1964
20714W        W25114   4.503   2.787   8.319  0.2159 -0.0156 -0.1227
20715W        W25115  11.111   5.349   6.639 -0.1166  0.2309 -0.0628
20716W        W25116  13.342   2.451  22.511 -0.0338  0.1427 -0.0698
20717W        W25117  19.324   3.647  27.496  0.2841 -0.1247  0.1493
20718W        W25118  15.028   4.424  38.844  0.1462  0.0968 -0.0313
20719W        W25119   5.161   1.504  30.642 -0.1753  0.1991  0.3067
20720W        W25120   2.123   1.293  38.872 -0.1336 -0.0670  0.0072
20721W        W25121  11.409   5.391  35.740 -0.3634  0.0748 -0.0840
20722W        W25122  13.528   4.506  31.737  0.0348  0.1326 -0.1329
20723W        W25123  17.842   4.725  35.145  0.1531 -0.1474 -0.0584
20724W        W25124   5.349   2.784  25.811 -0.0134 -0.1430  0.0782
20725W        W25125  10.183   2.035  35.151  0.2469 -0.0834 -0.1360
20726W        W25126  12.683   1.532  38.986 -0.0101 -0.0803 -0.1493
20727W        W25127  18.029   1.121  29.142 -0.0235  0.0412  0.1994
20728W        W25128  20.528   5.027  27.528 -0.1844  0.0153  0.0725
20729W        W25129   9.763   5.288  12.603  0.1800 -0.0151  0.2325
20730W        W25130   8.528   0.911  37.728  0.2838  0.1949  0.0848
20731W        W25131  20.243   5.763  17.732  0.0527 -0.2184  0.0248
20732W        W25132  18.138   0.861  31.886  0.4596  0.0668  0.0190
20733W        W25133  15.666   2.535  31.530 -0.0658  0.2249 -0.0954
20734W        W25134  17.730   4.391  43.049  0.0054  0.1165 -0.0229
20735W        W25135  19.104   5.325   5.343  0.0806  0.0309  0.4162
20736W        W25136   0.380   6.295  16.047 -0.1174  0.0332  0.0825
20737W        W25137  18.213   2.082  17.540  0.2049 -0.1382  0.0560
20738W        W25138   5.034   3.918  23.869 -0.1628  0.0491 -0.0600
20739W        W25139   8.468   0.262  27.684  0.2070  0.2229 -0.0152
20740W        W25140   4.192   5.258  44.877  0.2586  0.1450  0.0179
20741W        W25141   8.759   5.016  27.756 -0.0377  0.0052  0.2010
20742W        W25142   9.944   4.946  13.458 -0.1745 -0.2126 -0.1417
20743W        W25143   6.473   2.284  35.704 -0.0687 -0.1542  0.3747
20744W        W25144   0.749   0.264  29.428 -0.2967  0.1273  0.0736
20745W        W25145  17.095   4.837  12.723  0.1542  0.2491  0.0580
20746W        W25146  15.310   5.749  32.166  0.1246 -0.2427  0.0752
20747W        W25147   3.629   5.841   5.104 -0.4987  0.0544 -0.0831
20748W        W25148  10.953   4.347  35.068  0.0561  0.0180  0.0529
20749W        W25149  15.361   4.556  42.333  0.3452  0.0968  0.2180
20750W        W25150  20.494   1.687  32.135 -0.1215 -0.3053  0.0243
20751W        W25151  17.514   0.588   7.846 -0.1231 -0.2350 -0.1423
20752W        W25152  14.756   5.794  40.169 -0.3561 -0.4586 -0.0782
20753W        W25153  20.184   4.628  35.048  0.1753  0.1679  0.2374
20754W        W25154  14.274   0.397  10.810  0.0695 -0.2436 -0.0488
20755W        W25155  11.086   5.449  42.254  0.4525  0.2553  0.0324
20756W        W25156   1.226   3.934   8.186 -0.0420 -0.2062  0.0567
20757W        W25157  10.573   4.489  44.466  0.0891 -0.0675 -0.1311
20758W        W25158   0.684   2.368  38.829 -0.0265  0.1437 -0.1620
20759W        W25159   8.901   5.830  37.181 -0.0560  0.1460 -0.0918
20760W        W25160   8.674   5.655  45.001  0.3559  0.0123  0.0186
20761W        W25161  16.003   0.415   0.744  0.1114  0.1579 -0.0135
20762W        W25162   9.793   1.961  34.840 -0.3141 -0.1286  0.0025
20763W        W25163   7.149   0.955  15.701  0.0320 -0.2832  0.0561
20764W        W25164  11.631   1.903   3.045 -0.0799  0.0814  0.1615
20765W        W25165   1.889   3.771   5.854 -0.2229 -0.0600  0.1081
20766W        W25166   4.629   0.287  13.875 -0.0649 -0.0209 -0.2389
20767W        W25167  14.552   1.952  11.590 -0.0918 -0.3384 -0.0474
20768W        W25168  20.127   3.067  14.975  0.1458  0.0135  0.2891
20769W        W25169   6.564   2.767  41.136 -0.3726  0.0069 -0.0845
20770W        W25170  15.882   1.702  14.108 -0.2492 -0.0520  0.0546
20771W        W25171   3.388   5.195  38.456  0.0738 -0.0600 -0.0148
20772W        W25172  10.837   0.128  19.709 -0.1443  0.1029 -0.1319
20773W        W25173  17.174   2.110  17.647 -0.2096  0.0694 -0.2083
20774W        W25174  14.502   5.993  41.060 -0.4133  0.0322  0.1780
20775W        W25175   3.308   3.014   9.786  0.2218  0.1033  0.2040
20776W        W25176  19.629   6.607  42.217 -0.0008 -0.1596  0.1697
20777W        W25177  19.705   3.602  37.060  0.4070  0.1435  0.3542
20778W        W25178  12.485   2.230  16.906  0.1079 -0.1268 -0.2440
20779W        W25179   6.606   1.138  10.109 -0.1524 -0.0186 -0.2213
20780W        W25180  12.767   3.906  34.059 -0.0083 -0.1628  0.0262
20781W        W25181  16.471   2.098  35.293  0.0929 -0.2938  0.1555
20782W        W25182  16.582   1.502   3.795  0.0300  0.1165  0.1663
20783W        W25183  20.509   2.985   5.953  0.0448 -0.1041 -0.2149
20784W        W25184   3.833   6.299  32.577  0.0862 -0.0266  0.1545
20785W        W25185  15.865   1.814  23.190 -0.0742 -0.5567 -0.2077
20786W        W25186   9.165   6.374  40.172 -0.1570 -0.2001  0.0679
20787W        W25187   4.290   5.775  37.046 -0.1508  0.1179 -0.0356
20788W        W25188   3.598   0.940  30.382  0.1023 -0.0332  0.3132
20789W        W25189  18.598   6.293   3.059  0.0708  0.0105  0.1513
20790W        W25190   4.459   3.674   0.660 -0.4095  0.0316 -0.0879
20791W        W25191   4.835   1.842  12.098 -0.1355  0.0036 -0.0841
20792W        W25192   6.567   4.060  11.406  0.1097  0.1828 -0.1186
20793W        W25193   8.019   3.294  30.755  0.0083  0.0218 -0.1620
20794W        W25194   4.584   4.514  32.637  0.0789  0.1108  0.0682
20795W        W25195  15.773   2.705  43.734  0.1536  0.1293 -0.2112
20796W        W25196  17.316   5.549  39.186  0.1598  0.2029 -0.0042
20797W        W25197  10.882   3.393   1.045  0.6507 -0.0600 -0.1793
20798W        W25198   5.252   2.496  11.216  0.1697  0.1253  0.2768
20799W        W25199   3.870   6.227  29.140 -0.1263  0.2072  0.0758
20800W        W25200  17.685   4.896  38.411 -0.2924 -0.1508 -0.2035
20801W        W25201   8.873   1.264   3.408 -0.0397  0.0164  0.0336
20802W        W25202   4.498   5.798  11.400 -0.2144  0.1399  0.0035
20803W        W25203   4.550   6.382   6.647  0.0012 -0.4516  0.4489
20804W        W25204   2.831   1.325  23.377  0.1352  0.0534 -0.3339
20805W        W25205  15.521   6.512   2.434  0.0459  0.0738 -0.1365
20806W        W25206   4.904   3.516   3.672 -0.5686  0.0870  0.1447
20807W        W25207  11.090   5.913   5.967  0.2952  0.0920  0.1595
20808W        W25208  14.645   1.557  17.588  0.0010  0.2469  0.1119
20809W        W25209   8.791   2.954   3.504 -0.0891 -0.0352  0.2614
20810W        W25210   4.732   3.770  29.193 -0.1168  0.1286  0.3739
20811W        W25211   8.020   0.915  15.044 -0.1921  0.2366  0.1365
20812W        W25212  18.397   3.223  11.030 -0.1840 -0.0569 -0.0399
20813W        W25213   5.811   3.667   3.170 -0.2028 -0.1444  0.0684
20814W        W25214  11.763   3.970  10.321 -0.1166  0.0496 -0.1752
20815W        W25215   9.955   2.527  13.130  0.1726  0.1508  0.0617
20816W        W25216  17.348   0.758  18.960 -0.0489  0.2521  0.0879
20817W        W25217  12.224   5.824  14.928 -0.3568  0.0725  0.0656
20818W        W25218   5.505   2.912  32.210 -0.0546  0.1017 -0.2220
20819W        W25219  13.899   2.404  32.215 -0.0133 -0.1506 -0.2835
20820W        W25220  11.680   1.610  36.374  0.0872 -0.1534  0.0262
20821W        W25221  17.559   3.573  29.046  0.1793 -0.3613 -0.3103
20822W        W25222  20.625   3.150  15.523 -0.0177  0.1721 -0.1446
20823W        W25223  12.660   0.636  19.285  0.0063 -0.0946  0.1186
20824W        W25224   6.934   3.961  33.015 -0.0313  0.0759 -0.0235
20825W        W25225  18.479   2.515   2.981  0.0312  0.1998  0.1141
20826W        W25226   7.591   0.621  28.186  0.1827  0.0810 -0.0996
20827W        W25227  18.194   3.385   8.075 -0.1416  0.1792  0.0273
20828W        W25228  11.109   2.254  37.715 -0.1264  0.3168  0.0005
20829W        W25229  14.834   2.562  33.002 -0.1158  0.0677  0.0095
20830W        W25230   2.916   0.818  21.545  0.1085  0.0611  0.0937
20831W        W25231   3.796   3.015  38.410  0.0592 -0.1264 -0.1186
20832W        W25232  17.624   2.401  43.573 -0.0011  0.1261  0.1054
20833W        W25233   9.786   3.465  36.151 -0.0866  0.1419 -0.0037
20834W        W25234   6.204   2.884   2.199  0.2821 -0.2678  0.1397
20835W        W25235   9.785   0.993  10.072 -0.3523 -0.0607 -0.0100
20836W        W25236  13.317   0.551  18.253  0.1636  0.3058 -0.0949
20837W        W25237  10.636   6.292  30.301  0.0247 -0.1869  0.1829
20838W        W25238  15.404   0.270  12.420  0.1011 -0.1586 -0.0321
20839W        W25239   6.036   1.871  31.915  0.0425  0.4521 -0.1406
20840W        W25240   6.060   3.800   7.116  0.1640 -0.1043  0.0725
20841W        W25241   8.111   2.141   7.429  0.0290 -0.0508  0.1222
20842W        W25242   3.928   2.002  35.654  0.2370 -0.1681 -0.0576
20843W        W25243  14.440   1.945  13.504  0.2180  0.1642  0.2741
20844W        W25244   7.137   0.937   1.071  0.1066  0.1629  0.1657
20845W        W25245  10.536   5.812  19.501  0.1635 -0.1349 -0.2470
20846W        W25246   5.384   5.673  28.262  0.1468  0.0689 -0.4408
20847W        W25247  19.116   2.832  12.143 -0.2104  0.2118 -0.3463
20848W        W25248   6.208   1.133   9.293  0.1967 -0.0279 -0.0398
20849W        W25249  13.874   0.154  19.553 -0.1958 -0.0821 -0.0620
20850W        W25250  12.045   5.177  41.432  0.1944 -0.3291  0.0633
20851W        W25251  12.605   3.056  11.152  0.3018 -0.1149  0.0156
20852W        W25252   6.883   5.414   6.976  0.0346 -0.3338 -0.1320
20853W        W25253   4.034   2.542   8.517 -0.0106 -0.3960  0.0601
20854W        W25254   8.006   6.010  30.597  0.1721 -0.0021  0.2710
20855W        W25255   0.679   2.298   8.568  0.0194  0.0572  0.2847
20856W        W25256   7.685   3.301   2.408  0.1229  0.0904  0.0023
20857W        W25257  18.596   2.229   0.915  0.0101  0.2562 -0.5292
20858W        W25258   7.242   4.890   7.736  0.2219  0.0208 -0.0203
20859W        W25259   0.339   3.467  43.606  0.2063 -0.0575  0.1981
20860W        W25260   4.253   4.755  21.788  0.2290  0.1818 -0.0227
20861W        W25261  19.529   5.116  44.229 -0.2826  0.0322 -0.0653
20862W        W25262  11.857   3.405  39.379 -0.0769  0.0638 -0.1123
20863W        W25263   3.259   2.842   1.833  0.1503  0.0196 -0.1616
20864W        W25264   6.566   5.531   5.412 -0.2385 -0.1069 -0.0145
20865W        W25265  20.508   4.306  27.952 -0.1770  0.2177  0.2875
20866W        W25266   1.355   2.593  35.605 -0.1525  0.0491  0.1286
20867W        W25267  12.764   4.436  10.035  0.1238 -0.0446 -0.2705
20868W        W25268   7.345   2.590  39.638 -0.1377  0.0445  0.2269
20869W        W25269   3.878   1.161  40.979  0.1146 -0.1385 -0.1690
20870W        W25270  11.009   2.994  16.244 -0.1766  0.0755 -0.0949
20871W        W25271  13.110   4.821   6.262 -0.1898  0.1845  0.0706
20872W        W25272  10.167   0.308  43.606 -0.1649  0.2148  0.0604
20873W        W25273   3.707   5.579  12.398 -0.2436 -0.0318 -0.2117
20874W        W25274   4.364   5.070  32.086 -0.0942  0.0185  0.0160
20875W        W25275  16.023   4.215  17.992 -0.0072  0.2629  0.0245
20876W        W25276  11.417   5.481  28.615  0.4725 -0.2030 -0.0638
20877W        W25277   9.400   5.211  18.331 -0.1299  0.4054 -0.2195
20878W        W25278   7.916   5.152  15.170  0.1566 -0.1129 -0.0901
20879W        W25279   4.827   0.276  28.645 -0.1043  0.0687  0.2753
20880W        W25280   8.016   0.743   0.376 -0.1607  0.0345 -0.1142
20881W        W25281  16.467   0.688  29.875  0.0080 -0.1202  0.2231
20882W        W25282  15.849   0.465  18.689  0.2049 -0.2373 -0.1297
20883W        W25283  14.459   3.044  36.381  0.3174  0.2992 -0.0251
20884W        W25284   0.045   1.367  42.527 -0.1247 -0.0806 -0.3552
20885W        W25285   8.732   5.354   0.636  0.5211 -0.0663 -0.0387
20886W        W25286  16.646   4.708  13.096 -0.1462 -0.0734  0.0684
20887W        W25287   0.409   2.870  43.990 -0.2327 -0.2227 -0.2203
20888W        W25288   8.975   6.031   2.710 -0.2187 -0.1980  0.2675
20889W        W25289  18.841   1.503  16.861 -0.0597 -0.3645  0.0655
20890W        W25290  15.165   3.680   6.573 -0.1162  0.0634  0.0920
20891W        W25291  17.245   6.519  36.638 -0.1015 -0.5444  0.1564
20892W        W25292   0.005   0.030  12.230  0.0506  0.1838  0.0201
20893W        W25293  14.777   1.452  37.655 -0.1022  0.1788  0.1763
20894W        W25294  16.547   1.326  20.050 -0.1425  0.0269 -0.1704
20895W        W25295  13.851   5.307  32.175 -0.0404 -0.1180 -0.0505
20896W        W25296  17.335   0.415  16.178  0.0537 -0.1446 -0.0477
20897W        W25297   1.301   0.203  12.605 -0.0429  0.1132 -0.1511
20898W        W25298  11.255   0.232   1.086 -0.0322  0.0511  0.0366
20899W        W25299   2.018   3.267  14.106  0.1509 -0.1099  0.0092
20900W        W25300  14.676   2.097  17.389 -0.0240 -0.3892 -0.2072
20901W        W25301  14.948   5.624  21.452  0.1770 -0.2251 -0.0894
20902W        W25302  15.352   6.010  12.804 -0.0320 -0.3885  0.1267
20903W        W25303  14.479   4.093  15.420 -0.1025 -0.0368  0.0662
20904W        W25304  10.029   3.710   4.554 -0.0794 -0.0900  0.1636
20905W        W25305  17.656   6.123  11.586 -0.0049  0.2137  0.3249
20906W        W25306   9.071   1.579  10.409  0.0589 -0.0945 -0.3732
20907W        W25307   0.263   5.851   2.688  0.1831  0.1719 -0.3386
20908W        W25308  17.157   3.799  42.825  0.1436  0.0038  0.1772
20909W        W25309   6.468   4.968  40.654  0.0176  0.1077 -0.3977
20910W        W25310  11.761   4.088  37.679  0.1924 -0.0736 -0.0999
20911W        W25311  20.869   6.156  10.893  0.1064 -0.1218 -0.1127
20912W        W25312   0.882   1.181  23.435  0.2540  0.0555  0.2389
20913W        W25313  18.667   5.842  40.028  0.0062 -0.2338 -0.1499
20914W        W25314   7.795   3.161  25.134 -0.3043 -0.0974 -0.0681
20915W        W25315  14.180   4.714  23.172 -0.0559  0.0547  0.0856
20916W        W25316  19.342   0.256  17.505  0.1205  0.0736  0.2911
20917W        W25317   9.423   6.427  28.714 -0.1507 -0.2252  0.0658
20918W        W25318   2.811   2.687  15.137 -0.0490  0.1505  0.0171
20919W        W25319   1.857   5.750  27.034 -0.2731 -0.0338 -0.0466
20920W        W25320   3.805   1.889  39.455  0.4270 -0.3087 -0.0102
20921W        W25321  10.319   5.653   7.537 -0.0837  0.0488  0.0701
20922W        W25322  16.135   3.205  32.817 -0.2652 -0.2092  0.2338
20923W        W25323  12.029   5.615  34.929  0.0929 -0.0153  0.1201
20924W        W25324  10.745   0.305  43.584  0.2358  0.1269 -0.1910
20925W        W25325   2.400   0.962  27.568  0.0667  0.2813 -0.3310
20926W        W25326  18.588   1.822   3.527 -0.0471 -0.2032 -0.0837
20927W        W25327  14.028   2.983  24.141  0.0371 -0.0165  0.0117
20928W        W25328   5.027   2.698  23.233 -0.4434  0.1705 -0.0857
20929W        W25329  10.091   0.254  38.766 -0.3108  0.0519  0.0352
20930W        W25330  15.909   5.896  42.529  0.0111 -0.0346  0.1416
20931W        W25331   4.438   0.500  13.311 -0.0859 -0.2764  0.1563
20932W        W25332   6.164   0.991  40.833 -0.0326  0.2673 -0.3699
20933W        W25333  19.181   1.271  43.621  0.1267 -0.2998  0.0475
20934W        W25334  16.523   3.857  14.044 -0.0777  0.0175  0.2775
20935W        W25335  12.656   5.020  37.708  0.1641  0.1517  0.0735
20936W        W25336   8.598   4.674  37.423  0.0696  0.1223  0.1471
20937W        W25337  11.244   3.423  34.560  0.1834 -0.2401  0.2093
20938W        W25338  13.992   5.062  13.145 -0.1903 -0.2728 -0.0983
20939W        W25339  12.724   3.687  14.892  0.0331  0.0397 -0.0515
20940W        W25340  18.667   1.053  13.089  0.1216 -0.1146 -0.0896
20941W        W25341   8.544   0.967  41.778 -0.3433  0.1831  0.0299
20942W        W25342   8.634   5.966  36.535 -0.4543 -0.1684 -0.3443
20943W        W25343  13.923   3.920  29.941  0.0789  0.4300 -0.0082
20944W        W25344   7.712   1.854  39.413  0.0570  0.3782  0.1717
20945W        W25345   2.192   2.773  24.732  0.0828 -0.0541  0.1873
20946W        W25346   8.623   5.284   5.282 -0.0930  0.1386  0.0608
20947W        W25347   4.826   0.847  36.220  0.1282  0.1087 -0.0820
20948W        W25348   3.910   1.663  37.516  0.2175 -0.1665 -0.4606
20949W        W25349  11.173   3.469  44.294 -0.1132 -0.0955 -0.1389
20950W        W25350  12.513   4.840  18.787 -0.0789 -0.0449  0.2566
20951W        W25351   1.647   0.321  24.072 -0.0962 -0.3101 -0.0008
20952W        W25352  14.712   4.755   2.182 -0.1915 -0.0801  0.0073
20953W        W25353  17.709   4.899  44.870  0.2109  0.0104 -0.0266
20954W        W25354  17.162   0.686  20.906 -0.4280  0.0228  0.0825
20955W        W25355   8.571   0.869  28.922  0.1747 -0.3579  0.0116
20956W        W25356   6.499   6.136  36.044 -0.0234  0.1427 -0.0500
20957W        W25357   1.733   3.525  36.430  0.3829 -0.4173  0.1676
20958W        W25358  18.347   5.236  10.525  0.2124  0.2124 -0.0651
20959W        W25359  16.597   6.222   3.103 -0.0087  0.3274 -0.0074
20960W        W25360  14.214   6.035  33.790 -0.2514  0.1704  0.0847
20961W        W25361   2.245   1.182   1.068  0.2605  0.0551  0.1097
20962W        W25362   0.085   3.661  34.031  0.0170 -0.1439 -0.2006
20963W        W25363   8.482   0.404  33.773  0.2129  0.0421 -0.1602
20964W        W25364   2.658   1.704  15.587 -0.0045  0.2511 -0.0970
20965W        W25365  17.550   0.926   9.550 -0.1439 -0.0226 -0.1509
20966W        W25366  13.589   5.049  44.009  0.4974 -0.0474 -0.3690
20967W        W25367  18.501   5.706   6.465  0.0956 -0.1482  0.0751
20968W        W25368  11.933   0.968   5.173 -0.2847  0.0761  0.0551
20969W        W25369  19.953   4.556  39.517 -0.0980 -0.2940  0.1045
20970W        W25370  11.913   4.469  15.946  0.2736  0.3703  0.0756
20971W        W25371  16.134   2.970  20.169 -0.0312  0.2390  0.3588
20972W        W25372  10.788   1.532  43.144 -0.0638 -0.4205 -0.0216
20973W        W25373   9.889   2.675   5.962  0.0441 -0.1364 -0.2660
20974W        W25374  18.049   1.078   8.808  0.2822 -0.1511 -0.0378
20975W        W25375   4.254   0.029  21.404 -0.0807  0.0061  0.1853
20976W        W25376  11.859   5.375  38.929  0.1379  0.1101  0.1869
20977W        W25377   3.625   3.767  41.447 -0.1348 -0.0668 -0.0234
20978W        W25378   7.263   0.292  43.851 -0.2265 -0.1030 -0.0826
20979W        W25379  13.180   0.103  19.781  0.0108 -0.0548 -0.0422
20980W        W25380   9.506   0.597  44.428 -0.1999  0.1131  0.2784
20981W        W25381   4.335   5.001  43.014  0.0492  0.0573 -0.0715
20982W        W25382   3.207   1.989  42.011 -0.1573  0.1302  0.0161
20983W        W25383   7.170   1.986  29.108 -0.0603  0.3616 -0.2277
20984W        W25384  15.703   4.498  10.013 -0.1642  0.2952 -0.0244
20985W        W25385  13.631   1.412   5.034  0.1950  0.0802 -0.1933
20986W        W25386  10.174   4.140  44.306 -0.2048  0.2265  0.1857
20987W        W25387  17.028   5.332  28.929 -0.0125 -0.1342 -0.1637
20988W        W25388  18.792   0.070  11.502 -0.1564  0.2427 -0.0240
20989W        W25389   7.570   1.314  39.710  0.0835 -0.2061 -0.0749
20990W        W25390  13.452   5.962  14.458 -0.2756 -0.1095 -0.3034
20991W        W25391  17.436   2.228  10.213  0.0948  0.0206  0.0219
20992W        W25392  16.380   3.771  19.650 -0.1153  0.1596  0.2370
20993W        W25393  17.973   1.175   4.006  0.2070  0.2693  0.0067
20994W        W25394  20.424   6.412  11.441 -0.0270 -0.2819  0.1377
20995W        W25395   8.094   0.164  14.334 -0.0423 -0.2583  0.3914
20996W        W25396  17.253   0.130   6.933  0.2101  0.1737  0.0901
20997W        W25397  13.037   4.007  20.425 -0.0133 -0.1517  0.0320
20998W        W25398  20.609   6.338   8.692  0.0638  0.1529  0.1823
20999W        W25399  20.588   1.425   7.658  0.2195  0.2888  0.0349
21000W        W25400  13.392   4.142  10.449  0.3650 -0.0289 -0.0248
21001W        W25401   5.562   4.998   0.449  0.3482 -0.1711  0.0858
21002W        W25402   3.117   5.161  27.008  0.3452 -0.1041  0.0525
21003W        W25403  13.350   6.087  17.024  0.0752  0.2988  0.2110
21004W        W25404   3.280   3.784  23.865  0.3366  0.0191 -0.0603
21005W        W25405   1.115   5.645  14.357 -0.0039  0.1220 -0.0406
21006W        W25406  18.072   2.076  32.420 -0.1144  0.0771 -0.2467
21007W        W25407   5.552   2.298  40.388 -0.0839  0.1619  0.1239
21008W        W25408   1.882   3.385   2.259  0.0095 -0.1933 -0.1957
21009W        W25409  20.821   4.578  30.172  0.1029  0.1539 -0.0771
21010W        W25410   8.449   4.528  15.818 -0.0752 -0.2376  0.1478
21011W        W25411   8.318   2.469  35.797 -0.3376 -0.1068 -0.1133
21012W        W25412  14.489   2.514  34.586 -0.3389 -0.3113 -0.0921
21013W        W25413   0.030   4.758  42.881 -0.3704  0.0096 -0.0183
21014W        W25414   9.241   0.059   4.643  0.0690 -0.0362  0.1964
21015W        W25415   3.142   2.348  11.579  0.0632  0.1923  0.1204
21016W        W25416  20.636   5.260  28.352 -0.1618  0.2076  0.2128
21017W        W25417   5.985   2.547   2.557 -0.0037 -0.0537 -0.2402
21018W        W25418  16.394   2.402  33.346 -0.0635  0.1241  0.0419
21019W        W25419  11.222   1.941  44.123 -0.2657 -0.0970 -0.1954
21020W        W25420   0.708   4.297  13.826  0.0206 -0.0226 -0.2947
21021W        W25421  17.665   5.331  31.415 -0.0435  0.0690  0.0767
21022W        W25422  12.035   1.177  43.241 -0.2819  0.2008  0.1672
21023W        W25423   9.690   4.355  14.407  0.0874 -0.1932  0.2984
21024W        W25424   1.911   4.585  27.124  0.2014  0.3921  0.1360
21025W        W25425   3.331   6.299  32.521  0.1845 -0.0026  0.1863
21026W        W25426  10.874   4.930   6.918 -0.0122  0.3453 -0.4275
21027W        W25427  10.813   4.526  28.851 -0.1111  0.1274  0.0779
21028W        W25428  12.255   5.735  32.183 -0.2493 -0.1463 -0.0259
21029W        W25429  11.577   5.528  40.892  0.1223  0.1122  0.1255
21030W        W25430  12.605   4.001  38.988  0.4482  0.0655  0.1887
21031W        W25431  14.773   0.929  41.086 -0.0576 -0.2480 -0.0873
21032W        W25432   5.912   5.550  26.724 -0.0537  0.0210 -0.2007
21033W        W25433  10.202   4.271   7.535 -0.0702  0.4288 -0.1006
21034W        W25434  12.091   1.762   5.081 -0.0675 -0.2820  0.2599
21035W        W25435   4.867   1.666  10.117 -0.2648 -0.1747  0.0665
21036W        W25436  18.464   1.653   1.812 -0.2475 -0.2003 -0.1917
21037W        W25437  10.947   0.533  20.013  0.1626 -0.3512 -0.3757
21038W        W25438   5.095   0.079   8.803  0.0828  0.2383 -0.3189
21039W        W25439  14.123   3.785  24.304 -0.0086  0.2761 -0.0563
21040W        W25440  12.296   3.240  33.451 -0.2369 -0.1370 -0.1366
21041W        W25441  10.675   4.492   7.057 -0.1359  0.1326 -0.1292
21042W        W25442  15.037   0.658   5.633  0.0598  0.0523  0.0049
21043W        W25443   5.947   3.846  22.983  0.0112  0.0357 -0.1210
21044W        W25444  11.931   3.638   6.203  0.3047 -0.3242  0.0503
21045W        W25445   8.140   0.041  41.745 -0.3784 -0.2029 -0.0735
21046W        W25446   6.675   2.819  26.219 -0.0057 -0.0109  0.1538
21047W        W25447  14.599   4.231   8.205 -0.1250  0.1139  0.0846
21048W        W25448   8.562   3.040  11.506  0.1005  0.0342 -0.4703
21049W        W25449   2.630   3.881  39.820 -0.1529  0.1615 -0.0770
21050W        W25450  20.448   0.837  33.876 -0.0433 -0.1722  0.0392
21051W        W25451   3.561   0.635   7.185 -0.3673 -0.1735  0.0394
21052W        W25452   8.225   1.986   1.006  0.1326 -0.2133 -0.1169
21053W        W25453   7.059   4.639  38.159  0.0764  0.0484  0.2657
21054W        W25454  18.978   4.876  41.238 -0.1622  0.1331  0.0560
21055W        W25455   0.508   0.567  14.287 -0.0447 -0.3503  0.0593
21056W        W25456   6.833   0.569  41.918 -0.1631 -0.1445 -0.0127
21057W        W25457  15.880   3.810  22.209 -0.0399 -0.0428  0.2393
21058W        W25458   2.596   3.309  32.606  0.0383 -0.2130 -0.0831
21059W        W25459   4.479   5.814  39.223 -0.0793 -0.1767  0.0189
21060W        W25460  16.739   2.590  38.590 -0.0603  0.1602 -0.3899
21061W        W25461   4.702   4.654   9.152  0.2905 -0.1895 -0.2387
21062W        W25462  10.918   2.454  10.171 -0.4046  0.0167 -0.0942
21063W        W25463  10.498   4.004  43.990 -0.0416 -0.4109 -0.1266
21064W        W25464   9.766   0.598  29.817 -0.0138 -0.1874  0.4450
21065W        W25465   6.689   3.026  32.767 -0.0664 -0.1801 -0.1122
21066W        W25466  18.983   2.072  15.544  0.1341  0.0917 -0.0082
21067W        W25467  11.755   2.925  31.685 -0.1364 -0.1384  0.1616
21068W        W25468  15.702   5.801  19.525 -0.0426  0.0793 -0.1662
21069W        W25469  10.229   2.731  41.477 -0.2138 -0.0384 -0.0977
21070W        W25470   6.994   0.295  32.322 -0.0400  0.0052  0.3792
21071W        W25471   0.512   4.035   8.361  0.1909  0.0168 -0.1623
21072W        W25472  11.861   4.162  29.724 -0.0139 -0.4103 -0.0677
21073W        W25473  20.979   4.061  41.265  0.0676  0.0359 -0.3326
21074W        W25474  19.066   0.082   8.471 -0.1726  0.2220  0.1337
21075W        W25475   6.185   4.838  24.866 -0.0239 -0.0303  0.3395
21076W        W25476  13.263   6.012  37.555  0.1528  0.0225 -0.2346
21077W        W25477   0.042   2.730   0.337  0.0639 -0.0840  0.1272
21078W        W25478   7.333   3.712  39.053  0.1522 -0.0770  0.1632
21079W        W25479  16.756   5.505  32.806 -0.1129 -0.0729 -0.1721
21080W        W25480   5.930   4.855  31.015  0.1576  0.0068 -0.1386
21081W        W25481  14.652   2.790   3.974  0.2053  0.1427 -0.2048
21082W        W25482  16.738   4.818  29.294 -0.5485  0.1553 -0.0860
21083W        W25483   6.577   5.439  39.838 -0.1397  0.0396  0.1144
21084W        W25484  12.442   5.507  42.127  0.0378 -0.2981 -0.2890
21085W        W25485  16.154   1.175  37.769  0.1935 -0.0635 -0.3168
21086W        W25486   8.862   0.025  43.462  0.0829 -0.1370 -0.0203
21087W        W25487  20.817   3.780   1.575  0.0619  0.1619 -0.0865
21088W        W25488  17.763   1.700   6.823  0.0380 -0.0690 -0.3363
21089W        W25489  18.850   0.854  41.279 -0.2394  0.1488 -0.0013
21090W        W25490  20.150   5.130   2.207  0.2006  0.1635 -0.0070
21091W        W25491   4.345   5.289  39.268 -0.1006  0.1526 -0.0553
21092W        W25492  15.751   6.392  39.479  0.2594 -0.1433  0.0434
21093W        W25493  20.046   1.563  34.066  0.0665 -0.1374  0.1747
21094W        W25494   0.633   4.917  44.522 -0.1378 -0.2481  0.2003
21095W        W25495  13.158   3.647  23.084  0.1400 -0.2283 -0.0013
21096W        W25496   8.135   1.700   4.597  0.1204  0.2968  0.0244
21097W        W25497  11.122   4.906  31.196 -0.2298 -0.1203 -0.2439
21098W        W25498  12.852   2.182  13.640  0.0059  0.1774 -0.1617
21099W        W25499  16.934   4.922   2.062 -0.1483  0.0418  0.4589
21100W        W25500  19.220   4.115  12.887  0.0553 -0.0351  0.2157
21101W        W25501   0.749   5.402  16.344  0.0166 -0.1156 -0.0368
21102W        W25502  19.591   3.829   7.920  0.0294  0.2767  0.0085
21103W        W25503  13.023   4.964  30.224  0.0872 -0.1070  0.3132
21104W        W25504  14.928   4.988  34.425  0.0055  0.0752 -0.0569
21105W        W25505  12.991   2.189   6.671 -0.2906  0.1760 -0.1441
21106W        W25506  19.318   4.002  35.462 -0.1768  0.0042  0.1853
21107W        W25507  13.421   1.676  42.358 -0.1337 -0.1800 -0.1224
21108W        W25508  13.579   1.603  42.828 -0.0097 -0.2357 -0.0113
21109W        W25509   9.065   1.213  27.747  0.0285  0.2951 -0.1140
21110W        W25510  20.140   4.354  35.603  0.0899  0.2478 -0.3104
21111W        W25511   9.575   2.824  31.416  0.1944 -0.2668  0.1020
21112W        W25512   3.495   4.438  41.837 -0.1689  0.0698  0.0388
21113W        W25513   4.915   0.619  13.627 -0.0008  0.2711 -0.1838
21114W        W25514  16.327   6.494   8.024 -0.3366  0.1723  0.1927
21115W        W25515  15.272   1.220  39.793  0.0574  0.1256  0.0567
21116W        W25516   9.712   3.794  29.305 -0.0135  0.1702  0.0251
21117W        W25517   2.553   4.782  10.790  0.0420  0.0770  0.0236
21118W        W25518  10.905   1.989  16.333  0.1869  0.2605 -0.1194
21119W        W25519  12.617   3.795  29.711 -0.1034 -0.5317  0.1984
21120W        W25520  15.031   3.712   8.987 -0.0018  0.2318 -0.2275
21121W        W25521  18.649   1.952  11.499 -0.0131  0.2924 -0.1234
21122W        W25522   4.072   6.471   4.624 -0.1035 -0.2503 -0.0953
21123W        W25523  16.459   2.589  43.110  0.2431  0.1447  0.0111
21124W        W25524   1.114   5.344  37.375  0.0110  0.2319 -0.1755
21125W        W25525   8.826   2.830  34.442 -0.2894  0.1389 -0.0239
21126W        W25526   5.073   3.440   4.627  0.1358  0.2215  0.2894
21127W        W25527   8.392   6.371  13.619  0.0440  0.0447  0.0688
21128W        W25528   3.873   0.319  41.569  0.1871 -0.2855 -0.0684
21129W        W25529  18.932   1.774  38.709  0.1065  0.0666  0.0202
21130W        W25530   2.749   4.865  40.031 -0.0541 -0.2472  0.1173
21131W        W25531   6.781   1.781  32.299  0.0192 -0.1125 -0.1869
21132W        W25532   5.282   5.710  33.034  0.2838 -0.0269  0.0859
21133W        W25533  19.817   6.008  29.843 -0.0399  0.0518  0.2771
21134W        W25534   4.252   5.404   2.164 -0.3431  0.0971  0.0998
21135W        W25535   2.844   6.417  25.042 -0.3931 -0.1209  0.0637
21136W        W25536   9.803   5.883   8.619  0.0405  0.0019 -0.0734
21137W        W25537   1.132   3.500  42.126 -0.0303 -0.1160  0.1234
21138W        W25538  20.992   6.332  44.989  0.1189 -0.1883 -0.2051
21139W        W25539   9.732   2.661  37.508  0.0450 -0.0535 -0.2242
21140W        W25540  13.956   2.686  37.819  0.0714  0.2951  0.0311
21141W        W25541   4.718   2.037   1.187  0.2854 -0.3359 -0.2564
21142W        W25542  17.868   3.179   8.787  0.0066  0.1178  0.1358
21143W        W25543  18.006   5.315  31.006 -0.4645  0.0646 -0.0365
21144W        W25544   6.631   5.462   9.055 -0.5325 -0.2700  0.0057
21145W        W25545   6.769   4.373  43.647  0.1986 -0.0417  0.0066
21146W        W25546   6.382   6.107  27.397 -0.0699 -0.1287  0.2901
21147W        W25547  15.089   2.962  41.583 -0.2615  0.1419  0.1165
21148W        W25548   4.923   3.657  42.238 -0.0032 -0.2300 -0.1832
21149W        W25549  13.467   2.202  22.984  0.1901 -0.2545  0.1380
21150W        W25550   0.063   2.825   9.699 -0.2855 -0.2029 -0.2125
21151W        W25551  18.831   4.350   6.087  0.0489 -0.3436 -0.1211
21152W        W25552  17.806   6.012  33.867 -0.1436  0.2169  0.3337
21153W        W25553   2.757   1.064  27.881  0.1374  0.0934 -0.0699
21154W        W25554   8.541   5.650   6.561  0.0538  0.0498 -0.0365
21155W        W25555  12.430   1.396   2.580  0.0658  0.1806 -0.1371
21156W        W25556   0.257   5.093  13.471 -0.2222  0.1433 -0.2824
21157W        W25557   8.450   2.329   6.044 -0.1604 -0.1934 -0.0242
21158W        W25558   8.442   0.336   9.778 -0.0718  0.2644 -0.2052
21159W        W25559  16.968   6.556  44.163  0.1058 -0.0849 -0.1243
21160W        W25560   0.446   6.397  15.498  0.0719  0.0848  0.1146
21161W        W25561   8.481   0.270  15.035 -0.1635  0.3107  0.0455
21162W        W25562  17.577   0.752  31.229 -0.1327 -0.1519  0.0808
21163W        W25563   7.305   0.350  42.053 -0.4785 -0.0853 -0.2449
21164W        W25564  19.938   6.568   0.518  0.1652 -0.2207  0.1348
21165W        W25565   0.425   0.253  41.282 -0.0930 -0.1982  0.3336
21166W        W25566   7.307   0.491  25.012  0.0771 -0.1315 -0.0853
21167W        W25567  17.114   6.067  16.692  0.0209  0.0517 -0.0900
21168W        W25568   5.152   4.578  28.830 -0.2132  0.0261  0.0619
21169W        W25569   8.189   0.845  41.463  0.0886  0.0654  0.0207
21170W        W25570   2.895   1.354   8.242  0.2756 -0.1779  0.0360
21171W        W25571  17.631   1.917  30.623  0.3794  0.0168 -0.4236
21172W        W25572   9.588   0.156   0.161  0.0580  0.2552 -0.0965
21173W        W25573  18.307   4.584  33.075 -0.0250  0.0094 -0.0025
21174W        W25574  17.528   5.310  14.061 -0.1425  0.1459 -0.1482
21175W        W25575   3.381   4.285  26.017 -0.3314  0.0831 -0.3615
21176W        W25576   1.588   3.988  40.538  0.1000 -0.1790  0.1606
21177W        W25577  14.862   2.483  17.817  0.1327 -0.0532 -0.1952
21178W        W25578   3.067   1.746   7.860 -0.0575  0.1275 -0.2036
21179W        W25579   4.159   2.558  38.469  0.0212  0.1067 -0.0826
21180W        W25580  11.060   3.456  35.805  0.0760  0.3257 -0.1019
21181W        W25581   0.055   6.096  38.722  0.0535 -0.2231  0.2076
21182W        W25582   4.522   0.391   8.638 -0.0458 -0.1207 -0.2655
21183W        W25583   0.940   0.649  43.900  0.0390 -0.2358 -0.0869
21184W        W25584  11.478   2.497  11.438  0.0157  0.0935 -0.0788
21185W        W25585   9.233   4.889  33.419  0.0685 -0.1627  0.0222
21186W        W25586  14.134   1.523  17.441 -0.2689 -0.1438 -0.0168
21187W        W25587   9.313   4.455  11.522 -0.1240  0.2974  0.3660
21188W        W25588  17.037   3.515  11.681  0.2666  0.0111 -0.0310
21189W        W25589  14.629   5.396  17.862 -0.0861  0.0034  0.0442
21190W        W25590  19.939   2.688  38.967 -0.0183  0.0973  0.0219
21191W        W25591  17.181   5.278  42.949  0.0627  0.0963 -0.0666
21192W        W25592  18.974   5.442  40.035  0.1601  0.0969 -0.4161
21193W        W25593   1.156   3.975  44.073  0.1527 -0.4948  0.2186
21194W        W25594  17.070   0.215  40.275 -0.2041  0.2827  0.2974
21195W        W25595   2.934   1.917  24.598 -0.1894 -0.0958  0.0311
21196W        W25596  19.834   2.156  42.911  0.0589  0.2120 -0.0223
21197W        W25597  20.972   0.220  44.863  0.1674  0.4576 -0.0154
21198W        W25598   3.621   5.311  32.812  0.0859  0.1284  0.0201
21199W        W25599  13.477   2.181  43.532  0.1383 -0.0115  0.0485
21200W        W25600  14.709   1.203  36.799  0.0035 -0.1614  0.0907
21201W        W25601   4.252   4.696  40.660  0.2703  0.2641  0.1707
21202W        W25602   9.970   2.244  17.203  0.0887 -0.0716  0.3516
21203W        W25603  18.566   1.147  42.893  0.0729  0.0204  0.3414
21204W        W25604  18.652   0.126  13.140 -0.4389  0.1779 -0.0387
21205W        W25605  17.712   3.126  36.566  0.1493 -0.1030  0.0567
21206W        W25606   2.420   6.230  41.987 -0.2735  0.0025  0.0617
21207W        W25607   3.533   5.207  37.934 -0.4696 -0.1329  0.3064
21208W        W25608   1.092   1.930   8.210 -0.1554 -0.3567 -0.0240
21209W        W25609   8.168   1.911  29.159 -0.1544 -0.2567 -0.0016
21210W        W25610  13.591   4.931   4.091 -0.0249  0.1076  0.5188
21211W        W25611  14.746   5.535  38.878  0.3544  0.0025  0.0135
21212W        W25612  17.314   5.256  15.745 -0.0098 -0.3300  0.2311
21213W        W25613  11.715   6.013  41.062 -0.1117 -0.0144 -0.4691
21214W        W25614   2.228   3.961  34.759 -0.0525 -0.2772  0.1605
21215W        W25615  14.084   4.721  10.969 -0.0059  0.2214  0.0038
21216W        W25616   0.726   4.058  42.825  0.0394  0.1889 -0.0064
21217W        W25617  20.415   3.232   7.830 -0.2188 -0.3183 -0.0906
21218W        W25618   1.781   6.158  26.139 -0.0388 -0.1691 -0.0427
21219W        W25619   6.738   1.036  11.761  0.2630  0.0700 -0.1321
21220W        W25620  13.187   4.000   0.990 -0.3606 -0.1689 -0.0025
21221W        W25621   5.851   3.424   2.669 -0.0977  0.2178 -0.2298
21222W        W25622  15.675   5.644  30.789 -0.1133  0.0560  0.2902
21223W        W25623  10.697   3.099  39.155 -0.1096  0.1502 -0.0997
21224W        W25624   5.508   4.437  42.209 -0.1492  0.0384  0.0566
21225W        W25625   7.860   2.472   6.814 -0.0788 -0.0712  0.2289
21226W        W25626   8.420   5.866  37.536 -0.0540  0.0861  0.0947
21227W        W25627  16.618   0.477  38.506  0.3102  0.0802 -0.0958
21228W        W25628  15.595   5.023   5.221 -0.0784  0.3880 -0.1612
21229W        W25629   9.956   1.254  20.411 -0.0653 -0.0509 -0.2360
21230W        W25630  16.511   6.326  37.923  0.3339  0.1377  0.4153
21231W        W25631   9.283   4.512  17.634  0.1311  0.0709 -0.0174
21232W        W25632  16.126   2.865  11.126 -0.0790  0.2859 -0.1037
21233W        W25633  19.145   2.554   2.261 -0.0975 -0.0325 -0.0437
21234W        W25634  17.075   4.695  18.863  0.2307 -0.0023  0.1976
21235W        W25635  10.491   3.964  30.456  0.0537  0.3294 -0.2210
21236W        W25636   4.976   3.674  27.086 -0.0703  0.0853 -0.1439
21237W        W25637   8.777   3.643   5.569  0.2305  0.1538  0.0227
21238W        W25638   8.551   0.482  34.639  0.5246  0.2153 -0.0129
21239W        W25639  19.897   6.223   2.332  0.1110  0.1219  0.0803
21240W        W25640  14.427   5.847  13.693 -0.2293  0.0080  0.0916
21241W        W25641   0.876   0.050  24.262 -0.1658  0.3990  0.0386
21242W        W25642   5.345   2.257  36.256 -0.1640  0.1477  0.1746
21243W        W25643   1.909   3.673  15.169 -0.2833  0.0434 -0.0546
21244W        W25644  16.684   6.390  33.755 -0.0254 -0.0254 -0.3064
21245W        W25645  19.438   2.104   7.420 -0.2536  0.2368 -0.0298
21246W        W25646   7.731   2.602  12.277  0.1837 -0.1455  0.0379
21247W        W25647   5.844   0.632  40.956  0.3633 -0.0138  0.2379
21248W        W25648   3.966   6.334  23.548  0.0788  0.1350 -0.1216
21249W        W25649  15.066   5.362  33.016 -0.0135 -0.0114 -0.0321
21250W        W25650  19.068   1.585  18.004  0.0048 -0.1082  0.2319
21251W        W25651   4.493   0.879  39.594  0.0641  0.2240  0.0390
21252W        W25652  17.981   3.197  41.350  0.0412  0.0284 -0.3017
21253W        W25653  20.763   3.245   0.642 -0.3825  0.1721  0.0223
21254W        W25654  20.391   0.386   6.110 -0.2809 -0.2975  0.1448
21255W        W25655   8.228   5.091  12.274  0.5970 -0.1765  0.0114
21256W        W25656  14.458   3.548   2.102 -0.1101  0.1344 -0.1951
21257W        W25657   1.012   6.434  30.344 -0.0383  0.1777  0.2207
21258W        W25658   8.291   5.518  31.253  0.0912  0.0097  0.2822
21259W        W25659   2.335   3.001  41.250  0.0366 -0.1599  0.2322
21260W        W25660  15.096   3.005  31.933 -0.0553 -0.2099  0.2867
21261W        W25661   8.183   4.069  37.350  0.0344 -0.0199 -0.0881
21262W        W25662  15.289   2.110  14.959 -0.4277 -0.0080 -0.0528
21263W        W25663  19.201   6.286   0.187  0.1126  0.1368  0.1323
21264W        W25664  17.795   1.629  17.371 -0.1574  0.2768 -0.0956
21265W        W25665   0.745   5.408   5.590 -0.0548  0.2183 -0.1830
21266W        W25666   4.055   3.872  38.443 -0.0986  0.3190  0.0281
21267W        W25667   2.175   0.334  39.384  0.3455  0.1586 -0.1441
21268W        W25668  19.332   0.914  41.424  0.0426  0.1957 -0.0145
21269W        W25669  16.735   5.789  20.979 -0.2417 -0.2178  0.0303
21270W        W25670   6.001   2.973   7.832 -0.1477  0.0359 -0.0561
21271W        W25671   5.228   0.728   4.309  0.1039 -0.2887  0.1854
21272W        W25672  12.158   5.417  12.789  0.1293 -0.0817 -0.0783
21273W        W25673   9.760   3.618  17.775 -0.4002 -0.0743 -0.2311
21274W        W25674  15.919   5.125  17.949  0.2493 -0.2593 -0.1168
21275W        W25675   3.826   4.992  32.152  0.4235  0.0920 -0.3391
21276W        W25676  16.035   4.920  12.952 -0.0499  0.2261 -0.0482
21277W        W25677  12.197   2.134   9.756 -0.2331 -0.0515  0.4204
21278W        W25678  15.480   5.993  15.746 -0.1020  0.0964 -0.1131
21279W        W25679  15.468   3.994   1.538 -0.0990  0.1652  0.0429
21280W        W25680  14.055   5.368  36.683 -0.1557 -0.1853 -0.0498
21281W        W25681  19.454   4.902  26.500 -0.2930 -0.2425 -0.2547
21282W        W25682   5.338   6.520  27.963 -0.1299 -0.6596  0.0638
21283W        W25683   8.038   3.587   3.691 -0.4034 -0.3624  0.1870
21284W        W25684   3.818   2.696   5.884 -0.1811  0.0849 -0.0319
21285W        W25685   5.782   5.765   6.724 -0.0527 -0.1975  0.0879
21286W        W25686  18.078   1.864  30.934 -0.2036  0.1755  0.1290
21287W        W25687  11.632   0.890  40.194 -0.0014  0.2103  0.0841
21288W        W25688  12.350   6.238   2.919  0.0047 -0.1222  0.1073
21289W        W25689  18.333   6.595  11.268  0.2235  0.0231  0.0311
21290W        W25690  15.123   5.643   0.160  0.0694 -0.0890 -0.1371
21291W        W25691  14.984   3.118  36.391 -0.0790  0.2164 -0.1105
21292W        W25692  14.560   0.893  25.140  0.0462 -0.0286 -0.1705
21293W        W25693  15.830   5.290   3.605  0.0939  0.0170  0.1860
21294W        W25694  12.132   4.096  20.153  0.2538  0.2068 -0.1665
21295W        W25695   3.807   0.232  42.096 -0.3190  0.1266 -0.0966
21296W        W25696  12.932   4.444  37.248 -0.1772  0.0636  0.0733
21297W        W25697  18.406   3.509   6.236 -0.1330 -0.2389 -0.0563
21298W        W25698   6.123   1.226  14.431 -0.0952  0.3226  0.1187
21299W        W25699  12.426   4.901  17.043 -0.0192  0.1724  0.1557
21300W        W25700  17.489   0.655  37.461  0.2362 -0.1955 -0.3929
21301W        W25701   6.696   3.944  28.873 -0.0154  0.0423  0.4258
21302W        W25702   9.008   4.621  15.482 -0.2502 -0.1438 -0.0045
21303W        W25703  15.655   1.572   9.902  0.1372  0.0847 -0.2929
21304W        W25704   5.096   5.224  33.058  0.2420 -0.1423  0.1416
21305W        W25705  10.957   3.913   9.937 -0.2517  0.0955 -0.1769
21306W        W25706   6.806   4.750   0.595  0.1064  0.1190 -0.1368
21307W        W25707  10.795   3.915  43.484 -0.0195 -0.3115 -0.1736
21308W        W25708   7.385   6.310   5.961  0.0931 -0.1819  0.1409
21309W        W25709  16.625   4.045   0.986 -0.1553 -0.0020 -0.0168
21310W        W25710  13.700   2.385  14.463  0.1193  0.0131  0.0500
21311W        W25711  14.996   0.429  33.499 -0.1867  0.0194 -0.0553
21312W        W25712   3.210   4.986  41.323  0.0359  0.0005  0.0501
21313W        W25713  10.981   0.164  44.484  0.1377  0.1843 -0.0263
21314W        W25714  13.597   6.372  22.903 -0.2060 -0.2143  0.0072
21315W        W25715   2.864   2.696   9.955  0.0268  0.0619  0.3445
21316W        W25716   6.889   2.416   6.001  0.1743 -0.2836  0.0535
21317W        W25717  19.172   0.125  44.151  0.0730 -0.2220 -0.0854
21318W        W25718  10.840   2.905  32.637 -0.0863 -0.0959 -0.0564
21319W        W25719   1.830   4.947   9.377  0.1227 -0.0243  0.0945
21320W        W25720  11.887   6.532  19.035 -0.3795 -0.0107 -0.2127
21321W        W25721   0.025   6.302  24.502 -0.0846  0.3239 -0.4120
21322W        W25722  14.298   6.383  38.496  0.0347 -0.0162 -0.0892
21323W        W25723  18.118   1.126  37.130 -0.0339 -0.0049 -0.0175
21324W        W25724   9.926   1.466  12.625  0.0875  0.0826  0.0367
21325W        W25725  11.223   3.513  16.092  0.2858  0.0422 -0.4040
21326W        W25726   5.471   5.304  33.982 -0.1134  0.1148 -0.1967
21327W        W25727   1.140   0.899   9.710  0.0048 -0.0526  0.0131
21328W        W25728  13.410   6.421  32.932 -0.3578  0.1936  0.1037
21329W        W25729   3.184   3.024  38.730 -0.1037 -0.0766  0.2023
21330W        W25730   4.485   5.560   9.460  0.1552  0.0860 -0.2743
21331W        W25731   2.703   1.653   1.712  0.1113 -0.1665 -0.1992
21332W        W25732   7.739   5.305   9.870 -0.1524  0.1823 -0.0267
21333W        W25733  20.775   2.441  31.345  0.4494 -0.0289  0.1118
21334W        W25734   8.687   4.446  42.846  0.1845  0.1376  0.4390
21335W        W25735  11.990   4.379  39.541  0.0899  0.1750  0.0057
21336W        W25736  16.366   5.588  20.730 -0.2827 -0.0894  0.0668
21337W        W25737   2.824   3.004   9.036  0.2536  0.1503 -0.1500
21338W        W25738  13.009   5.911  30.458  0.0636  0.0599  0.2845
21339W        W25739  16.635   4.800  30.774 -0.3047 -0.1019  0.0352
21340W        W25740  19.789   5.394   9.987  0.1645  0.2717 -0.4853
21341W        W25741  10.808   4.304  32.251 -0.1324 -0.0600  0.1343
21342W        W25742   2.984   4.727  28.096 -0.1588  0.1113 -0.1673
21343W        W25743  19.924   1.546  38.944 -0.0766 -0.2611  0.2775
21344W        W25744  12.341   0.757  37.789  0.1334 -0.2080 -0.2672
21345W        W25745   0.825   0.673   5.981  0.3302 -0.2855  0.0736
21346W        W25746   0.495   3.222   1.405 -0.1197 -0.0669 -0.1292
21347W        W25747  20.709   0.327  39.748  0.0123 -0.0281 -0.4186
21348W        W25748  11.099   2.004  38.468 -0.0676 -0.0665  0.3754
21349W        W25749   4.161   0.405  32.502  0.3998  0.1743  0.0754
21350W        W25750  18.246   5.815  32.467  0.1508  0.0244 -0.2774
21351W        W25751  16.755   6.454  31.313  0.1018  0.1697 -0.0244
21352W        W25752  13.775   1.298   0.488 -0.0706  0.0421 -0.1283
21353W        W25753   0.010   0.377  14.133 -0.0047  0.3500  0.0391
21354W        W25754  11.777   5.590  15.310  0.4006  0.2085 -0.2122
21355W        W25755   8.121   6.273  16.842 -0.0136  0.2205 -0.3410
21356W        W25756  11.337   0.870   3.275 -0.0099  0.1656 -0.0826
21357W        W25757  18.322   0.940  36.757  0.1201 -0.1506  0.2809
21358W        W25758   1.365   4.766   3.473  0.0998  0.1000 -0.2047
21359W        W25759  16.705   4.253  43.525  0.1380 -0.4188  0.3074
21360W        W25760  16.065   4.288  22.119 -0.0148  0.0643  0.0310
21361W        W25761  18.549   2.043   6.889 -0.1832  0.0647 -0.0901
21362W        W25762  13.541   5.585  39.324  0.0029 -0.2743 -0.0712
21363W        W25763   1.602   2.842  13.120  0.2393 -0.0060 -0.4436
21364W        W25764  10.487   2.570  16.296 -0.0854 -0.3152  0.0330
21365W        W25765  13.866   2.334   9.975 -0.2406  0.0945  0.1658
21366W        W25766   3.492   3.408  11.272 -0.1013 -0.0013  0.3936
21367W        W25767  14.263   0.745  25.586  0.1341  0.0605  0.0408
21368W        W25768  10.718   5.076   1.528 -0.1716 -0.1845 -0.3657
21369W        W25769  14.561   5.383  29.945  0.0205 -0.2312  0.0078
21370W        W25770  18.148   2.244  43.187  0.2781  0.0845 -0.1647
21371W        W25771   7.766   2.815   2.719  0.2186 -0.1952 -0.3120
21372W        W25772  10.663   0.737  35.301 -0.0426 -0.0090  0.1401
21373W        W25773   5.903   3.333   4.423  0.1380 -0.2180 -0.1585
21374W        W25774   4.833   4.577  13.370  0.0063  0.1226 -0.0701
21375W        W25775   0.988   3.949  29.448  0.0103 -0.1269 -0.2655
21376W        W25776   0.421   4.529  14.353  0.2600 -0.1531  0.3799
21377W        W25777  10.859   3.146  29.864  0.1611 -0.0130 -0.2514
21378W        W25778  16.285   1.769   0.281  0.0862 -0.2885 -0.2780
21379W        W25779  17.042   2.289  40.222 -0.0676 -0.1091  0.0481
21380W        W25780   1.596   4.890  43.415  0.0322  0.1817 -0.1990
21381W        W25781   7.530   3.796  11.356  0.2299  0.1013 -0.2716
21382W        W25782  12.076   6.587  19.570  0.1076  0.2198  0.1718
21383W        W25783  13.364   5.121  40.251  0.1557  0.0920  0.0180
21384W        W25784  13.666   6.412  17.854  0.0092  0.2532 -0.5526
21385W        W25785  15.056   5.185   8.879  0.2864  0.0075  0.2179
21386W        W25786   5.947   0.170  31.336 -0.2076 -0.2387  0.0692
21387W        W25787  20.004   3.899   3.382 -0.0981 -0.3520 -0.0127
21388W        W25788   4.309   5.469  28.304  0.2416  0.1890 -0.3047
21389W        W25789  11.340   3.593  36.731 -0.0267 -0.1127 -0.1659
21390W        W25790   7.595   2.290   8.493 -0.3050 -0.0253 -0.1920
21391W        W25791   2.563   4.027  42.082  0.2576 -0.2255 -0.1237
21392W        W25792   6.124   0.830  15.149  0.2687  0.4174  0.1933
21393W        W25793  15.436   0.236   9.868  0.0436  0.0939  0.0288
21394W        W25794  18.915   3.143  29.256  0.0147 -0.1789  0.0157
21395W        W25795  13.442   5.198  17.101  0.3592  0.1264 -0.1031
21396W        W25796   6.359   4.488  38.965 -0.1930  0.3626  0.0077
21397W        W25797  15.052   3.507   3.343  0.2702  0.2928 -0.0937
21398W        W25798   3.995   5.963  35.021  0.0206 -0.0912  0.1877
21399W        W25799   5.771   3.763   8.802  0.1414 -0.1513 -0.1457
21400W        W25800   3.866   5.834   7.794 -0.0644 -0.0633  0.0733
21401W        W25801   1.227   2.953  12.268  0.1568 -0.1947  0.0575
21402W        W25802   6.574   1.847   5.328 -0.0463 -0.0496 -0.0038
21403W        W25803  14.987   1.546  21.138 -0.1260 -0.0026  0.1898
21404W        W25804  19.144   1.636   8.050  0.1549  0.0008 -0.1644
21405W        W25805  18.061   3.421  17.358 -0.0845  0.0338  0.1000
21406W        W25806   6.386   4.948  38.746  0.2643  0.3588 -0.1396
21407W        W25807   1.267   1.742  42.070 -0.2292 -0.0507  0.0348
21408W        W25808   5.655   2.690  15.376 -0.0469 -0.1335 -0.0494
21409W        W25809  13.380   3.866  36.467  0.1468 -0.2388 -0.4500
21410W        W25810   0.890   2.060   7.607  0.2520  0.1281  0.4103
21411W        W25811   6.349   3.442  43.339 -0.0830  0.2322 -0.0285
21412W        W25812  18.866   5.989   4.076 -0.0640  0.1237  0.0009
21413W        W25813   7.765   0.978  11.521  0.1029 -0.0187  0.0162
21414W        W25814  20.803   5.463  40.862  0.2131 -0.1765  0.0049
21415W        W25815   2.010   0.240  28.086 -0.0395 -0.3542 -0.3452
21416W        W25816  13.291   3.185  45.155 -0.1200 -0.1452 -0.2627
21417W        W25817   0.434   5.742  28.261  0.1085  0.0617  0.0841
21418W        W25818   2.331   0.470  36.141 -0.0151 -0.2000  0.0634
21419W        W25819   5.050   2.782  22.295  0.4143 -0.3085 -0.3337
21420W        W25820   5.056   4.530   2.595  0.0028  0.5235  0.1663
21421W        W25821   9.940   3.256  38.232 -0.3967  0.1529  0.1974
21422W        W25822  15.651   5.242  16.912 -0.1393 -0.2425  0.0372
21423W        W25823   0.730   2.634   3.028  0.0519 -0.0961  0.0648
21424W        W25824  12.155   2.155  30.434  0.0227 -0.0337 -0.1039
21425W        W25825  13.541   3.389  14.303  0.2131 -0.0348 -0.0950
21426W        W25826  20.017   2.934   9.446 -0.0403 -0.3388  0.1653
21427W        W25827  20.126   5.117  12.730 -0.1642 -0.1011  0.0169
21428W        W25828  14.321   3.019  29.988  0.2586  0.2491  0.1781
21429W        W25829  16.664   5.561  34.062  0.2030  0.2057 -0.1513
21430W        W25830   3.543   5.733  34.015  0.3965 -0.0079 -0.0522
21431W        W25831  15.595   4.961   0.257  0.0263 -0.0411 -0.1682
21432W        W25832  17.525   4.427  37.737 -0.0485 -0.0253 -0.0206
21433W        W25833  14.131   2.907   3.997 -0.1397  0.0707 -0.1512
21434W        W25834  14.010   3.837  35.518 -0.2711  0.1125  0.1608
21435W        W25835  16.033   5.340  39.138  0.0088  0.1167 -0.1604
21436W        W25836   7.842   3.297  36.529  0.0840  0.0722  0.2424
21437W        W25837  10.883   2.732  15.781 -0.0700 -0.0811 -0.0015
21438W        W25838  16.913   5.508  14.692 -0.2426  0.1905 -0.0336
21439W        W25839  19.412   3.166  17.603  0.0636 -0.1276 -0.0935
21440W        W25840   4.641   6.596  34.095  0.0293  0.4276 -0.0187
21441W        W25841  12.424   0.164  44.793  0.5543  0.2760  0.0289
21442W        W25842   4.524   3.040  24.812  0.1923  0.0978  0.1298
21443W        W25843  15.323   1.489   4.876  0.0594 -0.0788  0.0754
21444W        W25844  17.515   1.030  35.391 -0.1063 -0.1265  0.1553
21445W        W25845  12.226   1.410  10.993 -0.0125 -0.0562  0.2686
21446W        W25846   3.699   6.578  27.428 -0.0336 -0.4376 -0.2000
21447W        W25847   2.938   0.715  34.197 -0.0115 -0.2044 -0.1649
21448W        W25848   0.857   0.631  39.577 -0.0015  0.2249  0.1484
21449W        W25849   1.963   5.736  43.331  0.0173 -0.0469 -0.0142
21450W        W25850  11.387   0.518  16.294 -0.0764  0.0162  0.2687
21451W        W25851   9.084   2.938  17.210 -0.0767 -0.3371 -0.0580
21452W        W25852  13.476   2.199  16.172  0.1062  0.1491  0.3794
21453W        W25853  13.021   5.220   3.395 -0.1579  0.0869  0.1747
21454W        W25854  15.665   5.471  13.624 -0.0837 -0.1664  0.1563
21455W        W25855   4.642   1.958  24.152  0.1225 -0.2470 -0.1058
21456W        W25856  15.296   1.223   7.681 -0.1366 -0.3851  0.1358
21457W        W25857   3.417   1.561   7.533  0.1386  0.0631 -0.0036
21458W        W25858   5.944   3.839  27.823 -0.3487  0.1382 -0.1082
21459W        W25859   3.319   3.486   5.896  0.3275 -0.0187 -0.1613
21460W        W25860  17.148   5.928  10.651 -0.2784  0.0550 -0.1553
21461W        W25861  10.349   5.417   0.256 -0.1798 -0.0671  0.0578
21462W        W25862  13.752   2.024   9.143  0.1445  0.1680 -0.1147
21463W        W25863   5.130   0.485  31.410  0.0065 -0.1388 -0.0838
21464W        W25864   6.071   1.735   9.908  0.2297  0.0846 -0.1439
21465W        W25865   1.378   6.260  24.894  0.2374  0.1201 -0.2410
21466W        W25866   6.980   2.294  44.722 -0.3840 -0.1617 -0.3282
21467W        W25867  18.470   2.287  18.314  0.1082  0.1174  0.1265
21468W        W25868  13.259   5.981  12.547  0.0244  0.0374 -0.2154
21469W        W25869   2.557   2.130  36.625 -0.2206 -0.0904  0.1589
21470W        W25870  19.223   1.123  12.328 -0.1492 -0.1323  0.0856
21471W        W25871   3.437   6.502   2.105  0.1586  0.0847  0.0708
21472W        W25872  20.037   2.181  12.699 -0.4299 -0.3150 -0.1424
21473W        W25873   6.712   2.357   1.818  0.1998  0.4840 -0.1404
21474W        W25874  14.729   0.287  11.696 -0.0272 -0.0732  0.1892
21475W        W25875  21.022   3.821   3.584 -0.0911  0.0152 -0.1302
21476W        W25876  17.834   1.540  11.305 -0.1081 -0.0603 -0.1546
21477W        W25877  11.505   3.126  16.329 -0.3611  0.1160 -0.1070
21478W        W25878   5.304   5.166  10.416  0.1617  0.0821  0.0594
21479W        W25879  19.639   0.468   3.831  0.1203  0.0472  0.0538
21480W        W25880  16.096   4.847  10.284 -0.2195  0.3016  0.0806
21481W        W25881  18.556   3.188  19.187 -0.0030  0.0066 -0.0347
21482W        W25882   0.820   2.275  14.928  0.1339  0.0076  0.2089
21483W        W25883  18.499   2.905  10.643  0.0549 -0.2947 -0.0875
21484W        W25884  19.592   0.878  28.592 -0.3235  0.4719  0.1168
21485W        W25885   7.664   1.235  29.517 -0.0216 -0.0593  0.1056
21486W        W25886  14.027   2.100  12.387  0.1182 -0.0415  0.0399
21487W        W25887  12.859   2.692  12.705  0.2829 -0.0094  0.2102
21488W        W25888   4.957   3.679  34.896  0.0813  0.0255  0.1711
21489W        W25889   2.087   5.582  39.622 -0.3941  0.2358 -0.2002
21490W        W25890   5.101   3.495  41.624  0.1177  0.2348  0.0216
21491W        W25891  20.756   5.523  42.997  0.3096  0.0541 -0.1931
21492W        W25892   1.958   4.190  39.373  0.0277 -0.0069 -0.1775
21493W        W25893  20.175   2.560  35.303  0.0820 -0.1362 -0.1116
21494W        W25894   9.859   5.421   4.175  0.1435 -0.0436  0.0419
21495W        W25895   2.393   1.593   7.397 -0.2802 -0.0746 -0.1434
21496W        W25896   6.506   2.727  34.794  0.1340 -0.2589  0.2015
21497W        W25897   6.187   6.436  26.420  0.1562  0.1484  0.2490
21498W        W25898   3.630   1.042   7.461 -0.1353  0.0368 -0.2365
21499W        W25899  19.044   5.668  10.571 -0.1377 -0.2966 -0.2994
21500W        W25900   9.502   3.398  29.627 -0.2951  0.0531  0.0880
21501W        W25901  11.647   1.431  30.966  0.0370 -0.2484  0.0968
21502W        W25902   9.029   4.077  36.116 -0.1000  0.2460  0.0677
21503W        W25903  16.654   3.571  44.091 -0.0867 -0.0594 -0.1499
21504W        W25904   0.886   4.302   7.381 -0.1898 -0.1278  0.0190
21505W        W25905  15.399   3.824  12.669  0.0874  0.0556  0.1545
21506W        W25906  19.114   2.720  14.478 -0.0640 -0.0542  0.3109
21507W        W25907  12.432   1.357  10.412  0.2941 -0.0507 -0.2772
21508W        W25908  13.603   4.015   2.249 -0.1514 -0.1753  0.1313
21509W        W25909  16.150   4.124  39.349 -0.0680  0.0967  0.1204
21510W        W25910  18.076   2.055   1.766  0.0296 -0.0457 -0.2847
21511W        W25911   2.202   5.019  27.000  0.0454 -0.1508 -0.1144
21512W        W25912   8.757   0.542   5.030  0.1312 -0.2055  0.0043
21513W        W25913  14.707   4.751  36.134  0.1564 -0.2153  0.0899
21514W        W25914  13.407   5.113  22.855  0.0725 -0.2846 -0.1060
21515W        W25915   5.491   5.297   7.806  0.0494  0.0460 -0.0506
21516W        W25916  12.984   0.740  32.219 -0.0776 -0.3309  0.4667
21517W        W25917  21.105   0.160  26.890  0.0795 -0.0835  0.0939
21518W        W25918   5.538   0.313  40.642 -0.2106 -0.0439 -0.1013
21519W        W25919  14.098   1.921  18.203  0.1023 -0.0875 -0.0020
21520W        W25920  12.368   1.742  17.879 -0.0283 -0.0694 -0.0697
21521W        W25921  13.653   5.935  39.709  0.1682 -0.1266  0.2085
21522W        W25922  19.657   0.773  29.066 -0.1671 -0.1743 -0.1783
21523W        W25923  13.531   0.826  33.168 -0.1175 -0.0202  0.2030
21524W        W25924   8.044   0.468  39.297  0.2659 -0.1028  0.0781
21525W        W25925   7.640   3.024  44.876 -0.2124  0.1272 -0.2330
21526W        W25926   0.778   1.320   8.827  0.1800 -0.1849 -0.0925
21527W        W25927   1.523   1.953   3.814  0.0646  0.2349  0.0604
21528W        W25928  18.328   5.848  13.763 -0.2292 -0.1104  0.0175
21529W        W25929  20.567   2.399   2.704 -0.1942  0.1431 -0.3019
21530W        W25930   3.744   0.493  22.707  0.0254  0.0885  0.0108
21531W        W25931  11.441   0.566  14.117 -0.1675  0.0088  0.4699
21532W        W25932   5.270   1.813   2.074  0.3772 -0.0784  0.4049
21533W        W25933   3.339   2.356  32.506  0.3627 -0.0090  0.2366
21534W        W25934   0.862   2.937   0.071  0.2269 -0.2737  0.2083
21535W        W25935  17.735   5.989  37.271  0.1607 -0.2757  0.1245
21536W        W25936   7.310   5.808  26.795 -0.1113 -0.2313  0.1739
21537W        W25937   6.134   1.806  31.390 -0.2457 -0.0672 -0.1201
21538W        W25938  14.449   2.807  13.472 -0.1867  0.0622 -0.0083
21539W        W25939   5.469   4.309   6.570 -0.1743 -0.3371  0.0907
21540W        W25940  16.735   1.312   7.801 -0.0658  0.2019 -0.2883
21541W        W25941   4.595   2.300  31.101 -0.1465 -0.0734 -0.0009
21542W        W25942   1.131   5.776  16.460 -0.2165  0.2119 -0.2641
21543W        W25943   0.048   0.704  31.877 -0.1312  0.0896  0.0971
21544W        W25944   1.230   3.186  35.039 -0.0098  0.3116  0.0779
21545W        W25945  12.047   5.644  44.375  0.0794 -0.1269  0.0526
21546W        W25946  16.748   4.246  32.900 -0.0307  0.0708 -0.0826
21547W        W25947  18.563   4.910   1.352  0.0566  0.2213 -0.0810
21548W        W25948  10.415   5.257  29.294 -0.1624  0.0295 -0.0340
21549W        W25949   9.113   0.393  28.767  0.0846 -0.0059  0.3459
21550W        W25950   2.948   5.596   8.856  0.1341 -0.3122  0.0542
21551W        W25951  14.711   3.448   2.947  0.1405  0.0282 -0.0638
21552W        W25952  15.306   5.301   0.508 -0.0016 -0.0592  0.1282
21553W        W25953  16.087   2.372   4.291  0.0614 -0.2532  0.1689
21554W        W25954   6.946   2.185  44.252 -0.1619  0.0682 -0.2092
21555W        W25955  19.351   5.300  10.254 -0.0081 -0.1265  0.0242
21556W        W25956  14.753   5.898   6.385 -0.0806  0.1745  0.2131
21557W        W25957  10.932   0.900  13.131  0.2503 -0.2167  0.0296
21558W        W25958  16.737   2.701  14.321 -0.1661  0.0566 -0.0306
21559W        W25959   5.807   4.657  11.133 -0.0666  0.1070  0.1840
21560W        W25960  11.586   3.814  30.148 -0.0404  0.0341  0.1905
21561W        W25961   4.853   1.901  30.930  0.1930  0.1298  0.1835
21562W        W25962   6.296   4.440  10.969 -0.0657 -0.2340  0.1123
21563W        W25963  16.812   2.243  15.846  0.2195 -0.0915 -0.1283
21564W        W25964  12.563   2.956  43.757 -0.3699  0.0911 -0.0102
21565W        W25965  11.547   1.880   3.817  0.1027  0.0716  0.0679
21566W        W25966  18.108   1.783  30.401  0.3696 -0.0581  0.0234
21567W        W25967  11.621   2.223  37.511 -0.0673 -0.3669 -0.0583
21568W        W25968  19.834   2.541  29.268  0.1316 -0.1380  0.2255
21569W        W25969   7.378   5.076   9.611  0.0547  0.3814  0.2199
21570W        W25970  16.872   3.493  29.974  0.1005 -0.4945 -0.2659
21571W        W25971  12.652   2.294  12.523 -0.1193  0.0724 -0.3297
21572W        W25972  14.151   4.653  23.675  0.0599 -0.0024 -0.1244
21573W        W25973  17.109   2.416   6.591 -0.1931 -0.2735 -0.0024
21574W        W25974   0.043   2.122   3.425 -0.1178 -0.0132  0.1338
21575W        W25975   8.812   3.681  28.040  0.0514  0.2196  0.4011
21576W        W25976  17.422   6.529  19.318  0.2113  0.0300  0.2378
21577W        W25977  20.555   5.232  44.169 -0.2273  0.0084  0.1102
21578W        W25978  14.968   3.400  19.745 -0.0091  0.1099 -0.0212
21579W        W25979  11.384   0.384  44.737  0.2646 -0.2023  0.1240
21580W        W25980  13.213   6.156   1.091  0.2687  0.2772 -0.1755
21581W        W25981   3.443   1.122  36.225  0.1473  0.1443 -0.2066
21582W        W25982  15.609   5.993   5.502 -0.2371 -0.0281 -0.0993
21583W        W25983  11.139   5.263  20.003 -0.0618 -0.3035 -0.3050
21584W        W25984   1.328   2.879   4.246 -0.0616  0.0483 -0.1899
21585W        W25985   4.200   2.578  35.389  0.0839 -0.1035  0.3184
21586W        W25986   9.151   2.954  40.984  0.0308  0.3015 -0.1558
21587W        W25987  17.350   4.827  14.834  0.2242 -0.3578 -0.0329
21588W        W25988   1.079   4.953  13.139 -0.0315  0.1113  0.0258
21589W        W25989  14.870   1.102   2.046  0.0546  0.2114 -0.0354
21590W        W25990   3.087   3.567   2.432 -0.1912 -0.0781  0.2061
21591W        W25991   2.200   4.257   4.207  0.1911 -0.1614 -0.1427
21592W        W25992   0.396   5.454  10.109  0.0418  0.2293 -0.0537
21593W        W25993   1.308   5.631  16.029  0.1825 -0.1601 -0.0730
21594W        W25994  11.633   5.401  29.360 -0.0426  0.1044 -0.1890
21595W        W25995   5.024   5.472  33.888  0.1114  0.1783  0.0619
21596W        W25996  18.648   3.611  31.427  0.0840  0.0472  0.0058
21597W        W25997   4.332   4.049  29.371 -0.2886 -0.0272 -0.0278
21598W        W25998   4.952   0.236  14.481 -0.2312 -0.1699 -0.0710
21599W        W25999  10.957   4.096   7.904 -0.1638 -0.0730 -0.0190
21600W        W26000   4.894   0.596  21.461 -0.1448 -0.0349  0.0711
21601W        W26001  11.715   5.367  16.764 -0.1818  0.3257  0.2517
21602W        W26002  13.713   5.369  35.352 -0.4128  0.1327  0.2069
21603W        W26003   2.593   5.213   8.790  0.1792  0.0380  0.0312
21604W        W26004   6.421   0.430   2.853 -0.1792  0.1796 -0.4082
21605W        W26005   6.083   0.962   9.899 -0.1628 -0.0904  0.5204
21606W        W26006  11.294   5.170  17.812 -0.2411  0.0931  0.1798
21607W        W26007  18.926   2.582  33.214  0.3169 -0.1645  0.1634
21608W        W26008  15.859   2.036  12.918  0.1503  0.1327 -0.0423
21609W        W26009  10.736   5.798  40.967  0.2892 -0.2894 -0.3805
21610W        W26010  12.087   5.296  42.572 -0.4108 -0.0159  0.1656
21611W        W26011  11.355   3.406  39.629  0.1724 -0.0190  0.2674
21612W        W26012  15.454   0.663   8.368 -0.0250  0.1437 -0.0109
21613W        W26013   0.957   2.815  39.084  0.0831 -0.0538  0.1277
21614W        W26014  14.401   0.172  23.864 -0.0844  0.0527  0.0499
21615W        W26015   4.220   1.739   9.634 -0.2168 -0.2518  0.1487
21616W        W26016   3.877   1.740  12.057  0.2319 -0.0985 -0.2083
21617W        W26017  15.986   0.749   8.371  0.0565 -0.2205 -0.0739
21618W        W26018   3.292   4.447  26.495  0.0045  0.0650 -0.1936
21619W        W26019   4.973   5.000  13.643  0.2230 -0.0976 -0.2944
21620W        W26020  17.594   3.434  35.065  0.4691 -0.2075 -0.1146
21621W        W26021  14.451   0.658   5.183  0.1469 -0.0593 -0.3266
21622W        W26022  18.850   5.026  33.524 -0.1815 -0.3097  0.4770
21623W        W26023   7.482   4.350  31.739 -0.1434  0.1203 -0.2375
21624W        W26024  16.649   0.993   3.997  0.1394  0.2839 -0.3525
21625W        W26025   2.624   4.487  12.526  0.1937  0.4615 -0.2235
21626W        W26026  15.789   0.253  37.650  0.0106 -0.1517  0.4111
21627W        W26027  16.769   1.894  38.560  0.0601  0.1431  0.0278
21628W        W26028  16.115   5.862  23.719  0.0808  0.0158  0.1508
21629W        W26029  20.644   4.430  28.455 -0.0374  0.0779 -0.2027
21630W        W26030  19.518   3.973   3.995  0.2324 -0.0149  0.2408
21631W        W26031  13.836   4.997  15.345  0.0656  0.1238  0.1138
21632W        W26032   2.377   1.070  29.262  0.0391  0.2886 -0.0890
21633W        W26033   1.730   3.926  32.589 -0.1945  0.3095 -0.3415
21634W        W26034  19.916   3.845   8.870  0.1703  0.1713 -0.1558
21635W        W26035   1.016   6.534  33.871  0.0060 -0.0093  0.0583
21636W        W26036   4.113   1.418  25.850  0.0121 -0.2941  0.0596
21637W        W26037   8.869   0.527  29.534  0.3160  0.0582  0.0191
21638W        W26038  14.509   6.399  37.140 -0.2689 -0.0214  0.0464
21639W        W26039  14.444   5.213   7.144  0.2380  0.2241  0.3047
21640W        W26040   3.225   4.975   6.025  0.1402  0.3508  0.1170
21641W        W26041  18.012   0.880   8.184 -0.3213 -0.0793 -0.0313
21642W        W26042  13.670   2.621  43.708  0.1131 -0.1565 -0.0920
21643W        W26043   2.923   1.231  28.518 -0.2386 -0.0235  0.0231
21644W        W26044   8.989   6.254   5.444  0.3631 -0.1762  0.4907
21645W        W26045  19.695   1.103   1.992  0.1028  0.0013  0.0356
21646W        W26046   4.925   3.509  13.166 -0.0556  0.0735 -0.2187
21647W        W26047   4.684   3.682  10.684  0.1800 -0.2002  0.0624
21648W        W26048  16.491   2.340  14.025  0.0216  0.1532  0.1646
21649W        W26049   7.909   3.062  14.720 -0.2365 -0.3500  0.2539
21650W        W26050   8.594   0.545  17.926 -0.1111  0.0907 -0.0541
21651W        W26051  16.289   3.301   2.650 -0.0296  0.0562  0.1524
21652W        W26052   1.353   3.202  10.079  0.1484  0.1773 -0.2649
21653W        W26053   2.875   4.190   5.926 -0.0186  0.4667  0.0130
21654W        W26054  12.498   6.278  14.553 -0.0983  0.1708 -0.1248
21655W        W26055   0.150   0.157  39.945 -0.1043 -0.1330  0.2154
21656W        W26056   5.029   6.412  26.874 -0.2031 -0.0051  0.0918
21657W        W26057   8.664   1.483   2.465 -0.1407  0.0303  0.1228
21658W        W26058  18.145   0.225  36.470  0.1679 -0.2444  0.0708
21659W        W26059  18.906   5.450  39.081  0.0018 -0.0095  0.1508
21660W        W26060  12.866   4.785   3.035  0.1985 -0.0802 -0.0815
21661W        W26061   2.195   1.170  45.126 -0.1724  0.1934  0.0867
21662W        W26062   5.395   4.605   0.095 -0.2557  0.1090  0.0814
21663W        W26063  17.398   3.186  37.430  0.1183 -0.0692 -0.2668
21664W        W26064  16.454   2.360  40.379 -0.4789  0.0118 -0.2085
21665W        W26065   4.457   5.114  36.480 -0.2670  0.1013 -0.0290
21666W        W26066   0.866   5.226  39.160  0.0953  0.1908 -0.2578
21667W        W26067   1.852   6.426  30.294  0.0873  0.2314 -0.2145
21668W        W26068   3.690   2.651  39.569  0.0361 -0.0379 -0.0438
21669W        W26069  16.207   3.738  33.264  0.0679  0.1890 -0.1232
21670W        W26070   3.145   0.479   8.066 -0.0236 -0.0953  0.0757
21671W        W26071  16.581   2.386  10.872 -0.3394  0.1622  0.1276
21672W        W26072   8.792   6.520  15.668  0.0678  0.2362 -0.0045
21673W        W26073  20.883   3.490  33.150  0.0038  0.0875 -0.1159
21674W        W26074  19.094   1.025   8.672  0.1156  0.0702  0.1723
21675W        W26075  17.607   4.961  19.147 -0.0148 -0.0671 -0.0646
21676W        W26076   0.062   3.086  44.329  0.0754 -0.1566  0.2825
21677W        W26077  19.965   1.040  34.539  0.0971 -0.1881 -0.2216
21678W        W26078   3.459   3.163   2.205 -0.1062  0.0282 -0.3271
21679W        W26079   6.564   0.799  15.901  0.0598 -0.3837 -0.2346
21680W        W26080  10.434   3.167   7.209 -0.0608  0.0087 -0.0927
21681W        W26081  15.609   0.259  39.649  0.1104 -0.2701 -0.0184
21682W        W26082  10.730   3.990  33.812 -0.2400  0.3109  0.1139
21683W        W26083   9.541   4.434  40.483 -0.2478  0.1293  0.0027
21684W        W26084   7.580   6.309  23.595 -0.2345 -0.2872 -0.2271
21685W        W26085   6.199   3.809  44.725  0.1416  0.1429  0.1555
21686W        W26086  15.817   3.146  15.803 -0.3478  0.1673 -0.3808
21687W        W26087  15.830   4.234   4.142  0.1236 -0.1570  0.2426
21688W        W26088   2.669   5.472   8.365  0.0073 -0.2977  0.3002
21689W        W26089   0.091   6.121  44.626  0.0799 -0.0119  0.0447
21690W        W26090  14.114   6.552  37.912 -0.1948  0.1510 -0.2267
21691W        W26091   4.761   5.112  27.006  0.3371 -0.1538  0.0490
21692W        W26092   3.866   1.541  12.546 -0.1410 -0.2300  0.1671
21693W        W26093  18.223   0.802  11.721 -0.0927  0.0795  0.0522
21694W        W26094   1.464   6.339  27.586  0.1726 -0.2414  0.5275
21695W        W26095  20.414   3.612  32.735 -0.3087 -0.0995 -0.2306
21696W        W26096  20.889   5.984   9.549 -0.2000  0.1345 -0.2213
21697W        W26097  18.254   3.128   5.304  0.1234  0.3468  0.1952
21698W        W26098   0.676   4.639  10.520  0.1535 -0.1452 -0.0764
21699W        W26099   4.308   5.996  23.905 -0.0760  0.0760  0.4654
21700W        W26100   2.822   6.516  13.324  0.2148  0.0392 -0.0492
21701W        W26101   2.112   1.058  34.100 -0.0894  0.1172 -0.0031
21702W        W26102   4.123   1.567   8.621  0.1934 -0.2491  0.0488
21703W        W26103   3.066   2.571  18.828 -0.0104  0.1733  0.1053
21704W        W26104   9.043   3.000  28.056  0.0107 -0.4095  0.0187
21705W        W26105  14.600   3.175  17.212  0.0769 -0.0488 -0.1265
21706W        W26106   7.039   3.750  29.153 -0.0952 -0.0475 -0.1503
21707W        W26107   4.926   4.279  29.463 -0.1089  0.1941  0.0996
21708W        W26108  18.373   1.362  34.995 -0.2117 -0.1791  0.2015
21709W        W26109   9.207   2.600  35.240  0.1008  0.0374 -0.1565
21710W        W26110  10.719   1.668  11.356 -0.1300  0.0289  0.0574
21711W        W26111  17.429   5.752  31.717 -0.3878 -0.0542  0.0846
21712W        W26112  11.591   2.050   0.651  0.1056  0.1174 -0.1690
21713W        W26113   1.097   5.226   6.456 -0.0247 -0.0554  0.0588
21714W        W26114  13.396   4.521  14.462  0.1938 -0.1471 -0.3442
21715W        W26115  10.409   1.155   0.725  0.1387 -0.2210 -0.1777
21716W        W26116   1.154   6.475  13.937 -0.1551 -0.0113  0.0611
21717W        W26117   2.127   1.388  35.140  0.0632  0.2114  0.0907
21718W        W26118   0.929   0.023  32.411  0.2448 -0.4835 -0.5751
21719W        W26119   7.700   4.543  34.450 -0.1275 -0.0092 -0.1584
21720W        W26120   4.044   3.015  11.665  0.2011  0.3480 -0.0067
21721W        W26121  16.583   2.977  32.622 -0.0092 -0.0708  0.5542
21722W        W26122  15.316   2.312  33.610  0.1687  0.2223  0.0831
21723W        W26123  19.672   3.318  16.731 -0.0664  0.1553 -0.0855
21724W        W26124  11.140   0.375  36.698  0.2762 -0.4226 -0.1958
21725W        W26125   0.445   0.281  39.528  0.1116  0.2333 -0.0545
21726W        W26126   7.800   6.293   7.464  0.2098  0.0027  0.1545
21727W        W26127  11.462   2.682   1.393 -0.1567 -0.0574 -0.0570
21728W        W26128  18.821   5.595   9.633  0.0837 -0.0202  0.2160
21729W        W26129   9.583   4.275   3.996 -0.0901 -0.2931 -0.2541
21730W        W26130   1.913   5.469  24.370 -0.0752  0.0525 -0.3249
21731W        W26131  13.981   1.940  36.923  0.0677 -0.3741  0.1285
21732W        W26132  16.108   3.772   4.858  0.2424  0.1773  0.0244
21733W        W26133  15.117   3.687   9.567 -0.0922 -0.1348  0.1160
21734W        W26134  16.038   5.438   1.982  0.0662 -0.2713  0.3190
21735W        W26135  19.874   5.608  18.026  0.1921 -0.1917 -0.1252
21736W        W26136  12.207   1.351   5.353 -0.1884 -0.0104 -0.0749
21737W        W26137   4.007   3.687  41.909 -0.1658 -0.0807  0.3543
21738W        W26138  19.923   5.033   4.303 -0.1399  0.1919 -0.0716
21739W        W26139   5.148   5.626   4.751  0.0919  0.2098 -0.0371
21740W        W26140   8.256   2.619  28.670 -0.4422  0.3511 -0.1417
21741W        W26141  18.661   5.451  16.257 -0.0014 -0.0318 -0.0516
21742W        W26142  17.742   2.894  12.187  0.4079  0.0396 -0.1620
21743W        W26143   0.081   2.050  43.406 -0.2237 -0.0466  0.1789
21744W        W26144   7.470   5.662  26.337 -0.1973  0.2967 -0.2123
21745W        W26145  14.114   2.416  29.322  0.1225  0.0342  0.1431
21746W        W26146   0.124   1.565  44.854 -0.3457 -0.1998  0.2017
21747W        W26147  15.311   4.015  28.855  0.0278 -0.1845 -0.3116
21748W        W26148  18.629   0.467  10.978 -0.4686  0.2935  0.2362
21749W        W26149  17.282   1.086  32.013  0.1364  0.2456 -0.0905
21750W        W26150   1.127   1.958   1.891  0.0377 -0.2848 -0.1170
21751W        W26151  10.512   5.652   5.358  0.1263 -0.1281 -0.0540
21752W        W26152  13.596   0.771   0.618 -0.0840  0.0874 -0.0705
21753W        W26153  11.751   5.886  21.115 -0.2487  0.3004  0.1114
21754W        W26154   2.248   1.525  29.457 -0.2326  0.0425  0.0362
21755W        W26155   7.066   1.994  10.088 -0.1244 -0.0109  0.0181
21756W        W26156   8.334   0.827   1.874  0.0145  0.2642  0.1738
21757W        W26157   5.851   0.560  41.840  0.3827  0.3664  0.3033
21758W        W26158  18.269   2.817  37.622 -0.0560 -0.0510 -0.0280
21759W        W26159  13.318   2.363  35.839  0.1044 -0.0271 -0.0529
21760W        W26160  15.571   3.353  37.942 -0.1405  0.2566  0.3199
21761W        W26161   3.605   3.532   2.479  0.0127  0.1886  0.1395
21762W        W26162  15.064   1.267   3.387  0.1727  0.1927  0.2508
21763W        W26163   8.256   1.296  10.875 -0.0282 -0.1195  0.2679
21764W        W26164  17.636   2.912  36.143  0.0246  0.0246 -0.3378
21765W        W26165  10.814   6.536  18.809  0.1023 -0.1821  0.1227
21766W        W26166  10.638   2.482  28.300 -0.1256  0.2787  0.3625
21767W        W26167  11.920   6.141   1.884  0.2452 -0.2668 -0.1732
21768W        W26168   2.605   5.334  29.216 -0.1783 -0.0984  0.0898
21769W        W26169   2.432   2.422  41.001 -0.1234 -0.1832 -0.5182
21770W        W26170   9.951   0.596  13.629 -0.0112 -0.0071  0.0767
21771W        W26171   3.356   5.947   4.598 -0.1138  0.1165  0.0615
21772W        W26172   4.433   4.251  33.858 -0.0485  0.1800 -0.0322
21773W        W26173  17.600   6.499  14.112 -0.1366 -0.1758  0.0164
21774W        W26174   7.107   5.381   5.383 -0.2942 -0.0769 -0.0217
21775W        W26175   4.209   0.791  20.468 -0.0664  0.2562 -0.0079
21776W        W26176   3.441   2.684  11.055  0.1026 -0.0175  0.0300
21777W        W26177  17.216   1.578   7.724  0.0853  0.0575  0.0578
21778W        W26178  17.288   4.399  10.516  0.0576 -0.0805  0.1316
21779W        W26179  19.494   2.005  12.651 -0.1286  0.0768 -0.1356
21780W        W26180  15.073   5.464  14.946 -0.2129 -0.1864  0.3386
21781W        W26181  10.278   5.211  36.578 -0.2981 -0.0209  0.0477
21782W        W26182   5.061   1.981   8.337 -0.0107  0.0408 -0.1374
21783W        W26183  14.722   5.161  31.610  0.2440 -0.1342 -0.0775
21784W        W26184  21.142   4.398  10.105  0.2522 -0.0425  0.3523
21785W        W26185  12.272   0.448  30.914 -0.2149  0.1249 -0.1470
21786W        W26186  12.799   0.972   5.850  0.0869  0.0662 -0.0748
21787W        W26187   8.840   6.087  32.487 -0.0697 -0.0655 -0.2256
21788W        W26188  14.365   2.022   8.481  0.1428  0.1612  0.2875
21789W        W26189  10.308   5.081  35.265  0.0051 -0.1810  0.0816
21790W        W26190  15.100   0.421  19.201  0.1479  0.0573  0.1788
21791W        W26191  20.899   1.033  34.630 -0.0935 -0.1816  0.3098
21792W        W26192  18.993   4.021   7.349  0.3653 -0.0695  0.0519
21793W        W26193   5.051   5.302  37.954 -0.1056  0.3337 -0.0800
21794W        W26194   6.936   6.519  12.521 -0.4117  0.1916 -0.1840
21795W        W26195   8.996   6.377   0.768 -0.0425 -0.0095 -0.1832
21796W        W26196  18.222   4.239  33.423  0.1729 -0.1283 -0.2074
21797W        W26197   6.859   3.356   6.766  0.0258  0.0509  0.0479
21798W        W26198  14.579   4.713  37.947 -0.0881  0.0884 -0.0032
21799W        W26199  13.586   0.291  14.499  0.0949 -0.3133  0.1474
21800W        W26200  20.288   4.562   5.574  0.3326  0.0742  0.1100
21801W        W26201  20.854   1.905  34.192  0.1220  0.2288  0.2181
21802W        W26202   6.581   0.907   5.634  0.1133  0.0364  0.2897
21803W        W26203   1.794   0.295  32.423  0.2198  0.2814 -0.1712
21804W        W26204  18.647   6.400   8.296 -0.1865 -0.5874  0.1690
21805W        W26205   4.035   0.860  24.800 -0.0789  0.1152 -0.0345
21806W        W26206   7.796   6.367  44.529 -0.1241 -0.4486  0.1798
21807W        W26207  12.633   1.973   7.041 -0.0435 -0.3616 -0.1800
21808W        W26208   0.331   2.241  33.270  0.0533 -0.1092 -0.1100
21809W        W26209   1.158   2.421   4.477 -0.1612  0.2420  0.1765
21810W        W26210   5.658   1.384  30.251  0.3261 -0.0724 -0.1562
21811W        W26211   0.453   6.430  12.379  0.1453  0.3334 -0.3025
21812W        W26212  18.656   1.120   5.417  0.3099  0.0719 -0.4045
21813W        W26213  11.207   1.331   3.109 -0.1975  0.1798  0.4898
21814W        W26214   9.651   3.492  44.110  0.0876 -0.2509  0.0363
21815W        W26215  20.820   0.754  34.258 -0.0804 -0.1668  0.0412
21816W        W26216  12.719   6.185   9.888  0.0519  0.2962  0.2177
21817W        W26217   1.378   3.815  29.045 -0.0308 -0.0102 -0.1914
21818W        W26218   8.609   3.265  38.750 -0.0884  0.0284 -0.0689
21819W        W26219  20.363   0.271  27.192 -0.1498  0.2869  0.0821
21820W        W26220  14.675   4.363   8.729 -0.1526 -0.0890 -0.0018
21821W        W26221   7.057   4.052  39.911 -0.3492  0.1791  0.0090
21822W        W26222   9.465   4.136  35.601 -0.0808  0.1920 -0.1758
21823W        W26223   8.063   5.977  11.219 -0.0448  0.0298  0.0020
21824W        W26224   8.414   1.691  38.682  0.0553 -0.0957  0.0783
21825W        W26225  15.035   4.168  11.754 -0.2308  0.1501  0.1037
21826W        W26226   3.993   4.562  44.148 -0.1686 -0.3157  0.0766
21827W        W26227   8.614   5.473  35.133 -0.1130 -0.1599  0.1515
21828W        W26228  14.346   6.081  18.924 -0.3338 -0.2019 -0.1319
21829W        W26229  20.656   5.061   8.247  0.1362 -0.2374 -0.1402
21830W        W26230   3.283   3.768  31.865  0.3561 -0.1418  0.1803
21831W        W26231   4.465   1.873   4.486  0.2189  0.2732  0.2293
21832W        W26232  14.422   5.287  18.819 -0.1178  0.0497  0.2477
21833W        W26233  19.126   0.134  29.665  0.1086  0.0040 -0.0955
21834W        W26234  20.427   0.377  12.609 -0.3205  0.2209  0.3257
21835W        W26235   1.012   1.866  11.447 -0.1047  0.2252 -0.0369
21836W        W26236  16.422   4.875  41.945  0.3349 -0.1013  0.1872
21837W        W26237   8.431   2.947   3.903  0.1231 -0.2497 -0.0591
21838W        W26238  20.813   0.766  39.557  0.0501 -0.0092  0.0592
21839W        W26239   0.907   0.194  33.370 -0.1362  0.1151  0.1759
21840W        W26240  17.186   1.530  12.074  0.0112 -0.0932  0.0934
21841W        W26241   5.602   1.760   2.677  0.1134  0.0406 -0.2929
21842W        W26242  19.503   1.974  27.646 -0.0517 -0.0183 -0.2018
21843W        W26243   5.706   5.272  39.818 -0.0475  0.0777 -0.1530
21844W        W26244   3.496   1.885  40.579  0.1493  0.1938 -0.1738
21845W        W26245  14.515   1.402  43.478 -0.2425  0.1403  0.3808
21846W        W26246  12.043   4.291   5.454 -0.3736  0.0286  0.0170
21847W        W26247  10.250   2.843  35.740  0.0741  0.1389 -0.0516
21848W        W26248  14.695   5.026  11.984  0.0726  0.1401 -0.2058
21849W        W26249  12.205   3.005  31.004 -0.1284 -0.2340  0.1381
21850W        W26250   4.213   4.833  42.546  0.1327 -0.0911 -0.0137
21851W        W26251   8.525   1.256  41.333 -0.1856  0.0620 -0.0906
21852W        W26252  14.193   6.541  34.777 -0.0465 -0.1652 -0.1000
21853W        W26253   8.376   2.504   7.730  0.2186 -0.2284  0.1728
21854W        W26254  12.806   3.907  32.341 -0.3577 -0.1591  0.1303
21855W        W26255   1.519   5.844  37.211 -0.0209 -0.1833  0.1130
21856W        W26256   7.137   1.733  27.042  0.0888  0.0700 -0.0447
21857W        W26257  17.941   0.452  31.078  0.1509  0.0507  0.0662
21858W        W26258  14.940   2.299  30.398 -0.2395  0.0662 -0.1113
21859W        W26259   6.105   1.127  41.306 -0.0553 -0.1766  0.0355
21860W        W26260   4.015   6.118  41.585 -0.3696 -0.4137 -0.1281
21861W        W26261   2.540   1.438  27.223  0.0970 -0.0965  0.2426
21862W        W26262  12.268   4.491   3.569  0.1128 -0.0603  0.3139
21863W        W26263  20.261   5.075  34.622  0.2391  0.1017 -0.0023
21864W        W26264  16.845   1.437  18.752  0.0747  0.0579 -0.2512
21865W        W26265   3.638   5.124  39.963 -0.1970  0.2534  0.2469
21866W        W26266  16.708   0.698  11.759  0.0797  0.0606 -0.0439
21867W        W26267  19.479   0.764   4.872  0.0276  0.1826  0.1308
21868W        W26268   2.751   5.835  24.461  0.0864 -0.5289 -0.0535
21869W        W26269   0.451   1.199   1.036 -0.0446  0.2676  0.1454
21870W        W26270  15.356   2.853  17.028  0.1519  0.1085  0.0330
21871W        W26271   9.733   4.780  18.296 -0.0623 -0.1365 -0.0073
21872W        W26272  20.662   6.455  43.299 -0.2032  0.1536  0.1360
21873W        W26273   3.158   4.589  43.321 -0.1344  0.0380  0.0525
21874W        W26274   4.928   4.233  32.943  0.0996  0.0251 -0.2984
21875W        W26275   3.257   1.433  42.891  0.1255  0.1878  0.0883
21876W        W26276  13.544   0.308  19.234  0.0716 -0.0354 -0.3251
21877W        W26277  15.647   2.911  42.269 -0.2719 -0.1164 -0.0699
21878W        W26278  13.576   5.874  36.405  0.3058 -0.1528 -0.0816
21879W        W26279  13.193   2.181  21.663  0.1004 -0.1789  0.1043
21880W        W26280  10.843   1.339  37.350  0.1564  0.1371 -0.0151
21881W        W26281   6.024   5.512   2.622 -0.2870  0.1400 -0.0087
21882W        W26282  14.920   0.733   2.456 -0.1372 -0.0903  0.0835
21883W        W26283  21.037   1.593  38.540  0.1944  0.2695  0.2864
21884W        W26284  13.993   5.197  14.744 -0.1893  0.3322  0.1620
21885W        W26285   0.962   6.502   9.306 -0.0741  0.1616 -0.1581
21886W        W26286  10.164   1.697  13.093 -0.1807  0.1626 -0.0723
21887W        W26287   4.368   4.604  29.490 -0.1504 -0.0702 -0.3835
21888W        W26288   9.627   4.282  32.686  0.0647  0.1370  0.1917
21889W        W26289   8.945   3.919  34.400 -0.2294 -0.2653 -0.1690
21890W        W26290   3.278   4.360  27.692 -0.0993 -0.2417  0.0618
21891W        W26291  16.705   2.928  12.716  0.0440  0.3533 -0.1558
21892W        W26292   1.803   1.487  15.227  0.0218 -0.2442  0.0079
21893W        W26293   7.536   1.491  37.967  0.0803  0.3352 -0.1865
21894W        W26294   0.325   6.264   3.112 -0.1733  0.1577 -0.1450
21895W        W26295  10.317   4.001  32.355  0.0871  0.2164 -0.1304
21896W        W26296  14.502   3.235  43.253  0.1416 -0.1046 -0.0479
21897W        W26297  10.452   5.989  40.565  0.2198 -0.2662  0.0627
21898W        W26298  16.197   1.973  13.793  0.2473  0.0283 -0.1221
21899W        W26299   3.324   2.950  41.828 -0.0261  0.0565 -0.3013
21900W        W26300   0.911   1.626  27.735  0.0628  0.0218  0.2686
21901W        W26301  18.066   2.744  10.784  0.0976 -0.2182 -0.3065
21902W        W26302  11.437   3.678  30.601 -0.2976 -0.0775 -0.2940
21903W        W26303  20.053   2.111  11.126 -0.1956  0.0114 -0.0337
21904W        W26304   7.931   1.898  12.701 -0.2073  0.1400 -0.0751
21905W        W26305   1.348   0.427   5.931  0.3381  0.3761  0.0270
21906W        W26306  18.216   5.637  44.726 -0.1151 -0.0685 -0.0742
21907W        W26307  17.723   3.567  18.887 -0.2041  0.3391  0.1021
21908W        W26308   7.987   6.588  32.517 -0.1317 -0.0654 -0.0394
21909W        W26309   5.803   2.045  36.413  0.1170  0.3696  0.2954
21910W        W26310  13.407   6.451   6.792  0.1997 -0.3210 -0.1255
21911W        W26311   2.689   4.933   6.935 -0.0700  0.0607  0.0286
21912W        W26312  14.026   3.284  12.721  0.0244  0.1123 -0.2287
21913W        W26313  17.655   5.403  10.189 -0.0567  0.0397  0.0574
21914W        W26314  13.998   0.666   1.900  0.0029 -0.1433 -0.2281
21915W        W26315   5.320   1.645  42.941  0.3165 -0.3626 -0.0927
21916W        W26316   1.167   2.573  13.277 -0.0049 -0.0382  0.1966
21917W        W26317  16.147   4.644  20.894  0.6167 -0.0925 -0.1000
21918W        W26318  13.755   6.280  24.219  0.0741 -0.0264 -0.0298
21919W        W26319  10.023   3.974  13.659  0.1393  0.1909 -0.2107
21920W        W26320  17.406   3.361  18.323 -0.0043 -0.2777 -0.0956
21921W        W26321  13.361   2.415  29.331  0.0493 -0.0626  0.2635
21922W        W26322  11.629   1.882  20.320 -0.0924  0.0133  0.2518
21923W        W26323   6.061   0.252  36.923  0.0485 -0.1137  0.1729
21924W        W26324   2.954   5.118  40.402 -0.0457 -0.2045  0.2065
21925W        W26325   3.452   5.125  26.665 -0.0527 -0.0922  0.2879
21926W        W26326  13.589   6.112  43.797 -0.0860  0.0898  0.0082
21927W        W26327   6.505   0.666   1.488 -0.2266  0.0346  0.2031
21928W        W26328  20.644   4.116  14.406  0.1080  0.2101 -0.1068
21929W        W26329   1.581   3.284  21.589 -0.1781  0.0047  0.0998
21930W        W26330   2.207   2.662  32.142 -0.2490  0.2573 -0.3159
21931W        W26331  10.888   0.997  11.843 -0.1996 -0.1938  0.1200
21932W        W26332  16.887   0.798  35.046 -0.1634  0.0818  0.1488
21933W        W26333  12.268   2.771   6.000 -0.0728  0.1058  0.4061
21934W        W26334  20.378   4.787   6.385 -0.0862  0.2162  0.3322
21935W        W26335   2.482   5.956  44.696  0.1639  0.2305 -0.1227
21936W        W26336  11.119   4.913  18.206 -0.1988 -0.0770  0.0057
21937W        W26337   8.815   3.974   1.779 -0.0321 -0.1789  0.2932
21938W        W26338  11.884   5.884  10.115  0.0467 -0.0865 -0.1433
21939W        W26339  13.393   0.338  13.034 -0.0614  0.0126 -0.0151
21940W        W26340   5.174   5.686  36.289  0.0218 -0.3315 -0.0366
21941W        W26341  20.202   0.696  18.630 -0.1888 -0.0847  0.1761
21942W        W26342  12.001   4.075   4.990 -0.0360  0.0709 -0.2458
21943W        W26343   7.750   3.702   6.337 -0.0078 -0.2248 -0.1075
21944W        W26344   2.616   3.993  33.382  0.1213  0.0698  0.2607
21945W        W26345   9.802   4.870   2.666 -0.0114  0.1786 -0.3370
21946W        W26346  15.360   6.384  30.146  0.1123  0.1341  0.3385
21947W        W26347  10.113   5.005  14.821  0.0487 -0.1090 -0.1304
21948W        W26348   8.615   0.410  43.243 -0.0102  0.1249  0.2278
21949W        W26349  20.784   3.081   2.448  0.0643 -0.1301  0.3563
21950W        W26350  19.099   4.562  18.263  0.0311  0.2153  0.2156
21951W        W26351   3.398   6.258   5.879 -0.1128 -0.4560 -0.0343
21952W        W26352  16.729   6.276  42.103  0.4099  0.2541 -0.0540
21953W        W26353  10.943   3.620   8.033 -0.2664  0.2753 -0.0550
21954W        W26354   8.410   0.757   9.331  0.2278 -0.1392 -0.1535
21955W        W26355   5.827   4.227  37.426 -0.0725 -0.1038  0.1361
21956W        W26356  13.500   1.931   3.067 -0.1869  0.1619  0.0637
21957W        W26357   6.750   6.036  33.383  0.1210 -0.0687 -0.0327
21958W        W26358  17.936   5.167  11.901 -0.4541  0.0142  0.0938
21959W        W26359   1.219   0.462  24.428  0.0251 -0.0846 -0.3818
21960W        W26360  14.323   1.502  32.927 -0.1779 -0.3018 -0.1692
21961W        W26361   9.310   0.651  40.155 -0.0113  0.4044  0.2345
21962W        W26362   3.447   1.410   6.067  0.3857 -0.0825  0.1073
21963W        W26363  15.185   3.471  42.165 -0.0299 -0.3791 -0.0341
21964W        W26364  18.638   5.249  38.096  0.3124  0.1138  0.1600
21965W        W26365  20.456   0.426  30.314  0.3184  0.0892 -0.0176
21966W        W26366   9.986   1.056   0.517 -0.0353  0.1332  0.0561
21967W        W26367   1.651   0.789   7.131  0.0649  0.0647  0.0800
21968W        W26368  11.155   0.144  18.480  0.1230 -0.1534 -0.3676
21969W        W26369   0.848   3.153  38.748 -0.1743  0.1612  0.1066
21970W        W26370  15.773   6.117  41.604  0.5098 -0.1819 -0.0430
21971W        W26371   2.767   4.016  23.215 -0.1601 -0.2143 -0.0837
21972W        W26372  17.729   4.855  28.629  0.3191  0.3058 -0.1280
21973W        W26373  10.369   0.213  38.221 -0.0383  0.1084 -0.3259
21974W        W26374   6.727   4.399  44.280 -0.2748 -0.0287 -0.1373
21975W        W26375   3.355   3.624   2.011 -0.1268 -0.1590  0.0745
21976W        W26376  19.232   4.451  15.404 -0.2264  0.1387  0.1258
21977W        W26377  14.144   1.983  13.037  0.1537  0.1749  0.0170
21978W        W26378  20.850   0.864  32.389  0.0183 -0.3424  0.1697
21979W        W26379  12.438   2.268  34.255 -0.0707 -0.0661 -0.2000
21980W        W26380  10.451   5.164  30.828 -0.1477 -0.0561 -0.1618
21981W        W26381  18.333   6.040   8.161 -0.3858 -0.0042  0.0786
21982W        W26382  17.363   0.661  17.565 -0.3021  0.1498 -0.1903
21983W        W26383   2.588   0.123  23.320 -0.0158 -0.0448 -0.0786
21984W        W26384  13.762   5.069  33.649  0.0724 -0.0344 -0.2082
21985W        W26385  13.383   0.787   6.135  0.2113 -0.3722 -0.0702
21986W        W26386   4.107   5.823  31.024  0.2194  0.1030 -0.3103
21987W        W26387   7.966   5.184  31.591 -0.1403  0.0953 -0.0923
21988W        W26388  15.272   1.015  22.944  0.1830  0.2018 -0.0147
21989W        W26389   7.117   4.094  29.509 -0.0114  0.0328 -0.0055
21990W        W26390  14.795   0.581  36.831  0.1628 -0.1336 -0.1731
21991W        W26391   7.419   4.255  34.795  0.0235 -0.0929 -0.3037
21992W        W26392   9.199   0.520  11.942 -0.0306 -0.1429 -0.0647
21993W        W26393   1.547   1.649   6.669 -0.0350  0.1325  0.2321
21994W        W26394  20.961   5.076  36.078 -0.0179  0.1288 -0.1154
21995W        W26395  16.744   3.772  14.914  0.1302 -0.1145  0.0656
21996W        W26396  14.322   1.079  10.120  0.0910 -0.0755 -0.2913
21997W        W26397   4.671   3.328  36.052  0.0940 -0.2281 -0.2642
21998W        W26398   0.144   2.981  11.440  0.0298  0.1915 -0.1835
21999W        W26399   8.022   0.452  15.782 -0.0566  0.0892 -0.1205
22000W        W26400  21.151   5.277   2.990  0.0219  0.2092 -0.3251
22001W        W26401   5.204   3.024  15.541  0.3644  0.3827  0.2820
22002W        W26402  16.113   0.107  21.496 -0.0254  0.0270 -0.0422
22003W        W26403  11.975   4.614   4.951  0.0588 -0.1063  0.3140
22004W        W26404   6.894   3.015  37.266  0.2227 -0.0490 -0.5617
22005W        W26405  10.063   1.356  17.439 -0.0401  0.0124 -0.2715
22006W        W26406   7.077   6.156  36.609  0.2631  0.2153  0.2324
22007W        W26407  20.266   5.884  44.584  0.1789 -0.1940  0.0597
22008W        W26408  18.233   0.651  20.053 -0.2464 -0.1186 -0.1086
22009W        W26409   5.173   1.261  12.410 -0.3500 -0.0460 -0.0606
22010W        W26410  12.721   4.936  39.486 -0.1028  0.3392  0.0728
22011W        W26411  12.816   4.027  38.517  0.1578 -0.0355 -0.3155
22012W        W26412   1.086   4.783  33.138  0.0482  0.0727 -0.3742
22013W        W26413  14.208   4.436  41.705 -0.0286 -0.0457 -0.1987
22014W        W26414  13.613   5.825  35.513  0.1790 -0.3079  0.0588
22015W        W26415   4.519   5.947  23.206  0.0734 -0.1953 -0.0343
22016W        W26416   4.059   2.412  42.337 -0.2781 -0.1249 -0.4342
22017W        W26417  10.383   3.987   6.510  0.1534  0.2229  0.1220
22018W        W26418   5.320   4.923   2.734 -0.2803 -0.2081 -0.3470
22019W        W26419   1.525   2.703  42.334 -0.1396  0.0295 -0.2644
22020W        W26420   6.283   4.345  14.233  0.0311  0.2853 -0.0770
22021W        W26421  12.005   2.236  37.012 -0.0693 -0.0917  0.3483
22022W        W26422  15.030   5.194  45.083  0.1243  0.0952  0.2727
22023W        W26423  20.225   2.962  42.860  0.1033  0.2980 -0.1636
22024W        W26424  18.866   3.591  11.643 -0.0851  0.0965  0.1625
22025W        W26425  11.117   0.769  10.196  0.2034 -0.3634 -0.0911
22026W        W26426  18.454   5.868   1.934 -0.1934  0.1555 -0.1281
22027W        W26427  13.265   2.608  22.038  0.4172 -0.2066 -0.1579
22028W        W26428  10.519   3.756   4.274  0.0393  0.1386  0.0114
22029W        W26429  17.365   3.179  29.310 -0.1561  0.1935  0.2479
22030W        W26430   8.055   5.528   1.952  0.0597 -0.1237  0.0846
22031W        W26431  19.736   2.465  15.741 -0.0007 -0.1383  0.0214
22032W        W26432  18.815   6.187  42.874  0.2468 -0.3371 -0.2928
22033W        W26433   6.488   0.033  25.268  0.1588 -0.2294  0.0671
22034W        W26434  15.775   6.121  36.598 -0.0171 -0.2730  0.1425
22035W        W26435  16.357   4.170  11.897 -0.0868 -0.2315 -0.1133
22036W        W26436  11.711   1.833  29.413 -0.0231 -0.1547 -0.3187
22037W        W26437  14.593   0.705  38.175  0.0304  0.1394  0.1848
22038W        W26438   1.613   1.713   0.462 -0.0606  0.3191  0.5206
22039W        W26439   7.592   1.700  10.040 -0.0645 -0.2666 -0.0508
22040W        W26440  18.473   4.344  43.760  0.0393 -0.0651  0.0960
22041W        W26441   7.054   4.385  15.381 -0.0331 -0.0148 -0.0139
22042W        W26442   0.892   0.105  40.520 -0.1132  0.1325 -0.2196
22043W        W26443   3.531   4.810  44.253 -0.0145  0.1828  0.0999
22044W        W26444  14.113   2.918  45.142 -0.1509  0.3039 -0.0535
22045W        W26445   3.989   0.648  31.506 -0.1101  0.0913 -0.2123
22046W        W26446  15.652   1.147  16.604  0.2392  0.2437 -0.1654
22047W        W26447   3.328   2.841  15.636 -0.0194 -0.1289 -0.1509
22048W        W26448   3.965   5.940  20.346 -0.1143  0.0442  0.0161
22049W        W26449  15.654   4.082   2.973 -0.3101 -0.0451  0.0685
22050W        W26450   0.180   1.507  13.595 -0.2495  0.0855 -0.0818
22051W        W26451   5.388   1.550  33.881  0.1193 -0.3396  0.0709
22052W        W26452  17.372   3.537  10.285 -0.1655 -0.3492 -0.2371
22053W        W26453   7.691   0.396  36.446  0.0632 -0.0709  0.2108
22054W        W26454  20.397   2.552   6.634  0.2421 -0.0356 -0.0575
22055W        W26455  19.669   5.508   8.413 -0.1895  0.0522 -0.1076
22056W        W26456   7.447   6.455  37.136  0.0122 -0.0882  0.0732
22057W        W26457  16.681   2.428  34.774 -0.1336 -0.2082 -0.2044
22058W        W26458  13.846   1.218  34.038  0.2670 -0.1105 -0.0236
22059W        W26459   9.170   0.368   8.975  0.2335 -0.0038 -0.0775
22060W        W26460   8.082   5.437  27.102  0.2204 -0.0180 -0.0206
22061W        W26461   8.038   1.400  25.796 -0.0990 -0.3174  0.1354
22062W        W26462  16.293   2.318  36.557 -0.0982 -0.1838  0.1985
22063W        W26463   2.193   6.198  10.612  0.3917  0.1250  0.0360
22064W        W26464   5.004   3.413  26.616 -0.0068  0.1642  0.0283
22065W        W26465  20.493   0.627   9.539 -0.2209 -0.2326  0.2341
22066W        W26466  18.531   3.576  14.094  0.3818  0.1229 -0.1002
22067W        W26467   9.681   2.056  33.172 -0.1252  0.1180  0.2999
22068W        W26468  11.249   2.558   3.546  0.2435  0.1778  0.1157
22069W        W26469   7.348   2.187  45.071  0.0201  0.2821 -0.1540
22070W        W26470  14.607   1.626  11.989  0.3605 -0.0434  0.1322
22071W        W26471   0.855   2.525  36.324  0.3638  0.0473 -0.1655
22072W        W26472   7.335   2.631  33.935 -0.0961  0.2429 -0.1967
22073W        W26473   3.072   2.144  14.462 -0.3535  0.0519  0.0252
22074W        W26474   8.413   1.561  27.220 -0.1777 -0.0823 -0.1586
22075W        W26475  20.389   3.685  34.615  0.1114 -0.1003  0.1044
22076W        W26476   7.707   3.420   4.043 -0.1209 -0.2829 -0.3074
22077W        W26477  14.287   0.914  36.729  0.3313 -0.2877 -0.4217
22078W        W26478  17.244   4.108  39.111  0.0317 -0.1841  0.1063
22079W        W26479   4.374   0.486  25.871  0.0965 -0.0442  0.2548
22080W        W26480  12.614   0.068  21.078  0.0238  0.0694 -0.1254
22081W        W26481  20.398   0.029  41.136  0.1131 -0.0207 -0.0301
22082W        W26482  16.541   1.857  29.343 -0.0408  0.2248  0.1833
22083W        W26483   4.308   5.149   0.688  0.1759  0.1967 -0.0715
22084W        W26484   3.898   5.989  44.847  0.2038 -0.2243  0.0429
22085W        W26485   6.551   5.353  38.984  0.1631  0.0997 -0.1263
22086W        W26486   7.289   6.369   5.419  0.2143  0.1363  0.0344
22087W        W26487  10.172   5.994  10.454  0.0026 -0.0415 -0.4173
22088W        W26488   8.325   4.620  36.337 -0.0070  0.1029  0.4062
22089W        W26489  10.810   2.214   8.221 -0.0811 -0.1348  0.0345
22090W        W26490   5.634   6.370  41.383 -0.0379 -0.0004  0.2225
22091W        W26491  10.336   6.246  37.075 -0.2201  0.0457 -0.2296
22092W        W26492   1.883   4.384  32.624 -0.1246  0.2430  0.2387
22093W        W26493  10.618   0.205  15.951 -0.1985 -0.0257 -0.0011
22094W        W26494   7.745   1.489  11.533  0.1125  0.1503 -0.1579
22095W        W26495   5.696   6.169   3.819  0.0696  0.1459  0.1751
22096W        W26496   6.973   2.407  39.407  0.1216  0.0232 -0.0617
22097W        W26497  14.242   4.489  24.691  0.2736 -0.3160 -0.2175
22098W        W26498  15.641   3.378  22.397 -0.0063  0.2310 -0.1607
22099W        W26499  20.813   0.564  34.860 -0.0355 -0.0248 -0.3450
22100W        W26500  13.790   3.999   5.258  0.0006 -0.2071 -0.0694
22101W        W26501   3.057   4.937  23.039 -0.0978  0.1241 -0.0271
22102W        W26502  14.166   5.295   1.494 -0.1342 -0.1272  0.2459
22103W        W26503   3.712   4.537   3.365 -0.0862 -0.0875  0.2863
22104W        W26504   3.026   4.477  25.605 -0.1896 -0.2479 -0.1938
22105W        W26505  10.666   1.481  14.250 -0.0116  0.3452 -0.0958
22106W        W26506  18.309   3.125  31.535 -0.1621  0.2672  0.1071
22107W        W26507  13.914   1.334  35.121 -0.0111 -0.0530  0.0889
22108W        W26508   1.018   1.447   4.177 -0.1605 -0.1302 -0.1086
22109W        W26509   4.697   5.201  13.045 -0.2370 -0.0497 -0.1143
22110W        W26510  18.474   0.638  17.949  0.3812  0.0348  0.1972
22111W        W26511   4.363   6.532  27.986  0.0382  0.1212  0.3433
22112W        W26512   2.176   5.900  24.573 -0.0674 -0.0530  0.0958
22113W        W26513  20.796   1.390  35.347 -0.4009  0.0897 -0.0315
22114W        W26514   0.238   2.163  36.971  0.2084  0.0590  0.1474
22115W        W26515  12.841   3.016  31.930 -0.1032  0.1444 -0.0924
22116W        W26516   9.056   2.672  25.483  0.0398 -0.1784 -0.1655
22117W        W26517   0.052   6.508  32.015  0.1377  0.2751  0.3169
22118W        W26518   0.383   1.324  30.117 -0.0315  0.2725 -0.0090
22119W        W26519   5.871   5.360  32.370 -0.1260  0.0721  0.2077
22120W        W26520   9.002   4.297   4.696  0.0167 -0.3292 -0.1593
22121W        W26521  10.878   1.844   0.236 -0.0576  0.0286  0.2244
22122W        W26522  16.096   5.592  16.891 -0.0046  0.1701  0.2525
22123W        W26523  14.340   4.415  22.140 -0.3626  0.0140  0.0300
22124W        W26524  10.670   4.404   1.118  0.1345  0.0141  0.1836
22125W        W26525  20.684   3.403  34.871 -0.1418 -0.1998 -0.0794
22126W        W26526  12.891   4.179  29.829  0.3370  0.0057  0.1002
22127W        W26527   7.939   4.504   6.916  0.0875  0.2479 -0.1000
22128W        W26528  13.566   3.509  32.969  0.2773  0.2098  0.1985
22129W        W26529  20.361   2.098  18.165  0.3195  0.0018 -0.2015
22130W        W26530  14.993   4.493   0.084 -0.0899 -0.3556  0.1070
22131W        W26531  10.913   0.585  14.776  0.1874 -0.2508  0.2224
22132W        W26532   6.068   0.629  31.607  0.2077 -0.0512  0.2732
22133W        W26533   8.482   1.862  12.883  0.0924  0.0125  0.0016
22134W        W26534   3.519   0.881  15.941 -0.1112  0.0464 -0.3964
22135W        W26535   7.918   3.862  39.540 -0.2057  0.0062 -0.0166
22136W        W26536  14.511   3.081   9.019 -0.0955  0.2100 -0.1512
22137W        W26537   7.301   3.454  25.332  0.0331  0.0652 -0.1632
22138W        W26538   7.080   4.835  31.361 -0.2486 -0.0951  0.1676
22139W        W26539   9.533   4.719  11.841 -0.3827 -0.0744  0.0456
22140W        W26540  14.882   5.690  36.001 -0.5306  0.0867  0.2384
22141W        W26541  18.165   6.084  37.717  0.0244 -0.1610 -0.0918
22142W        W26542   1.113   5.677  33.442  0.1243  0.3534 -0.1131
22143W        W26543  14.076   3.648   3.814 -0.3172 -0.0172 -0.0512
22144W        W26544   8.078   2.150  14.441  0.1350 -0.1183 -0.0737
22145W        W26545  11.138   5.023   2.244  0.4383 -0.0717  0.1373
22146W        W26546  15.415   6.381   9.621 -0.1486 -0.2869  0.0774
22147W        W26547  15.252   3.668   5.164  0.1194 -0.1654 -0.0525
22148W        W26548  18.290   4.164  14.012  0.0045 -0.2329  0.4010
22149W        W26549   9.419   3.028  36.385 -0.1058 -0.1411 -0.0936
22150W        W26550  17.132   4.531  17.741  0.3657  0.1151 -0.1375
22151W        W26551  14.046   2.677   8.959  0.0269 -0.1090 -0.2525
22152W        W26552   9.842   2.328  34.028  0.0374  0.2272  0.1598
22153W        W26553  14.074   2.068  24.138 -0.0961  0.0600  0.0077
22154W        W26554  12.189   1.536  16.499 -0.0734  0.1763 -0.1295
22155W        W26555   3.577   4.438  25.334  0.0864 -0.2354  0.0485
22156W        W26556   1.312   4.544  26.572  0.1076  0.0374  0.1319
22157W        W26557  17.543   4.906   3.977 -0.0799  0.0593  0.0141
22158W        W26558   0.607   2.205  30.324  0.0157  0.2161  0.0781
22159W        W26559  15.489   4.499  11.730 -0.0213 -0.0409 -0.1223
22160W        W26560   0.627   6.392  11.028  0.0294 -0.2506  0.0020
22161W        W26561  15.501   5.632  38.384 -0.0985 -0.1872  0.2602
22162W        W26562  11.594   4.308   9.498  0.2007 -0.0418  0.0078
22163W        W26563   7.907   3.020  26.761  0.1958 -0.0683  0.0148
22164W        W26564  11.216   1.433  36.322  0.0353  0.3166 -0.1461
22165W        W26565  21.061   1.568  39.873  0.1622  0.2029  0.0632
22166W        W26566  11.864   5.737   3.286 -0.0612 -0.2043 -0.2720
22167W        W26567  20.118   1.320  35.953 -0.1506 -0.3773  0.1965
22168W        W26568  13.161   5.019   7.662 -0.3134 -0.2848  0.1946
22169W        W26569  20.539   4.119  10.915  0.1290  0.0706  0.2569
22170W        W26570   3.898   4.577  32.960 -0.2405 -0.1859 -0.1423
22171W        W26571  14.390   6.560  19.197  0.3524  0.2733 -0.1040
22172W        W26572   5.913   3.891  30.271  0.2084  0.0634  0.0481
22173W        W26573   1.877   0.304  14.918 -0.2690 -0.3677 -0.0106
22174W        W26574  10.286   6.515   7.468 -0.0981 -0.1623  0.1668
22175W        W26575   0.121   0.654  13.283  0.0855  0.2641  0.1607
22176W        W26576   1.168   4.770  39.160 -0.0075  0.0013 -0.0214
22177W        W26577   6.082   0.332   9.219 -0.0270 -0.0253 -0.1953
22178W        W26578  15.418   2.281  17.960 -0.2094 -0.2096  0.0032
22179W        W26579   9.642   3.179   2.902 -0.0090  0.0518  0.0508
22180W        W26580   6.742   2.645  28.337  0.0366  0.1420  0.2171
22181W        W26581  18.578   2.057  17.877  0.1234  0.1271 -0.0057
22182W        W26582  19.098   4.141  39.611  0.0771  0.2453 -0.3496
22183W        W26583   4.838   2.272  14.410 -0.0636 -0.1144  0.0164
22184W        W26584  20.839   0.868   1.636 -0.0514  0.2770  0.1051
22185W        W26585  12.792   1.111  29.595  0.1701 -0.0174 -0.0478
22186W        W26586  20.931   0.035  30.202  0.0295 -0.2895  0.0972
22187W        W26587  10.229   1.841  42.434 -0.3815  0.3728 -0.0895
22188W        W26588   5.213   4.353  15.082  0.0987 -0.0314  0.1666
22189W        W26589  12.898   4.508  36.025 -0.1190 -0.0215 -0.0206
22190W        W26590   3.318   4.323   1.774  0.0190 -0.1130 -0.2725
22191W        W26591  15.122   5.420  10.164  0.2667  0.1918 -0.0519
22192W        W26592   0.494   1.917   8.232 -0.0401  0.0944  0.3961
22193W        W26593  19.434   1.749  17.440  0.3029 -0.0326  0.0944
22194W        W26594   1.246   4.984  30.387  0.2031 -0.0058  0.0958
22195W        W26595  18.243   4.373  13.330  0.0684 -0.0056  0.0334
22196W        W26596   9.972   0.659  44.743  0.0569  0.1090  0.0334
22197W        W26597  15.878   3.584  22.846 -0.3450  0.0353 -0.0335
22198W        W26598  11.360   2.768  32.991  0.1156  0.0060  0.2244
22199W        W26599   2.164   0.689  43.271  0.1643 -0.1567  0.1353
22200W        W26600   9.022   2.122  30.206  0.2987  0.0887  0.1756
22201W        W26601  11.256   2.324  16.654  0.1171  0.2527 -0.0361
22202W        W26602   5.251   2.752   5.758 -0.0674  0.1368 -0.4602
22203W        W26603   9.127   0.820  41.135  0.2829 -0.1471  0.1339
22204W        W26604   6.761   1.358  37.066  0.0737 -0.0629  0.2158
22205W        W26605  14.912   1.246  15.931  0.1864  0.0513 -0.0055
22206W        W26606   8.346   1.593  14.717  0.0980 -0.0407 -0.0236
22207W        W26607   2.286   3.722   4.544 -0.0903  0.0290 -0.0308
22208W        W26608  12.772   3.616   5.484 -0.0845 -0.1003  0.1438
22209W        W26609   3.464   6.195  27.286 -0.0196 -0.0553 -0.0284
22210W        W26610   4.549   1.780  44.730  0.1865 -0.4500 -0.0129
22211W        W26611   5.864   3.637  11.359  0.1400  0.0054 -0.1552
22212W        W26612   9.969   5.305   7.701  0.2446 -0.0705  0.1141
22213W        W26613  14.795   2.022  13.884  0.3944  0.0517  0.3042
22214W        W26614  14.949   1.683  23.891 -0.1874  0.1188  0.0412
22215W        W26615   1.429   2.464  15.421  0.0763  0.3217 -0.1501
22216W        W26616  16.399   5.570   5.120  0.0577  0.0135 -0.0016
22217W        W26617  12.334   5.045  29.555 -0.0224 -0.1334 -0.3853
22218W        W26618   3.502   2.833   7.190 -0.3006  0.0555 -0.0816
22219W        W26619   3.433   3.909  41.933  0.1581  0.1122  0.0591
22220W        W26620  10.858   0.262  37.585  0.0324 -0.0999 -0.0712
22221W        W26621   8.902   2.202  43.435 -0.4604 -0.0538  0.0601
22222W        W26622   4.874   4.772  39.877  0.1017 -0.0805 -0.0397
22223W        W26623   2.705   0.746  22.506  0.0773  0.2183 -0.0119
22224W        W26624  11.001   1.053  33.877 -0.2104  0.3312 -0.0796
22225W        W26625  15.253   2.785  35.892 -0.1245  0.4267 -0.1509
22226W        W26626   9.524   3.255  31.040  0.0888  0.3881  0.0420
22227W        W26627  14.430   2.585  16.006  0.0131  0.1887 -0.1897
22228W        W26628   0.313   4.095   1.979 -0.4239 -0.1779  0.3518
22229W        W26629  13.163   1.217  21.304 -0.2481 -0.0912  0.1346
22230W        W26630  14.472   5.677   0.882 -0.1330  0.2699  0.1503
22231W        W26631   3.626   2.834  37.474  0.2798  0.1821  0.0468
22232W        W26632   4.979   5.003  10.885 -0.1711  0.1225 -0.1083
22233W        W26633  17.366   2.523  44.011  0.1934  0.4217 -0.0449
22234W        W26634  10.081   5.843  43.080  0.1875 -0.0053 -0.0106
22235W        W26635   4.538   0.886  45.031  0.1732  0.2297 -0.3785
22236W        W26636   9.224   4.904  33.946 -0.1122  0.1625  0.0199
22237W        W26637   6.405   4.251  23.166  0.1082 -0.0514  0.0334
22238W        W26638   3.489   3.795   8.877 -0.0642  0.2205  0.4295
22239W        W26639   2.619   2.747  14.216 -0.2378 -0.5307  0.2769
22240W        W26640   4.374   2.481  24.012 -0.0636 -0.0917  0.0397
22241W        W26641  17.095   3.995  11.990  0.2201 -0.2312 -0.0291
22242W        W26642  14.806   2.514   2.455 -0.2167  0.0696  0.0910
22243W        W26643   5.773   2.264  27.671  0.1874 -0.1687  0.3511
22244W        W26644   4.612   0.630  27.751  0.0161  0.0766 -0.0396
22245W        W26645  15.348   1.082   7.178 -0.2932  0.0900  0.0392
22246W        W26646  21.066   4.762  36.992  0.2241  0.1765 -0.1617
22247W        W26647  17.208   1.879  10.579  0.0042  0.0857 -0.0369
22248W        W26648  17.141   0.941  37.735  0.1099  0.1788 -0.0913
22249W        W26649   1.296   6.513  44.058 -0.0270  0.2566  0.2611
22250W        W26650  10.405   2.145  36.396 -0.1152  0.1506 -0.1432
22251W        W26651  11.809   0.492  11.292 -0.1003  0.1757  0.2528
22252W        W26652   3.959   0.743  29.112  0.0305  0.1139  0.0801
22253W        W26653   4.354   6.307  10.733 -0.1415 -0.0191 -0.1686
22254W        W26654  18.948   3.382  37.815 -0.0973  0.1451  0.2173
22255W        W26655  14.597   5.643  19.095 -0.0295 -0.1300  0.0611
22256W        W26656   6.159   3.815  29.850  0.1034  0.0265  0.1375
22257W        W26657  10.937   4.063  44.901  0.0471  0.0043 -0.0831
22258W        W26658   7.046   0.941  26.251  0.1824  0.2608  0.0008
22259W        W26659   1.112   4.638  34.162 -0.0490 -0.2345 -0.0271
22260W        W26660   8.094   0.906  31.189 -0.0803 -0.2869 -0.0162
22261W        W26661   5.852   4.804  44.325  0.0963  0.0606  0.3881
22262W        W26662   6.942   4.039   4.349  0.0376  0.4503  0.4192
22263W        W26663   0.797   1.637   0.267  0.0462 -0.0532  0.1053
22264W        W26664  12.310   1.009   6.206 -0.0104 -0.1917 -0.1510
22265W        W26665   6.276   1.784  28.137  0.1239  0.3785 -0.0478
22266W        W26666  20.030   4.662   5.992 -0.0472  0.2548 -0.3627
22267W        W26667  19.916   5.579  40.640  0.2288  0.0354  0.1185
22268W        W26668  14.067   6.401  12.808  0.0731  0.0662 -0.2273
22269W        W26669  11.662   4.911  19.718 -0.0944  0.2128  0.1316
22270W        W26670  14.567   4.712  38.810 -0.0281  0.3586  0.1240
22271W        W26671   4.796   0.037  35.356 -0.0165  0.1099 -0.1247
22272W        W26672   3.503   1.498  39.709  0.2271  0.4164  0.0828
22273W        W26673  13.378   3.575  43.752  0.1128 -0.2672 -0.1119
22274W        W26674   9.180   4.567  31.037  0.0988 -0.0174 -0.0783
22275W        W26675   2.797   4.471   7.160  0.3319 -0.1812 -0.3016
22276W        W26676  11.386   1.189  13.218 -0.4517 -0.4445  0.0462
22277W        W26677   8.287   0.475  45.152 -0.0105  0.3787 -0.1261
22278W        W26678  15.972   1.472  19.366 -0.2881  0.0889  0.1758
22279W        W26679  16.810   5.676   9.540  0.2587  0.0331  0.0580
22280W        W26680   4.775   1.542  26.362  0.3847 -0.0927 -0.0448
22281W        W26681   8.412   5.678  26.150 -0.0560  0.2555  0.0349
22282W        W26682   5.716   5.850  15.727 -0.1473 -0.0529  0.1236
22283W        W26683   2.842   4.743  31.185  0.2552  0.0655 -0.2827
22284W        W26684  13.850   0.283  10.021 -0.1048 -0.0735  0.0335
22285W        W26685  20.004   3.750  17.946  0.2510  0.1712 -0.2667
22286W        W26686   6.630   4.380   4.011 -0.0846  0.0383  0.0488
22287W        W26687   2.954   5.040  34.859 -0.0779 -0.1714  0.2730
22288W        W26688  15.091   5.568  11.033  0.0437  0.2727 -0.1375
22289W        W26689   2.470   3.452  28.677 -0.0353 -0.0783  0.2479
22290W        W26690  16.989   1.863  14.365 -0.1724  0.0723 -0.4103
22291W        W26691   6.739   1.123  32.097  0.0206 -0.1892  0.1509
22292W        W26692  11.070   3.406  32.664 -0.4217 -0.1134  0.1666
22293W        W26693   0.310   0.757  38.014 -0.1024 -0.2220  0.0044
22294W        W26694   8.890   0.589   7.543  0.4404 -0.1482  0.0190
22295W        W26695   6.538   0.050  45.064 -0.2265 -0.4111  0.0228
22296W        W26696  10.160   1.921  19.613 -0.3794 -0.0623  0.1220
22297W        W26697  16.396   4.055  35.455 -0.0981  0.1071 -0.4217
22298W        W26698  13.960   1.168  16.379 -0.3065 -0.0453  0.2854
22299W        W26699   0.153   4.138   3.843 -0.1018 -0.2079 -0.0685
22300W        W26700   2.961   4.484  37.792  0.1444 -0.1851 -0.1380
22301W        W26701   7.329   5.838  14.770 -0.2592 -0.0522 -0.1036
22302W        W26702   7.892   1.443  14.778 -0.0958  0.2773 -0.1390
22303W        W26703   0.807   6.530  41.343  0.1055  0.1104 -0.2882
22304W        W26704  13.020   4.446  31.543  0.4711 -0.1766  0.0647
22305W        W26705  11.539   2.177   1.448 -0.0246 -0.0469  0.1482
22306W        W26706  15.775   1.331  30.463 -0.1486 -0.0636  0.0178
22307W        W26707   5.924   0.379   0.069  0.2814  0.1010  0.0978
22308W        W26708   3.807   3.329  29.595 -0.1445 -0.0186 -0.0661
22309W        W26709   6.948   2.786  38.273  0.3577  0.1294  0.1462
22310W        W26710  13.225   0.292  42.107 -0.1634 -0.2332 -0.3494
22311W        W26711  13.894   0.992   7.453 -0.1043 -0.0684 -0.0134
22312W        W26712  16.967   2.306  14.148  0.0516 -0.0679  0.0788
22313W        W26713   8.721   0.622  30.534 -0.4001  0.0511  0.1087
22314W        W26714  14.156   3.352  12.206  0.2792  0.1044  0.3949
22315W        W26715   5.641   2.418  14.756  0.3299 -0.3047 -0.1418
22316W        W26716  12.497   6.287  36.849  0.1383 -0.3605 -0.4371
22317W        W26717   0.196   6.456  42.029  0.1532  0.1284 -0.0399
22318W        W26718   5.387   2.037   1.330  0.1092  0.1465  0.0428
22319W        W26719   1.529   3.037  43.832 -0.0305 -0.1468 -0.1593
22320W        W26720   3.035   1.527  35.335  0.1118  0.1475 -0.1740
22321W        W26721  15.113   1.144  10.901 -0.0375 -0.1152 -0.3389
22322W        W26722  17.685   4.839   1.391 -0.1878  0.1799  0.3130
22323W        W26723  15.683   1.591   9.430 -0.0171 -0.2809 -0.1563
22324W        W26724  12.669   4.693  42.630  0.0948  0.1290 -0.1816
22325W        W26725  20.664   1.737   2.610  0.2795 -0.3478  0.0543
22326W        W26726   5.631   0.176   9.703  0.1876 -0.2931  0.2510
22327W        W26727   8.723   1.206  31.276  0.1262  0.0577  0.0496
22328W        W26728  17.085   2.133  37.336  0.2278  0.0606  0.1337
22329W        W26729  17.453   3.288   7.188  0.1211 -0.2840 -0.1107
22330W        W26730   7.596   3.663  26.643  0.1625 -0.0314 -0.0053
22331W        W26731  16.311   6.019  35.774  0.0587 -0.0835 -0.1241
22332W        W26732  16.429   5.731  32.361  0.2043  0.3415  0.2521
22333W        W26733  16.961   2.787   6.270  0.0105  0.1101 -0.1892
22334W        W26734   3.506   3.661  39.179  0.0969  0.3348  0.1449
22335W        W26735   2.561   4.985  38.956  0.2940 -0.2651 -0.4996
22336W        W26736  11.469   0.633  33.294  0.0613 -0.0019  0.2398
22337W        W26737  10.214   3.871  35.992  0.4090 -0.1251 -0.2759
22338W        W26738   8.011   3.460  15.817  0.0631  0.0015 -0.0470
22339W        W26739   0.468   6.553  34.144 -0.1906  0.2624  0.0797
22340W        W26740   6.553   0.181  37.479  0.1882 -0.3209  0.0221
22341W        W26741  13.414   0.862  31.867  0.1528  0.3762  0.1016
22342W        W26742   2.223   5.252   9.492  0.1482 -0.3088 -0.1983
22343W        W26743   0.577   5.123  37.394  0.1718  0.0525 -0.1071
22344W        W26744   4.108   0.363  24.782 -0.0768 -0.1926  0.2594
22345W        W26745   3.797   6.536  35.088 -0.2665 -0.1451  0.2841
22346W        W26746   3.473   1.135  12.533  0.0474 -0.1501 -0.0640
22347W        W26747  12.110   1.364  17.374 -0.2507 -0.3701 -0.2500
22348W        W26748   1.677   0.581  38.712 -0.0466  0.0593 -0.2948
22349W        W26749  18.184   3.332   3.651 -0.0526 -0.1770  0.0470
22350W        W26750  10.732   3.039   6.365  0.0289  0.1781 -0.2111
22351W        W26751  10.276   3.069   8.224 -0.0834 -0.1730  0.0022
22352W        W26752  16.664   4.434  18.785  0.0049  0.3565 -0.2324
22353W        W26753  17.726   6.167  19.549  0.2852  0.1685  0.1128
22354W        W26754  19.666   2.770  30.155 -0.1204  0.1121 -0.0184
22355W        W26755  18.329   3.513  41.600 -0.2173  0.2511  0.1028
22356W        W26756   9.603   4.134  16.134  0.2326 -0.2879  0.0847
22357W        W26757   3.480   2.802   1.395 -0.1465 -0.3546  0.3124
22358W        W26758   5.935   5.405   4.635  0.3515  0.1769 -0.3110
22359W        W26759  19.506   3.952   7.447  0.0710  0.3126  0.0275
22360W        W26760   1.383   3.738   5.957 -0.0361 -0.1079  0.0213
22361W        W26761  19.528   4.200  12.069 -0.2861  0.0139 -0.2513
22362W        W26762   5.680   3.609  28.552 -0.2700  0.1112 -0.2007
22363W        W26763   2.582   0.658   8.949  0.1089  0.0203 -0.1513
22364W        W26764   1.304   5.515  29.166 -0.0012 -0.1517 -0.0557
22365W        W26765   5.298   4.530  14.234 -0.0285  0.1291 -0.0336
22366W        W26766   0.078   3.686   4.034 -0.1104  0.0055  0.0387
22367W        W26767  12.104   6.513   2.144 -0.7342  0.2456 -0.0890
22368W        W26768   9.263   6.163  12.536  0.1523 -0.0799 -0.3094
22369W        W26769  17.732   6.257  40.393 -0.4108  0.3472  0.0746
22370W        W26770   1.042   3.203  26.100 -0.1230 -0.1411 -0.1227
22371W        W26771  15.786   5.897   1.092 -0.1952  0.0341  0.2457
22372W        W26772   6.306   6.374  30.460  0.1728 -0.1051  0.1845
22373W        W26773   5.911   3.644   0.505 -0.1391  0.0704  0.0972
22374W        W26774  20.060   5.614  12.852  0.2420  0.0851 -0.1167
22375W        W26775   5.570   4.839  15.947  0.1970 -0.2572  0.3248
22376W        W26776   8.080   6.254  11.671  0.0815 -0.1763 -0.0199
22377W        W26777   3.596   1.495  25.838  0.0681 -0.0700  0.1987
22378W        W26778   3.685   3.281   8.233 -0.1673  0.1714 -0.0120
22379W        W26779   7.936   0.783   8.485  0.2734 -0.4418 -0.0275
22380W        W26780   0.277   6.381  25.849  0.0701 -0.0451  0.2931
22381W        W26781  19.621   5.706  38.927 -0.2006 -0.1063  0.0001
22382W        W26782  17.219   5.837  30.902 -0.0150  0.4909 -0.2171
22383W        W26783   3.323   2.375  22.797  0.1229 -0.0146  0.1582
22384W        W26784  16.805   5.707   6.977  0.2853 -0.0981 -0.0302
22385W        W26785  14.332   0.960  12.728 -0.3328 -0.0662  0.0282
22386W        W26786   7.416   3.977   8.096 -0.3625 -0.0321  0.1478
22387W        W26787   9.034   5.214  26.810  0.0430 -0.0501 -0.4974
22388W        W26788  10.202   6.242  28.937  0.0063  0.3020  0.0414
22389W        W26789  17.840   1.712  31.341 -0.1074  0.2749  0.0369
22390W        W26790  20.185   4.271  15.668 -0.3536  0.0623 -0.0033
22391W        W26791  15.987   4.792   7.559 -0.1648 -0.1339  0.0534
22392W        W26792   7.170   6.304  41.552 -0.2770 -0.0132  0.0349
22393W        W26793  11.364   4.079  13.795 -0.2223  0.0827 -0.1306
22394W        W26794  12.697   4.015   2.439  0.0302  0.2309 -0.0848
22395W        W26795   5.652   4.522  35.957 -0.1589  0.0422 -0.0359
22396W        W26796  11.169   6.247   6.344  0.0675  0.1550 -0.2043
22397W        W26797  20.119   1.493  16.428  0.4188 -0.1507 -0.1721
22398W        W26798   4.716   3.983  30.985  0.3636  0.0830 -0.0546
22399W        W26799   3.120   1.243  34.503  0.2971 -0.1531  0.2272
22400W        W26800   1.628   4.594  33.883 -0.2095  0.2478  0.2244
22401W        W26801   4.160   4.974  30.771  0.0341  0.2356  0.0171
22402W        W26802   8.729   3.388   6.826  0.1060 -0.2831  0.0704
22403W        W26803  20.306   5.474  30.607 -0.0910 -0.0280 -0.0275
22404W        W26804  19.946   3.477  13.493 -0.1302  0.1141 -0.0604
22405W        W26805  19.637   1.812  11.259 -0.1768 -0.0295  0.1495
22406W        W26806  10.547   2.876  17.640 -0.1911 -0.0838 -0.3022
22407W        W26807  10.923   2.894  33.102  0.0433 -0.3702  0.1965
22408W        W26808   2.020   0.494   6.545 -0.1295  0.2444  0.2833
22409W        W26809   9.616   2.208  27.445  0.0826  0.0545  0.1184
22410W        W26810   5.330   6.476  36.783 -0.1019 -0.0691 -0.0917
22411W        W26811   7.833   1.114  38.198 -0.0216 -0.2776 -0.0119
22412W        W26812   1.404   5.795  29.966  0.2872  0.0784  0.0796
22413W        W26813  19.176   3.593  36.906  0.1297 -0.2626  0.0932
22414W        W26814  10.853   3.554  38.205 -0.0555 -0.2918  0.1057
22415W        W26815  14.808   1.723  42.285  0.1135 -0.1702  0.1384
22416W        W26816   5.893   3.614  15.002 -0.0811  0.1187 -0.3538
22417W        W26817  15.225   3.962  37.961  0.0015 -0.0935  0.0134
22418W        W26818  15.708   0.684  21.016  0.1092  0.0509  0.0912
22419W        W26819  18.871   1.133  16.462 -0.1304  0.5236 -0.5473
22420W        W26820   7.498   2.498   5.682  0.3730 -0.1280 -0.2388
22421W        W26821   3.139   1.039  12.162 -0.0242 -0.2974 -0.0807
22422W        W26822   8.607   6.199   5.191 -0.1565  0.3492  0.2608
22423W        W26823  16.531   5.283  32.144 -0.0367 -0.1816 -0.0629
22424W        W26824  16.165   6.523  41.670 -0.0260 -0.0612 -0.5044
22425W        W26825  12.754   3.585  16.914 -0.0136 -0.3314  0.1428
22426W        W26826  18.524   3.931  11.986 -0.0506 -0.2382 -0.0593
22427W        W26827   2.026   1.804  24.616  0.2941  0.1103 -0.1101
22428W        W26828   8.542   3.442   9.780 -0.2935 -0.2222  0.0944
22429W        W26829   5.321   2.948  42.298  0.0008 -0.2235  0.1562
22430W        W26830   8.893   6.002   7.406 -0.2858  0.2929 -0.2480
22431W        W26831  12.860   2.946  16.370 -0.4318  0.2734  0.0078
22432W        W26832   6.514   1.463  16.463  0.3281  0.2576 -0.3936
22433W        W26833  17.649   6.268  35.732 -0.0789 -0.3574  0.5522
22434W        W26834   2.904   1.064  35.537 -0.0586 -0.1618 -0.1659
22435W        W26835  16.417   3.013  11.492 -0.1218 -0.0983  0.2193
22436W        W26836  17.266   1.834  41.878  0.0237  0.2021 -0.0295
22437W        W26837  19.120   0.455  36.397  0.2917 -0.1625  0.0384
22438W        W26838   1.478   5.111  11.977 -0.0341 -0.2502 -0.3208
22439W        W26839  12.569   3.013  19.056  0.1457  0.0407  0.1920
22440W        W26840  11.501   4.528  17.396  0.0945 -0.2779 -0.3211
22441W        W26841  20.963   6.101   2.191 -0.0017 -0.3572  0.0337
22442W        W26842  13.352   2.800  34.481 -0.3201 -0.4494  0.1386
22443W        W26843  12.816   5.636  44.514 -0.3607 -0.2246 -0.0978
22444W        W26844  11.436   2.277  45.073 -0.1151 -0.1182  0.4014
22445W        W26845   6.618   4.804   9.511 -0.2413  0.3612 -0.0696
22446W        W26846   0.108   2.500   3.725 -0.1186 -0.1145 -0.1611
22447W        W26847   6.629   1.020  34.857  0.2132 -0.0693  0.3473
22448W        W26848  16.466   5.561   9.201  0.0045  0.2433  0.0639
22449W        W26849  12.528   4.083  14.676 -0.0573  0.0723 -0.2055
22450W        W26850  17.802   4.145  43.851 -0.1157  0.2435  0.0665
22451W        W26851   1.386   0.710  39.909 -0.1184 -0.1977  0.1855
22452W        W26852  18.815   5.892   8.258 -0.2577 -0.1148  0.0436
22453W        W26853   6.762   0.727  12.260  0.2583  0.3797  0.2314
22454W        W26854   9.325   4.524  15.906 -0.2251 -0.1476  0.0044
22455W        W26855   2.377   4.484  26.192  0.0593  0.3656 -0.3414
22456W        W26856   6.195   5.913  34.758  0.2182 -0.2822  0.0841
22457W        W26857   7.505   1.798   6.954 -0.1074 -0.2501 -0.0738
22458W        W26858   0.638   4.639   8.213  0.1895 -0.0038  0.0710
22459W        W26859   6.004   3.975   6.627 -0.0669 -0.0070  0.1665
22460W        W26860   6.220   3.677  35.877 -0.0475  0.0714  0.0514
22461W        W26861  13.037   5.782  20.282  0.1733  0.3226 -0.1277
22462W        W26862  19.010   5.714  30.689  0.2572 -0.1882  0.0411
22463W        W26863  19.373   5.476  16.820 -0.0413  0.2435 -0.2444
22464W        W26864  16.361   5.062   7.057  0.0075  0.0487 -0.2596
22465W        W26865  15.214   3.085  14.595  0.3091  0.0796 -0.3213
22466W        W26866  15.544   3.345  34.103  0.1964  0.0931  0.1667
22467W        W26867   0.003   4.140  13.112  0.1546  0.0220  0.0647
22468W        W26868  10.303   5.035   6.822  0.2046  0.1405  0.0812
22469W        W26869  13.385   4.821  16.817  0.0797  0.2327  0.1008
22470W        W26870   8.554   1.890   6.429 -0.2207 -0.0103 -0.3204
22471W        W26871  18.473   4.908  28.372 -0.1217 -0.1993 -0.0584
22472W        W26872   3.314   2.760  30.876 -0.1708 -0.2871 -0.3963
22473W        W26873   4.653   5.830  44.123  0.1244  0.2169  0.0400
22474W        W26874   3.393   3.262  30.813 -0.0252 -0.2515  0.0678
22475W        W26875  18.869   4.663  33.896  0.2487 -0.0794 -0.0626
22476W        W26876   4.139   3.304   1.453  0.1483  0.0131 -0.1674
22477W        W26877   3.631   0.493  33.612 -0.1052  0.2536  0.1707
22478W        W26878  14.947   5.829  17.605  0.0461  0.0423 -0.0646
22479W        W26879   6.658   0.581  28.835 -0.1279 -0.1653  0.1878
22480W        W26880   2.705   1.940  34.604 -0.3827 -0.1329  0.0959
22481W        W26881   7.775   4.513   6.272 -0.0160 -0.1950 -0.2785
22482W        W26882  20.373   5.782  13.346  0.2937  0.4505  0.0671
22483W        W26883   0.847   3.657  43.795  0.1989 -0.0235  0.0548
22484W        W26884  20.379   2.297  36.754  0.2848 -0.2525  0.2639
22485W        W26885   8.867   1.867   2.221 -0.0049  0.1163 -0.1182
22486W        W26886   4.644   0.123   3.849 -0.1001 -0.4965 -0.0062
22487W        W26887   8.894   1.049   8.389 -0.1324 -0.3463  0.2854
22488W        W26888  18.203   3.630   5.260 -0.0860 -0.1883  0.0567
22489W        W26889   7.981   0.108  41.176  0.0212  0.0793  0.1680
22490W        W26890   7.587   4.949   5.953  0.0730  0.4268 -0.0401
22491W        W26891   4.423   3.456   3.900 -0.0849  0.2129 -0.2842
22492W        W26892   0.173   6.122   7.458  0.1704  0.0299  0.1377
22493W        W26893  19.500   4.484  13.130  0.2695  0.2631 -0.2687
22494W        W26894  12.474   2.070  13.978 -0.1368 -0.1532  0.1904
22495W        W26895   1.907   6.421  39.192  0.3044 -0.1308 -0.2959
22496W        W26896  14.613   0.453  40.742  0.1513 -0.1570 -0.0752
22497W        W26897   5.632   3.694  25.044 -0.2220  0.1661  0.2723
22498W        W26898  17.367   0.735  30.482 -0.0202 -0.1223 -0.0830
22499W        W26899  17.736   4.493  16.363 -0.2234  0.1027 -0.1206
22500W        W26900   7.665   1.654   5.675 -0.0102  0.0845  0.0594
22501W        W26901   6.128   5.561   9.133 -0.0175  0.1230 -0.0277
22502W        W26902   4.152   2.144  44.477  0.1079 -0.3049 -0.1873
22503W        W26903  12.052   4.045  36.668  0.0247  0.0301  0.1755
22504W        W26904   6.088   4.049  11.532  0.0392 -0.2214 -0.4028
22505W        W26905   1.857   6.019  28.283 -0.1901  0.1499 -0.0308
22506W        W26906  13.903   0.976   6.438  0.1951 -0.0545  0.2677
22507W        W26907  12.956   2.400  14.123 -0.0396  0.1771 -0.0970
22508W        W26908   5.219   4.338  34.166  0.2295  0.1338  0.0172
22509W        W26909   9.615   4.809  28.147 -0.0110  0.0165 -0.0682
22510W        W26910   0.833   4.135  32.520 -0.1719  0.2194 -0.2212
22511W        W26911  18.711   6.223  44.601  0.0137  0.0640 -0.1283
22512W        W26912   8.316   2.331  30.867 -0.0713  0.0646 -0.1744
22513W        W26913  10.383   6.375   6.570  0.4916  0.4411 -0.0490
22514W        W26914  11.055   3.036  15.274 -0.1310  0.1776 -0.1496
22515W        W26915  11.943   3.782  14.621  0.1935  0.0291 -0.0858
22516W        W26916   0.186   1.921  30.235 -0.0772  0.0071 -0.0305
22517W        W26917   5.603   4.454   1.973  0.1711 -0.1050 -0.1616
22518W        W26918   9.243   3.298  30.503 -0.0113 -0.1735  0.2292
22519W        W26919   4.621   3.392  36.743  0.0757  0.0770 -0.1195
22520W        W26920  20.621   5.062  12.881 -0.1021 -0.1895  0.1888
22521W        W26921   8.657   4.405   2.816  0.0287  0.0443 -0.0013
22522W        W26922  13.920   3.494  37.750  0.1866 -0.2713  0.0211
22523W        W26923  17.373   4.866  21.803 -0.1666  0.2189  0.0947
22524W        W26924  12.928   0.813  36.077  0.1687  0.1989 -0.1484
22525W        W26925   4.116   0.866  34.919  0.1810  0.0630 -0.1639
22526W        W26926   3.644   0.581  20.821  0.1257 -0.0630  0.0338
22527W        W26927   4.579   3.308  12.771  0.1815 -0.0571  0.1244
22528W        W26928   7.525   5.041   8.151 -0.2651 -0.3557 -0.0891
22529W        W26929  20.534   3.640  27.120 -0.0577 -0.0618  0.0497
22530W        W26930  10.387   1.372  30.296  0.0996  0.1698  0.1613
22531W        W26931  16.057   4.625  36.033  0.2737  0.0844 -0.0732
22532W        W26932   2.515   2.756  32.498  0.0151  0.2760  0.1354
22533W        W26933   0.371   5.196  39.202 -0.1196  0.3523 -0.2621
22534W        W26934   7.874   0.526   8.933  0.0994 -0.1045 -0.1329
22535W        W26935   3.012   5.223  36.691 -0.1074 -0.2268 -0.0077
22536W        W26936  19.636   1.398  34.610  0.0709 -0.0976 -0.0199
22537W        W26937  17.963   6.364   9.593  0.5498  0.3955 -0.0182
22538W        W26938  18.420   4.232  34.973  0.2409  0.0795  0.0086
22539W        W26939   8.488   1.899   8.969  0.0219  0.2225 -0.0501
22540W        W26940  13.320   6.550  43.830  0.0893 -0.0628 -0.0777
22541W        W26941  13.779   1.194  20.409 -0.0079 -0.1072  0.1239
22542W        W26942  13.244   0.466  11.192 -0.0489 -0.2748 -0.3031
22543W        W26943   2.540   0.714  33.882 -0.0002  0.1080  0.0126
22544W        W26944  10.296   3.015  32.837 -0.4539 -0.0900  0.2983
22545W        W26945  13.600   3.005  29.439 -0.0673  0.1285 -0.1117
22546W        W26946  12.568   4.133  31.160 -0.2064  0.0334  0.2320
22547W        W26947  20.646   2.155  11.836 -0.1417 -0.1633 -0.1512
22548W        W26948  16.210   4.475  33.163  0.0912  0.1182 -0.0356
22549W        W26949   2.620   4.660  34.894  0.1116  0.2302 -0.0438
22550W        W26950  11.592   0.315  17.545  0.0344  0.3097  0.0851
22551W        W26951  10.790   6.252  31.981 -0.0202  0.3669 -0.1570
22552W        W26952   4.369   0.161  37.481 -0.0570  0.2941  0.0252
22553W        W26953  21.014   4.714  44.621  0.1153 -0.0400  0.2496
22554W        W26954  13.011   2.501  10.590  0.2846 -0.1236  0.3503
22555W        W26955  19.149   0.465  33.403 -0.1184  0.1592  0.0836
22556W        W26956   0.594   1.366  43.583  0.1295  0.2517 -0.1339
22557W        W26957   0.607   0.696  44.510  0.1130  0.1583  0.0619
22558W        W26958  20.304   3.862   2.646 -0.3587  0.3779 -0.4575
22559W        W26959  10.583   1.424  38.681 -0.0191 -0.0211 -0.2424
22560W        W26960  19.303   4.167  44.933 -0.1397 -0.0899  0.1957
22561W        W26961  13.708   5.304  44.987 -0.0778 -0.0297 -0.1371
22562W        W26962   6.966   6.178  40.008 -0.0229  0.2187 -0.0260
22563W        W26963  15.052   2.590   0.597 -0.0045 -0.0690  0.0911
22564W        W26964  18.915   5.878  34.618 -0.1667 -0.0909 -0.0721
22565W        W26965  10.580   5.748   8.892 -0.0398 -0.0580 -0.0751
22566W        W26966  16.919   5.286  11.966 -0.3157  0.1506  0.1488
22567W        W26967   7.074   6.261   2.802  0.1409  0.0112 -0.2243
22568W        W26968  11.448   5.603  21.859 -0.0901 -0.0180 -0.0994
22569W        W26969  14.963   6.073  30.492  0.0325  0.1005  0.1120
22570W        W26970   1.034   2.426   2.176  0.0728  0.1621 -0.1314
22571W        W26971   8.233   6.224  10.812 -0.2633  0.0528  0.1578
22572W        W26972   0.905   5.702  34.328 -0.0172  0.1896 -0.2277
22573W        W26973  11.660   0.654  28.907 -0.0209 -0.3243 -0.1121
22574W        W26974   3.122   3.977  28.503 -0.3210  0.1812  0.0715
22575W        W26975  13.203   5.820  41.897 -0.1349  0.2930  0.1374
22576W        W26976  16.787   3.676  41.202 -0.2902 -0.3647 -0.1767
22577W        W26977   1.232   5.616   3.604 -0.0009  0.1467  0.0222
22578W        W26978   8.382   5.344  16.378  0.0739 -0.1690  0.4015
22579W        W26979  14.716   6.236  32.751 -0.0288  0.1784  0.2422
22580W        W26980  20.298   4.152   3.712  0.0826  0.3099  0.1821
22581W        W26981  10.393   1.748  40.355  0.0526  0.0820  0.1431
22582W        W26982  15.072   3.889  10.472 -0.0404  0.0554 -0.0758
22583W        W26983   1.771   5.389  38.671 -0.0431  0.1691 -0.0986
22584W        W26984   8.386   2.063   4.326 -0.1977  0.2201 -0.0295
22585W        W26985  20.158   3.090  19.166  0.0534 -0.1093  0.1088
22586W        W26986   8.186   4.052  15.059  0.0254  0.0206 -0.1035
22587W        W26987  18.455   0.652  42.400 -0.1285  0.0360  0.0246
22588W        W26988   4.083   2.321  10.513 -0.2194  0.1751  0.1416
22589W        W26989  16.028   1.906  16.224  0.1070  0.1603 -0.0660
22590W        W26990   3.398   4.819  13.506 -0.3602 -0.1503  0.1132
22591W        W26991   3.762   4.924  24.544  0.2968  0.1489 -0.0219
22592W        W26992   1.636   3.250  42.315  0.1446  0.1390 -0.3765
22593W        W26993  13.858   2.206  18.522 -0.2501 -0.1420 -0.1246
22594W        W26994   1.492   1.368  32.536 -0.2807 -0.0845 -0.1768
22595W        W26995  11.389   0.093  21.320 -0.3445  0.1033  0.0006
22596W        W26996  11.985   0.458  29.580  0.1477 -0.3727 -0.0498
22597W        W26997   0.143   4.018  44.437  0.4041  0.1887  0.1459
22598W        W26998   9.387   2.129   2.337 -0.0024 -0.0358  0.2039
22599W        W26999   6.671   2.219  16.086 -0.1902  0.0035  0.3048
22600W        W27000  10.677   1.740  15.923 -0.3665  0.2816  0.0360
22601W        W27001  12.990   5.100  39.931  0.0435 -0.1896  0.0391
22602W        W27002   4.878   2.473   8.257  0.0189 -0.1179 -0.0766
22603W        W27003   2.469   3.084  31.881  0.1086 -0.0791 -0.0553
22604W        W27004  17.975   1.500  40.309 -0.0864  0.3781  0.1355
22605W        W27005   5.929   4.729  33.082 -0.2377  0.2009 -0.1444
22606W        W27006   0.049   0.355  38.230 -0.3149 -0.0535  0.1044
22607W        W27007   4.948   2.669  13.426 -0.0139  0.2646  0.1323
22608W        W27008  13.689   1.239  10.892  0.2281  0.0630  0.0084
22609W        W27009  19.268   3.202  11.128  0.0369  0.0339 -0.2287
22610W        W27010  15.398   4.417  40.806 -0.2957 -0.3374  0.1160
22611W        W27011  11.628   1.351  30.465  0.2079 -0.1606  0.1336
22612W        W27012  19.285   4.913  12.251 -0.1282 -0.0091  0.3391
22613W        W27013  10.154   2.593  32.513 -0.1792 -0.0212 -0.1414
22614W        W27014   4.754   4.111  39.178 -0.1326 -0.2167  0.0556
22615W        W27015   6.782   0.365  43.618  0.1934 -0.0385 -0.5025
22616W        W27016   7.415   5.937  24.389 -0.3841  0.2212  0.0822
22617W        W27017   2.636   3.861  26.707 -0.1544 -0.1149 -0.2391
22618W        W27018  10.323   0.671   3.581 -0.1545 -0.3367 -0.1823
22619W        W27019   2.772   3.681  42.950 -0.1934 -0.1194 -0.3933
22620W        W27020  18.696   4.620   5.168 -0.1380  0.0306  0.0881
22621W        W27021   8.443   2.816  38.551 -0.1705 -0.0855 -0.0503
22622W        W27022  17.510   6.215   6.878 -0.0997 -0.0787 -0.0538
22623W        W27023  19.715   2.456  27.453 -0.1764  0.1250 -0.5828
22624W        W27024   6.528   2.554  36.191 -0.2061  0.0533  0.0519
22625W        W27025   7.169   3.274  11.340  0.0383 -0.0285 -0.2163
22626W        W27026   7.539   0.664   8.219  0.0223  0.1772  0.1432
22627W        W27027   0.588   3.922  31.666  0.0467 -0.3933  0.1721
22628W        W27028   5.698   1.731  26.815  0.1187  0.1861  0.0611
22629W        W27029   2.344   5.227   7.254  0.0307  0.2522 -0.0374
22630W        W27030  16.494   3.743  17.410 -0.1197  0.0781 -0.1405
22631W        W27031  16.628   2.988   8.282 -0.2943  0.2005  0.2262
22632W        W27032   7.828   6.373  40.779 -0.0858  0.2544 -0.3942
22633W        W27033  16.667   0.116  10.116  0.3395 -0.1715 -0.2789
22634W        W27034   0.356   1.945   0.295  0.0369 -0.0621  0.1983
22635W        W27035  13.655   0.927  31.044 -0.0997  0.0244  0.1332
22636W        W27036   2.107   6.593   4.909  0.0454  0.0024 -0.2793
22637W        W27037  21.132   2.934  39.617 -0.0951  0.0356  0.0249
22638W        W27038  13.778   0.831  16.773  0.3021 -0.0389  0.1079
22639W        W27039  12.282   1.832  33.290 -0.2390  0.0627  0.1231
22640W        W27040  14.610   5.346  16.381 -0.2803 -0.0156  0.0466
22641W        W27041   8.597   0.842  35.471 -0.0779  0.0515  0.1232
22642W        W27042  19.230   1.247   5.682 -0.1664 -0.2402  0.1589
22643W        W27043   1.487   2.421  28.500  0.2291 -0.1826 -0.2233
22644W        W27044   2.008   0.821  11.105 -0.1688  0.1085  0.0697
22645W        W27045   5.682   6.242   5.813 -0.3813  0.1329 -0.0369
22646W        W27046   0.224   2.054  32.091 -0.3045  0.0500  0.1308
22647W        W27047  17.620   4.073   3.434  0.0789 -0.0506  0.3679
22648W        W27048  10.422   0.492  17.310  0.0333  0.1462 -0.0923
22649W        W27049   5.556   5.674   9.302 -0.2976 -0.0053 -0.1789
22650W        W27050  20.167   6.018  14.184  0.0217  0.0445  0.1764
22651W        W27051   3.004   6.259  26.335 -0.3559  0.0337  0.1185
22652W        W27052   0.111   1.716  32.483 -0.0741 -0.2289  0.2834
22653W        W27053  11.277   2.230  17.568 -0.0644  0.2321  0.1765
22654W        W27054   6.716   2.404  36.926 -0.3100  0.0531  0.1593
22655W        W27055   7.858   3.979   4.114 -0.3576  0.2028  0.1337
22656W        W27056  13.096   0.377  41.189 -0.0183 -0.2236 -0.0014
22657W        W27057   7.403   3.770  42.245 -0.1982  0.0149  0.2160
22658W        W27058  14.471   3.303  34.932 -0.1119  0.1774  0.2725
22659W        W27059  19.942   3.401   9.131  0.0593 -0.1684  0.2730
22660W        W27060  13.534   1.617  19.780  0.0816  0.1183  0.3548
22661W        W27061   5.486   5.956  38.797  0.0289 -0.0500 -0.2350
22662W        W27062  12.749   4.182  43.739  0.1875  0.0698  0.1643
22663W        W27063   8.616   2.944  35.776 -0.1281 -0.1926 -0.1665
22664W        W27064  17.509   5.104  31.031 -0.3033 -0.1620 -0.2757
22665W        W27065  15.041   4.979  18.096 -0.0957  0.0117  0.1227
22666W        W27066   7.396   5.952  38.693  0.1075  0.0760 -0.0000
22667W        W27067  20.712   2.875  14.244 -0.1217  0.1522  0.0058
22668W        W27068  12.278   2.286  21.099 -0.1752  0.1275  0.3434
22669W        W27069  17.613   4.399  38.243  0.1832  0.1514  0.1379
22670W        W27070  17.364   6.063  13.454  0.1901  0.0358 -0.0830
22671W        W27071  11.705   3.026   0.423 -0.1791 -0.3767 -0.3380
22672W        W27072  16.593   6.132  11.872  0.1152 -0.2289 -0.0864
22673W        W27073  11.141   0.067   6.937  0.1857  0.2359 -0.0349
22674W        W27074  17.473   0.301  36.986 -0.0892 -0.1840 -0.0424
22675W        W27075   3.625   2.990  10.718 -0.0119 -0.0953  0.0929
22676W        W27076   5.642   1.124  21.456  0.2904 -0.0930  0.1165
22677W        W27077  17.068   2.979  30.694 -0.1373  0.0798 -0.0089
22678W        W27078  13.611   3.103   7.975  0.0288  0.0614 -0.1231
22679W        W27079   3.504   3.945  21.076 -0.0852 -0.0103 -0.0482
22680W        W27080   7.413   6.412  33.341  0.1680 -0.2305 -0.2812
22681W        W27081   3.860   5.155   1.760 -0.0431 -0.2678  0.0486
22682W        W27082   9.902   5.981  35.443  0.2365  0.0036  0.0860
22683W        W27083  20.031   0.629  38.304  0.0087  0.1940 -0.1642
22684W        W27084  18.660   3.295  43.925  0.1538 -0.0554  0.0867
22685W        W27085  17.674   0.355  34.846 -0.0873 -0.2318  0.0214
22686W        W27086  10.681   5.725  38.393 -0.5279  0.0914 -0.0787
22687W        W27087  18.463   6.363   9.448  0.0808  0.0124 -0.0472
22688W        W27088   2.907   2.328   1.029 -0.1316  0.3125  0.3084
22689W        W27089  21.098   1.105  13.318 -0.1053 -0.2192 -0.1836
22690W        W27090  12.140   3.833   2.421  0.0107  0.1339  0.1131
22691W        W27091   0.149   5.126  38.695 -0.0493  0.1458 -0.2222
22692W        W27092  13.765   1.380  30.777 -0.0201 -0.2403 -0.0634
22693W        W27093   7.766   2.096   0.904  0.0751  0.1185 -0.0160
22694W        W27094  17.109   2.864  13.547  0.1361 -0.1458  0.2666
22695W        W27095  17.265   3.076  15.974  0.0976 -0.1180 -0.2638
22696W        W27096  14.554   6.312   4.705  0.0696 -0.1187 -0.4722
22697W        W27097  19.083   1.228  16.004 -0.0489 -0.2321  0.0267
22698W        W27098  14.793   3.841  40.534 -0.3415 -0.1062 -0.1741
22699W        W27099  19.508   6.483  29.535  0.0804  0.1892 -0.2086
22700W        W27100  20.961   2.393  32.428 -0.2162  0.3899  0.0439
22701W        W27101   9.396   6.049   5.589  0.0213  0.0733 -0.1196
22702W        W27102  19.992   3.442  35.668  0.2021 -0.2488 -0.0834
22703W        W27103  13.421   3.485  15.693 -0.0738  0.2020 -0.1404
22704W        W27104   7.870   0.793  30.624 -0.0784 -0.0923 -0.2883
22705W        W27105  16.984   4.183   9.202 -0.1771  0.1260 -0.0098
22706W        W27106   5.099   5.215  28.401  0.0822 -0.3712 -0.1318
22707W        W27107   2.972   3.407   5.271 -0.0565 -0.0981  0.0244
22708W        W27108  19.510   4.675  27.416 -0.1450 -0.4721 -0.0919
22709W        W27109  20.726   2.488  33.363 -0.0693 -0.1330  0.3316
22710W        W27110   1.171   0.137  34.702  0.2414  0.0553 -0.0673
22711W        W27111  15.981   4.079  10.017 -0.1351 -0.3063 -0.1483
22712W        W27112  18.860   0.295  18.810  0.0137 -0.0137  0.2384
22713W        W27113   2.161   0.752  15.037 -0.2437 -0.0794  0.1143
22714W        W27114   6.804   5.916  27.828 -0.0685  0.3000  0.0447
22715W        W27115   9.722   4.888   4.809  0.1436 -0.0324  0.0703
22716W        W27116   5.833   3.876  32.057  0.3446 -0.1869 -0.0001
22717W        W27117   0.945   3.336  12.073  0.0314 -0.4990 -0.2242
22718W        W27118  14.949   6.355  29.020 -0.0881  0.2438 -0.2426
22719W        W27119   0.402   4.889  36.825  0.0385  0.2675  0.2421
22720W        W27120  15.393   4.847  43.867  0.0302 -0.0691  0.2006
22721W        W27121   4.742   3.736  28.474  0.0197 -0.1237  0.0150
22722W        W27122  19.350   0.228  32.077 -0.0357 -0.2002 -0.2241
22723W        W27123   2.916   4.009   9.319  0.1055  0.0034 -0.1368
22724W        W27124   5.609   6.119  12.877  0.0296 -0.0186 -0.0646
22725W        W27125   3.768   2.080   5.258  0.0515  0.1501  0.3552
22726W        W27126  11.588   0.022   5.017  0.0354 -0.2288  0.1055
22727W        W27127   5.094   5.381  12.423  0.0740  0.5308 -0.2178
22728W        W27128  20.310   3.016  25.611 -0.1838  0.0146  0.0632
22729W        W27129   4.712   2.889   1.721 -0.4106 -0.2473  0.1424
22730W        W27130   1.716   2.784   3.959  0.1382 -0.0065  0.3992
22731W        W27131   4.347   1.764  43.047 -0.1081 -0.3524 -0.2901
22732W        W27132  12.267   1.517   1.647  0.0608 -0.2094 -0.3742
22733W        W27133  11.003   6.578  30.014 -0.1537  0.0254 -0.0626
22734W        W27134   6.338   0.303  38.475  0.0304  0.2627  0.0270
22735W        W27135   2.123   2.509   8.460  0.2237 -0.1458  0.1483
22736W        W27136  11.626   5.303   9.921 -0.1652 -0.1240 -0.0800
22737W        W27137  16.083   0.108  23.704  0.2485  0.3285 -0.0686
22738W        W27138   1.798   2.971  12.150 -0.4406 -0.1227  0.2269
22739W        W27139  20.200   1.096  16.919  0.3291 -0.0440  0.1156
22740W        W27140  16.874   1.987  34.609 -0.0188  0.1555  0.2207
22741W        W27141  13.671   1.797  17.186  0.0040 -0.0100  0.0888
22742W        W27142  10.903   6.167   3.678  0.1767  0.1229  0.1164
22743W        W27143  17.599   4.042  43.370  0.1436 -0.2144 -0.2078
22744W        W27144  13.700   0.039  39.249 -0.3450 -0.0394 -0.4535
22745W        W27145   5.063   0.906  37.510  0.2988 -0.1455 -0.3063
22746W        W27146   4.854   0.439  39.606 -0.1770  0.0774 -0.2124
22747W        W27147  19.157   5.266  30.579  0.0505 -0.1301 -0.1633
22748W        W27148  17.899   1.865  20.506  0.0584  0.1081  0.2019
22749W        W27149   0.937   2.025  37.362 -0.3346  0.1832  0.0340
22750W        W27150  19.881   3.545   2.348  0.1059 -0.2356 -0.2778
22751W        W27151  17.368   4.946  40.703  0.2939 -0.0054 -0.3209
22752W        W27152  19.729   0.582  10.285 -0.0455  0.0275 -0.0405
22753W        W27153  15.723   3.629  15.841  0.2760 -0.1015  0.2015
22754W        W27154  14.055   3.422  41.157 -0.1612 -0.3845  0.0062
22755W        W27155  12.606   1.633  30.254 -0.0394 -0.1905 -0.0655
22756W        W27156  15.975   4.380   7.207 -0.3637  0.1462 -0.1422
22757W        W27157  20.138   2.470  17.403  0.1329  0.1800 -0.0681
22758W        W27158  17.765   3.797  32.726  0.2770 -0.3778  0.3008
22759W        W27159   6.906   1.648   0.940  0.2308  0.1525 -0.0275
22760W        W27160  19.592   3.383  40.785  0.4321 -0.2110 -0.1282
22761W        W27161   0.239   2.315   2.302 -0.0182 -0.0063  0.0607
22762W        W27162  20.897   5.208  43.812 -0.0779 -0.0715  0.4695
22763W        W27163  14.714   0.538  10.539  0.4415  0.2754 -0.0737
22764W        W27164  20.617   6.385  33.113  0.2120 -0.2453  0.1330
22765W        W27165   6.737   5.748  42.504  0.2904  0.0438 -0.1037
22766W        W27166  19.238   6.483  42.863  0.3453 -0.4494 -0.1356
22767W        W27167   5.720   6.401   2.186 -0.0227  0.1781 -0.2401
22768W        W27168  17.552   6.501  38.696 -0.1485  0.2927 -0.3487
22769W        W27169   9.578   0.811  18.205 -0.1298 -0.4096 -0.3353
22770W        W27170  21.093   6.363   5.575 -0.0071  0.0294  0.0045
22771W        W27171   3.106   5.386   1.704 -0.0342  0.0856  0.3648
22772W        W27172  11.310   1.986   1.065 -0.0870  0.1033 -0.1449
22773W        W27173  18.547   5.862  30.704  0.1797  0.3392  0.1490
22774W        W27174  17.180   5.643  44.364  0.2907 -0.0720  0.1344
22775W        W27175   1.312   0.127  37.001  0.0329 -0.2648 -0.2450
22776W        W27176   6.260   1.962  42.610 -0.1149  0.0095  0.1022
22777W        W27177  17.656   0.116  29.655  0.1710 -0.0106 -0.2655
22778W        W27178  11.888   4.203  13.598 -0.1353 -0.0196 -0.1126
22779W        W27179  16.368   0.269   0.158 -0.1965  0.1448  0.0409
22780W        W27180  14.509   5.409  43.205  0.3134  0.1293 -0.0366
22781W        W27181  10.194   5.591  35.367  0.0137  0.0606 -0.2157
22782W        W27182   6.436   3.772  27.884 -0.3132 -0.1052  0.2331
22783W        W27183   6.666   6.235  26.318  0.0522  0.0263 -0.1896
22784W        W27184   5.390   3.009  27.477 -0.0689  0.1068 -0.0276
22785W        W27185   6.094   1.745  24.950 -0.1339 -0.1217  0.2392
22786W        W27186  10.192   0.232  13.305 -0.0899 -0.2915 -0.1766
22787W        W27187   5.397   0.081  31.475  0.1537 -0.0386 -0.0626
22788W        W27188  17.688   4.175  34.378 -0.2785 -0.1063 -0.0738
22789W        W27189   6.636   4.144  24.578  0.2625 -0.3045  0.1549
22790W        W27190   7.634   2.065  32.678 -0.2841  0.1686  0.1527
22791W        W27191   9.587   6.223  39.696  0.0561 -0.1047 -0.0839
22792W        W27192   4.427   1.021  40.324 -0.3098 -0.1043  0.0629
22793W        W27193  15.647   0.763  17.827 -0.2985 -0.4135 -0.0511
22794W        W27194  20.245   1.230  30.637  0.0311  0.1070 -0.3654
22795W        W27195  18.361   1.284  40.081 -0.1902  0.2489 -0.0057
22796W        W27196   7.676   1.706  30.356 -0.2074  0.0082 -0.0470
22797W        W27197  11.848   5.027   0.921  0.2773 -0.2833  0.2657
22798W        W27198  20.797   5.112  42.702 -0.0574  0.0722  0.1738
22799W        W27199  12.801   1.655   1.700  0.1590 -0.1663  0.0869
22800W        W27200  15.626   1.980   4.027  0.0958 -0.0970 -0.0849
22801W        W27201  10.560   0.229  14.555  0.1221  0.1233 -0.0086
22802W        W27202  18.106   6.375   4.295  0.0452 -0.0437 -0.1318
22803W        W27203  16.902   3.606  11.201  0.0295 -0.3798 -0.3357
22804W        W27204   9.699   1.191  15.209 -0.1159 -0.1031  0.1012
22805W        W27205  19.060   6.141   2.799  0.3858 -0.0550 -0.0175
22806W        W27206  20.864   5.163  37.918 -0.0696  0.1107  0.0108
22807W        W27207   6.684   1.905  14.879 -0.0583 -0.1767 -0.1015
22808W        W27208   3.664   2.885   8.573 -0.2384 -0.1393 -0.2037
22809W        W27209  17.994   2.470   3.242  0.0429 -0.1086  0.1726
22810W        W27210  20.450   6.040   2.389  0.2410  0.2682 -0.0355
22811W        W27211  18.981   2.656  36.608 -0.1659 -0.1297 -0.0115
22812W        W27212  12.680   2.389   8.605  0.0588 -0.0023  0.2555
22813W        W27213   4.140   1.670  22.833 -0.0547 -0.1018 -0.0554
22814W        W27214   7.822   3.588  31.990  0.3309  0.1348  0.2506
22815W        W27215  14.508   0.236  44.730 -0.0673 -0.0414  0.2504
22816W        W27216  15.923   3.432  32.373 -0.0340  0.1206  0.0443
22817W        W27217   7.994   2.407  41.090  0.1989  0.0759  0.2698
22818W        W27218   2.386   0.264  14.992 -0.0057  0.5369 -0.1761
22819W        W27219   9.139   0.006   6.714 -0.0671  0.0773 -0.1781
22820W        W27220   4.391   4.453  43.745  0.0184  0.0108  0.1044
22821W        W27221  12.807   5.102   7.989  0.3082  0.1789 -0.1971
22822W        W27222  11.929   0.071   9.175 -0.2326  0.0766 -0.2406
22823W        W27223   7.701   4.135  15.267  0.0860 -0.1740 -0.0000
22824W        W27224   9.622   1.369   0.829  0.1031 -0.0484 -0.0201
22825W        W27225  16.786   1.827   7.797  0.0079 -0.0102 -0.2438
22826W        W27226  10.459   0.060  20.128 -0.0155 -0.1217 -0.1790
22827W        W27227   2.716   1.096   4.635  0.1842 -0.0971 -0.0853
22828W        W27228   6.924   4.059  12.796 -0.1263  0.0592  0.1244
22829W        W27229  14.203   4.205  38.518 -0.1549 -0.1943  0.1974
22830W        W27230  14.425   2.241  37.251 -0.0255  0.0773 -0.3288
22831W        W27231   6.375   0.524  34.091  0.2903 -0.4362 -0.2268
22832W        W27232   0.626   2.621  27.923 -0.2192 -0.2225  0.0880
22833W        W27233  13.219   5.564  41.493  0.1114 -0.0142  0.2431
22834W        W27234   4.249   4.404  27.968 -0.1114 -0.1223 -0.0645
22835W        W27235   9.118   2.712  19.306 -0.0133  0.0365  0.2444
22836W        W27236  17.848   1.576  16.029 -0.0000  0.0654  0.1583
22837W        W27237  19.912   1.620  41.693  0.0069  0.2201 -0.2262
22838W        W27238   8.145   5.937  27.197 -0.0773 -0.1277  0.0206
22839W        W27239  10.553   5.758  13.747  0.1021  0.1264 -0.0724
22840W        W27240  15.164   4.853  33.903  0.0669 -0.1951  0.1095
22841W        W27241  15.977   0.631  36.575  0.1540  0.2341  0.0495
22842W        W27242   2.468   5.600  36.889 -0.0118  0.0343  0.3573
22843W        W27243   5.377   2.223   3.734 -0.3968  0.1713  0.0048
22844W        W27244  16.946   3.233   9.203 -0.2837  0.1154  0.0381
22845W        W27245   3.033   0.884  45.010 -0.2545  0.1049  0.1577
22846W        W27246   0.288   5.540   5.947  0.0712  0.2040  0.0133
22847W        W27247   9.878   0.466  29.378 -0.1630 -0.0805  0.1011
22848W        W27248  12.443   5.717  20.325 -0.3554 -0.3121 -0.1184
22849W        W27249   0.825   5.124  41.146 -0.3595  0.1815  0.2628
22850W        W27250   6.588   0.769  28.025  0.2793 -0.1617  0.0610
22851W        W27251  13.668   5.339  29.324 -0.0234  0.2191  0.0220
22852W        W27252   8.463   5.880  12.033  0.0132  0.1652  0.0537
22853W        W27253  10.343   0.134   2.936 -0.2091 -0.0816 -0.6345
22854W        W27254  10.888   2.983  37.471 -0.2955 -0.1085 -0.0141
22855W        W27255   2.634   6.155  36.118 -0.2144  0.0155 -0.2033
22856W        W27256  18.352   1.281  33.642  0.0279 -0.0264 -0.4613
22857W        W27257   6.160   5.100   0.474 -0.3927 -0.1902  0.1951
22858W        W27258   7.445   2.503  17.436  0.2601  0.2972  0.1142
22859W        W27259   5.371   4.393   3.434 -0.1287 -0.0262  0.1296
22860W        W27260  16.948   0.503   5.420 -0.3304 -0.0345  0.2532
22861W        W27261   3.679   3.171  15.426 -0.2608  0.1451 -0.0321
22862W        W27262  13.858   1.161  35.778  0.0958 -0.1931 -0.1205
22863W        W27263  17.601   3.076  10.687 -0.3122  0.5655  0.2478
22864W        W27264  20.099   2.946  31.018  0.0134  0.1552  0.0565
22865W        W27265  19.603   0.998  10.642  0.3645 -0.0846 -0.1522
22866W        W27266  12.114   2.958  42.845  0.2604 -0.1186 -0.1229
22867W        W27267  14.999   4.398  30.996  0.0595  0.0534  0.0675
22868W        W27268  20.020   0.638  31.189 -0.2217  0.0592  0.0684
22869W        W27269  13.719   2.088   1.134 -0.0214 -0.1905 -0.0725
22870W        W27270   9.862   2.286  32.211 -0.1325 -0.0638  0.1452
22871W        W27271  20.669   5.239  34.451  0.2039 -0.0843  0.0703
22872W        W27272  19.298   1.775  32.570 -0.2041 -0.2279 -0.0177
22873W        W27273   9.718   2.822  42.807 -0.2749 -0.2731  0.1014
22874W        W27274  15.173   0.402  15.590 -0.2078 -0.0093 -0.0346
22875W        W27275  12.025   1.931   9.278 -0.0342 -0.1999  0.0362
22876W        W27276   1.085   5.579  44.797  0.0625  0.1308  0.1543
22877W        W27277  20.633   2.895  31.230  0.1345  0.4025 -0.1347
22878W        W27278   6.024   3.465   6.748  0.1878 -0.1486 -0.2121
22879W        W27279  18.923   6.471   7.580 -0.2244  0.2433  0.1496
22880W        W27280   1.912   4.231  31.818 -0.1437  0.1593  0.3916
22881W        W27281  11.168   1.042  20.245  0.0486 -0.4731  0.1928
22882W        W27282  11.835   3.996  35.105 -0.0473  0.0459 -0.0251
22883W        W27283  17.938   2.130  14.240  0.2643 -0.3203  0.4126
22884W        W27284  10.038   6.359  33.021 -0.2899  0.0780  0.2051
22885W        W27285   6.488   3.581  24.833  0.0944 -0.1560 -0.0207
22886W        W27286  18.814   2.502  34.286  0.0471  0.1508  0.2804
22887W        W27287  11.376   2.856  37.708 -0.0599  0.0803 -0.2028
22888W        W27288   5.203   4.541   4.470 -0.1290  0.2443  0.0295
22889W        W27289   5.986   1.896  41.734  0.1908 -0.1417 -0.0115
22890W        W27290  16.968   0.625   0.824  0.1975  0.0247 -0.2028
22891W        W27291  11.727   2.384  19.617  0.0854 -0.2445 -0.3972
22892W        W27292   9.565   5.599  28.984 -0.0092 -0.0567  0.1557
22893W        W27293  19.408   4.667  33.022 -0.1497  0.2330 -0.0270
22894W        W27294   7.409   2.755  41.279  0.0768  0.2051  0.1453
22895W        W27295  16.874   3.667  17.825  0.4413  0.0361 -0.1343
22896W        W27296   5.613   0.479  23.147  0.0429  0.0878 -0.0578
22897W        W27297  13.158   1.403  34.338  0.1982  0.0581 -0.4135
22898W        W27298  13.384   3.558  30.868  0.0926 -0.0480 -0.3141
22899W        W27299   9.366   6.588   7.155  0.0269 -0.1065  0.0860
22900W        W27300  14.546   5.459  38.418  0.2086  0.1308 -0.0862
22901W        W27301   5.666   0.990  23.210 -0.0394 -0.0241  0.2986
22902W        W27302  10.495   1.725   4.559  0.0613  0.6767 -0.0372
22903W        W27303   5.604   3.871  29.290 -0.2214  0.0836  0.2353
22904W        W27304  13.318   0.052  36.041 -0.0847  0.1103  0.0724
22905W        W27305  11.076   2.975   4.288 -0.0307  0.0039 -0.1021
22906W        W27306  18.517   4.670   0.875 -0.4506 -0.1351  0.2478
22907W        W27307  17.764   3.819  37.020 -0.1880 -0.1143  0.2953
22908W        W27308   1.663   2.424  37.410  0.1156 -0.1490  0.0578
22909W        W27309   2.381   3.781   1.344  0.4790  0.0393  0.1580
22910W        W27310   5.413   5.417  33.463  0.0261  0.2858 -0.0793
22911W        W27311  20.499   6.283   2.840  0.2952  0.2714 -0.1117
22912W        W27312  15.704   5.702  40.439  0.1144  0.1339 -0.1594
22913W        W27313   4.241   3.246   8.239 -0.1484 -0.0727 -0.1607
22914W        W27314  17.653   3.712   9.868  0.2184 -0.1393 -0.1242
22915W        W27315  19.656   3.128  34.751  0.1424  0.2581  0.3023
22916W        W27316   7.564   0.846   4.613 -0.0600 -0.0064  0.0470
22917W        W27317  16.744   0.477  21.980 -0.2673 -0.3246 -0.0907
22918W        W27318  16.957   4.533  43.869 -0.0434  0.1423 -0.1220
22919W        W27319   9.856   3.481  16.809  0.0405 -0.0509 -0.0245
22920W        W27320  19.842   1.566   2.615  0.0671  0.0909 -0.1133
22921W        W27321   5.231   0.626  36.464 -0.4706  0.0315  0.1034
22922W        W27322  15.679   3.711   9.514 -0.0414  0.0184  0.2133
22923W        W27323  13.351   4.462  21.752  0.1464 -0.0259  0.2161
22924W        W27324  16.791   4.993  36.349 -0.1323 -0.1441 -0.0344
22925W        W27325   4.479   5.729  43.670 -0.4979  0.0391 -0.0599
22926W        W27326   0.651   1.020  44.103 -0.0649  0.0608 -0.0971
22927W        W27327   4.882   5.432   6.914 -0.0246 -0.0097 -0.0869
22928W        W27328   8.150   5.275  36.911  0.0121  0.2124  0.0667
22929W        W27329   5.563   5.407  30.250 -0.0227 -0.1307  0.1533
22930W        W27330   3.345   3.693  34.274 -0.0304 -0.0747 -0.1699
22931W        W27331  20.614   0.913  39.098  0.0066 -0.0418  0.2847
22932W        W27332  12.672   2.159  35.592 -0.0940 -0.0239 -0.1091
22933W        W27333   4.546   4.818  27.796  0.1024 -0.1905  0.1273
22934W        W27334  20.082   3.716  12.646  0.0393  0.0912 -0.0457
22935W        W27335   5.324   3.387   3.320  0.2520 -0.1324  0.0706
22936W        W27336   8.254   0.565  31.939 -0.0770  0.3094 -0.0722
22937W        W27337  13.436   3.286  37.851 -0.0229  0.2850 -0.0222
22938W        W27338  14.473   0.180  36.731  0.2948 -0.3364  0.1113
22939W        W27339   3.055   1.306  44.715  0.0131 -0.1525 -0.0701
22940W        W27340   3.115   2.656  41.502  0.1029  0.0024 -0.2312
22941W        W27341   4.324   5.118  22.250 -0.1901  0.0281 -0.0874
22942W        W27342  14.314   4.856   6.474  0.1124 -0.0224  0.0235
22943W        W27343   8.569   2.506  29.642  0.2440 -0.0117 -0.0566
22944W        W27344  17.295   3.888  39.585  0.0067  0.0715  0.0205
22945W        W27345   8.197   2.246  25.616  0.0318 -0.0472  0.0502
22946W        W27346   6.372   3.639  38.185  0.2217 -0.2225  0.0063
22947W        W27347   1.022   3.818   7.653 -0.1509 -0.0575  0.0328
22948W        W27348   4.096   3.405  12.013  0.0545 -0.1061 -0.3606
22949W        W27349  10.958   3.347   3.362 -0.1617 -0.5113  0.0797
22950W        W27350   0.785   5.113   8.039 -0.1676  0.1182 -0.0608
22951W        W27351   5.936   6.074   8.928 -0.3485 -0.1822 -0.1802
22952W        W27352   4.801   6.402  24.946  0.5585  0.0471  0.2544
22953W        W27353  20.350   3.952  35.683  0.0774  0.0838  0.1123
22954W        W27354  10.581   2.251   0.336  0.2196  0.2129  0.2620
22955W        W27355   2.657   5.030   3.763  0.0199  0.1044  0.0042
22956W        W27356  11.213   3.868   5.499 -0.0941  0.0444 -0.2486
22957W        W27357  18.231   4.522  30.635 -0.0044  0.0664  0.0754
22958W        W27358  11.366   4.869  35.187  0.2893  0.0148 -0.2795
22959W        W27359   5.050   3.074  23.586 -0.3347 -0.1774  0.0337
22960W        W27360  15.649   3.863  19.047  0.4029  0.1356  0.2215
22961W        W27361  18.606   3.588  43.539 -0.0821 -0.1462  0.0679
22962W        W27362   2.856   2.292  37.028  0.0744  0.3536 -0.1364
22963W        W27363  14.117   4.416  31.147  0.1278  0.0958 -0.0426
22964W        W27364  19.675   1.950  38.188 -0.1959  0.2762  0.1612
22965W        W27365  10.858   2.575  42.642  0.1759  0.1647 -0.1392
22966W        W27366   4.512   0.868  25.016 -0.0605 -0.2422  0.0474
22967W        W27367  12.700   5.604  33.451  0.0984  0.1228 -0.0274
22968W        W27368   3.103   3.795  13.869  0.3512 -0.0715 -0.1205
22969W        W27369   7.988   2.338  44.302 -0.1488  0.1295  0.3016
22970W        W27370  18.754   0.257   1.545  0.0098  0.1596  0.1304
22971W        W27371  13.968   0.162  38.529 -0.0275 -0.1312 -0.0822
22972W        W27372   4.906   0.114   7.243  0.1399 -0.0495  0.0468
22973W        W27373  19.276   6.583  40.695 -0.1044  0.0783 -0.0257
22974W        W27374  10.410   3.178  10.449 -0.2240  0.0060  0.1553
22975W        W27375  16.508   2.363  19.055  0.0387 -0.1568  0.1131
22976W        W27376   7.918   4.602  13.876 -0.0594  0.0405  0.3083
22977W        W27377  12.560   4.735  12.677  0.0890 -0.0640  0.1752
22978W        W27378   9.614   5.717  39.447  0.0426 -0.0721 -0.3613
22979W        W27379   4.734   3.681  41.288  0.4356 -0.2071 -0.3372
22980W        W27380  20.778   2.977  34.493 -0.1776 -0.1792 -0.2588
22981W        W27381  19.772   3.878  43.682 -0.4026  0.0193 -0.1798
22982W        W27382  20.939   1.325  14.894  0.0568 -0.0663 -0.1333
22983W        W27383   3.472   1.746  27.055  0.3345 -0.2231  0.0786
22984W        W27384   1.227   3.878   0.915  0.2480  0.0212  0.0009
22985W        W27385  20.355   2.532  26.190 -0.1717 -0.3226  0.1335
22986W        W27386  17.965   5.417  41.441 -0.2594  0.3416 -0.0052
22987W        W27387  15.921   4.106  19.476  0.0456  0.0411 -0.0580
22988W        W27388   7.907   3.451   1.898 -0.0016 -0.1312 -0.5622
22989W        W27389  13.043   3.334  11.231  0.2281  0.3305 -0.0254
22990W        W27390  10.365   4.345  11.683  0.0190  0.2140 -0.4481
22991W        W27391  20.900   0.316  29.673 -0.1408  0.1926 -0.0321
22992W        W27392  17.194   2.530  18.982 -0.1147 -0.1639  0.0487
22993W        W27393   5.629   0.984   5.627 -0.1017  0.0858 -0.0805
22994W        W27394   7.941   1.790  37.780 -0.0523  0.1334 -0.0917
22995W        W27395  11.926   6.111  19.308  0.2304 -0.1353 -0.1656
22996W        W27396   4.290   3.045  26.661  0.2327  0.3810 -0.0949
22997W        W27397  16.398   6.248  14.469 -0.2105  0.0552  0.0777
22998W        W27398  15.988   2.463  13.145 -0.0500 -0.0875  0.1428
22999W        W27399  18.386   2.818   0.337  0.0251  0.5995 -0.0085
23000W        W27400  11.903   6.329  38.224 -0.0933  0.0870  0.1843
23001W        W27401  16.587   1.023  13.023 -0.0732  0.1964  0.2215
23002W        W27402   3.435   1.044   1.765  0.1668 -0.1912 -0.0507
23003W        W27403  19.447   0.917   2.883 -0.2823  0.1087  0.1710
23004W        W27404   9.719   1.906  39.605  0.0384  0.0186  0.0781
23005W        W27405  15.351   6.157  40.645 -0.2050  0.0649  0.0118
23006W        W27406  19.956   3.825   3.951 -0.1854 -0.0305 -0.0614
23007W        W27407   2.751   0.467  10.842  0.0614 -0.1981 -0.1553
23008W        W27408  13.837   2.633  39.478  0.0767 -0.0692  0.1015
23009W        W27409  11.365   1.657  35.786  0.0364 -0.1543 -0.0179
23010W        W27410   2.110   0.398  23.110  0.0170  0.1265 -0.1195
23011W        W27411  13.596   3.459   5.190 -0.0967 -0.1399  0.1129
23012W        W27412  16.362   4.526  32.631  0.0284  0.1422  0.1407
23013W        W27413   7.342   4.155  14.496 -0.2252 -0.0156 -0.1063
23014W        W27414   3.830   1.555  22.452  0.0053  0.0224  0.1527
23015W        W27415  17.139   2.986  20.571  0.2134  0.0258 -0.0793
23016W        W27416  20.722   0.274  13.885 -0.3181 -0.1190 -0.2711
23017W        W27417  16.269   1.832  36.783  0.1654 -0.0069  0.0120
23018W        W27418  17.855   4.435   5.969  0.2686  0.2899 -0.0393
23019W        W27419  10.321   0.215   9.057  0.0448 -0.1418 -0.3420
23020W        W27420  12.134   4.541  12.822  0.0171 -0.1563 -0.1454
23021W        W27421  16.621   2.491  21.329  0.2493  0.1517 -0.0787
23022W        W27422   6.441   1.572  30.123  0.1437  0.2579 -0.0299
23023W        W27423   5.967   6.524  26.901 -0.1108 -0.0251 -0.0604
23024W        W27424  11.079   4.932   6.379 -0.0617 -0.1899  0.1466
23025W        W27425  14.070   6.015  17.289  0.3557  0.0003 -0.3089
23026W        W27426   3.995   5.362  35.827 -0.0910 -0.2703  0.0002
23027W        W27427   9.520   4.473  15.374  0.0972 -0.0349  0.0460
23028W        W27428   3.714   3.505  13.243 -0.0274 -0.3337 -0.1986
23029W        W27429  20.485   3.830  31.272 -0.0210  0.0644 -0.1839
23030W        W27430  15.482   0.491  42.387  0.3220  0.1162 -0.0575
23031W        W27431   1.542   3.575  30.532 -0.0689  0.0351  0.2357
23032W        W27432   7.670   0.209  33.516 -0.0673 -0.1165 -0.2296
23033W        W27433   2.953   3.539  28.567 -0.0921  0.1192 -0.0453
23034W        W27434  12.158   0.170  43.364 -0.0143  0.1606 -0.3381
23035W        W27435   1.374   1.914  30.903 -0.1480 -0.1183 -0.0780
23036W        W27436  12.995   1.261  32.860 -0.1937 -0.2020 -0.0283
23037W        W27437   5.238   5.428  13.880 -0.0176 -0.0794  0.3312
23038W        W27438  18.561   1.871  30.153  0.0131 -0.1734 -0.1434
23039W        W27439  11.500   5.166   0.352  0.4132  0.0685  0.2710
23040W        W27440  21.126   1.881  13.384 -0.1660 -0.0901  0.1918
23041W        W27441  19.714   2.968   1.624 -0.3167 -0.1105 -0.2313
23042W        W27442   9.930   1.379   7.052  0.3035 -0.1515  0.1816
23043W        W27443  13.638   2.543  16.567  0.2464 -0.0444  0.1451
23044W        W27444  14.797   5.692  43.474  0.0486  0.1480  0.1388
23045W        W27445  10.014   5.132  41.900 -0.1062 -0.2008 -0.1648
23046W        W27446   8.780   3.092   1.543  0.3484 -0.2295 -0.0329
23047W        W27447  13.585   5.395  22.435 -0.1240  0.1164 -0.0552
23048W        W27448  14.138   1.079  13.236  0.2502 -0.1207 -0.1254
23049W        W27449   9.454   4.674  29.111  0.0173  0.1364  0.0112
23050W        W27450   2.764   5.933  40.804 -0.1419  0.0214  0.0441
23051W        W27451  11.945   4.409  17.631 -0.0671  0.0401 -0.1529
23052W        W27452  17.651   5.947   3.456 -0.0550 -0.2164  0.1362
23053W        W27453   9.454   6.604  44.681 -0.0302 -0.3763  0.0032
23054W        W27454   3.372   4.164  39.214  0.0147 -0.5245  0.1985
23055W        W27455   2.365   4.473   1.511  0.2099 -0.0603  0.0758
23056W        W27456  20.181   3.402  16.723 -0.1526  0.0068  0.2045
23057W        W27457   7.534   6.555   9.577  0.3708  0.0005  0.3216
23058W        W27458  20.929   5.420  32.739 -0.1991 -0.0328  0.0983
23059W        W27459  17.664   3.472   1.639 -0.4905 -0.2858 -0.2535
23060W        W27460  18.962   5.972  14.182 -0.2859  0.2121 -0.0684
23061W        W27461  16.070   4.274  20.571  0.0133 -0.2839 -0.0437
23062W        W27462   8.957   4.968  34.430 -0.0513 -0.0942 -0.0929
23063W        W27463   6.285   2.353  37.671  0.1617 -0.1488 -0.0303
23064W        W27464   8.453   4.525  27.549 -0.1798  0.2133 -0.0367
23065W        W27465  14.733   4.495  42.849 -0.0332  0.1787  0.1236
23066W        W27466  16.925   6.339  30.629 -0.0595 -0.1491  0.2811
23067W        W27467  13.617   6.260  15.604  0.1491  0.1243 -0.0057
23068W        W27468  17.276   2.908   9.519 -0.1626  0.0739  0.0774
23069W        W27469  17.725   2.708   9.708 -0.1879 -0.1633 -0.1651
23070W        W27470   6.136   5.943  44.228 -0.2031 -0.0437 -0.2687
23071W        W27471   2.207   2.352  39.388  0.0710 -0.1924  0.1489
23072W        W27472  13.947   5.382   0.259 -0.1401  0.0541  0.2551
23073W        W27473  14.695   0.109  40.310 -0.0705  0.3461  0.1653
23074W        W27474  11.426   2.642   8.745 -0.2969  0.0052  0.3198
23075W        W27475  13.537   3.244   3.823  0.0803 -0.0981  0.0578
23076W        W27476  15.664   4.707  33.939 -0.2522  0.0925 -0.0541
23077W        W27477   9.123   3.728  41.418  0.1547 -0.1683  0.1142
23078W        W27478  16.188   1.501  44.641 -0.1479 -0.0097  0.0550
23079W        W27479  14.989   0.554  12.184  0.1653  0.2412 -0.2088
23080W        W27480   9.579   0.444  13.153 -0.0776 -0.2045 -0.2320
23081W        W27481  14.698   3.917  39.337 -0.2427 -0.2362 -0.0429
23082W        W27482  14.642   4.819   4.925 -0.2006 -0.0206 -0.1162
23083W        W27483  11.394   5.204  39.974 -0.1280  0.2132 -0.0857
23084W        W27484   3.487   4.313  37.849 -0.0897 -0.2023  0.0782
23085W        W27485   2.520   1.689  35.402  0.3106 -0.3823  0.0074
23086W        W27486  16.664   3.125   7.681 -0.1204  0.0571 -0.0621
23087W        W27487  16.812   4.693  34.303  0.0315  0.1432  0.1937
23088W        W27488   4.875   2.977  39.716 -0.0250  0.2153 -0.1612
23089W        W27489   0.972   0.484   7.787  0.1709 -0.1491 -0.1358
23090W        W27490   2.601   2.640  13.104  0.0179 -0.1522 -0.2064
23091W        W27491   7.164   1.244  37.379  0.1203 -0.2611 -0.2986
23092W        W27492   9.084   2.863  17.913  0.0704 -0.1001 -0.0686
23093W        W27493   7.437   5.104  11.848  0.2500  0.0570 -0.3318
23094W        W27494   0.892   3.166  24.977  0.3713 -0.0757  0.2311
23095W        W27495  15.666   3.858  38.216  0.0668 -0.0292  0.3240
23096W        W27496   1.411   5.415  29.641 -0.3518 -0.1940 -0.2302
23097W        W27497  10.270   2.603   3.514 -0.2310  0.1705  0.2859
23098W        W27498   9.045   2.609  44.725  0.0124 -0.1202  0.1734
23099W        W27499   8.453   4.589  42.155  0.0645 -0.2594  0.0766
23100W        W27500  12.792   1.710  13.479 -0.1276  0.1810  0.0209
23101W        W27501   7.483   4.732   0.798  0.2144 -0.1006  0.0291
23102W        W27502   1.046   3.805   7.166  0.0585  0.0837 -0.1190
23103W        W27503   2.732   2.138  11.302  0.2571  0.1075  0.2481
23104W        W27504   6.453   5.897   6.856  0.1357  0.0020  0.0417
23105W        W27505  18.208   6.179  19.351  0.1600 -0.2432 -0.0830
23106W        W27506   1.692   4.111  13.085  0.1511  0.2639 -0.1536
23107W        W27507   0.093   0.537   4.433  0.1111  0.1010  0.1760
23108W        W27508   1.284   0.367  32.982  0.0647  0.1248 -0.1094
23109W        W27509  10.654   1.963  39.942 -0.0456  0.0617  0.0726
23110W        W27510  18.056   5.184  44.545 -0.0084  0.0673 -0.1044
23111W        W27511   2.391   6.134   3.268 -0.3068 -0.2196 -0.3396
23112W        W27512   6.258   5.323  28.845 -0.1857  0.3562 -0.0331
23113W        W27513   6.565   3.615   2.079  0.2088  0.0269 -0.0158
23114W        W27514   7.256   1.016   5.182  0.3911  0.0217  0.0446
23115W        W27515   0.757   6.555  34.972  0.0597 -0.0525  0.0185
23116W        W27516   5.769   6.400  15.857  0.2021  0.1466  0.2793
23117W        W27517  11.216   1.246   8.980 -0.1168  0.0330  0.0332
23118W        W27518   4.187   2.876  14.714  0.1915  0.0114 -0.0578
23119W        W27519  13.174   2.150   8.130 -0.0247  0.0389  0.2276
23120W        W27520   1.807   4.750  36.594 -0.1922 -0.0703 -0.1425
23121W        W27521  10.100   5.254  16.908 -0.1703  0.0414 -0.1673
23122W        W27522   5.252   3.902  42.524 -0.2468  0.2819 -0.0273
23123W        W27523  20.380   3.971   5.781  0.0297 -0.0016  0.0213
23124W        W27524  13.283   4.063  30.714 -0.0022  0.0040 -0.2586
23125W        W27525  14.109   6.064   3.530 -0.2297 -0.1019 -0.3054
23126W        W27526  12.562   3.477   4.552  0.0110  0.1127 -0.2623
23127W        W27527  16.435   4.195  22.471 -0.0728 -0.0435 -0.1363
23128W        W27528  12.515   5.349  20.671 -0.0830 -0.1098  0.0767
23129W        W27529  14.758   2.572   2.951 -0.2785 -0.2072 -0.2298
23130W        W27530  16.377   5.382   5.598  0.2678 -0.3599 -0.0800
23131W        W27531   3.604   3.080  39.865 -0.0193  0.2332  0.0652
23132W        W27532   9.036   3.678  31.738 -0.1799  0.0163 -0.0704
23133W        W27533   4.818   6.183  21.582  0.0764 -0.2448 -0.2293
23134W        W27534   6.479   2.803  29.322  0.1212 -0.0953  0.0030
23135W        W27535  18.178   5.610   3.896 -0.2300  0.1074  0.0796
23136W        W27536  19.798   5.479  43.944 -0.1976 -0.3112 -0.2427
23137W        W27537  17.285   2.448  39.332 -0.3801 -0.1282  0.2804
23138W        W27538  19.662   2.808  14.112  0.1362 -0.0718  0.0623
23139W        W27539   3.582   1.522  21.584 -0.1511 -0.1159  0.1271
23140W        W27540   8.847   5.581  41.311 -0.3116 -0.0104  0.0241
23141W        W27541  11.607   0.334  18.758  0.0142  0.1538 -0.1762
23142W        W27542   5.100   6.457  23.666  0.0691 -0.0007  0.0837
23143W        W27543   5.191   3.957  44.643  0.1634  0.0465  0.0375
23144W        W27544  20.222   0.302  31.527 -0.0933 -0.3682 -0.1507
23145W        W27545  15.333   1.201  44.616 -0.1284 -0.2571  0.0717
23146W        W27546  13.041   0.438  14.533  0.0477 -0.1287 -0.0749
23147W        W27547  10.441   4.030  12.366  0.2442 -0.1533 -0.0889
23148W        W27548   3.318   3.913   2.792  0.1645 -0.0893 -0.1474
23149W        W27549  12.420   5.348  44.572  0.0960  0.0395 -0.1779
23150W        W27550   6.580   3.093   5.912 -0.1092 -0.0163 -0.0406
23151W        W27551  12.262   3.051   4.470  0.1297  0.0022  0.3170
23152W        W27552   7.353   0.294  37.394  0.1642 -0.0472 -0.2105
23153W        W27553   3.061   2.829   4.287  0.2162  0.4775 -0.1563
23154W        W27554  14.954   0.569   9.175 -0.0264  0.2718 -0.2195
23155W        W27555  13.119   1.093  14.325 -0.0904 -0.0856  0.0388
23156W        W27556  15.442   0.917  15.748  0.2300  0.3252  0.0416
23157W        W27557  11.794   1.302  43.755  0.0322  0.2768  0.2329
23158W        W27558   8.997   3.037  35.464  0.0380 -0.0953  0.1585
23159W        W27559  13.863   6.598   3.099  0.2000  0.0374  0.1729
23160W        W27560  11.075   5.913   8.916 -0.0252 -0.1469  0.0810
23161W        W27561   5.590   0.331  41.301 -0.0360  0.2364 -0.0041
23162W        W27562   2.598   5.495   6.698 -0.0257 -0.0448 -0.1254
23163W        W27563   5.665   4.473  11.583  0.0130  0.0297 -0.1283
23164W        W27564   7.839   3.327  27.158 -0.1585  0.2012  0.1892
23165W        W27565   1.313   1.119  14.987  0.2833 -0.4443 -0.2621
23166W        W27566  12.290   3.672   8.443 -0.0470 -0.0425  0.0142
23167W        W27567  20.620   1.141  40.669  0.0253 -0.2755 -0.4734
23168W        W27568   2.046   0.396  35.285 -0.0215 -0.1640 -0.2163
23169W        W27569  11.231   2.298  12.502 -0.0342  0.3193  0.1018
23170W        W27570   5.199   5.174  39.808 -0.1780 -0.0220 -0.2877
23171W        W27571  17.450   3.347  30.914  0.0503  0.1555 -0.1541
23172W        W27572  19.966   0.833  36.199  0.0258 -0.5134  0.1624
23173W        W27573   9.090   2.082  27.517 -0.0904 -0.0176  0.0697
23174W        W27574  12.611   6.506  20.117  0.0187 -0.0792  0.0943
23175W        W27575  12.040   1.591  38.195 -0.3245  0.1326  0.0765
23176W        W27576   4.737   3.335  30.035  0.0299 -0.1866 -0.1553
23177W        W27577  12.605   3.209  18.589 -0.1486  0.2140  0.1082
23178W        W27578  20.255   0.060   1.089  0.2251 -0.2729 -0.0451
23179W        W27579  21.058   6.468  39.017  0.0665 -0.0222  0.0026
23180W        W27580  17.069   2.338  37.849 -0.0862  0.0205 -0.0357
23181W        W27581  11.756   2.166  21.817  0.1349  0.0522  0.1547
23182W        W27582  19.257   2.686  19.345  0.0718 -0.1350  0.1761
23183W        W27583  16.063   3.560  36.786  0.2473  0.2039  0.2453
23184W        W27584   5.287   5.816  42.145  0.0926  0.2971  0.0339
23185W        W27585   3.021   2.691   0.667 -0.1167 -0.0692  0.2336
23186W        W27586  13.480   3.414  34.782 -0.2542 -0.1193  0.1565
23187W        W27587  12.277   0.057   3.187  0.0126  0.1257  0.1219
23188W        W27588   8.452   6.056  44.749  0.1569 -0.0825 -0.1152
23189W        W27589  12.783   3.758   2.882  0.2097  0.1221 -0.2867
23190W        W27590   7.803   0.265  40.719  0.1255  0.0523 -0.4250
23191W        W27591  17.413   0.856   1.631  0.3113 -0.0894 -0.1623
23192W        W27592  12.517   3.041  14.029  0.0031 -0.1867  0.0042
23193W        W27593  13.782   3.035  34.608  0.1065 -0.2484 -0.0024
23194W        W27594  14.118   0.853  31.361  0.0899 -0.0207 -0.1482
23195W        W27595  10.912   0.335  15.578  0.0847  0.2089  0.0737
23196W        W27596   3.296   1.796   5.816  0.3961  0.1753  0.1106
23197W        W27597   0.980   5.543   7.888 -0.1069 -0.0926 -0.1424
23198W        W27598  20.309   0.098   3.728  0.2589  0.0648 -0.1268
23199W        W27599   7.472   3.002  16.321  0.1661  0.2720  0.3486
23200W        W27600   3.081   5.724  13.150 -0.1592  0.2149  0.1128
23201W        W27601   1.936   5.654   5.415  0.0168  0.2418 -0.2641
23202W        W27602   2.628   2.627  23.151  0.0452  0.2349  0.0942
23203W        W27603  13.804   0.723  14.913 -0.0258  0.0672 -0.0148
23204W        W27604  14.379   5.034  20.879 -0.0686  0.0446 -0.1499
23205W        W27605   0.453   6.464   9.101 -0.2092 -0.3175  0.0807
23206W        W27606   9.451   2.619   8.447  0.1287  0.2805  0.4914
23207W        W27607   1.597   0.888   0.701 -0.2541 -0.0663  0.2260
23208W        W27608   4.586   1.300  14.056 -0.1393  0.2983 -0.4973
23209W        W27609   4.812   3.700  31.446  0.1486 -0.1162  0.1263
23210W        W27610  14.356   2.476   7.110 -0.2024  0.1401 -0.1306
23211W        W27611   3.700   6.412   4.293 -0.0242 -0.1003 -0.0979
23212W        W27612   0.547   5.307   4.990  0.0231 -0.1607 -0.0603
23213W        W27613  14.888   4.809  10.799  0.0503  0.1378  0.1813
23214W        W27614  16.769   3.830  20.006  0.0819 -0.0873 -0.1808
23215W        W27615   9.351   5.800   7.249 -0.3875 -0.3150 -0.2818
23216W        W27616  12.989   3.912  17.765  0.0078  0.0331 -0.3071
23217W        W27617  13.075   5.851   9.061 -0.0396  0.4063 -0.0615
23218W        W27618  16.375   2.684   1.367  0.2975 -0.1264  0.0132
23219W        W27619  12.737   3.796  32.840  0.3711 -0.2598  0.2432
23220W        W27620   6.388   2.836   9.348 -0.0179  0.2131  0.2803
23221W        W27621  18.905   3.155  41.719  0.1235 -0.1825 -0.0470
23222W        W27622  11.259   6.525   7.479 -0.0320 -0.2091  0.1930
23223W        W27623  16.523   2.466  37.351  0.2906  0.0264  0.1059
23224W        W27624  20.189   5.500   8.283 -0.2639  0.1375  0.1589
23225W        W27625  17.483   0.278  42.063  0.0493 -0.0323  0.1006
23226W        W27626   4.198   6.186  14.419 -0.2128 -0.0468 -0.0551
23227W        W27627   0.578   2.893  25.917  0.1152  0.1666  0.0118
23228W        W27628  11.564   4.978  44.284 -0.2759 -0.1335  0.0226
23229W        W27629  13.092   0.957  44.073  0.0198  0.0033  0.0105
23230W        W27630  12.432   5.540   3.988  0.0222  0.0638 -0.0268
23231W        W27631   5.809   0.569  36.448 -0.1435 -0.0408  0.0047
23232W        W27632  16.104   5.768   8.719 -0.3334  0.1182 -0.1281
23233W        W27633  20.625   1.847   7.943  0.0869  0.1200  0.0795
23234W        W27634   1.803   2.073  26.755  0.0806  0.2459 -0.1357
23235W        W27635   0.648   4.323   8.758 -0.0191 -0.0902  0.0808
23236W        W27636   5.141   5.803   0.656 -0.2582  0.1278 -0.1485
23237W        W27637  20.063   3.331   0.775 -0.2494  0.3417  0.1537
23238W        W27638  16.813   6.220  42.906  0.1702  0.2330  0.1905
23239W        W27639  21.017   1.427   5.268  0.0018 -0.2110 -0.3551
23240W        W27640   6.632   0.625   7.442 -0.2492 -0.1533 -0.2879
23241W        W27641  13.610   0.903  34.820  0.3732 -0.2197 -0.0625
23242W        W27642   6.869   3.742  25.116  0.0634 -0.0123  0.3305
23243W        W27643   5.957   6.186   3.268  0.0413 -0.0079 -0.0099
23244W        W27644  12.674   4.374  11.816  0.0565  0.0435  0.2189
23245W        W27645   3.079   2.877   3.809 -0.0797  0.1336 -0.0522
23246W        W27646  10.070   5.099   4.492 -0.0239 -0.0795  0.0845
23247W        W27647  17.473   0.251   6.104 -0.0643  0.0372 -0.0302
23248W        W27648  20.151   5.451   7.196  0.3270 -0.0185 -0.0112
23249W        W27649  20.861   2.529  11.575  0.2353 -0.2763  0.1927
23250W        W27650  15.261   3.483  23.105  0.1765 -0.0993 -0.0753
23251W        W27651   6.999   6.001  39.465 -0.0885  0.1733 -0.0460
23252W        W27652  12.949   4.277  41.800  0.0105  0.0928  0.0654
23253W        W27653   0.240   2.234  13.176 -0.0218 -0.0625 -0.1178
23254W        W27654  18.593   4.584   6.979 -0.2330  0.3318  0.0897
23255W        W27655   8.064   4.528  27.276 -0.1083 -0.0572  0.2975
23256W        W27656  16.111   3.237  29.526  0.0079 -0.1552  0.2320
23257W        W27657  17.936   6.005  43.415 -0.0067 -0.0791  0.0615
23258W        W27658   1.505   1.694  43.869 -0.3495  0.0837 -0.2223
23259W        W27659  20.634   0.046  31.763 -0.0893 -0.0846  0.0993
23260W        W27660  11.243   3.468  33.150 -0.0549 -0.1077  0.1924
23261W        W27661  10.514   6.061  42.595 -0.0908 -0.0016  0.1529
23262W        W27662  16.475   3.231  19.452 -0.1722 -0.2367  0.0742
23263W        W27663  19.531   6.254  11.596  0.2507  0.1948 -0.4097
23264W        W27664   7.011   5.680  39.886 -0.0092  0.3557 -0.1901
23265W        W27665   5.341   0.581  29.871 -0.0481 -0.2147 -0.3815
23266W        W27666   6.026   3.198   9.430 -0.0605 -0.0216  0.0139
23267W        W27667  17.045   1.180  42.295 -0.2782  0.1000  0.1744
23268W        W27668  16.546   3.841  39.425 -0.1346 -0.3021  0.0033
23269W        W27669  10.572   6.146  20.505 -0.1995 -0.0565  0.2970
23270W        W27670  17.282   0.693  41.434 -0.3103  0.0901  0.0179
23271W        W27671   8.144   3.536  13.296 -0.3587  0.0953 -0.0765
23272W        W27672   2.815   5.632  21.232 -0.1484  0.1169  0.2346
23273W        W27673  15.827   1.607  36.482 -0.0103 -0.1740  0.2409
23274W        W27674   0.079   3.787  36.745  0.2126  0.0156 -0.0803
23275W        W27675   2.423   5.405  41.685  0.1410 -0.0864  0.3070
23276W        W27676   6.048   1.896  34.301  0.0893  0.1286 -0.2447
23277W        W27677  20.259   2.026   2.830 -0.2629 -0.0846 -0.1434
23278W        W27678   8.016   0.810   7.359  0.2469 -0.0812 -0.0390
23279W        W27679   4.630   4.758  40.330  0.0113 -0.1637 -0.3051
23280W        W27680  19.465   4.467  16.292  0.0734 -0.0154 -0.2277
23281W        W27681  13.988   4.099  25.336  0.3557 -0.0144 -0.0017
23282W        W27682   4.536   1.105  35.069 -0.2058 -0.0523  0.0941
23283W        W27683  17.268   1.132  37.254  0.0909 -0.0466 -0.0140
23284W        W27684  18.787   1.619  37.735 -0.2104 -0.0862  0.0950
23285W        W27685  13.185   4.077  13.093 -0.0924  0.0144 -0.0306
23286W        W27686   0.004   3.174  34.879  0.0949  0.0032 -0.1271
23287W        W27687   4.035   3.441   5.383  0.2107 -0.1500 -0.1643
23288W        W27688  20.191   6.596  16.592  0.0998 -0.2883  0.1353
23289W        W27689  18.181   3.388  44.818 -0.2616  0.2084  0.0406
23290W        W27690  11.461   2.403  39.160 -0.0874  0.1515 -0.2244
23291W        W27691   3.538   0.944   6.270  0.1477  0.0729  0.2294
23292W        W27692  19.649   1.132  43.506  0.4640  0.1151  0.1554
23293W        W27693  12.454   5.310   5.317 -0.3094 -0.0759  0.1700
23294W        W27694   5.205   2.408  30.533 -0.0013 -0.1553 -0.0509
23295W        W27695   5.518   1.928  27.338 -0.0333 -0.0253 -0.3024
23296W        W27696   6.918   2.681  12.742  0.0384 -0.0812  0.0600
23297W        W27697  13.692   6.343  35.473 -0.1747 -0.0900 -0.0303
23298W        W27698   5.964   3.846  40.654 -0.0846 -0.2955 -0.1016
23299W        W27699   4.499   0.245  10.567 -0.0231  0.2441  0.2119
23300W        W27700   3.885   5.344  28.029 -0.1282  0.1534 -0.0011
23301W        W27701  13.378   6.271  23.342  0.0888 -0.1715 -0.0304
23302W        W27702  19.780   3.029  15.665  0.3729  0.0681 -0.0825
23303W        W27703  17.371   1.644  17.701 -0.0685  0.0190 -0.0653
23304W        W27704  19.111   5.218  16.397 -0.0445  0.0904  0.0131
23305W        W27705  20.684   2.066   5.832  0.0842  0.3817 -0.2350
23306W        W27706  14.585   4.254  30.526 -0.1561 -0.0322 -0.0593
23307W        W27707  16.667   0.592  43.191  0.1920 -0.3051  0.0547
23308W        W27708  10.503   5.685  31.150  0.0441 -0.2131  0.1161
23309W        W27709  11.595   4.685  40.796 -0.0165  0.2184  0.3148
23310W        W27710   8.992   2.836  30.797 -0.0250  0.0082 -0.1818
23311W        W27711   6.003   0.767  29.624  0.0880  0.0007 -0.0749
23312W        W27712   8.245   4.033  44.307  0.2790  0.0781  0.0629
23313W        W27713  11.349   1.494  17.062 -0.0530  0.2510 -0.2111
23314W        W27714  16.293   2.866   7.069  0.2256 -0.0095 -0.0208
23315W        W27715  11.055   2.573  10.716  0.1296 -0.4584  0.1727
23316W        W27716   4.178   4.903  38.972 -0.0381  0.0577 -0.0216
23317W        W27717  17.364   3.413  11.281 -0.1043  0.1921 -0.0330
23318W        W27718   4.028   1.625  21.951 -0.0225  0.0312 -0.1706
23319W        W27719   9.994   0.549   2.607 -0.1977 -0.1984  0.1298
23320W        W27720   1.663   1.811  45.144 -0.2790  0.1471 -0.0307
23321W        W27721  16.972   1.686  12.508 -0.4049  0.0819 -0.2402
23322W        W27722  17.777   2.321  29.409  0.0796 -0.1988  0.1272
23323W        W27723  14.561   6.344  39.275 -0.1169 -0.0314  0.0591
23324W        W27724   2.040   4.649  43.350  0.0906 -0.0812 -0.1808
23325W        W27725  20.304   2.956  12.873 -0.0409  0.0892 -0.0340
23326W        W27726   3.734   2.813  28.533  0.1591 -0.1998  0.1723
23327W        W27727   4.968   2.087  31.364  0.0618 -0.0654  0.0334
23328W        W27728  11.729   4.797  43.847 -0.0069 -0.0337  0.1140
23329W        W27729   5.889   5.354  14.033 -0.2060  0.2148  0.1097
23330W        W27730   6.518   0.519  35.495  0.0871 -0.3564 -0.0315
23331W        W27731  18.411   2.083   5.402  0.0262 -0.0992  0.1364
23332W        W27732  16.118   2.640   8.795 -0.0612  0.2359  0.0353
23333W        W27733  15.765   1.888  36.027 -0.2088 -0.1178  0.1112
23334W        W27734   4.587   0.881  31.554  0.3507  0.1388 -0.1507
23335W        W27735   6.026   0.374   8.694  0.2019  0.0476 -0.0938
23336W        W27736  17.855   1.299   3.494 -0.2310 -0.1781 -0.1001
23337W        W27737  13.675   4.557   7.948 -0.2578 -0.0634 -0.1709
23338W        W27738   1.671   5.866  16.310  0.0068  0.1400 -0.0918
23339W        W27739   9.811   4.353  38.903 -0.1976  0.2000 -0.2284
23340W        W27740  19.878   5.195   5.910  0.0849  0.1169 -0.0463
23341W        W27741   8.639   6.569   3.839  0.0339 -0.1560 -0.0248
23342W        W27742   2.322   1.158   7.834 -0.0606 -0.1184 -0.1977
23343W        W27743   3.633   5.404   3.900  0.1972 -0.2231 -0.0827
23344W        W27744  14.276   4.381  29.503  0.0785  0.0239 -0.2872
23345W        W27745  12.705   0.987  33.441  0.0979  0.0709  0.0830
23346W        W27746   2.656   5.119  36.315 -0.0209  0.4689 -0.0422
23347W        W27747   9.065   3.462  36.687 -0.0668 -0.0584  0.2074
23348W        W27748   5.464   0.304   4.062 -0.0435 -0.1510  0.0660
23349W        W27749   1.869   1.312  43.548  0.1023 -0.1740  0.0906
23350W        W27750  15.518   6.053   7.997 -0.1997  0.0712  0.2679
23351W        W27751  10.060   4.991  28.404 -0.2203  0.0511  0.2144
23352W        W27752   1.461   0.974  32.914 -0.1711  0.2481 -0.2110
23353W        W27753   0.174   0.764  41.818 -0.1730  0.0499  0.0319
23354W        W27754   4.735   5.494   4.996 -0.3138  0.0708  0.1676
23355W        W27755   1.670   1.275   0.234 -0.0896  0.2711 -0.2283
23356W        W27756  14.050   2.975  43.910 -0.0361  0.1446 -0.0149
23357W        W27757   5.299   4.759   2.240 -0.0085 -0.2992  0.0910
23358W        W27758   6.128   4.038  33.758  0.1830  0.0225  0.4259
23359W        W27759  16.985   1.905  18.882  0.1368 -0.0456 -0.1857
23360W        W27760   0.842   0.831   1.082 -0.0780  0.0302  0.0190
23361W        W27761   2.139   3.809  33.389 -0.1104 -0.1107  0.2137
23362W        W27762   6.997   1.219   7.552  0.1714 -0.2842 -0.0306
23363W        W27763   4.026   3.966  32.222  0.2576  0.3927  0.1840
23364W        W27764  17.797   1.973  13.670 -0.1342  0.0300 -0.2086
23365W        W27765   9.033   0.737  29.112 -0.0772 -0.0688 -0.2029
23366W        W27766  12.540   1.304  15.479  0.1653 -0.2635 -0.0309
23367W        W27767  15.052   6.200  31.332  0.1434  0.1311  0.1517
23368W        W27768   8.230   1.236  17.523  0.0969 -0.0433  0.0854
23369W        W27769  13.398   1.039  15.341  0.1022  0.1108  0.0006
23370W        W27770  11.440   2.392  41.980 -0.0648  0.2331  0.0744
23371W        W27771  15.839   3.986  15.296  0.1276  0.0207 -0.0725
23372W        W27772   7.455   3.790  40.741  0.3339  0.0290 -0.0156
23373W        W27773   1.249   5.153  26.719 -0.0609  0.0640  0.2393
23374W        W27774   2.130   2.530  43.522  0.0155  0.1384 -0.2019
23375W        W27775  20.070   1.007  37.416  0.0002  0.1810 -0.1748
23376W        W27776   1.436   2.081  32.498  0.0577  0.1472 -0.1688
23377W        W27777   0.066   4.103   7.199  0.1142 -0.0448 -0.0947
23378W        W27778   8.803   1.993  32.923 -0.1241  0.1490  0.1566
23379W        W27779  17.110   1.119  11.733  0.2046  0.0088 -0.1191
23380W        W27780  18.116   5.824  38.824  0.1061  0.1780 -0.0591
23381W        W27781  15.773   5.935  43.087 -0.1375  0.2599 -0.1156
23382W        W27782  12.394   3.942   7.139 -0.1808  0.0339  0.3054
23383W        W27783  19.966   1.901   1.774 -0.2851  0.0015  0.3909
23384W        W27784  16.830   0.320   2.497  0.1387  0.1993  0.1712
23385W        W27785   0.490   0.703  15.237 -0.0333 -0.0191  0.1341
23386W        W27786  11.320   1.285  18.918  0.0623 -0.1465 -0.1905
23387W        W27787   0.017   1.299  29.753  0.1315  0.0093 -0.1421
23388W        W27788  15.729   2.736  22.399 -0.2307 -0.0038  0.0173
23389W        W27789  17.408   3.626  39.105  0.3471  0.0416 -0.1626
23390W        W27790   1.295   3.563  26.759  0.0789  0.0889 -0.2868
23391W        W27791  20.192   5.703  31.664 -0.0666  0.2181  0.3010
23392W        W27792  12.514   2.139   9.320  0.2117 -0.0460 -0.2789
23393W        W27793  14.982   2.612  17.393  0.1521 -0.1681  0.2015
23394W        W27794   8.253   5.780  16.575 -0.0088  0.1248 -0.0913
23395W        W27795  10.940   0.631  18.238 -0.0963 -0.0011  0.0605
23396W        W27796  10.924   1.552  41.995  0.2502 -0.1158  0.0082
23397W        W27797  15.993   3.494  37.528 -0.2441  0.0534 -0.0807
23398W        W27798   5.945   1.504   7.300  0.1119 -0.1141  0.2731
23399W        W27799  12.926   3.732  33.641  0.0845  0.0307  0.1558
23400W        W27800   8.240   4.920  15.438  0.0499  0.0726 -0.0118
23401W        W27801  11.214   3.784  40.445 -0.2676 -0.0330  0.1064
23402W        W27802   0.558   5.356   8.776  0.3687  0.3196  0.4160
23403W        W27803   3.991   4.872   6.069 -0.1765  0.0116 -0.1284
23404W        W27804   2.440   4.391   2.284 -0.0340 -0.3288  0.0413
23405W        W27805   9.423   0.873  27.640  0.2891 -0.1299  0.1796
23406W        W27806  18.477   2.615  41.080 -0.0898  0.0975 -0.2159
23407W        W27807  12.402   0.566  42.423 -0.0847 -0.0885 -0.1302
23408W        W27808  16.556   6.303  15.915 -0.2725 -0.2111 -0.0756
23409W        W27809  20.765   1.411   8.136  0.0001 -0.3385 -0.0260
23410W        W27810   5.436   2.873  44.772  0.2112 -0.0650 -0.0434
23411W        W27811   4.313   1.714  11.469 -0.2936 -0.1713 -0.0587
23412W        W27812   9.423   2.249  43.593  0.3651  0.0482 -0.3597
23413W        W27813  12.431   4.698  39.121  0.1187  0.1558 -0.0736
23414W        W27814   9.180   0.544  12.765 -0.1596 -0.1049  0.0090
23415W        W27815   8.790   6.574  39.905  0.2842 -0.0110 -0.0333
23416W        W27816  18.439   0.748  32.679 -0.1381  0.1070 -0.0442
23417W        W27817   4.172   4.194  33.222 -0.0365  0.2422  0.1012
23418W        W27818  10.527   4.319  43.615 -0.1399 -0.1810  0.0162
23419W        W27819   0.118   0.227   0.109 -0.0659 -0.0347 -0.1154
23420W        W27820  20.106   6.483  13.650 -0.1284 -0.0885 -0.3404
23421W        W27821   5.467   3.574  36.240  0.1388 -0.1012 -0.1029
23422W        W27822  13.156   0.111  28.194  0.0342 -0.0392 -0.0627
23423W        W27823  10.092   1.615  16.580 -0.0872  0.0351  0.0370
23424W        W27824   7.923   3.883  27.962  0.0177  0.0700 -0.1387
23425W        W27825   1.542   2.198  38.108 -0.1738  0.0507  0.0199
23426W        W27826  11.475   6.160  42.814  0.2494  0.1257 -0.0872
23427W        W27827  13.989   0.360   4.503 -0.1394 -0.2447 -0.0966
23428W        W27828   3.639   4.394   2.151 -0.0750 -0.1798 -0.2479
23429W        W27829   1.010   5.250  42.989  0.3464 -0.2083  0.0778
23430W        W27830   9.303   1.564  17.047 -0.0109 -0.2322 -0.0460
23431W        W27831  20.161   6.110  27.947 -0.0570 -0.2139 -0.1929
23432W        W27832  14.792   3.332  38.690  0.0525  0.1753 -0.0949
23433W        W27833   0.568   3.707  32.321 -0.1770  0.1768  0.1478
23434W        W27834  13.124   3.102  12.879 -0.1944  0.0406  0.4820
23435W        W27835   1.351   6.047  39.290  0.2857  0.0752 -0.1752
23436W        W27836   1.357   5.037  31.213 -0.1917 -0.0941 -0.0736
23437W        W27837  12.827   0.682  21.090  0.2379 -0.1826  0.0461
23438W        W27838   1.174   4.440  38.436 -0.0866 -0.0359  0.0228
23439W        W27839  14.345   6.411  21.233  0.0408 -0.0872 -0.1596
23440W        W27840   8.017   4.445  33.612 -0.0838  0.2187 -0.0808
23441W        W27841   3.212   3.950   5.140  0.2788 -0.2160 -0.1314
23442W        W27842  10.353   4.137  19.958  0.0388 -0.0108  0.0462
23443W        W27843  17.748   1.600  41.629 -0.0116 -0.0471  0.2838
23444W        W27844  16.913   0.095  36.264 -0.2808  0.2796 -0.0721
23445W        W27845   3.807   0.039  28.732  0.1892 -0.0327  0.0658
23446W        W27846  14.665   0.265  20.125  0.0515 -0.0015  0.1933
23447W        W27847  14.709   4.606  35.652  0.0321  0.2147 -0.1127
23448W        W27848  12.134   5.053  21.603  0.0759 -0.0226  0.1161
23449W        W27849   8.874   5.894  26.202  0.1428  0.1822 -0.0863
23450W        W27850  12.646   2.501  20.354 -0.1575  0.1718 -0.0291
23451W        W27851   1.684   0.677  11.517 -0.0479 -0.1745 -0.1058
23452W        W27852   6.720   5.860  13.854 -0.2495  0.0918 -0.0535
23453W        W27853  18.367   2.357  31.008  0.1684 -0.3066 -0.1615
23454W        W27854  17.565   2.700  37.378  0.0456  0.0261  0.0219
23455W        W27855   2.612   5.917  42.391  0.1834  0.0059  0.1476
23456W        W27856   3.580   1.654  15.422  0.0099 -0.0005  0.1626
23457W        W27857   1.069   5.294  44.367  0.2797 -0.2399  0.2188
23458W        W27858  17.912   1.284   9.338  0.2785 -0.0121  0.0230
23459W        W27859  16.744   3.990  37.954  0.0098  0.0664  0.0623
23460W        W27860  12.449   3.099  35.665 -0.1964  0.0016 -0.0432
23461W        W27861   3.759   1.744  23.494 -0.1363  0.0329 -0.2117
23462W        W27862  14.179   4.858  11.860  0.0710  0.2747 -0.1511
23463W        W27863  19.924   0.358  15.325  0.2490  0.3030 -0.0771
23464W        W27864  13.691   2.475   1.793  0.0621  0.1006  0.1235
23465W        W27865   7.108   5.743  33.217 -0.2390 -0.3225  0.2121
23466W        W27866   5.217   5.206  30.697 -0.1056 -0.1110  0.0341
23467W        W27867  18.545   5.187   7.597  0.2127  0.0909  0.2661
23468W        W27868   8.793   2.887  32.656  0.0895 -0.3090  0.1213
23469W        W27869   0.722   6.450  10.291 -0.0099  0.0101  0.0811
23470W        W27870  14.954   3.595  30.046  0.2066  0.2301 -0.0080
23471W        W27871  10.387   0.108  11.610 -0.3136 -0.2870  0.0888
23472W        W27872   5.248   2.273  38.634 -0.0117  0.0994  0.2711
23473W        W27873   0.199   1.084  27.891 -0.3054  0.0565  0.0897
23474W        W27874  11.957   3.908  28.601  0.1672 -0.3274 -0.2988
23475W        W27875   1.105   2.502   7.559  0.1970 -0.0702  0.2395
23476W        W27876  19.635   2.633  32.539  0.0448 -0.3340 -0.0760
23477W        W27877   1.386   4.595   4.770  0.2557  0.1696 -0.0706
23478W        W27878   3.493   6.502   9.797  0.0764 -0.0269  0.1054
23479W        W27879   6.516   1.855  38.336 -0.0082 -0.0708  0.0308
23480W        W27880   9.535   3.143   4.355  0.0708 -0.0806  0.0192
23481W        W27881   9.089   5.485  29.015 -0.2014  0.0743 -0.2459
23482W        W27882  12.946   1.656  39.996  0.0034 -0.1090  0.2559
23483W        W27883   9.073   2.439  29.370  0.1804  0.1288 -0.2637
23484W        W27884   7.457   5.473  39.693  0.0239 -0.1170  0.1114
23485W        W27885   3.690   1.251  22.064  0.0679 -0.5248  0.3842
23486W        W27886   3.752   1.439  27.570 -0.0998  0.2118 -0.1563
23487W        W27887   6.854   3.569  31.934 -0.1550 -0.0059 -0.1513
23488W        W27888   6.561   4.279   0.813 -0.1610 -0.3439  0.3390
23489W        W27889   1.307   3.867   3.082 -0.1071 -0.0309 -0.1391
23490W        W27890  12.426   4.428   0.518  0.1017 -0.1538 -0.0084
23491W        W27891   1.231   6.108  35.698  0.0025  0.0684  0.3803
23492W        W27892   3.853   1.276  34.020 -0.0917  0.3866  0.3721
23493W        W27893  14.911   0.822  15.685 -0.0996 -0.2476  0.0645
23494W        W27894  11.667   2.057  41.684  0.0805 -0.3577  0.1391
23495W        W27895  14.025   2.197  11.447  0.1253  0.1216 -0.0528
23496W        W27896   0.205   2.479   3.069  0.1292  0.5962 -0.0054
23497W        W27897  12.390   3.835  30.696 -0.1674 -0.0638 -0.0748
23498W        W27898   8.878   1.547  35.170 -0.0286 -0.1249  0.0364
23499W        W27899  16.493   1.700   5.959  0.1005 -0.2110  0.1349
23500W        W27900   4.359   2.207  30.290 -0.0064 -0.3577 -0.0342
23501W        W27901   7.995   4.395  33.108  0.0049 -0.2549  0.1390
23502W        W27902   6.998   1.799  42.133 -0.0509 -0.4420 -0.2818
23503W        W27903   6.286   2.449  12.358  0.2799 -0.1651  0.0031
23504W        W27904   4.010   5.584   6.776  0.3023 -0.2289 -0.0551
23505W        W27905  19.725   2.470   3.451 -0.0846  0.2032 -0.1516
23506W        W27906  15.305   1.595  33.070 -0.3221 -0.0106  0.0060
23507W        W27907  16.253   5.256  12.440 -0.1272 -0.1257  0.1209
23508W        W27908  16.905   4.170  17.950 -0.0823  0.0117  0.0661
23509W        W27909   1.627   5.073  13.020  0.0467  0.1207 -0.0429
23510W        W27910   2.367   6.433   8.496  0.2188  0.0066  0.5357
23511W        W27911  12.584   4.219  21.436 -0.0425  0.3941 -0.2485
23512W        W27912  11.628   1.514  15.333  0.3255 -0.1092  0.0029
23513W        W27913  19.869   2.174  27.978 -0.1933 -0.0651  0.0596
23514W        W27914   4.887   3.284  15.966  0.0190  0.1734  0.3062
23515W        W27915  10.716   5.529  37.439  0.1815 -0.0886  0.1104
23516W        W27916  12.858   0.951  21.552 -0.0034 -0.0463  0.0513
23517W        W27917   7.334   1.654   8.893  0.2033  0.2914  0.2681
23518W        W27918  10.884   2.014  10.401  0.1649  0.1928 -0.1204
23519W        W27919  13.859   2.448  41.624 -0.1272 -0.0694 -0.2311
23520W        W27920   1.487   4.841  29.787  0.1287  0.0355 -0.2095
23521W        W27921  11.754   4.182  35.677  0.2355  0.0174  0.1188
23522W        W27922   4.602   4.833   8.092 -0.2597  0.0433 -0.0897
23523W        W27923   5.496   3.563  43.421  0.2329 -0.0584 -0.0725
23524W        W27924  16.121   2.128   5.713  0.1128 -0.0973  0.0067
23525W        W27925  15.128   2.705   4.169 -0.4069 -0.1396 -0.1072
23526W        W27926   2.158   3.952  13.840 -0.2799  0.0005 -0.3253
23527W        W27927   4.716   3.170   7.995  0.2899 -0.1311  0.4223
23528W        W27928  16.459   5.308  15.742 -0.1555 -0.0551  0.0366
23529W        W27929  11.813   6.353   0.714  0.1332  0.3549 -0.1114
23530W        W27930   2.943   3.739  24.526 -0.2220 -0.4173  0.1033
23531W        W27931  10.862   1.249  19.254 -0.0899 -0.2080 -0.2535
23532W        W27932  13.510   5.669  16.641  0.2099 -0.1846 -0.1351
23533W        W27933  16.832   6.053   6.619  0.1378  0.3535 -0.1048
23534W        W27934   2.323   0.144  42.680 -0.0158  0.0737  0.3201
23535W        W27935  19.812   4.967  34.968 -0.0795  0.0997  0.2120
23536W        W27936   0.715   0.864  13.897  0.2398  0.0099  0.3467
23537W        W27937  19.010   0.949  31.574 -0.1711 -0.1655 -0.0424
23538W        W27938  16.295   1.625  11.399 -0.0533  0.2921  0.1315
23539W        W27939  14.319   1.262  22.727  0.2038 -0.0270 -0.2010
23540W        W27940  10.978   5.124   7.427 -0.3642  0.1038  0.2681
23541W        W27941  20.006   6.530  33.706 -0.0050  0.1324 -0.1318
23542W        W27942  10.681   0.960  14.152 -0.0539  0.1778  0.1809
23543W        W27943  12.431   2.541  30.030 -0.0867  0.0656  0.2400
23544W        W27944   6.730   1.452  26.914 -0.0281  0.1196 -0.4484
23545W        W27945  19.781   5.294  33.091 -0.0998  0.4932 -0.0762
23546W        W27946  14.381   3.925  36.394  0.0649 -0.0559 -0.1598
23547W        W27947  12.022   2.639  12.774 -0.3384 -0.1037  0.0065
23548W        W27948  15.504   3.033  37.544  0.2529 -0.0208  0.1252
23549W        W27949  14.927   1.341  24.342  0.0092  0.0904  0.1796
23550W        W27950   2.583   1.110  12.717  0.0485 -0.2061  0.0004
23551W        W27951   0.083   4.805  38.306 -0.1507 -0.1453 -0.3060
23552W        W27952  16.969   5.674  40.781  0.0014 -0.0700  0.0081
23553W        W27953  12.655   0.205  43.192 -0.1748  0.1659  0.1087
23554W        W27954   8.920   0.982  17.365 -0.0018 -0.1994 -0.0455
23555W        W27955   9.485   4.074  19.313  0.2397 -0.2809  0.0542
23556W        W27956   1.657   0.349  12.978 -0.0040 -0.0031 -0.2960
23557W        W27957  10.301   0.903  41.454  0.0407 -0.2867  0.0797
23558W        W27958  10.900   6.174  14.646 -0.1303 -0.1932  0.1074
23559W        W27959  14.665   1.412  38.639  0.0316  0.3837 -0.1695
23560W        W27960  18.587   2.296  42.408 -0.0590 -0.1195 -0.1962
23561W        W27961   6.890   6.131  28.314  0.2022 -0.1022 -0.1652
23562W        W27962  11.268   3.969  37.719 -0.1713  0.1400  0.4864
23563W        W27963  15.749   2.493  11.507  0.2575 -0.0177  0.3074
23564W        W27964   0.011   0.205  34.051  0.2741 -0.0446  0.1918
23565W        W27965   6.810   5.988  11.299  0.3020 -0.3639 -0.2213
23566W        W27966   5.569   5.500  25.038  0.2869  0.0993  0.2433
23567W        W27967  10.071   5.679  32.026  0.3317  0.0585 -0.2301
23568W        W27968  20.296   6.308  31.087 -0.0536  0.0495  0.0083
23569W        W27969   1.894   5.817  32.370 -0.0093  0.0098  0.0543
23570W        W27970  20.686   4.557   0.028 -0.0154  0.0646  0.0512
23571W        W27971  17.985   2.797  18.074  0.1029  0.1358 -0.2510
23572W        W27972  13.493   5.358   7.439  0.5701  0.0887  0.2944
23573W        W27973   0.609   6.207  30.982 -0.0291  0.2063 -0.0562
23574W        W27974  16.786   0.405  43.610 -0.0495  0.1829  0.2597
23575W        W27975  17.195   4.631  39.975  0.0123 -0.1955  0.1446
23576W        W27976  15.246   2.490  35.028 -0.0692  0.2280 -0.1895
23577W        W27977  11.798   4.813  28.741 -0.0030 -0.0639 -0.3024
23578W        W27978   6.788   3.549   4.991  0.1593 -0.0404 -0.2100
23579W        W27979   2.526   6.106  29.106 -0.2022 -0.2051  0.0163
23580W        W27980  17.134   4.979  34.474 -0.2160 -0.2164  0.2781
23581W        W27981  11.554   3.310  29.064  0.1954 -0.1853 -0.1243
23582W        W27982  14.590   0.603  43.437 -0.0817  0.0929  0.0257
23583W        W27983   5.235   3.559  22.325  0.0644 -0.0917 -0.1797
23584W        W27984  17.745   2.909  40.033  0.1218 -0.1869  0.5976
23585W        W27985  10.808   3.948  31.512 -0.2109  0.2015  0.0763
23586W        W27986  10.303   1.085  36.533 -0.1924  0.0743  0.2679
23587W        W27987   5.744   4.692  43.150 -0.0054 -0.2620 -0.1037
23588W        W27988  20.583   5.133  15.811 -0.0321 -0.3755  0.0441
23589W        W27989   4.099   0.652   1.047  0.1278  0.1172 -0.0293
23590W        W27990  11.297   2.501  33.479 -0.0308  0.2124 -0.2316
23591W        W27991  12.712   2.513  20.877  0.4436 -0.1948  0.1987
23592W        W27992   6.018   1.065  38.525  0.4246  0.1501  0.0466
23593W        W27993  18.235   3.516   1.915  0.0134  0.0733 -0.0083
23594W        W27994  14.393   3.856  17.455  0.1103  0.2530 -0.0887
23595W        W27995   9.084   0.444  42.641 -0.0299 -0.0531  0.2688
23596W        W27996   5.593   1.100   2.716 -0.0852  0.0698  0.0669
23597W        W27997  20.963   1.570  33.733 -0.1915  0.3027 -0.2578
23598W        W27998   3.638   1.708  13.478  0.2312 -0.0038  0.2406
23599W        W27999   1.067   4.750   0.024  0.2223 -0.0219  0.5393
23600W        W28000  17.493   3.368   9.265  0.0122 -0.2204 -0.0158
23601W        W28001  13.989   4.500  33.433 -0.0273 -0.0097  0.1772
23602W        W28002   4.737   5.647   1.357  0.0656  0.0095  0.3490
23603W        W28003  11.897   1.664  43.384 -0.1117 -0.0689 -0.0521
23604W        W28004   7.061   1.259   3.923 -0.0194 -0.1995 -0.0604
23605W        W28005   6.109   6.557   3.600  0.1660  0.0526 -0.2228
23606W        W28006  15.858   2.621   3.346  0.0785  0.0910  0.3041
23607W        W28007  12.281   0.884  44.182 -0.0087 -0.0769  0.2374
23608W        W28008   9.497   0.732   6.184 -0.1470 -0.0427  0.0208
23609W        W28009   4.703   2.623   2.480  0.0905 -0.0240 -0.0161
23610W        W28010  16.012   0.360   9.302 -0.0720 -0.2486  0.2332
23611W        W28011   2.029   6.155  29.231 -0.2001  0.0148  0.1831
23612W        W28012  11.620   0.676  31.642 -0.2983  0.0529  0.1383
23613W        W28013   3.407   0.169  37.178 -0.0778 -0.1931  0.2264
23614W        W28014   9.350   3.967  40.726  0.2558 -0.2410 -0.1571
23615W        W28015  12.779   5.835   7.269  0.2285 -0.0500  0.0897
23616W        W28016  14.448   1.351  24.569  0.1125  0.2507  0.0575
23617W        W28017   4.194   1.175  41.857  0.2042  0.0636 -0.0264
23618W        W28018   4.297   2.746  13.428 -0.2013  0.0881  0.0746
23619W        W28019   5.159   1.208  30.219 -0.2184  0.0646 -0.1584
23620W        W28020  10.312   4.383  36.141 -0.0345 -0.3332  0.4340
23621W        W28021  20.553   0.301  32.929  0.3013 -0.1150 -0.0166
23622W        W28022  11.080   4.151  36.635 -0.0035 -0.0946 -0.2026
23623W        W28023   0.843   4.876  36.029  0.0163 -0.2108  0.1649
23624W        W28024   2.951   4.613  37.315 -0.3416 -0.1147  0.1121
23625W        W28025  10.017   2.918  15.838 -0.1711  0.1609 -0.1979
23626W        W28026   8.937   0.044   8.289 -0.1908 -0.3299 -0.0927
23627W        W28027   3.258   1.600  40.212  0.1927  0.1323 -0.2172
23628W        W28028  16.180   2.053  40.728  0.0600 -0.1808 -0.0369
23629W        W28029  17.128   6.328  39.044 -0.0772 -0.0481  0.0067
23630W        W28030  21.054   1.320  44.478  0.0453  0.2098 -0.1394
23631W        W28031  12.074   0.110  11.038  0.1758  0.1331  0.1787
23632W        W28032  17.666   3.400  36.128  0.4060  0.4429 -0.1837
23633W        W28033  16.949   3.111  42.095  0.1017 -0.3918  0.1831
23634W        W28034  16.932   4.816  36.867  0.0743  0.0608 -0.1436
23635W        W28035   8.872   1.721   9.317  0.3349  0.0604 -0.1918
23636W        W28036  16.842   4.304   3.797  0.1296  0.0700  0.2109
23637W        W28037  12.102   2.707  13.806 -0.1151  0.0044  0.1850
23638W        W28038   0.460   1.026   8.049  0.2538 -0.1603  0.2431
23639W        W28039  18.413   5.879  43.516 -0.0398  0.0766  0.1007
23640W        W28040   0.032   1.146   8.319 -0.1823 -0.1388 -0.0709
23641W        W28041  20.311   0.523  16.126  0.2900  0.1990  0.2358
23642W        W28042   3.516   3.442  36.114 -0.0943  0.1130  0.0681
23643W        W28043   3.058   4.225  34.790 -0.1544  0.3319  0.0436
23644W        W28044   5.519   3.837  31.617 -0.1164 -0.2825 -0.0982
23645W        W28045  13.326   1.373   0.971  0.4209  0.0720 -0.2616
23646W        W28046  19.820   6.031   3.751  0.1014 -0.2103 -0.1009
23647W        W28047  20.051   3.811  24.934  0.0640  0.2314 -0.1494
23648W        W28048  10.683   2.073  14.069 -0.1657 -0.1655 -0.3378
23649W        W28049  20.677   4.773  38.328 -0.0130  0.0716  0.4775
23650W        W28050   1.796   0.646  15.930  0.1549  0.1889 -0.0024
23651W        W28051  18.475   6.014  20.342  0.2145  0.1653 -0.0349
23652W        W28052   7.075   6.167  33.009 -0.1853  0.3505  0.0262
23653W        W28053   8.935   3.121   3.975 -0.1915  0.0640 -0.1307
23654W        W28054  15.267   3.450   4.539 -0.2209  0.0105  0.0245
23655W        W28055  12.918   0.063  44.490  0.1158 -0.0725  0.0041
23656W        W28056   5.124   5.563  25.577  0.0072 -0.0090  0.0121
23657W        W28057   9.477   3.164   8.385 -0.0485 -0.0223 -0.3935
23658W        W28058   7.627   4.282  37.896 -0.2673  0.4171  0.1194
23659W        W28059  19.519   6.391  41.522 -0.0868  0.2502  0.0500
23660W        W28060   5.324   0.437   2.205 -0.3466  0.0732  0.2391
23661W        W28061   0.814   2.063  33.495  0.0900  0.0816  0.1092
23662W        W28062   0.980   0.893  42.565 -0.0005 -0.0650 -0.2983
23663W        W28063   1.817   0.396   8.754 -0.3341  0.2287  0.3086
23664W        W28064   9.624   0.565  11.677  0.0511 -0.0949  0.2008
23665W        W28065  17.898   2.650   0.409 -0.0990  0.0957 -0.0930
23666W        W28066   8.780   4.955  12.534  0.0450  0.1840  0.0085
23667W        W28067   2.039   1.572  11.559  0.1118 -0.0874  0.1380
23668W        W28068   2.526   4.674  43.278 -0.0148 -0.0098  0.2068
23669W        W28069   9.823   1.922  35.744 -0.1181 -0.2812  0.1250
23670W        W28070   2.135   0.389  43.677  0.0772 -0.3507 -0.1895
23671W        W28071  12.732   6.519  36.440 -0.0865 -0.0290 -0.0621
23672W        W28072   8.824   2.742   0.738  0.1192  0.2210 -0.3029
23673W        W28073  11.548   4.488  37.389  0.1699  0.0786 -0.2704
23674W        W28074  14.621   6.134   0.722 -0.0013  0.0313 -0.0564
23675W        W28075  14.318   1.458  19.589  0.0787 -0.2532  0.2445
23676W        W28076  14.686   0.325  21.990 -0.2266  0.0051  0.0087
23677W        W28077  20.176   4.627  14.928 -0.1589 -0.1523 -0.0441
23678W        W28078  10.021   3.055  31.600  0.1187  0.0762 -0.1157
23679W        W28079  19.660   0.873  37.108 -0.1334  0.3016 -0.1087
23680W        W28080  16.912   0.469  12.191 -0.2033  0.0381 -0.1836
23681W        W28081   5.015   4.740  41.381  0.0926  0.2533 -0.0601
23682W        W28082  10.963   3.425  10.409  0.0667  0.1793 -0.1824
23683W        W28083  20.275   2.370  11.583  0.2852 -0.5023 -0.1592
23684W        W28084  14.597   2.351  13.224  0.0010  0.1694 -0.3381
23685W        W28085  12.900   0.389  38.310  0.1654 -0.2265 -0.1131
23686W        W28086  13.946   4.848  12.701  0.3118 -0.3489  0.0461
23687W        W28087  16.320   0.850   5.239 -0.1755  0.0882  0.0490
23688W        W28088   5.522   5.238  32.795 -0.2966  0.0388  0.2103
23689W        W28089   7.529   3.490  10.460 -0.1223 -0.1615  0.0172
23690W        W28090  20.449   5.397  27.919  0.0068 -0.2876 -0.1883
23691W        W28091  14.390   4.536  12.656  0.1871 -0.3848  0.0353
23692W        W28092  19.993   4.168  32.524 -0.0559  0.0634  0.1806
23693W        W28093  17.358   2.009  35.567  0.0240  0.0035  0.1463
23694W        W28094   0.497   5.021  29.055  0.2269 -0.0635  0.2784
23695W        W28095   1.382   2.667  23.578  0.0237  0.0921 -0.0210
23696W        W28096  14.276   2.728  43.168 -0.0684 -0.3279  0.2107
23697W        W28097  15.321   2.550  16.518 -0.0701  0.1995  0.1263
23698W        W28098   2.143   0.722  13.680  0.2825 -0.0370  0.0898
23699W        W28099  19.817   4.470  15.280 -0.0840  0.0291 -0.0513
23700W        W28100  17.613   2.078  44.078 -0.2532 -0.0341 -0.0990
23701W        W28101   5.934   3.114  28.685  0.0874  0.0536 -0.0822
23702W        W28102  20.684   2.344  29.142  0.1325 -0.0849  0.2719
23703W        W28103  12.030   1.726  31.681  0.0147 -0.1268 -0.3280
23704W        W28104  14.734   2.953  21.315 -0.0638 -0.0178  0.0258
23705W        W28105  20.279   0.243  33.359 -0.0778 -0.0713  0.2698
23706W        W28106  16.197   6.403  31.579  0.1268 -0.0665 -0.0979
23707ION     NA28107   0.039   2.107   9.692  0.0210 -0.0009  0.1958
23708ION     NA28108  16.131   0.366   8.450  0.0366  0.2316 -0.0210
23709ION     NA28109   4.172   2.933   8.525 -0.2976 -0.4727 -0.2861
23710ION     NA28110   6.978   1.816  30.749 -0.0599  0.0100  0.3838
23711ION     NA28111  13.462   1.867  21.036 -0.2953 -0.0931 -0.2535
23712ION     NA28112  18.637   2.809  34.917 -0.3003 -0.1417 -0.2869
23713ION     NA28113  13.810   4.806  43.216  0.1662 -0.1705 -0.1100
23714ION     NA28114   5.825   0.340  40.327  0.1498  0.1853 -0.1731
23715ION     NA28115  13.303   3.643  39.253  0.0589  0.1746 -0.3525
23716ION     NA28116   5.183   0.622   3.911  0.0584 -0.0569 -0.0546
23717ION     NA28117  17.056   5.592  31.770  0.6558  0.1333 -0.2600
23718ION     NA28118   5.590   5.311  12.142 -0.3243  0.1359  0.3554
23719ION     NA28119   9.019   1.752  44.896 -0.3249  0.0349  0.0481
23720ION     NA28120   2.891   2.790  27.552 -0.2699 -0.1943 -0.0761
23721ION     NA28121  16.033   2.640  35.828 -0.0298 -0.1574 -0.4612
23722ION     NA28122   2.487   0.654  43.645  0.1065  0.2861  0.0484
23723ION     NA28123  17.529   1.089  34.568 -0.1133  0.0145 -0.2286
23724ION     NA28124   4.847   0.795   0.141  0.1597 -0.2300 -0.3912
23725ION     NA28125  10.688   1.456  10.703  0.5504 -0.3863 -0.0687
23726ION     NA28126   4.750   6.006  23.625 -0.1200  0.2265 -0.0797
23727ION     NA28127   3.505   2.085  28.842 -0.9960 -0.1332 -0.0423
23728ION     NA28128  13.222   1.392  20.022 -0.1533 -0.0106 -0.1960
23729ION     NA28129   5.136   1.620  35.348 -0.1550  0.0209 -0.1728
23730ION     NA28130  10.258   1.959  36.011  0.1712  0.2328  0.1482
23731ION     NA28131   7.720   5.033  42.252  0.1805  0.1436 -0.3281
23732ION     NA28132   4.066   3.591  30.245  0.2329  0.5383  0.0408
23733ION     NA28133   8.785   6.180  29.576  0.0150  0.1887 -0.0411
23734ION     NA28134   3.024   6.321  35.000 -0.0689 -0.2053  0.2056
23735ION     NA28135   0.106   2.896  14.544 -0.0534  0.2608 -0.2331
23736ION     NA28136  19.278   0.879   0.013  0.2661  0.2063 -0.0392
23737ION     NA28137  21.036   5.271  26.345 -0.2213 -0.3168 -0.0377
23738ION     NA28138  16.216   5.203  14.046 -0.1542 -0.4563  0.4392
23739ION     NA28139   3.555   4.760  42.530 -0.2109  0.0910  0.0810
23740ION     NA28140  21.107   3.987   5.228  0.1434 -0.0598 -0.1058
23741ION     NA28141   6.932   0.102  38.203  0.0410 -0.3130 -0.5366
23742ION     NA28142  11.963   2.887  34.731 -0.2180 -0.2988 -0.2312
23743ION     NA28143   5.154   6.305  24.714  0.4249  0.1385  0.0707
23744ION     NA28144   5.106   2.810  11.470 -0.1069  0.2794 -0.2299
23745ION     NA28145   7.792   0.412  27.814 -0.1817  0.1613  0.0345
23746ION     NA28146   8.114   6.095  40.554 -0.0000 -0.1123 -0.1984
23747ION     NA28147   6.975   1.369  11.845  0.0998  0.1609  0.0693
23748ION     NA28148  14.611   5.976  35.211  0.3910 -0.2624 -0.2036
23749ION     NA28149   6.182   4.186  38.714  0.3226 -0.2172  0.3817
23750ION     NA28150  16.068   1.061   3.503 -0.2421 -0.0953 -0.1269
23751ION     NA28151  14.166   0.032  10.059 -0.3933  0.0612 -0.2336
23752ION     NA28152  13.745   4.926  13.787  0.0037  0.0789 -0.2508
23753ION     NA28153  17.600   0.136   4.951  0.4629  0.2656  0.0475
23754ION     NA28154   5.604   5.664  23.928  0.0562 -0.1365 -0.1873
23755ION     NA28155  12.483   1.034   6.618 -0.1197  0.0831  0.2785
23756ION     NA28156  11.508   5.926  31.888 -0.6210  0.5383  0.0148
23757ION     NA28157  18.410   5.999  33.353 -0.3681  0.3482  0.1097
23758ION     NA28158   4.266   0.403   3.980  0.0305 -0.0845  0.0064
23759ION     NA28159  13.438   3.316   7.122  0.1129 -0.1384 -0.1455
23760ION     NA28160   1.163   5.105  36.406 -0.4076  0.1602  0.0175
23761ION     NA28161   5.176   0.533  13.321 -0.1157  0.5273  0.0433
23762ION     NA28162   3.375   2.716  35.752 -0.1586  0.1268  0.2338
23763ION     NA28163  17.682   2.337  37.229 -0.4126 -0.1141 -0.0211
23764ION     NA28164  17.121   4.347   2.462  0.0077 -0.1045  0.1161
23765ION     NA28165   1.804   4.308   0.409  0.0274 -0.1795  0.1030
23766ION     NA28166   4.540   2.903   5.115  0.1961 -0.0042  0.2400
23767ION     NA28167  16.807   1.229  41.000 -0.3118 -0.3188  0.1420
23768ION     NA28168  19.757   3.986  14.039 -0.2300  0.5402  0.1158
23769ION     NA28169  16.112   2.733  13.448 -0.1836 -0.2831  0.4168
23770ION     NA28170  15.866   4.687  38.854  0.0295 -0.2306 -0.0202
23771ION     NA28171  14.455   5.640  44.787 -0.3266  0.0290 -0.0994
23772ION     NA28172   2.228   5.587  34.990  0.0998 -0.4047  0.4305
23773ION     NA28173  11.282   5.633   2.674 -0.0975  0.0347 -0.2260
23774ION     NA28174   4.554   0.903  34.136  0.2815 -0.1830 -0.4313
23775ION     NA28175   7.634   6.391   7.091  0.0464  0.7106 -0.2596
23776ION     NA28176  15.050   6.195   4.174 -0.3158  0.2413  0.0106
23777ION     NA28177  16.272   6.432  32.002 -0.1811 -0.1158 -0.1516
23778ION     NA28178  16.471   0.311   3.649  0.0204 -0.0297 -0.0762
23779ION     NA28179  12.256   2.471   0.892 -0.2297 -0.0154  0.0643
23780ION     NA28180  19.687   4.716   8.352 -0.0472  0.0115  0.2273
23781ION     NA28181   6.255   4.895  26.364  0.3739 -0.2618 -0.1605
23782ION     NA28182   1.560   3.537  39.098 -0.1612 -0.1207  0.3415
23783ION     NA28183   5.519   1.575  32.531 -0.1784  0.4160  0.1486
23784ION     NA28184   8.651   4.813  15.590 -0.1834 -0.2625  0.0400
23785ION     NA28185   2.593   3.232  36.164  0.2705 -0.0752 -0.0696
23786ION     NA28186  13.737   2.228  35.127 -0.0581 -0.1796 -0.1475
23787ION     NA28187  16.261   2.147  32.992  0.1693  0.1901  0.4915
23788ION     NA28188   9.362   2.571  29.690  0.0439  0.2139 -0.4767
23789ION     NA28189  11.242   2.733  16.543 -0.0428 -0.2327 -0.2585
23790ION     NA28190   8.743   2.723   9.048 -0.2490  0.7635 -0.0795
23791ION     NA28191  18.168   4.903  28.653  0.0460 -0.0681 -0.3437
23792ION     NA28192  15.669   6.073   2.354 -0.0876 -0.0756  0.5188
23793ION     NA28193  12.026   6.549  42.074 -0.0327 -0.5171  0.1036
23794ION     NA28194  15.970   0.092  37.982 -0.0451 -0.2442 -0.0074
23795ION     NA28195   8.859   0.359  27.782 -0.4342  0.3682  0.1169
23796ION     NA28196  17.557   1.462   6.520 -0.1535  0.0351  0.0971
23797ION     NA28197   0.573   5.766  37.146 -0.0929 -0.0834 -0.3968
23798ION     NA28198  14.523   1.799  18.084  0.2138  0.1147 -0.2163
23799ION     NA28199  13.249   3.960  40.139 -0.5731 -0.0598 -0.1726
23800ION     NA28200   7.846   4.229  29.489 -0.0035 -0.1042 -0.1658
23801ION     NA28201  12.378   5.790  30.856 -0.2053 -0.2810 -0.0609
23802ION     NA28202  10.981   1.503  11.674  0.1966 -0.0951  0.0108
23803ION     NA28203  10.304   6.335  13.272  0.0470  0.1874 -0.3196
23804ION     NA28204  17.517   5.069  18.236 -0.0179 -0.3833  0.2506
23805ION     NA28205   1.259   6.208  33.789  0.2218  0.3715 -0.0979
23806ION     NA28206  17.432   5.032  42.718 -0.3696 -0.1755  0.1341
23807ION     NA28207  10.605   5.966  14.470  0.2548  0.3340  0.2536
23808ION     NA28208   4.397   2.487  12.648 -0.0215  0.0010  0.2416
23809ION     NA28209  13.528   1.889  30.386  0.1897  0.1908 -0.1253
23810ION     NA28210  18.675   5.941  38.350 -0.2311  0.0145  0.3419
23811ION     NA28211  11.683   4.189  20.095 -0.1338 -0.0058  0.1927
23812ION     NA28212  11.122   4.436   5.029  0.1146  0.0584 -0.2921
23813ION     NA28213  12.910   5.377   4.483  0.2363  0.1696 -0.3533
23814ION     NA28214  14.048   1.835   7.310 -0.0816 -0.0384  0.4174
23815ION     NA28215  19.117   4.224   1.993 -0.0153  0.4985  0.4295
23816ION     NA28216   7.258   4.685  35.824 -0.6339  0.2043  0.0127
23817ION     NA28217   7.860   4.413   5.340 -0.3846 -0.2058 -0.6803
23818ION     NA28218   2.448   4.265  26.623  0.1283  0.2625  0.2542
23819ION     NA28219  10.337   1.955  31.621 -0.2995 -0.4361  0.0314
23820ION     NA28220  17.809   1.949  45.057 -0.2164  0.1600  0.1712
23821ION     NA28221  16.352   1.595   8.118  0.0570 -0.1434  0.1069
23822ION     NA28222   8.848   0.570  38.921 -0.5015  0.0199  0.1658
23823ION     NA28223   6.335   5.286   8.822 -0.0702 -0.2616  0.0395
23824ION     NA28224   2.763   0.290  12.330 -0.3098  0.5088  0.2365
23825ION     NA28225   0.002   2.909  33.740 -0.1636  0.0770 -0.3010
23826ION     NA28226   2.900   5.214   2.931  0.2136 -0.2738 -0.0301
23827ION     NA28227  16.159   3.993  18.297  0.1611 -0.1629 -0.1551
23828ION     NA28228   5.286   0.249  44.308 -0.2444 -0.0512 -0.2099
23829ION     NA28229   8.528   2.401  38.416 -0.4321  0.2253  0.2260
23830ION     NA28230   7.003   3.667  27.345  0.6135  0.0383 -0.2281
23831ION     NA28231  20.957   5.096  31.923  0.2343 -0.3962  0.2212
23832ION     NA28232  13.796   5.662  17.555  0.2609 -0.4066  0.0059
23833ION     NA28233   3.558   2.098  13.520 -0.0017 -0.2544 -0.1662
23834ION     NA28234  16.948   6.160  33.471 -0.1838 -0.0230 -0.1371
23835ION     NA28235  15.286   4.065  13.452 -0.0200  0.0543  0.1267
23836ION     NA28236   6.120   3.709  33.027  0.1980  0.2570  0.0934
23837ION     NA28237  15.272   2.338  31.574 -0.1114 -0.3027 -0.0525
23838ION     NA28238  11.839   3.422  20.910 -0.0691  0.4115  0.0814
23839ION     NA28239   3.426   4.597  33.483  0.2577  0.2337 -0.0452
23840ION     NA28240   9.458   0.676  28.942  0.3584  0.0508  0.3604
23841ION     NA28241  15.477   3.607  22.760 -0.1663  0.2848 -0.0068
23842ION     NA28242   6.163   0.300  44.300  0.3963 -0.3341 -0.1713
23843ION     NA28243   1.368   3.834   2.204 -0.0311  0.7643  0.3380
23844ION     NA28244   7.606   4.499  33.542  0.1555  0.2551  0.2017
23845ION     NA28245   8.178   5.287  10.598  0.2024 -0.3557  0.0015
23846ION     NA28246  15.205   3.406  35.250 -0.0601 -0.0685  0.2371
23847ION     NA28247  12.454   0.698  11.550 -0.0073  0.5375  0.1727
23848ION     NA28248   0.336   2.086  11.135 -0.0123  0.5599  0.1891
23849ION     NA28249  15.550   1.374  19.356 -0.3004 -0.2737 -0.2207
23850ION     NA28250  15.922   0.389  18.230  0.2052 -0.3034  0.2683
23851ION     NA28251   6.662   1.055   7.358  0.2951  0.2299 -0.0317
23852ION     CL28252   1.382   1.120  34.482 -0.0019  0.2461 -0.0345
23853ION     CL28253   9.172   0.861  44.373 -0.0692  0.0200 -0.2719
23854ION     CL28254   0.021   2.598  40.574 -0.1644  0.2200 -0.0803
23855ION     CL28255  19.050   5.858  40.273 -0.0973 -0.0290 -0.2062
23856ION     CL28256   4.616   1.210   0.146  0.3521  0.1067 -0.1248
23857ION     CL28257  17.422   5.218   0.768 -0.0876 -0.0441 -0.1812
23858ION     CL28258  14.600   4.172  19.360 -0.0754 -0.2456 -0.1548
23859ION     CL28259   2.142   0.825   9.971  0.2351 -0.0957 -0.0981
23860ION     CL28260   0.798   6.311  28.761 -0.0200 -0.2771  0.0398
23861ION     CL28261   8.879   4.188  17.012 -0.1017 -0.5495 -0.0221
23862ION     CL28262  12.427   1.369   6.682 -0.1789  0.2379 -0.1788
23863ION     CL28263  14.249   4.060   0.175 -0.0195 -0.2911  0.1700
23864ION     CL28264  18.469   2.953  16.420  0.4300 -0.1759 -0.1021
23865ION     CL28265  14.767   2.359   5.488  0.1141 -0.1333 -0.2167
23866ION     CL28266   1.136   5.767  41.719 -0.5939 -0.1256  0.3007
23867ION     CL28267  19.471   1.921   8.276 -0.2628  0.0348  0.0801
23868ION     CL28268  19.466   1.269  42.767  0.0208  0.4861 -0.3239
23869ION     CL28269  13.422   3.544  31.789 -0.3923 -0.1772  0.1031
23870ION     CL28270   5.339   4.788   3.557 -0.0333 -0.0455  0.1345
23871ION     CL28271   6.428   0.119   9.996 -0.5205  0.0547 -0.0510
23872ION     CL28272   2.691   2.384  28.053 -0.3486  0.3658  0.2331
23873ION     CL28273   9.458   0.865  11.970  0.1723  0.2652 -0.2872
23874ION     CL28274   2.230   3.027  12.644 -0.2610  0.0587 -0.1213
23875ION     CL28275  19.307   2.493  30.143 -0.2876 -0.2509  0.0351
23876ION     CL28276   4.282   1.439  33.398 -0.0984 -0.1822 -0.2072
23877ION     CL28277   5.394   3.733   1.544 -0.2705 -0.2424  0.0170
23878ION     CL28278   0.493   1.719  44.556 -0.0900  0.0369 -0.6598
23879ION     CL28279  15.468   5.601  15.063 -0.0648  0.3661  0.3782
23880ION     CL28280   9.857   3.467   7.525 -0.2864 -0.4055  0.1292
23881ION     CL28281  14.964   2.407  11.147  0.2116 -0.0586 -0.3228
23882ION     CL28282   9.657   0.015  30.113  0.0962 -0.1184  0.1091
23883ION     CL28283   8.016   5.297  10.985 -0.0646 -0.2536  0.4574
23884ION     CL28284  17.993   5.558  32.148  0.1622  0.2527  0.2886
23885ION     CL28285  19.500   2.669   1.244 -0.1855 -0.0259  0.0343
23886ION     CL28286   0.612   5.189   0.946  0.2440 -0.1360 -0.3210
23887ION     CL28287   1.299   5.265  45.019  0.2836  0.1466 -0.1177
23888ION     CL28288  17.458   6.546   0.037 -0.1758 -0.0391 -0.2888
23889ION     CL28289   0.763   3.524  41.851  0.0226  0.0551  0.1345
23890ION     CL28290  20.695   5.747  40.147  0.2551 -0.3993 -0.0265
23891ION     CL28291  16.099   5.556  43.209 -0.0967 -0.2677 -0.2165
23892ION     CL28292   2.727   2.915  35.980 -0.2031  0.0327 -0.1594
23893ION     CL28293   4.701   3.408   4.970 -0.3197 -0.0449  0.1321
23894ION     CL28294  15.589   6.484  19.743  0.2475 -0.4673 -0.1930
23895ION     CL28295  15.207   1.438  19.003 -0.0595 -0.2505  0.3915
23896ION     CL28296   4.519   3.908   1.363  0.0993 -0.0294  0.1893
23897ION     CL28297  13.268   1.536  10.302 -0.3519 -0.0293  0.0718
23898ION     CL28298  18.272   1.986  40.704 -0.3605  0.0837 -0.2906
23899ION     CL28299  11.790   3.342   4.529  0.0508 -0.1336 -0.0221
23900ION     CL28300  18.015   2.095  33.603 -0.2993 -0.1568 -0.0621
23901ION     CL28301  20.032   4.065  40.210 -0.0493  0.1347 -0.2524
23902ION     CL28302   3.200   1.847  32.470  0.2095  0.0454  0.2831
23903ION     CL28303  19.369   3.405  42.632 -0.3745  0.0645  0.1679
23904ION     CL28304  12.725   4.432  33.353 -0.0358 -0.1089  0.1166
23905ION     CL28305  13.345   2.114  39.274  0.3541 -0.2018 -0.1265
23906ION     CL28306   2.741   1.701  35.027 -0.2966  0.7073 -0.2306
23907ION     CL28307   6.810   4.441   9.682 -0.0698 -0.1139 -0.2047
23908ION     CL28308   1.882   2.466  24.803 -0.2099  0.5322  0.0883
23909ION     CL28309  21.089   2.396   9.548 -0.3915 -0.5913  0.2456
23910ION     CL28310   6.236   1.265  13.951 -0.0758 -0.4986 -0.0496
23911ION     CL28311  11.953   3.796  21.056  0.2432  0.0367  0.0054
23912ION     CL28312   1.752   1.457  11.237 -0.1697 -0.0325 -0.2011
23913ION     CL28313   0.437   0.440   5.989  0.0966  0.4866  0.2641
23914ION     CL28314  16.197   5.868  20.983  0.1154 -0.1366  0.3098
23915ION     CL28315  15.834   0.592  43.518  0.4598  0.4663 -0.0769
23916ION     CL28316  15.257   3.663  15.670  0.1504  0.0495 -0.1295
23917ION     CL28317   6.898   5.387  13.850  0.4441  0.1952  0.3965
23918ION     CL28318  20.177   6.491  34.670 -0.2053 -0.2678 -0.1047
23919ION     CL28319  15.961   6.354  31.922 -0.0070  0.3553 -0.1150
23920ION     CL28320   8.596   2.150   9.342  0.2104 -0.1708 -0.2558
23921ION     CL28321  11.591   4.693  16.231  0.0624  0.1070 -0.0142
23922ION     CL28322  12.582   5.443   7.913 -0.5364  0.1724 -0.1584
23923ION     CL28323   1.398   5.091  43.069 -0.1856  0.1771  0.2277
23924ION     CL28324   2.939   2.510  24.440  0.3405 -0.2605  0.3667
23925ION     CL28325  14.071   5.576  17.737 -0.2017  0.0611 -0.4053
23926ION     CL28326   9.643   5.579   4.997  0.2526 -0.3030 -0.1160
23927ION     CL28327  13.074   0.507  35.801 -0.1296  0.0154  0.3137
23928ION     CL28328   6.674   3.465  24.470  0.1733  0.1731  0.0166
23929ION     CL28329  14.314   1.628  40.156  0.3035  0.0994 -0.1439
23930ION     CL28330   7.044   3.616  38.740 -0.1320  0.0748 -0.0380
23931ION     CL28331   7.708   5.787  27.899  0.0985  0.0036  0.1446
23932ION     CL28332  17.984   2.325  38.337  0.0868  0.0377  0.1062
23933ION     CL28333  19.627   1.205   5.615  0.1860 -0.0338 -0.1377
23934ION     CL28334  18.536   2.560  33.329  0.2872  0.2741 -0.0530
23935ION     CL28335  13.960   2.350  35.450  0.1896  0.1802 -0.1888
23936ION     CL28336   9.591   0.044  37.295  0.3165  0.2464  0.5422
23937ION     CL28337   9.088   3.979  27.344 -0.1843 -0.4014  0.0931
23938ION     CL28338  11.175   3.920  29.994  0.1526 -0.4497  0.0651
23939ION     CL28339  20.102   2.252   0.817  0.0068 -0.0447  0.0459
23940ION     CL28340   7.251   0.714   6.040  0.0665  0.1005  0.0327
23941ION     CL28341  18.616   5.909  38.686  0.1641  0.0986 -1.1177
23942ION     CL28342  17.329   6.084  32.960  0.4618  0.3537 -0.1887
23943ION     CL28343   0.432   2.903  28.194  0.3108  0.3637 -0.2507
23944ION     CL28344  16.059   3.681  31.727 -0.2273  0.2521  0.2450
23945ION     CL28345  13.936   3.986  39.374  0.1714  0.3747 -0.2904
23946ION     CL28346   2.373   4.133  30.591 -0.2025 -0.5470 -0.2030
23947ION     CL28347  13.700   1.417  17.014 -0.1143 -0.2704  0.3961
23948ION     CL28348  11.837   6.041  11.457  0.1295  0.3703  0.2036
23949ION     CL28349   6.675   6.246  15.204 -0.0620  0.0833  0.0490
23950ION     CL28350   0.700   3.447  43.405  0.2910 -0.1828 -0.3437
23951ION     CL28351  13.679   4.540  22.738  0.2983  0.2758  0.0429
23952ION     CL28352  14.905   1.120  43.393 -0.1396 -0.2605 -0.1013
23953ION     CL28353  13.266   4.040   6.764 -0.3552  0.1329  0.0372
23954ION     CL28354   5.831   2.550   8.000  0.1913  0.2111  0.1687
23955ION     CL28355   9.960   0.573  15.735  0.2124 -0.0911 -0.4678
23956ION     CL28356  10.831   1.444  10.995 -0.2085 -0.3797 -0.1845
23957ION     CL28357   5.027   3.177  12.841  0.6957  0.3321  0.5109
23958ION     CL28358   4.100   0.204  34.522 -0.2635  0.3974 -0.0466
23959ION     CL28359  13.484   0.143  29.741  0.2139 -0.0063 -0.2822
23960ION     CL28360  15.907   3.148   9.873 -0.4227 -0.0762  0.3082
23961ION     CL28361  20.041   3.635  44.682 -0.5027 -0.6558 -0.4360
23962ION     CL28362  18.704   5.745   0.316  0.3255 -0.0644 -0.0665
23963ION     CL28363   7.835   0.223  28.301  0.0304  0.0019 -0.2109
23964ION     CL28364  13.680   4.120  34.331  0.4323 -0.1374 -0.1088
23965ION     CL28365   9.655   6.121  29.539 -0.0057 -0.0552 -0.1635
23966ION     CL28366  18.507   4.671  16.262  0.5061 -0.1423  0.2108
23967ION     CL28367  14.439   1.231  29.803 -0.0033 -0.2639  0.1528
23968ION     CL28368   9.922   1.951  16.017  0.0594  0.1047  0.0298
23969ION     CL28369   2.457   3.577  26.442  0.2061  0.2624  0.4966
23970ION     CL28370  11.649   5.639   6.431  0.2346  0.4413 -0.3033
23971ION     CL28371  19.901   1.159  29.420 -0.0877  0.1257  0.0367
23972ION     CL28372   5.406   2.999   6.345  0.2390 -0.6042  0.5702
23973ION     CL28373  12.796   0.910  39.951 -0.1008  0.0787 -0.1538
23974ION     CL28374   4.305   3.008  12.003  0.0418  0.0173 -0.2167
23975ION     CL28375  17.293   2.654  34.257  0.2631  0.3076 -0.1985
23976ION     CL28376   6.949   0.645  44.597 -0.2684  0.0621 -0.1498
23977ION     CL28377   5.656   3.500   4.126  0.1771  0.0310  0.0958
23978ION     CL28378  18.860   3.844   9.402  0.0674 -0.4146 -0.6206
23979ION     CL28379   9.670   2.094  18.941 -0.3601 -0.3212 -0.4589
23980ION     CL28380  17.904   4.232  42.679 -0.3015  0.0686  0.3084
23981ION     CL28381   6.929   1.169  11.406 -0.5059  0.4064  0.1433
23982ION     CL28382  14.772   0.197   9.304  0.1718  0.1150 -0.2430
23983ION     CL28383  12.647   2.533  13.455 -0.0895 -0.0160  0.1288
23984ION     CL28384  17.998   4.324   3.319  0.0429  0.4061 -0.0816
23985ION     CL28385   0.409   0.054   3.179  0.1866 -0.1500 -0.4212
23986ION     CL28386   7.296   4.087  26.731  0.1095  0.0532  0.4949
23987ION     CL28387  10.498   3.969  11.503  0.3813 -0.1008  0.1656
23988ION     CL28388  18.949   2.693  18.642  0.1953 -0.1796  0.2115
23989ION     CL28389  13.065   5.348  38.063 -0.2170  0.0422  0.0483
23990ION     CL28390  13.018   4.549  21.463  0.3450  0.4977 -0.2667
23991ION     CL28391   9.759   2.566  28.438 -0.4970 -0.1240  0.1070
23992ION     CL28392   7.885   6.231  40.324  0.0409  0.0524 -0.2124
23993ION     CL28393   4.253   5.405  29.163 -0.0448  0.2881  0.1041
23994ION     CL28394  21.094   0.776  37.791 -0.2325  0.3014 -0.2385
23995ION     CL28395   7.791   1.746   8.876  0.1597 -0.1521 -0.2304
23996ION     CL28396  18.181   3.536  43.445 -0.0371  0.2673  0.0503
23997DPPC   NC328397  11.815   5.540  28.337 -0.1553 -0.2809  0.1595
23997DPPC   PO428398  12.226   5.604  28.362  0.1384 -0.2597  0.0517
23997DPPC   GL128399  12.468   5.624  27.992  0.2672 -0.2223 -0.0549
23997DPPC   GL228400  12.573   5.844  28.067 -0.2619 -0.0487  0.0338
23997DPPC   C1A28401  12.229   5.570  27.729  0.0430 -0.0578  0.1339
23997DPPC   C2A28402  11.969   5.635  27.437 -0.0725  0.5339  0.2161
23997DPPC   C3A28403  11.940   5.760  26.967 -0.0159 -0.2336  0.2253
23997DPPC   C4A28404  11.839   6.184  26.670  0.1658 -0.0304 -0.3847
23997DPPC   C1B28405  12.781   5.852  27.742 -0.0402  0.0341 -0.2486
23997DPPC   C2B28406  13.098   5.845  27.549  0.2864 -0.1672 -0.0897
23997DPPC   C3B28407  13.374   5.914  27.206 -0.1537 -0.3723 -0.1976
23997DPPC   C4B28408  13.624   5.957  26.730  0.1102  0.2305 -0.1601
23998DPPC   NC328409  18.408   0.527  28.583  0.0522  0.1437  0.2003
23998DPPC   PO428410  17.976   0.531  28.530 -0.1510 -0.1666  0.0029
23998DPPC   GL128411  17.582   0.684  28.296 -0.0928  0.1562 -0.1579
23998DPPC   GL228412  17.786   0.674  28.037  0.2726 -0.2985 -0.2157
23998DPPC   C1A28413  17.372   0.555  28.053 -0.3731  0.0564  0.0872
23998DPPC   C2A28414  17.184   0.460  27.708  0.1440  0.0190 -0.0800
23998DPPC   C3A28415  17.009   0.364  27.291  0.0562  0.0779 -0.0174
23998DPPC   C4A28416  16.727   0.636  26.983  0.0929  0.0112  0.2078
23998DPPC   C1B28417  17.596   0.731  27.737  0.1585 -0.2499 -0.1807
23998DPPC   C2B28418  17.428   0.686  27.354 -0.1704 -0.0786  0.0377
23998DPPC   C3B28419  17.238   0.697  26.974  0.1112 -0.0117  0.3704
23998DPPC   C4B28420  16.968   0.694  26.591 -0.0888  0.2503  0.3127
23999DPPC   NC328421  15.910   3.237  29.030  0.2801 -0.1040  0.1701
23999DPPC   PO428422  15.745   2.950  28.894 -0.0765 -0.0697  0.1575
23999DPPC   GL128423  15.789   2.760  28.489 -0.2668 -0.0840  0.1731
23999DPPC   GL228424  15.866   3.094  28.425 -0.2174  0.2202 -0.0554
23999DPPC   C1A28425  15.937   2.586  28.181 -0.2702  0.3243 -0.0953
23999DPPC   C2A28426  16.297   2.411  27.966  0.2188  0.0122 -0.3027
23999DPPC   C3A28427  16.790   2.193  27.844 -0.1742  0.0716 -0.0992
23999DPPC   C4A28428  16.792   1.691  27.956 -0.3068 -0.1021 -0.1059
23999DPPC   C1B28429  15.990   3.106  28.066  0.1147 -0.2346  0.1692
23999DPPC   C2B28430  15.796   3.230  27.709  0.1271 -0.1505 -0.1793
23999DPPC   C3B28431  15.858   3.451  27.268  0.0249 -0.0675  0.0700
23999DPPC   C4B28432  15.863   3.922  27.279 -0.1527  0.1708 -0.3183
24000DPPC   NC328433  19.425   1.171  26.765  0.1189  0.4150  0.0923
24000DPPC   PO428434  19.053   1.164  26.611  0.0039  0.0501  0.2186
24000DPPC   GL128435  18.645   0.992  26.686 -0.2487  0.0147  0.1062
24000DPPC   GL228436  18.538   1.311  26.753 -0.0679 -0.2824  0.1589
24000DPPC   C1A28437  18.344   0.934  26.430  0.2153  0.0954  0.0215
24000DPPC   C2A28438  18.169   0.966  26.082  0.1059 -0.3733 -0.0566
24000DPPC   C3A28439  17.841   0.897  25.727 -0.0948  0.2187 -0.1922
24000DPPC   C4A28440  17.553   0.923  25.357 -0.0326 -0.1446 -0.2606
24000DPPC   C1B28441  18.269   1.422  26.516 -0.0221 -0.0584 -0.1489
24000DPPC   C2B28442  18.036   1.461  26.204 -0.1079 -0.0401  0.1519
24000DPPC   C3B28443  17.707   1.426  25.849 -0.0911 -0.1555 -0.0896
24000DPPC   C4B28444  17.462   1.461  25.442  0.3756 -0.1544 -0.1847
24001DPPC   NC328445  10.309   0.801  28.150  0.1283  0.0537 -0.1280
24001DPPC   PO428446  10.279   1.079  27.831  0.1901 -0.2548  0.0830
24001DPPC   GL128447  10.501   1.251  27.571  0.0977 -0.0956  0.0406
24001DPPC   GL228448  10.736   1.123  27.804  0.2575 -0.0458  0.0880
24001DPPC   C1A28449  10.731   1.511  27.427  0.2448  0.0203 -0.3841
24001DPPC   C2A28450  10.896   1.457  27.063 -0.1742  0.1123 -0.1410
24001DPPC   C3A28451  11.134   1.391  26.622  0.0293 -0.0348 -0.3152
24001DPPC   C4A28452  11.416   1.454  26.210 -0.2000  0.3097  0.1290
24001DPPC   C1B28453  11.002   0.907  27.688  0.1373  0.0211  0.3050
24001DPPC   C2B28454  11.379   0.959  27.547 -0.1797  0.1191  0.3051
24001DPPC   C3B28455  11.777   1.136  27.578 -0.0456 -0.2316 -0.2767
24001DPPC   C4B28456  12.062   1.420  27.868 -0.1156  0.0250  0.1047
24002DPPC   NC328457  17.527   0.223  28.501 -0.0715 -0.1190 -0.1294
24002DPPC   PO428458  17.845   0.052  28.352 -0.0275 -0.1197 -0.1716
24002DPPC   GL128459  17.691   0.028  27.952  0.0110 -0.4805  0.1250
24002DPPC   GL228460  17.821   0.210  27.776  0.1707  0.2160  0.2815
24002DPPC   C1A28461  17.310   0.026  27.991 -0.2905  0.3512  0.1054
24002DPPC   C2A28462  17.104  -0.300  27.844  0.0543  0.1936 -0.2597
24002DPPC   C3A28463  17.070  -0.738  27.742  0.0442  0.1788  0.2223
24002DPPC   C4A28464  16.942  -1.214  27.696  0.2342 -0.0012 -0.1826
24002DPPC   C1B28465  17.640   0.207  27.441  0.0660  0.3859 -0.0167
24002DPPC   C2B28466  17.411   0.199  27.090 -0.2216 -0.2545  0.1741
24002DPPC   C3B28467  17.143   0.221  26.696  0.1023 -0.1143 -0.2332
24002DPPC   C4B28468  16.954   0.284  26.262  0.0077  0.1235  0.0103
24003DPPC   NC328469  18.861   4.998  27.091  0.1726 -0.0825 -0.1004
24003DPPC   PO428470  19.114   5.189  26.888 -0.2699 -0.1978 -0.1216
24003DPPC   GL128471  18.789   5.185  26.667  0.2573 -0.4454 -0.2804
24003DPPC   GL228472  18.905   5.141  26.426  0.2718 -0.3274  0.1819
24003DPPC   C1A28473  18.497   5.378  26.554  0.0969 -0.0610 -0.1601
24003DPPC   C2A28474  18.212   5.397  26.310  0.0756 -0.0104 -0.0224
24003DPPC   C3A28475  17.879   5.496  25.896  0.1815 -0.1658  0.4595
24003DPPC   C4A28476  17.557   5.470  25.493 -0.0121 -0.0060  0.1159
24003DPPC   C1B28477  18.700   5.177  26.128 -0.0135 -0.3984 -0.1082
24003DPPC   C2B28478  18.480   5.312  25.852 -0.0297  0.1412 -0.0335
24003DPPC   C3B28479  18.142   5.315  25.479  0.0897  0.1781 -0.1405
24003DPPC   C4B28480  17.834   5.422  25.100  0.4192  0.2304 -0.2946
24004DPPC   NC328481  14.265   3.489  29.054 -0.1275  0.1163 -0.4132
24004DPPC   PO428482  14.019   3.269  28.864 -0.0265 -0.0440  0.0028
24004DPPC   GL128483  14.064   3.249  28.390  0.1513 -0.2163 -0.1522
24004DPPC   GL228484  14.139   3.444  28.323 -0.0565  0.3068 -0.0114
24004DPPC   C1A28485  14.246   2.946  28.198 -0.1528 -0.0084 -0.3112
24004DPPC   C2A28486  14.638   2.918  28.080  0.3338  0.0880 -0.2518
24004DPPC   C3A28487  15.105   2.965  27.806 -0.3362  0.1476 -0.6233
24004DPPC   C4A28488  15.465   2.997  27.420  0.1295  0.3218  0.1283
24004DPPC   C1B28489  14.362   3.362  27.999 -0.2382 -0.2150  0.0166
24004DPPC   C2B28490  14.560   3.307  27.608 -0.0508 -0.6136  0.0376
24004DPPC   C3B28491  14.899   3.032  27.354 -0.0785  0.1177  0.1643
24004DPPC   C4B28492  15.091   2.853  26.981 -0.1625  0.1463  0.1666
24005DPPC   NC328493  14.957   6.566  29.848  0.0599 -0.4961 -0.1949
24005DPPC   PO428494  14.963   6.560  29.447 -0.2000  0.0464 -0.1787
24005DPPC   GL128495  14.702   6.690  29.173  0.2135  0.2478  0.1850
24005DPPC   GL228496  14.971   6.823  28.926  0.0721 -0.0508 -0.0009
24005DPPC   C1A28497  14.546   6.429  28.972  0.2884  0.1916  0.1470
24005DPPC   C2A28498  14.278   6.427  28.652  0.0397 -0.3326  0.1295
24005DPPC   C3A28499  14.075   6.554  28.191 -0.2888 -0.1244  0.0843
24005DPPC   C4A28500  13.642   6.607  27.953 -0.2941  0.2010 -0.0966
24005DPPC   C1B28501  14.834   7.149  28.787  0.1174 -0.4154  0.1462
24005DPPC   C2B28502  14.651   7.374  28.444 -0.0321 -0.1379 -0.0222
24005DPPC   C3B28503  14.599   7.851  28.489 -0.1789  0.1792  0.1124
24005DPPC   C4B28504  14.409   8.254  28.456 -0.2384  0.4802 -0.1369
24006DPPC   NC328505  16.317   2.947  28.474  0.1814 -0.0824  0.3628
24006DPPC   PO428506  16.310   3.088  28.817  0.2921 -0.2506 -0.0737
24006DPPC   GL128507  16.264   3.492  28.713 -0.0185  0.1362  0.4329
24006DPPC   GL228508  16.534   3.410  28.525 -0.2160  0.0548  0.0763
24006DPPC   C1A28509  16.056   3.596  28.460  0.0331 -0.2641 -0.1127
24006DPPC   C2A28510  15.774   3.570  28.153 -0.1234  0.1086 -0.1369
24006DPPC   C3A28511  15.383   3.362  27.998  0.0448  0.0964  0.5067
24006DPPC   C4A28512  15.055   3.439  27.605  0.1268 -0.0809  0.2780
24006DPPC   C1B28513  16.443   3.428  28.181 -0.0032 -0.3400 -0.1474
24006DPPC   C2B28514  16.285   3.441  27.791 -0.1788  0.1860 -0.2287
24006DPPC   C3B28515  16.265   3.669  27.316 -0.4885  0.2020  0.1331
24006DPPC   C4B28516  16.246   3.856  26.864 -0.0529 -0.3250  0.2431
24007DPPC   NC328517   9.392   0.811  27.155 -0.0633 -0.0427 -0.0961
24007DPPC   PO428518   9.610   0.483  26.992 -0.0857 -0.4047  0.0122
24007DPPC   GL128519   9.977   0.679  26.910  0.1506  0.1563 -0.2005
24007DPPC   GL228520  10.070   0.417  27.004  0.3046  0.2090  0.0682
24007DPPC   C1A28521  10.265   0.712  26.675 -0.2129 -0.3909  0.3071
24007DPPC   C2A28522  10.541   0.660  26.358 -0.0892 -0.2259  0.0718
24007DPPC   C3A28523  10.832   0.672  25.935 -0.0266  0.0475  0.0696
24007DPPC   C4A28524  11.072   0.659  25.545  0.2178 -0.0988  0.0092
24007DPPC   C1B28525  10.374   0.247  26.813  0.1921 -0.0633 -0.0498
24007DPPC   C2B28526  10.662   0.183  26.576 -0.0553 -0.1168  0.0540
24007DPPC   C3B28527  10.854   0.268  26.166 -0.2362  0.1824  0.0707
24007DPPC   C4B28528  11.123   0.174  25.812  0.0488 -0.0117 -0.0240
24008DPPC   NC328529  13.884   0.338  29.090 -0.0742  0.1139 -0.1527
24008DPPC   PO428530  13.591   0.395  28.819 -0.2940  0.1629 -0.0623
24008DPPC   GL128531  13.541   0.263  28.423  0.3355  0.1198 -0.1376
24008DPPC   GL228532  13.273   0.410  28.547 -0.0583 -0.3115  0.3588
24008DPPC   C1A28533  13.816   0.381  28.237 -0.1668 -0.0493  0.4824
24008DPPC   C2A28534  14.090   0.366  27.914  0.2968  0.0129  0.0110
24008DPPC   C3A28535  14.356   0.375  27.502  0.2645  0.0723 -0.0906
24008DPPC   C4A28536  14.614   0.452  27.119  0.1379  0.0723  0.0417
24008DPPC   C1B28537  13.240   0.642  28.240 -0.0229 -0.1883  0.2062
24008DPPC   C2B28538  13.341   0.941  27.966 -0.1911  0.1065 -0.3506
24008DPPC   C3B28539  13.543   0.910  27.552  0.0761 -0.2409 -0.0334
24008DPPC   C4B28540  13.706   0.908  27.131 -0.0172 -0.1450 -0.2257
24009DPPC   NC328541  13.628   4.784  28.719  0.1179 -0.2475 -0.2646
24009DPPC   PO428542  13.276   4.572  28.786 -0.1517 -0.3710 -0.2226
24009DPPC   GL128543  13.009   4.414  28.467 -0.3239 -0.1015 -0.3532
24009DPPC   GL228544  13.227   4.455  28.253 -0.2013 -0.0554  0.0590
24009DPPC   C1A28545  12.777   4.524  28.167 -0.1217 -0.3392 -0.2979
24009DPPC   C2A28546  12.575   4.830  28.017 -0.0156  0.0265 -0.0409
24009DPPC   C3A28547  12.355   5.028  27.571  0.2439  0.0775 -0.2021
24009DPPC   C4A28548  12.140   5.202  27.167 -0.0407 -0.1980  0.1915
24009DPPC   C1B28549  13.118   4.546  27.889 -0.5350  0.1468 -0.0138
24009DPPC   C2B28550  13.259   4.504  27.466  0.0407 -0.0838 -0.0349
24009DPPC   C3B28551  13.438   4.581  27.047  0.0557 -0.0927  0.1029
24009DPPC   C4B28552  13.723   4.616  26.570  0.0949 -0.1949  0.0824
24010DPPC   NC328553  18.720   5.516  27.004 -0.1500 -0.1015 -0.2370
24010DPPC   PO428554  18.706   5.839  27.243  0.1271 -0.2149  0.0495
24010DPPC   GL128555  18.212   5.954  27.182 -0.1211 -0.2688  0.2353
24010DPPC   GL228556  18.282   5.688  27.211 -0.3826  0.0500 -0.1428
24010DPPC   C1A28557  17.932   6.007  26.988 -0.0037  0.1191 -0.1321
24010DPPC   C2A28558  17.678   6.072  26.659 -0.3720 -0.0674 -0.0936
24010DPPC   C3A28559  17.325   6.021  26.326 -0.0297 -0.0959 -0.0196
24010DPPC   C4A28560  16.947   6.062  26.001 -0.2251  0.0737 -0.0721
24010DPPC   C1B28561  18.172   5.562  26.914 -0.0843  0.0422  0.1355
24010DPPC   C2B28562  17.875   5.610  26.626  0.2635  0.0644  0.1182
24010DPPC   C3B28563  17.557   5.566  26.310 -0.0945 -0.1780  0.1214
24010DPPC   C4B28564  17.247   5.558  25.919 -0.0695  0.3004  0.1216
24011DPPC   NC328565  13.703   6.309  29.447  0.3871  0.0895  0.1794
24011DPPC   PO428566  13.727   6.121  29.102  0.2346  0.3417 -0.0496
24011DPPC   GL128567  13.914   6.115  28.777  0.0508  0.0916  0.3067
24011DPPC   GL228568  13.667   6.105  28.575  0.2862 -0.0359  0.2713
24011DPPC   C1A28569  14.274   5.959  28.728 -0.1563 -0.3682  0.1185
24011DPPC   C2A28570  14.688   6.065  28.744  0.0400  0.1283  0.1753
24011DPPC   C3A28571  15.109   5.917  28.778  0.2183  0.0249  0.1775
24011DPPC   C4A28572  15.590   5.871  28.854 -0.1849 -0.0485  0.5309
24011DPPC   C1B28573  13.786   6.180  28.191 -0.0621  0.1274  0.1418
24011DPPC   C2B28574  14.051   6.199  27.867 -0.0751  0.0803 -0.0288
24011DPPC   C3B28575  14.236   6.131  27.479  0.1660 -0.1422  0.1379
24011DPPC   C4B28576  14.575   6.128  27.203  0.1074 -0.2292 -0.2732
24012DPPC   NC328577  10.970   2.777  28.458  0.3401 -0.4037 -0.1211
24012DPPC   PO428578  11.064   3.103  28.239 -0.2045 -0.4806 -0.1117
24012DPPC   GL128579  11.038   3.059  27.834  0.0934  0.0005  0.5721
24012DPPC   GL228580  10.790   3.164  27.800 -0.1871 -0.0218 -0.1560
24012DPPC   C1A28581  11.147   2.934  27.484 -0.0666 -0.3203 -0.1371
24012DPPC   C2A28582  11.270   2.711  27.177  0.1973 -0.1033 -0.2578
24012DPPC   C3A28583  11.591   2.681  26.755 -0.1089  0.0587  0.2311
24012DPPC   C4A28584  11.861   2.681  26.388 -0.1109 -0.4075 -0.4190
24012DPPC   C1B28585  10.818   3.208  27.475 -0.1399  0.3776  0.0609
24012DPPC   C2B28586  10.988   3.275  27.164  0.3004 -0.0102  0.0431
24012DPPC   C3B28587  11.312   3.062  26.834 -0.2641  0.1319 -0.0172
24012DPPC   C4B28588  11.629   3.107  26.449  0.1627 -0.0259  0.1109
24013DPPC   NC328589  15.859   0.056  29.189 -0.1202  0.1194  0.1476
24013DPPC   PO428590  16.095  -0.187  29.346 -0.0487 -0.0268 -0.1681
24013DPPC   GL128591  16.082  -0.472  28.917  0.1354  0.1858 -0.4997
24013DPPC   GL228592  16.208  -0.160  28.869  0.0079 -0.1309 -0.3441
24013DPPC   C1A28593  15.862  -0.351  28.659 -0.1996 -0.0371  0.0369
24013DPPC   C2A28594  15.515  -0.466  28.488 -0.0931  0.3929 -0.0168
24013DPPC   C3A28595  15.034  -0.334  28.441  0.0470 -0.3056 -0.0184
24013DPPC   C4A28596  14.716   0.009  28.580 -0.3547 -0.0734 -0.2195
24013DPPC   C1B28597  16.231  -0.139  28.486 -0.2006  0.1912 -0.3051
24013DPPC   C2B28598  16.434  -0.248  28.117 -0.0859 -0.1018 -0.0519
24013DPPC   C3B28599  16.626  -0.526  27.760  0.1961  0.1200 -0.2888
24013DPPC   C4B28600  16.517  -0.890  27.546  0.1014  0.3318 -0.0746
24014DPPC   NC328601  17.452   0.065  29.212  0.0892  0.4624 -0.3802
24014DPPC   PO428602  17.198   0.122  28.889  0.1372 -0.1590  0.1261
24014DPPC   GL128603  17.107  -0.008  28.429 -0.1035  0.2935  0.1849
24014DPPC   GL228604  17.127   0.296  28.374 -0.0436 -0.0855  0.1078
24014DPPC   C1A28605  17.023  -0.311  28.252 -0.0973  0.3146 -0.3900
24014DPPC   C2A28606  16.814  -0.660  28.251  0.1758  0.1270 -0.1429
24014DPPC   C3A28607  16.474  -1.003  28.152  0.2099 -0.2836 -0.0550
24014DPPC   C4A28608  16.149  -1.222  27.887  0.1420 -0.1414  0.1114
24014DPPC   C1B28609  16.867   0.512  28.240 -0.2937  0.2448 -0.0895
24014DPPC   C2B28610  16.593   0.488  27.901 -0.1435  0.0310 -0.0880
24014DPPC   C3B28611  16.494   0.382  27.431  0.1756 -0.1918 -0.3247
24014DPPC   C4B28612  16.306   0.369  27.001 -0.1156  0.0694 -0.0165
24015DPPC   NC328613  18.388   5.420  27.608  0.2494  0.1115 -0.0198
24015DPPC   PO428614  18.519   5.218  27.338 -0.0529 -0.2241  0.0217
24015DPPC   GL128615  18.395   4.938  27.037  0.0684 -0.1442  0.0709
24015DPPC   GL228616  18.402   5.139  26.906  0.0109 -0.0579  0.4777
24015DPPC   C1A28617  18.064   4.822  26.964  0.6229  0.0697 -0.1834
24015DPPC   C2A28618  17.703   4.746  26.794 -0.2421  0.0101 -0.0423
24015DPPC   C3A28619  17.435   4.710  26.439  0.0584 -0.1656 -0.0455
24015DPPC   C4A28620  17.182   4.687  26.053 -0.0320  0.0401 -0.0821
24015DPPC   C1B28621  18.109   5.092  26.636  0.1122 -0.0624 -0.2974
24015DPPC   C2B28622  17.766   5.081  26.366 -0.1749 -0.1907  0.0742
24015DPPC   C3B28623  17.472   5.129  26.053 -0.0178 -0.1258  0.2093
24015DPPC   C4B28624  17.209   5.102  25.661  0.2833  0.2093  0.2667
24016DPPC   NC328625  19.592   4.292  26.076 -0.0068  0.2807  0.1217
24016DPPC   PO428626  19.889   4.379  25.864  0.0992  0.0804 -0.2421
24016DPPC   GL128627  19.919   4.271  25.417 -0.0410  0.1415 -0.1737
24016DPPC   GL228628  19.668   4.480  25.470 -0.0990  0.1801 -0.0291
24016DPPC   C1A28629  19.726   4.088  25.174  0.1609  0.0995  0.2231
24016DPPC   C2A28630  19.447   4.124  24.912  0.2045  0.3486  0.0452
24016DPPC   C3A28631  19.089   4.117  24.630  0.0444 -0.0633  0.0368
24016DPPC   C4A28632  18.798   4.138  24.216  0.3743  0.0108 -0.0568
24016DPPC   C1B28633  19.500   4.651  25.206 -0.0636 -0.2269 -0.1268
24016DPPC   C2B28634  19.170   4.566  24.930  0.0110  0.1418  0.0333
24016DPPC   C3B28635  18.873   4.605  24.648  0.0502  0.0448  0.0076
24016DPPC   C4B28636  18.532   4.648  24.275  0.3456 -0.0060 -0.1749
24017DPPC   NC328637  19.222   5.954  26.242 -0.1699 -0.1439 -0.1379
24017DPPC   PO428638  19.469   5.722  26.031 -0.3854  0.0449 -0.0948
24017DPPC   GL128639  19.413   5.401  25.739  0.0765  0.0441  0.0628
24017DPPC   GL228640  19.263   5.652  25.673  0.2705  0.0036 -0.0547
24017DPPC   C1A28641  19.233   5.245  25.422 -0.0210 -0.1409  0.0110
24017DPPC   C2A28642  19.058   5.113  25.037 -0.2696  0.3092 -0.4350
24017DPPC   C3A28643  18.748   5.135  24.693 -0.1617 -0.1722  0.1344
24017DPPC   C4A28644  18.457   5.172  24.318  0.2631 -0.0422  0.0482
24017DPPC   C1B28645  19.016   5.616  25.379  0.1680  0.2196  0.3124
24017DPPC   C2B28646  18.816   5.571  25.004 -0.1030 -0.0677  0.0559
24017DPPC   C3B28647  18.468   5.576  24.642 -0.0336  0.1024  0.0815
24017DPPC   C4B28648  18.134   5.617  24.227 -0.3144  0.0530 -0.2026
24018DPPC   NC328649  18.234   4.456  27.840 -0.2037  0.1310 -0.1582
24018DPPC   PO428650  18.436   4.235  27.596  0.0188 -0.0125 -0.1279
24018DPPC   GL128651  18.164   4.083  27.340 -0.1404  0.2060 -0.1428
24018DPPC   GL228652  18.060   3.839  27.494 -0.1444  0.0015 -0.1351
24018DPPC   C1A28653  17.965   4.173  27.111 -0.1708 -0.3572  0.1915
24018DPPC   C2A28654  17.881   4.185  26.712 -0.1050  0.1822 -0.1514
24018DPPC   C3A28655  17.610   4.206  26.363 -0.1016 -0.0777 -0.1328
24018DPPC   C4A28656  17.363   4.238  25.993  0.0939 -0.2520  0.0677
24018DPPC   C1B28657  17.743   3.793  27.253 -0.1609  0.1650  0.0112
24018DPPC   C2B28658  17.568   3.807  26.894  0.1717 -0.4825  0.1974
24018DPPC   C3B28659  17.261   3.874  26.452  0.0614  0.1098 -0.1327
24018DPPC   C4B28660  17.016   3.794  26.024 -0.6532  0.1404  0.1055
24019DPPC   NC328661  18.032   3.586  28.240  0.0236 -0.2010  0.1137
24019DPPC   PO428662  18.164   3.386  27.882  0.0204  0.1433 -0.1548
24019DPPC   GL128663  17.987   3.328  27.466  0.1645 -0.1001 -0.3732
24019DPPC   GL228664  18.245   3.352  27.351 -0.2100 -0.2430  0.1124
24019DPPC   C1A28665  17.807   3.335  27.160  0.1874 -0.0849  0.0319
24019DPPC   C2A28666  17.646   3.332  26.749  0.0933  0.3222 -0.3849
24019DPPC   C3A28667  17.379   3.320  26.359  0.2820  0.0695  0.0022
24019DPPC   C4A28668  17.025   3.285  25.985 -0.1185  0.1742 -0.0001
24019DPPC   C1B28669  18.193   3.323  26.991 -0.0934 -0.2483  0.1333
24019DPPC   C2B28670  18.100   3.268  26.563  0.4059  0.1044  0.0298
24019DPPC   C3B28671  17.804   3.245  26.207 -0.2109  0.2666 -0.1066
24019DPPC   C4B28672  17.552   3.242  25.803 -0.1830  0.1944 -0.1856
24020DPPC   NC328673  17.390   3.676  28.599  0.1540  0.3365 -0.0543
24020DPPC   PO428674  17.602   3.860  28.306 -0.1429 -0.0242  0.0256
24020DPPC   GL128675  17.712   3.828  27.888  0.1800 -0.0864  0.4203
24020DPPC   GL228676  17.713   3.532  27.856 -0.0882  0.0504  0.0650
24020DPPC   C1A28677  17.488   4.046  27.674  0.1575  0.1142  0.0396
24020DPPC   C2A28678  17.216   3.986  27.330  0.0534 -0.1221  0.3886
24020DPPC   C3A28679  16.944   3.943  26.904 -0.1866 -0.2366  0.2183
24020DPPC   C4A28680  16.711   3.987  26.476 -0.2889 -0.1425  0.0838
24020DPPC   C1B28681  17.489   3.463  27.549 -0.3375  0.4475  0.2498
24020DPPC   C2B28682  17.361   3.527  27.197  0.0499  0.0750 -0.1220
24020DPPC   C3B28683  17.096   3.412  26.805  0.1531 -0.3649 -0.0835
24020DPPC   C4B28684  16.856   3.479  26.396  0.1446 -0.0022  0.3199
24021DPPC   NC328685  12.072   4.720  28.249 -0.1334 -0.0180  0.1894
24021DPPC   PO428686  11.980   4.428  28.442  0.3606  0.3588  0.0972
24021DPPC   GL128687  11.993   4.133  28.148 -0.0752  0.0827  0.2146
24021DPPC   GL228688  12.276   4.008  28.256 -0.1112  0.2067  0.3969
24021DPPC   C1A28689  11.906   4.152  27.797  0.3228 -0.2175 -0.4859
24021DPPC   C2A28690  11.866   4.116  27.403  0.0413 -0.0081  0.0292
24021DPPC   C3A28691  11.908   4.386  27.075 -0.1898 -0.1849  0.0245
24021DPPC   C4A28692  11.922   4.811  26.832  0.0716  0.1716  0.2199
24021DPPC   C1B28693  12.331   3.986  27.864  0.2489 -0.3058 -0.1336
24021DPPC   C2B28694  12.089   3.751  27.653 -0.0963 -0.0182 -0.3129
24021DPPC   C3B28695  12.017   3.450  27.270  0.2251 -0.3413 -0.1615
24021DPPC   C4B28696  11.835   3.513  26.759 -0.2666  0.0762  0.1503
24022DPPC   NC328697  12.799   0.951  28.373 -0.2393  0.0804  0.0349
24022DPPC   PO428698  12.420   1.026  28.366 -0.2511  0.1050 -0.1080
24022DPPC   GL128699  12.221   0.986  28.108 -0.2737 -0.1540 -0.2104
24022DPPC   GL228700  12.018   0.836  28.233  0.0251  0.3778  0.1181
24022DPPC   C1A28701  12.136   0.849  27.788  0.2375 -0.6832 -0.1215
24022DPPC   C2A28702  11.865   0.670  27.582 -0.3783  0.0971 -0.2219
24022DPPC   C3A28703  11.743   0.278  27.319 -0.1319  0.0732 -0.0373
24022DPPC   C4A28704  11.590  -0.129  27.104  0.0565  0.1010 -0.0134
24022DPPC   C1B28705  11.689   0.741  28.025  0.0676  0.0464 -0.1258
24022DPPC   C2B28706  11.455   0.526  27.704  0.0647  0.0802  0.2922
24022DPPC   C3B28707  11.279   0.134  27.588  0.1679 -0.1570  0.0199
24022DPPC   C4B28708  11.231  -0.311  27.421  0.1779 -0.0597  0.2473
24023DPPC   NC328709  17.631   6.003  28.575  0.0043 -0.1768  0.1900
24023DPPC   PO428710  17.806   5.961  28.201 -0.0392  0.0063 -0.1357
24023DPPC   GL128711  17.647   6.222  27.877 -0.1874  0.2095 -0.1061
24023DPPC   GL228712  17.601   5.927  27.768  0.3475  0.1133  0.1312
24023DPPC   C1A28713  17.491   6.379  27.607  0.1250  0.1450  0.4321
24023DPPC   C2A28714  17.115   6.490  27.390  0.0674  0.1657 -0.0224
24023DPPC   C3A28715  16.869   6.553  27.007  0.2511 -0.0368  0.0586
24023DPPC   C4A28716  16.662   6.660  26.632  0.1157 -0.0131  0.2271
24023DPPC   C1B28717  17.427   5.980  27.441 -0.2086  0.1159 -0.2642
24023DPPC   C2B28718  17.206   6.033  27.145 -0.1301 -0.2523 -0.0580
24023DPPC   C3B28719  16.900   6.045  26.741 -0.1010 -0.0494 -0.2655
24023DPPC   C4B28720  16.626   6.145  26.366 -0.3807 -0.0861 -0.0847
24024DPPC   NC328721  14.876   2.391  29.222 -0.1540  0.1547  0.1504
24024DPPC   PO428722  14.531   2.362  29.031 -0.1919 -0.3738  0.0082
24024DPPC   GL128723  14.757   2.363  28.693  0.1195 -0.0500  0.1932
24024DPPC   GL228724  14.560   2.514  28.575 -0.2150 -0.1470  0.3168
24024DPPC   C1A28725  14.854   2.232  28.296 -0.1295  0.0065 -0.0746
24024DPPC   C2A28726  14.826   2.450  27.944  0.0391 -0.0676  0.3928
24024DPPC   C3A28727  14.639   2.697  27.608 -0.0063 -0.4045  0.0219
24024DPPC   C4A28728  14.334   3.055  27.288  0.2122  0.2220  0.2350
24024DPPC   C1B28729  14.454   2.505  28.254 -0.3808  0.1035 -0.1315
24024DPPC   C2B28730  14.226   2.547  27.893  0.2471 -0.1807  0.0168
24024DPPC   C3B28731  13.772   2.639  27.687  0.0387  0.0078  0.0283
24024DPPC   C4B28732  13.470   3.025  27.685  0.0504 -0.0659  0.2650
24025DPPC   NC328733  19.259   2.910  26.475 -0.2753  0.4382 -0.0417
24025DPPC   PO428734  19.153   2.833  26.879 -0.1505  0.2443 -0.2192
24025DPPC   GL128735  18.812   2.784  26.658 -0.0750 -0.0163 -0.0208
24025DPPC   GL228736  18.784   2.472  26.704  0.2162 -0.0210 -0.3140
24025DPPC   C1A28737  18.706   2.961  26.345  0.0604  0.0331  0.2548
24025DPPC   C2A28738  18.405   3.125  26.089 -0.1515 -0.0837 -0.1103
24025DPPC   C3A28739  18.110   3.017  25.735  0.0234  0.1411 -0.1289
24025DPPC   C4A28740  17.865   3.097  25.344 -0.1668 -0.0061  0.1412
24025DPPC   C1B28741  18.520   2.332  26.485  0.1218  0.1991 -0.1017
24025DPPC   C2B28742  18.274   2.265  26.187 -0.1320  0.0926  0.2794
24025DPPC   C3B28743  17.923   2.202  25.900 -0.0049 -0.0052 -0.1039
24025DPPC   C4B28744  17.696   2.311  25.493 -0.1068 -0.0845  0.2977
24026DPPC   NC328745  19.718   3.997  26.893  0.3746  0.1406  0.0652
24026DPPC   PO428746  19.489   4.364  26.825 -0.0297 -0.2587 -0.4310
24026DPPC   GL128747  19.361   4.389  26.467 -0.3442 -0.2683  0.0031
24026DPPC   GL228748  19.213   4.089  26.467  0.1533  0.0618 -0.0646
24026DPPC   C1A28749  19.189   4.535  26.128  0.1023  0.1635 -0.1393
24026DPPC   C2A28750  18.879   4.367  25.895  0.0031  0.0596 -0.0437
24026DPPC   C3A28751  18.628   4.417  25.508 -0.3535 -0.0927  0.2258
24026DPPC   C4A28752  18.325   4.375  25.131  0.1877  0.1833  0.1169
24026DPPC   C1B28753  19.188   3.984  26.154 -0.0260 -0.2576 -0.0025
24026DPPC   C2B28754  18.997   3.919  25.831  0.0621  0.1068  0.1658
24026DPPC   C3B28755  18.671   3.858  25.433 -0.2403 -0.1266 -0.1115
24026DPPC   C4B28756  18.325   3.895  25.069  0.1668 -0.3140  0.2798
24027DPPC   NC328757  18.291   1.365  27.860  0.1273  0.4565  0.1127
24027DPPC   PO428758  17.971   1.346  28.148 -0.3271  0.1387 -0.0246
24027DPPC   GL128759  17.678   1.452  27.861  0.1027  0.3050 -0.3756
24027DPPC   GL228760  17.515   1.135  27.959  0.2584  0.0784  0.1783
24027DPPC   C1A28761  17.492   1.723  27.641  0.0726 -0.2841  0.0325
24027DPPC   C2A28762  17.160   1.682  27.424  0.0215  0.0512 -0.0183
24027DPPC   C3A28763  16.888   1.656  27.051  0.2314  0.0701 -0.0795
24027DPPC   C4A28764  16.656   1.646  26.680 -0.0036  0.0527  0.2526
24027DPPC   C1B28765  17.160   1.001  27.776 -0.0572 -0.3160 -0.2792
24027DPPC   C2B28766  16.860   0.819  27.610  0.2368  0.1018  0.2416
24027DPPC   C3B28767  16.503   0.876  27.333 -0.2087  0.0869  0.2491
24027DPPC   C4B28768  16.043   0.653  27.385  0.0227 -0.0547  0.0208
24028DPPC   NC328769  19.504   0.395  26.930  0.2412 -0.2822 -0.3003
24028DPPC   PO428770  19.429   0.375  26.569  0.2009 -0.0512  0.3946
24028DPPC   GL128771  19.115   0.318  26.375  0.2757  0.1720  0.2354
24028DPPC   GL228772  19.034   0.623  26.385  0.2563 -0.0351  0.1829
24028DPPC   C1A28773  18.962   0.311  26.047 -0.2054 -0.0295 -0.1792
24028DPPC   C2A28774  18.674   0.357  25.727 -0.0291 -0.0227 -0.1782
24028DPPC   C3A28775  18.378   0.438  25.316  0.2227  0.1199  0.3384
24028DPPC   C4A28776  18.206   0.449  24.898  0.1833  0.2545 -0.1494
24028DPPC   C1B28777  18.769   0.684  26.134 -0.0550 -0.0052  0.2425
24028DPPC   C2B28778  18.584   0.897  25.846  0.0372 -0.0397 -0.0051
24028DPPC   C3B28779  18.279   0.895  25.425 -0.1183 -0.2120 -0.2677
24028DPPC   C4B28780  18.055   0.903  25.012  0.0622  0.1329  0.0883
24029DPPC   NC328781  12.330   6.053  28.418 -0.2544 -0.1767 -0.0863
24029DPPC   PO428782  12.223   6.364  28.244  0.0093  0.1238  0.1350
24029DPPC   GL128783  12.275   6.376  27.806 -0.3472  0.0831  0.3004
24029DPPC   GL228784  12.442   6.205  27.932 -0.2635  0.1768  0.1129
24029DPPC   C1A28785  12.255   6.587  27.511 -0.2287  0.1254 -0.1477
24029DPPC   C2A28786  12.293   6.984  27.299 -0.1124 -0.0700  0.0681
24029DPPC   C3A28787  12.251   7.502  27.320 -0.0349 -0.0713  0.2232
24029DPPC   C4A28788  12.245   7.995  27.354  0.2783  0.1195 -0.3474
24029DPPC   C1B28789  12.350   5.963  27.645 -0.0336  0.2229 -0.5132
24029DPPC   C2B28790  12.170   6.077  27.283  0.1287  0.0378  0.1759
24029DPPC   C3B28791  12.075   6.479  27.085 -0.0885  0.0508  0.0290
24029DPPC   C4B28792  12.069   6.873  26.791  0.0447  0.0379  0.1973
24030DPPC   NC328793  20.145   1.731  26.303 -0.2030 -0.2427 -0.0888
24030DPPC   PO428794  19.744   1.742  26.244  0.0627 -0.1709 -0.0920
24030DPPC   GL128795  19.443   1.785  25.962  0.1995  0.0608 -0.0867
24030DPPC   GL228796  19.316   1.582  25.890 -0.3937 -0.1430  0.2625
24030DPPC   C1A28797  19.264   2.036  25.773  0.2080  0.2220  0.0495
24030DPPC   C2A28798  18.976   2.111  25.502 -0.0486  0.5101  0.0774
24030DPPC   C3A28799  18.647   2.110  25.153  0.1063 -0.2387  0.0236
24030DPPC   C4A28800  18.354   2.088  24.770  0.2823 -0.2851  0.1514
24030DPPC   C1B28801  19.140   1.640  25.596  0.1925 -0.0344  0.2805
24030DPPC   C2B28802  18.902   1.656  25.224  0.0362  0.0642  0.0291
24030DPPC   C3B28803  18.617   1.630  24.801 -0.2394 -0.0403 -0.0714
24030DPPC   C4B28804  18.322   1.649  24.417  0.0996  0.4221 -0.1800
24031DPPC   NC328805  18.917   4.952  27.576 -0.1606 -0.2239 -0.0486
24031DPPC   PO428806  18.682   4.660  27.392  0.0532  0.0159  0.2002
24031DPPC   GL128807  18.690   4.568  26.965  0.3690  0.0828  0.0769
24031DPPC   GL228808  18.414   4.368  26.953  0.2231 -0.2931  0.1651
24031DPPC   C1A28809  18.550   4.776  26.668 -0.4073  0.2352 -0.1610
24031DPPC   C2A28810  18.386   4.843  26.276  0.1440 -0.1191 -0.1945
24031DPPC   C3A28811  18.101   4.978  25.947 -0.2887 -0.3240 -0.2094
24031DPPC   C4A28812  17.750   5.008  25.626  0.2314 -0.2894  0.0132
24031DPPC   C1B28813  18.205   4.504  26.684 -0.0722 -0.2169 -0.3432
24031DPPC   C2B28814  17.989   4.598  26.353 -0.2531  0.0018 -0.2283
24031DPPC   C3B28815  17.718   4.633  26.012  0.2353  0.0012 -0.0689
24031DPPC   C4B28816  17.451   4.598  25.626  0.0566 -0.3232  0.1985
24032DPPC   NC328817  13.055   2.456  28.893 -0.1925 -0.2347 -0.0384
24032DPPC   PO428818  13.079   2.301  28.531 -0.1472 -0.0234  0.2357
24032DPPC   GL128819  13.214   2.315  28.191  0.1166  0.0665  0.5610
24032DPPC   GL228820  13.462   2.447  28.229  0.2539 -0.0776  0.2569
24032DPPC   C1A28821  13.298   2.137  27.876  0.3793  0.0388  0.3996
24032DPPC   C2A28822  13.421   2.200  27.516 -0.1885 -0.0769 -0.2023
24032DPPC   C3A28823  13.736   2.326  27.229  0.1431 -0.0403  0.0941
24032DPPC   C4A28824  13.979   2.315  26.690 -0.0544  0.0956 -0.2514
24032DPPC   C1B28825  13.694   2.196  28.149 -0.1831  0.0198  0.1634
24032DPPC   C2B28826  13.920   2.128  27.801 -0.0329 -0.0033 -0.0009
24032DPPC   C3B28827  14.433   2.182  27.681  0.2467  0.2648  0.0964
24032DPPC   C4B28828  14.886   2.251  27.492 -0.2217 -0.0473 -0.4160
24033DPPC   NC328829   9.925   3.025  28.021 -0.2831 -0.1039  0.0051
24033DPPC   PO428830  10.136   3.105  27.734  0.3152 -0.2122 -0.1619
24033DPPC   GL128831  10.435   2.986  27.500 -0.1577 -0.0725  0.2458
24033DPPC   GL228832  10.634   2.796  27.474  0.2999 -0.4031 -0.3884
24033DPPC   C1A28833  10.453   3.099  27.152 -0.1100  0.0594  0.0964
24033DPPC   C2A28834  10.628   3.218  26.832 -0.1846  0.2077  0.1150
24033DPPC   C3A28835  10.957   3.189  26.444 -0.0825  0.0372 -0.1602
24033DPPC   C4A28836  11.264   3.220  26.066  0.1230  0.2470  0.2436
24033DPPC   C1B28837  10.797   2.816  27.174  0.1665  0.1267  0.3539
24033DPPC   C2B28838  10.898   2.768  26.778 -0.1436 -0.1907 -0.1070
24033DPPC   C3B28839  11.197   2.784  26.424 -0.0058 -0.2205  0.1738
24033DPPC   C4B28840  11.517   2.782  26.080 -0.1404  0.0166  0.1251
24034DPPC   NC328841  17.449   1.904  28.609  0.5661  0.2877  0.2367
24034DPPC   PO428842  17.478   2.229  28.431 -0.1182 -0.0183  0.0897
24034DPPC   GL128843  17.478   2.217  27.969 -0.2526  0.2935  0.0220
24034DPPC   GL228844  17.749   2.095  27.929 -0.2072  0.0386  0.1281
24034DPPC   C1A28845  17.246   2.171  27.700 -0.2277  0.3060 -0.0440
24034DPPC   C2A28846  16.955   2.151  27.366 -0.2415 -0.1755  0.2221
24034DPPC   C3A28847  16.648   2.138  26.994 -0.1051 -0.0364  0.0819
24034DPPC   C4A28848  16.377   2.100  26.572 -0.1937  0.2771 -0.2977
24034DPPC   C1B28849  17.817   2.086  27.595  0.4310  0.1087 -0.0777
24034DPPC   C2B28850  17.586   1.993  27.268 -0.0030 -0.1284  0.5826
24034DPPC   C3B28851  17.217   2.043  26.942  0.1929  0.0631  0.1139
24034DPPC   C4B28852  16.916   2.088  26.567  0.0273 -0.1714  0.1457
24035DPPC   NC328853  19.822   1.577  25.783  0.1656  0.3217 -0.0244
24035DPPC   PO428854  19.982   1.927  25.854 -0.0439  0.3948 -0.1160
24035DPPC   GL128855  19.688   2.135  25.658  0.0865 -0.2091  0.0093
24035DPPC   GL228856  19.591   1.909  25.530  0.2295  0.1556  0.0461
24035DPPC   C1A28857  19.463   2.330  25.437 -0.3533  0.0030  0.1368
24035DPPC   C2A28858  19.216   2.452  25.167  0.2673 -0.0856 -0.0935
24035DPPC   C3A28859  18.813   2.484  24.879  0.0569 -0.0391  0.0338
24035DPPC   C4A28860  18.570   2.455  24.465 -0.1855  0.2101 -0.0135
24035DPPC   C1B28861  19.334   1.939  25.276  0.1392 -0.0517  0.0561
24035DPPC   C2B28862  19.140   2.023  24.949 -0.0012 -0.0088  0.1764
24035DPPC   C3B28863  18.862   2.024  24.577 -0.0434  0.1168  0.0574
24035DPPC   C4B28864  18.610   1.981  24.163  0.0076 -0.2044 -0.1034
24036DPPC   NC328865  17.924   3.080  28.332 -0.0076 -0.1393  0.0607
24036DPPC   PO428866  17.626   3.352  28.320  0.1321 -0.0113  0.2593
24036DPPC   GL128867  17.407   3.421  28.071 -0.0249  0.0388 -0.1066
24036DPPC   GL228868  17.331   3.662  27.951  0.3037 -0.0742  0.1075
24036DPPC   C1A28869  17.212   3.200  27.872 -0.1091 -0.1553 -0.0702
24036DPPC   C2A28870  17.200   3.023  27.486  0.2742  0.0604  0.0713
24036DPPC   C3A28871  16.940   2.952  27.087  0.0428 -0.1507 -0.2031
24036DPPC   C4A28872  16.616   3.033  26.723  0.0404  0.3566 -0.2129
24036DPPC   C1B28873  17.107   3.593  27.664  0.3121 -0.2372  0.3417
24036DPPC   C2B28874  16.906   3.560  27.284  0.1705 -0.0429 -0.0366
24036DPPC   C3B28875  16.641   3.576  26.836  0.0590  0.0924 -0.1363
24036DPPC   C4B28876  16.347   3.606  26.402  0.2245  0.0910 -0.1160
24037DPPC   NC328877  18.536   2.709  28.011 -0.2663  0.0796 -0.1201
24037DPPC   PO428878  18.131   2.785  27.940  0.1030  0.0174  0.2460
24037DPPC   GL128879  17.862   2.724  27.595  0.1939  0.3201  0.2018
24037DPPC   GL228880  17.740   2.530  27.732  0.2080  0.1035 -0.3431
24037DPPC   C1A28881  17.630   2.918  27.357  0.1514  0.1858  0.1437
24037DPPC   C2A28882  17.447   2.966  27.006  0.1224  0.0381 -0.0024
24037DPPC   C3A28883  17.069   2.955  26.617  0.1726 -0.1340  0.1923
24037DPPC   C4A28884  16.791   2.835  26.249 -0.0012  0.0968 -0.1188
24037DPPC   C1B28885  17.523   2.427  27.436  0.0238  0.0459 -0.3003
24037DPPC   C2B28886  17.208   2.546  27.234  0.1815 -0.1039  0.1093
24037DPPC   C3B28887  16.872   2.544  26.874 -0.2213 -0.0573 -0.0299
24037DPPC   C4B28888  16.538   2.575  26.571  0.1064 -0.1080  0.0189
24038DPPC   NC328889  18.978   2.039  26.649  0.1105 -0.1300 -0.1997
24038DPPC   PO428890  19.199   2.358  26.522 -0.0365  0.0349  0.1223
24038DPPC   GL128891  18.949   2.534  26.250 -0.3546  0.0872  0.0076
24038DPPC   GL228892  19.184   2.619  26.013 -0.0271  0.1947 -0.1409
24038DPPC   C1A28893  18.616   2.570  26.183 -0.0784  0.3289  0.2275
24038DPPC   C2A28894  18.408   2.624  25.875  0.1969 -0.0407  0.2030
24038DPPC   C3A28895  18.150   2.605  25.467  0.0595 -0.1757 -0.0470
24038DPPC   C4A28896  17.838   2.615  25.094  0.0261  0.0718 -0.2314
24038DPPC   C1B28897  18.947   2.601  25.736 -0.2478  0.1314 -0.0655
24038DPPC   C2B28898  18.663   2.557  25.394 -0.0298 -0.0948 -0.3353
24038DPPC   C3B28899  18.337   2.554  24.999  0.2149 -0.2437 -0.2740
24038DPPC   C4B28900  18.052   2.499  24.628  0.0929 -0.1031 -0.2097
24039DPPC   NC328901  15.105   4.790  29.516 -0.0342 -0.2884  0.0421
24039DPPC   PO428902  15.309   4.712  29.154  0.1959 -0.1745 -0.0745
24039DPPC   GL128903  15.123   4.529  28.825  0.3038  0.1087 -0.1619
24039DPPC   GL228904  15.307   4.753  28.730 -0.2752  0.1549 -0.0158
24039DPPC   C1A28905  14.825   4.588  28.635 -0.5692 -0.0595 -0.0184
24039DPPC   C2A28906  14.537   4.659  28.365 -0.0467 -0.0131 -0.0363
24039DPPC   C3A28907  14.586   4.788  27.888  0.3983 -0.2994 -0.3090
24039DPPC   C4A28908  14.655   4.670  27.391  0.3325  0.0226 -0.1140
24039DPPC   C1B28909  15.417   4.744  28.359  0.3205 -0.2559  0.0021
24039DPPC   C2B28910  15.578   4.590  27.993  0.1034  0.0218 -0.1018
24039DPPC   C3B28911  15.802   4.409  27.706  0.0746  0.0920  0.0664
24039DPPC   C4B28912  16.162   4.190  27.486  0.1562 -0.1587 -0.3788
24040DPPC   NC328913  12.694   2.099  28.324  0.0373  0.1437 -0.0404
24040DPPC   PO428914  12.611   1.684  28.365  0.1727 -0.0957  0.2237
24040DPPC   GL128915  12.685   1.330  28.085  0.1204 -0.0953  0.2248
24040DPPC   GL228916  12.466   1.333  28.005  0.1558 -0.0585 -0.0411
24040DPPC   C1A28917  12.854   1.064  27.886 -0.0206  0.2211 -0.2138
24040DPPC   C2A28918  13.006   1.058  27.528  0.0086  0.0242 -0.1057
24040DPPC   C3A28919  13.216   1.020  27.075  0.1839  0.3316  0.2502
24040DPPC   C4A28920  13.515   0.957  26.671 -0.2319 -0.0583 -0.1928
24040DPPC   C1B28921  12.564   1.392  27.689 -0.0125  0.0628 -0.0350
24040DPPC   C2B28922  12.729   1.482  27.385 -0.1135 -0.2610 -0.1091
24040DPPC   C3B28923  13.034   1.486  27.001 -0.0304  0.0500 -0.0987
24040DPPC   C4B28924  13.323   1.494  26.620  0.0903 -0.2088  0.1432
24041DPPC   NC328925  18.510   5.398  28.087  0.0575  0.0321 -0.2316
24041DPPC   PO428926  18.221   5.671  28.003 -0.2884  0.1215 -0.0322
24041DPPC   GL128927  18.020   5.839  27.640 -0.2172 -0.0707  0.1591
24041DPPC   GL228928  18.097   6.093  27.641  0.0174  0.2199  0.3263
24041DPPC   C1A28929  17.791   5.688  27.403 -0.0403  0.2712 -0.0824
24041DPPC   C2A28930  17.568   5.663  27.137 -0.0450  0.1534  0.0120
24041DPPC   C3A28931  17.216   5.637  26.786  0.3529 -0.1266 -0.0745
24041DPPC   C4A28932  16.943   5.712  26.390  0.4104 -0.0605  0.2644
24041DPPC   C1B28933  17.876   6.242  27.397 -0.2884  0.3480  0.1064
24041DPPC   C2B28934  17.598   6.346  27.089  0.3583  0.0285 -0.1863
24041DPPC   C3B28935  17.262   6.368  26.787 -0.0411 -0.3291  0.1208
24041DPPC   C4B28936  17.070   6.421  26.341 -0.0769 -0.0472 -0.0170
24042DPPC   NC328937  17.773   5.534  27.967  0.0966  0.2103 -0.0754
24042DPPC   PO428938  17.935   5.278  27.756 -0.2743 -0.0400 -0.0247
24042DPPC   GL128939  18.061   5.043  27.401  0.2141  0.3862 -0.1308
24042DPPC   GL228940  18.025   5.284  27.318  0.3436  0.0339  0.1837
24042DPPC   C1A28941  17.763   4.817  27.352 -0.0242 -0.0288  0.1355
24042DPPC   C2A28942  17.548   4.524  27.203 -0.0486 -0.1926 -0.0216
24042DPPC   C3A28943  17.391   4.351  26.813 -0.3150  0.3192  0.0784
24042DPPC   C4A28944  17.062   4.332  26.507 -0.0492 -0.0044 -0.0680
24042DPPC   C1B28945  17.803   5.267  27.037 -0.0962 -0.1540  0.4715
24042DPPC   C2B28946  17.531   5.265  26.763  0.0802 -0.0525 -0.1521
24042DPPC   C3B28947  17.139   5.264  26.459  0.2361  0.1914 -0.2870
24042DPPC   C4B28948  16.881   5.142  26.056 -0.1463 -0.0124  0.1599
24043DPPC   NC328949  16.251   2.282  29.160 -0.0276 -0.0879 -0.1339
24043DPPC   PO428950  16.528   2.118  28.887 -0.0493 -0.1284 -0.0231
24043DPPC   GL128951  16.255   2.084  28.564 -0.4147  0.2435 -0.1967
24043DPPC   GL228952  16.011   2.147  28.737 -0.0261  0.0017  0.2605
24043DPPC   C1A28953  16.322   2.046  28.243 -0.0883 -0.1993  0.1133
24043DPPC   C2A28954  16.269   1.899  27.852  0.0616 -0.1353 -0.0476
24043DPPC   C3A28955  16.212   1.454  27.594  0.1739 -0.1069 -0.1335
24043DPPC   C4A28956  16.425   1.378  27.185 -0.1677  0.1403 -0.1510
24043DPPC   C1B28957  15.796   2.031  28.472 -0.0002 -0.0441 -0.0711
24043DPPC   C2B28958  15.878   1.703  28.228 -0.1328  0.1138 -0.0223
24043DPPC   C3B28959  15.737   1.365  27.855 -0.2613  0.0174  0.0484
24043DPPC   C4B28960  15.784   1.032  27.573  0.0035 -0.1324  0.0354
24044DPPC   NC328961  17.390   4.702  28.139  0.3102  0.2101 -0.2602
24044DPPC   PO428962  17.615   5.073  28.116 -0.1937 -0.1070  0.1345
24044DPPC   GL128963  17.400   5.327  27.796  0.0215 -0.2760  0.0884
24044DPPC   GL228964  17.270   5.126  27.873  0.1653  0.3516  0.2601
24044DPPC   C1A28965  17.300   5.405  27.441 -0.2303 -0.2719  0.6535
24044DPPC   C2A28966  16.959   5.582  27.274  0.1074  0.0136  0.1373
24044DPPC   C3A28967  16.723   6.010  27.245 -0.0655 -0.0082  0.3857
24044DPPC   C4A28968  16.416   6.121  26.845  0.0161  0.1080 -0.1042
24044DPPC   C1B28969  17.346   4.982  27.558 -0.1144  0.1069 -0.0938
24044DPPC   C2B28970  17.380   5.047  27.198 -0.0052 -0.1236  0.1191
24044DPPC   C3B28971  17.184   4.868  26.801 -0.1596 -0.1026  0.1397
24044DPPC   C4B28972  16.853   4.796  26.443 -0.1154  0.1388 -0.1170
24045DPPC   NC328973  19.338   1.361  26.283  0.0722 -0.1449 -0.1315
24045DPPC   PO428974  19.241   1.707  26.408 -0.3262 -0.4214  0.0064
24045DPPC   GL128975  19.038   1.851  26.162 -0.3796  0.5700 -0.1720
24045DPPC   GL228976  18.954   2.147  26.203 -0.1126  0.1501  0.2329
24045DPPC   C1A28977  18.885   1.664  25.923 -0.0419  0.2264 -0.0951
24045DPPC   C2A28978  18.626   1.649  25.634 -0.3720 -0.0867  0.1901
24045DPPC   C3A28979  18.399   1.683  25.215  0.0570 -0.0274  0.0039
24045DPPC   C4A28980  18.114   1.645  24.895  0.0791 -0.0247 -0.1800
24045DPPC   C1B28981  18.714   2.104  25.940  0.1594 -0.1671  0.0533
24045DPPC   C2B28982  18.454   2.196  25.653  0.1695  0.1468 -0.1889
24045DPPC   C3B28983  18.122   2.136  25.286 -0.0276 -0.2007 -0.0937
24045DPPC   C4B28984  17.863   2.149  24.907 -0.0907 -0.1977  0.0308
24046DPPC   NC328985  14.809   3.083  29.436 -0.0763  0.4372  0.4926
24046DPPC   PO428986  15.159   3.054  29.192 -0.1531  0.0579  0.1478
24046DPPC   GL128987  15.098   3.188  28.775 -0.3960  0.0441 -0.1507
24046DPPC   GL228988  15.354   3.207  28.731  0.3600 -0.3530  0.0513
24046DPPC   C1A28989  14.936   3.120  28.444  0.0108 -0.2398 -0.0876
24046DPPC   C2A28990  14.895   3.358  28.056  0.0995 -0.0638 -0.1788
24046DPPC   C3A28991  15.075   3.806  28.082  0.0877  0.0050  0.0837
24046DPPC   C4A28992  15.464   4.088  27.886  0.0099  0.0110  0.2610
24046DPPC   C1B28993  15.408   3.041  28.404 -0.7069 -0.0617 -0.0264
24046DPPC   C2B28994  15.533   2.840  28.120 -0.2099  0.2288  0.1105
24046DPPC   C3B28995  15.745   2.722  27.769 -0.0627 -0.3433  0.2827
24046DPPC   C4B28996  15.963   2.479  27.402 -0.0124 -0.2086 -0.0740
24047DPPC   NC328997  19.022   1.068  27.614  0.1001  0.1175 -0.0632
24047DPPC   PO428998  18.747   1.363  27.554 -0.1243  0.0578  0.1199
24047DPPC   GL128999  18.335   1.293  27.318 -0.2626  0.2578 -0.2472
24047DPPC   GL229000  18.287   1.046  27.490  0.1796  0.2911  0.1190
24047DPPC   C1A29001  18.162   1.424  26.990  0.1805  0.2730  0.4332
24047DPPC   C2A29002  17.849   1.450  26.736  0.2448  0.4092  0.2702
24047DPPC   C3A29003  17.537   1.472  26.385 -0.2601 -0.0180  0.0706
24047DPPC   C4A29004  17.228   1.549  26.006  0.0553  0.0358  0.1339
24047DPPC   C1B29005  17.973   0.939  27.288  0.0966 -0.0067  0.3252
24047DPPC   C2B29006  17.666   1.066  27.028 -0.2220 -0.0958  0.1640
24047DPPC   C3B29007  17.304   1.150  26.695  0.0653  0.1364 -0.0985
24047DPPC   C4B29008  17.047   1.223  26.338  0.0585 -0.1320  0.1961
24048DPPC   NC329009  13.641   3.504  28.487 -0.5368 -0.2014  0.2213
24048DPPC   PO429010  13.690   3.855  28.370 -0.0973 -0.1145 -0.1816
24048DPPC   GL129011  13.569   3.902  28.013 -0.0396 -0.2318 -0.1501
24048DPPC   GL229012  13.669   3.596  28.008  0.0360 -0.5234  0.0800
24048DPPC   C1A29013  13.837   4.038  27.800  0.2031  0.0810  0.0180
24048DPPC   C2A29014  14.000   4.024  27.393 -0.0432 -0.0537 -0.2593
24048DPPC   C3A29015  14.281   3.956  27.088 -0.0120  0.0004 -0.3055
24048DPPC   C4A29016  14.743   3.827  26.847  0.2100 -0.2006 -0.3177
24048DPPC   C1B29017  13.895   3.581  27.709 -0.2686  0.0502 -0.2874
24048DPPC   C2B29018  14.192   3.590  27.404  0.2447 -0.1795 -0.1046
24048DPPC   C3B29019  14.343   3.446  26.937  0.2290 -0.0990  0.1753
24048DPPC   C4B29020  14.564   3.460  26.529 -0.3233 -0.2999  0.0663
24049DPPC   NC329021  14.938   3.808  29.107  0.0865  0.1239 -0.0474
24049DPPC   PO429022  14.563   3.839  28.903 -0.0812 -0.2222  0.0416
24049DPPC   GL129023  14.646   3.717  28.473 -0.0186 -0.2227  0.2321
24049DPPC   GL229024  14.867   3.538  28.654 -0.0267  0.0292  0.4046
24049DPPC   C1A29025  14.634   3.760  28.069 -0.0282  0.2254 -0.0171
24049DPPC   C2A29026  14.697   3.814  27.657 -0.1496 -0.0945 -0.0503
24049DPPC   C3A29027  14.743   3.539  27.236 -0.1161 -0.1591  0.2530
24049DPPC   C4A29028  14.887   3.288  26.863 -0.2133 -0.0264  0.0947
24049DPPC   C1B29029  15.172   3.661  28.477 -0.2068 -0.1044 -0.4917
24049DPPC   C2B29030  15.506   3.878  28.417  0.1566 -0.1117 -0.3447
24049DPPC   C3B29031  15.828   4.134  28.217  0.0877  0.0978 -0.3831
24049DPPC   C4B29032  16.093   4.586  28.314 -0.2502  0.1669  0.2868
24050DPPC   NC329033  18.683   3.329  27.823 -0.0239 -0.0571  0.0617
24050DPPC   PO429034  18.812   3.385  27.416 -0.1005 -0.0650 -0.3943
24050DPPC   GL129035  18.608   3.343  27.060  0.2441 -0.0555  0.0034
24050DPPC   GL229036  18.655   3.070  26.984 -0.0892  0.0143  0.4176
24050DPPC   C1A29037  18.537   3.477  26.719 -0.0213  0.4157 -0.2020
24050DPPC   C2A29038  18.397   3.597  26.311  0.0284 -0.2713  0.1274
24050DPPC   C3A29039  18.047   3.628  25.975  0.1445  0.2122 -0.1188
24050DPPC   C4A29040  17.769   3.659  25.610  0.2170  0.2763 -0.1206
24050DPPC   C1B29041  18.423   2.933  26.709  0.3264  0.1397 -0.3454
24050DPPC   C2B29042  18.263   2.759  26.414  0.0914 -0.0104  0.1506
24050DPPC   C3B29043  17.912   2.716  26.104  0.0504  0.0230 -0.2358
24050DPPC   C4B29044  17.640   2.799  25.684 -0.1909  0.0399 -0.2849
24051DPPC   NC329045  20.810   0.122  25.342 -0.1058 -0.2178 -0.1105
24051DPPC   PO429046  20.456   0.068  25.104  0.0681 -0.1399 -0.0251
24051DPPC   GL129047  20.115  -0.098  24.951  0.2644 -0.0972  0.1606
24051DPPC   GL229048  20.317  -0.203  24.689 -0.1593 -0.3634  0.1427
24051DPPC   C1A29049  19.877  -0.020  24.724 -0.2509 -0.1542  0.0385
24051DPPC   C2A29050  19.614   0.205  24.484  0.2401  0.2887 -0.1041
24051DPPC   C3A29051  19.348   0.170  24.082  0.0683  0.0109 -0.4142
24051DPPC   C4A29052  19.084   0.168  23.777  0.1409  0.2822  0.1783
24051DPPC   C1B29053  20.130  -0.130  24.404 -0.2369 -0.1153 -0.0768
24051DPPC   C2B29054  19.894  -0.012  24.074 -0.3774  0.0465 -0.0614
24051DPPC   C3B29055  19.626   0.055  23.693  0.1887 -0.1223 -0.1305
24051DPPC   C4B29056  19.336   0.025  23.307 -0.0514 -0.2037  0.2032
24052DPPC   NC329057  19.384   0.533  26.057 -0.1617  0.0617  0.1355
24052DPPC   PO429058  19.411   0.872  26.303 -0.4032 -0.1892  0.2878
24052DPPC   GL129059  19.105   0.928  26.041  0.2101  0.1201  0.4034
24052DPPC   GL229060  18.988   1.164  26.048  0.0845 -0.4363 -0.3954
24052DPPC   C1A29061  18.982   0.776  25.664  0.1604 -0.4941 -0.0075
24052DPPC   C2A29062  18.807   0.778  25.294  0.0473 -0.1289 -0.0629
24052DPPC   C3A29063  18.544   0.827  24.903  0.0294 -0.1896  0.0231
24052DPPC   C4A29064  18.235   0.752  24.474 -0.1145  0.4505  0.2144
24052DPPC   C1B29065  18.911   1.277  25.709  0.2220  0.1448 -0.0243
24052DPPC   C2B29066  18.624   1.225  25.431 -0.0878 -0.1063  0.0795
24052DPPC   C3B29067  18.414   1.254  25.019  0.0314 -0.1975  0.1550
24052DPPC   C4B29068  18.108   1.234  24.592 -0.2078 -0.2600 -0.1705
24053DPPC   NC329069  18.094   6.343  27.997  0.0466 -0.1414  0.0350
24053DPPC   PO429070  18.218   6.607  27.706  0.0025  0.2909 -0.3669
24053DPPC   GL129071  18.308   6.597  27.283  0.0646 -0.2524  0.1678
24053DPPC   GL229072  18.170   6.837  27.245 -0.1189  0.2578  0.0267
24053DPPC   C1A29073  18.269   6.452  26.987  0.1879 -0.0371  0.1312
24053DPPC   C2A29074  18.066   6.434  26.603  0.1333  0.2828 -0.1051
24053DPPC   C3A29075  17.727   6.365  26.265  0.0463  0.1147  0.0279
24053DPPC   C4A29076  17.402   6.337  25.905  0.0201 -0.1146  0.2474
24053DPPC   C1B29077  17.924   6.712  26.969  0.3168  0.1311 -0.0719
24053DPPC   C2B29078  17.679   6.724  26.653  0.3332 -0.0654  0.2744
24053DPPC   C3B29079  17.439   6.770  26.192 -0.1807 -0.0266  0.1497
24053DPPC   C4B29080  17.130   6.756  25.825 -0.2298  0.0064  0.1385
24054DPPC   NC329081  16.464   0.143  29.185  0.1243 -0.0628 -0.0765
24054DPPC   PO429082  16.254   0.434  29.127  0.0765  0.2367  0.0876
24054DPPC   GL129083  16.252   0.634  28.716 -0.0925 -0.1733  0.2871
24054DPPC   GL229084  16.398   0.338  28.756  0.1669 -0.2482 -0.0557
24054DPPC   C1A29085  15.947   0.473  28.518 -0.3165  0.1629  0.1250
24054DPPC   C2A29086  15.613   0.483  28.248 -0.0129  0.0418  0.4228
24054DPPC   C3A29087  15.222   0.402  27.881  0.1919  0.1080 -0.2948
24054DPPC   C4A29088  14.829   0.267  27.558  0.3041 -0.1086  0.1502
24054DPPC   C1B29089  16.297   0.253  28.387 -0.1121 -0.0186 -0.1253
24054DPPC   C2B29090  16.050   0.184  28.065 -0.0848 -0.0413  0.0276
24054DPPC   C3B29091  15.993  -0.057  27.660 -0.0175 -0.1416 -0.1255
24054DPPC   C4B29092  16.102  -0.459  27.415 -0.2551 -0.0811 -0.2798
24055DPPC   NC329093  19.277   5.420  26.395 -0.0182 -0.2052  0.0615
24055DPPC   PO429094  19.054   5.646  26.654  0.0012 -0.2817 -0.1314
24055DPPC   GL129095  18.786   5.683  26.369 -0.0530 -0.1346 -0.0973
24055DPPC   GL229096  18.961   5.650  26.127  0.0976 -0.2485  0.1150
24055DPPC   C1A29097  18.507   5.834  26.162  0.1421  0.5484  0.1797
24055DPPC   C2A29098  18.245   5.804  25.869 -0.0433  0.4135  0.3515
24055DPPC   C3A29099  17.963   5.812  25.475 -0.0122  0.2505 -0.1290
24055DPPC   C4A29100  17.642   5.878  25.096 -0.4773  0.2945  0.2874
24055DPPC   C1B29101  18.799   5.742  25.786  0.0373  0.3148  0.4486
24055DPPC   C2B29102  18.535   5.649  25.447  0.0707  0.0024 -0.2176
24055DPPC   C3B29103  18.189   5.712  25.051  0.0877  0.2164 -0.0692
24055DPPC   C4B29104  17.883   5.738  24.635 -0.2604  0.3358  0.0827
24056DPPC   NC329105  19.477   2.252  26.132 -0.2371  0.0886  0.0509
24056DPPC   PO429106  19.651   2.582  25.995  0.0035  0.0159 -0.0114
24056DPPC   GL129107  19.332   2.879  25.766 -0.1028  0.2920 -0.1408
24056DPPC   GL229108  19.585   3.111  25.757  0.1113 -0.4526 -0.1698
24056DPPC   C1A29109  19.104   2.916  25.483  0.2005 -0.1173 -0.3785
24056DPPC   C2A29110  18.869   2.901  25.135  0.4350  0.1866  0.0418
24056DPPC   C3A29111  18.555   2.960  24.791 -0.1126  0.0176 -0.1965
24056DPPC   C4A29112  18.251   2.931  24.352 -0.0885  0.1095  0.0366
24056DPPC   C1B29113  19.458   3.255  25.448 -0.0905  0.0959  0.0210
24056DPPC   C2B29114  19.330   3.272  25.088  0.1661 -0.0289  0.0700
24056DPPC   C3B29115  18.970   3.277  24.736  0.0055 -0.0138 -0.1137
24056DPPC   C4B29116  18.694   3.264  24.325  0.0176 -0.0044  0.2057
24057DPPC   NC329117  16.437   4.369  28.594  0.2572  0.0332 -0.2373
24057DPPC   PO429118  16.779   4.249  28.720 -0.0960  0.1174  0.0326
24057DPPC   GL129119  16.971   4.241  28.316 -0.1443  0.2804  0.0162
24057DPPC   GL229120  17.074   4.066  28.437 -0.3936  0.0877 -0.1532
24057DPPC   C1A29121  17.004   4.513  28.037  0.1609  0.0814 -0.4009
24057DPPC   C2A29122  16.926   4.828  27.763 -0.0473  0.1636  0.1977
24057DPPC   C3A29123  16.901   5.002  27.317 -0.2096  0.1799  0.0597
24057DPPC   C4A29124  16.853   5.219  26.861 -0.0023 -0.0023 -0.2049
24057DPPC   C1B29125  16.973   3.782  28.227  0.1047 -0.1181  0.1202
24057DPPC   C2B29126  16.871   3.470  28.014  0.1194  0.0030  0.1817
24057DPPC   C3B29127  16.689   3.175  27.681 -0.1804  0.2272  0.2307
24057DPPC   C4B29128  16.538   3.135  27.283  0.0628 -0.0757  0.4923
24058DPPC   NC329129  14.060   1.311  29.452  0.0308 -0.0432 -0.1199
24058DPPC   PO429130  13.978   1.584  29.155 -0.0705 -0.1527 -0.0903
24058DPPC   GL129131  14.077   1.676  28.814 -0.2437  0.1438 -0.1598
24058DPPC   GL229132  13.872   1.831  28.689 -0.0045  0.4016 -0.3968
24058DPPC   C1A29133  14.037   1.406  28.579  0.0443 -0.1604  0.1127
24058DPPC   C2A29134  14.135   1.201  28.184  0.0186 -0.0358 -0.2290
24058DPPC   C3A29135  14.432   0.882  27.960 -0.1986 -0.3812 -0.1003
24058DPPC   C4A29136  14.910   0.763  27.738  0.1478  0.2813  0.0998
24058DPPC   C1B29137  13.962   1.762  28.378  0.4948  0.3954 -0.1875
24058DPPC   C2B29138  14.117   1.663  27.981 -0.2482 -0.2944 -0.0585
24058DPPC   C3B29139  14.208   1.776  27.499  0.0865  0.2592  0.2472
24058DPPC   C4B29140  14.192   2.103  27.168 -0.0984 -0.1432  0.3716
24059DPPC   NC329141  18.378   0.073  28.256 -0.0088 -0.0614 -0.0449
24059DPPC   PO429142  18.231   0.398  28.074 -0.1692  0.0118  0.0905
24059DPPC   GL129143  17.998   0.548  27.597 -0.1087 -0.0336  0.1069
24059DPPC   GL229144  18.058   0.810  27.775 -0.1340  0.1048  0.1176
24059DPPC   C1A29145  17.879   0.504  27.259  0.2624 -0.1116  0.1447
24059DPPC   C2A29146  17.748   0.558  26.859  0.0110  0.3819  0.1748
24059DPPC   C3A29147  17.454   0.594  26.536 -0.3269  0.0597 -0.2507
24059DPPC   C4A29148  17.150   0.718  26.151 -0.0926  0.0590  0.0735
24059DPPC   C1B29149  17.840   1.124  27.666  0.1964 -0.0629  0.0951
24059DPPC   C2B29150  17.454   1.226  27.523 -0.2192 -0.2093 -0.1035
24059DPPC   C3B29151  17.126   1.120  27.240 -0.2452 -0.0908 -0.3723
24059DPPC   C4B29152  16.807   1.113  26.872 -0.0495 -0.2132 -0.2483
24060DPPC   NC329153  18.855   2.700  27.261 -0.1097 -0.3123  0.0284
24060DPPC   PO429154  18.898   2.816  27.619  0.0570  0.2784  0.1281
24060DPPC   GL129155  18.420   3.020  27.528 -0.1561 -0.1870  0.0678
24060DPPC   GL229156  18.463   2.704  27.595 -0.2958  0.2064  0.0199
24060DPPC   C1A29157  18.160   2.862  27.252  0.0984 -0.1891 -0.0638
24060DPPC   C2A29158  18.013   2.891  26.864 -0.0608  0.1714 -0.0175
24060DPPC   C3A29159  17.684   2.797  26.528  0.3052 -0.1582 -0.1336
24060DPPC   C4A29160  17.381   2.856  26.157 -0.0522 -0.0137 -0.1604
24060DPPC   C1B29161  18.237   2.512  27.463  0.3483  0.0810  0.2894
24060DPPC   C2B29162  17.934   2.366  27.244  0.1130 -0.2176  0.3094
24060DPPC   C3B29163  17.610   2.397  26.882  0.0676 -0.0680  0.0452
24060DPPC   C4B29164  17.308   2.386  26.455 -0.2920 -0.2837 -0.0575
24061DPPC   NC329165  18.745   4.200  27.188  0.0800  0.0205  0.2007
24061DPPC   PO429166  18.946   4.162  26.857 -0.0123 -0.0150  0.0786
24061DPPC   GL129167  18.652   4.352  26.543  0.1100 -0.1432  0.1738
24061DPPC   GL229168  18.845   4.363  26.401 -0.0237  0.1319  0.1915
24061DPPC   C1A29169  18.461   4.404  26.233 -0.0044 -0.2164 -0.0650
24061DPPC   C2A29170  18.264   4.474  25.893 -0.0984  0.3437 -0.1407
24061DPPC   C3A29171  17.923   4.493  25.561 -0.1857  0.1009  0.0692
24061DPPC   C4A29172  17.646   4.457  25.160  0.1571 -0.3826 -0.2127
24061DPPC   C1B29173  18.818   4.696  26.204  0.1205 -0.0950 -0.2804
24061DPPC   C2B29174  18.638   4.832  25.787 -0.0174 -0.2986 -0.2545
24061DPPC   C3B29175  18.291   4.838  25.457 -0.1432  0.1804 -0.1336
24061DPPC   C4B29176  18.018   4.799  25.090 -0.2907  0.1972 -0.0140
24062DPPC   NC329177  18.832   1.138  27.127  0.0702  0.1848  0.0171
24062DPPC   PO429178  18.713   0.821  27.327 -0.0397 -0.0261  0.0774
24062DPPC   GL129179  18.308   0.695  27.205  0.0300  0.1074 -0.0272
24062DPPC   GL229180  18.376   0.946  27.077  0.0804  0.0759  0.3196
24062DPPC   C1A29181  18.184   0.567  26.908 -0.0332 -0.0413 -0.3089
24062DPPC   C2A29182  18.122   0.554  26.493 -0.0978  0.1112 -0.1381
24062DPPC   C3A29183  17.812   0.599  26.135 -0.2100 -0.2235 -0.2644
24062DPPC   C4A29184  17.476   0.598  25.753  0.0915  0.0532 -0.1009
24062DPPC   C1B29185  18.082   0.969  26.827  0.0390  0.0496  0.0549
24062DPPC   C2B29186  17.854   0.951  26.476 -0.0531 -0.0774 -0.1938
24062DPPC   C3B29187  17.534   1.034  26.177 -0.0995  0.0008 -0.0274
24062DPPC   C4B29188  17.320   1.078  25.769 -0.4149  0.2465  0.0121
24063DPPC   NC329189  15.694   4.304  29.129  0.1725  0.3143  0.0018
24063DPPC   PO429190  16.048   4.205  28.993 -0.2284 -0.2473 -0.1130
24063DPPC   GL129191  15.994   4.205  28.627  0.2220  0.0114  0.2968
24063DPPC   GL229192  15.705   4.262  28.658  0.2411  0.0606 -0.1859
24063DPPC   C1A29193  16.242   3.977  28.431  0.1924  0.1074 -0.0110
24063DPPC   C2A29194  16.551   3.869  28.141  0.2087 -0.3436  0.1719
24063DPPC   C3A29195  16.554   3.855  27.688  0.0088  0.1029  0.1819
24063DPPC   C4A29196  16.636   4.044  27.252  0.0829  0.1540  0.1062
24063DPPC   C1B29197  15.429   4.334  28.448  0.2636 -0.1605  0.1515
24063DPPC   C2B29198  15.083   4.292  28.209 -0.0230  0.1450 -0.3130
24063DPPC   C3B29199  14.623   4.243  28.006 -0.0266  0.0888 -0.1106
24063DPPC   C4B29200  14.263   3.881  27.840  0.0192  0.0594  0.1137
24064DPPC   NC329201  11.268   1.398  28.578 -0.3442 -0.0605 -0.1890
24064DPPC   PO429202  11.043   1.413  28.262 -0.0410 -0.1429 -0.1252
24064DPPC   GL129203  11.210   1.331  27.866  0.4272 -0.1221  0.0608
24064DPPC   GL229204  11.325   1.624  27.926  0.0907 -0.0039 -0.3348
24064DPPC   C1A29205  11.253   1.394  27.497  0.0870 -0.0633 -0.0632
24064DPPC   C2A29206  11.374   1.333  27.110 -0.2389  0.1096  0.2493
24064DPPC   C3A29207  11.610   1.327  26.674 -0.0858  0.3407  0.0248
24064DPPC   C4A29208  11.476   0.933  26.317 -0.2360  0.1762  0.0208
24064DPPC   C1B29209  11.613   1.569  27.775 -0.1559  0.2599  0.1302
24064DPPC   C2B29210  11.705   1.603  27.379 -0.1342 -0.2060 -0.1561
24064DPPC   C3B29211  11.881   1.182  27.112 -0.2617 -0.0133 -0.0148
24064DPPC   C4B29212  11.836   0.862  26.671 -0.2686 -0.1040 -0.3688
24065DPPC   NC329213  12.838   3.453  28.628  0.1849  0.0565 -0.0356
24065DPPC   PO429214  13.218   3.302  28.606  0.1254 -0.1796 -0.0086
24065DPPC   GL129215  13.378   3.109  28.192  0.2398 -0.0076 -0.2464
24065DPPC   GL229216  13.333   3.354  28.064  0.2425  0.0375  0.0967
24065DPPC   C1A29217  13.619   2.859  28.138  0.3103 -0.0441 -0.1409
24065DPPC   C2A29218  13.926   2.603  28.288  0.3322 -0.1942 -0.0340
24065DPPC   C3A29219  14.127   2.186  28.271 -0.2404 -0.0678 -0.1108
24065DPPC   C4A29220  14.543   1.973  28.145  0.0668  0.3176 -0.0400
24065DPPC   C1B29221  13.350   3.530  27.674 -0.0162 -0.0680 -0.0143
24065DPPC   C2B29222  13.595   3.608  27.345  0.0662 -0.1299  0.1930
24065DPPC   C3B29223  13.841   3.580  26.992 -0.1913  0.0047  0.1085
24065DPPC   C4B29224  14.015   3.477  26.553  0.1691  0.4475 -0.0571
24066DPPC   NC329225  14.988   5.599  29.591 -0.1430  0.1147 -0.0114
24066DPPC   PO429226  14.930   5.247  29.454  0.0731 -0.1236 -0.3983
24066DPPC   GL129227  15.135   5.407  29.120 -0.0330  0.0054 -0.2617
24066DPPC   GL229228  15.036   5.100  28.975  0.3371  0.2419  0.3432
24066DPPC   C1A29229  15.278   5.440  28.788  0.2146 -0.1096  0.1786
24066DPPC   C2A29230  15.264   5.592  28.378 -0.2440 -0.1640  0.1745
24066DPPC   C3A29231  15.148   5.591  27.904  0.1936  0.2082 -0.0058
24066DPPC   C4A29232  14.935   5.515  27.480  0.0724  0.0773 -0.1179
24066DPPC   C1B29233  15.023   5.007  28.587 -0.2269 -0.3331 -0.2579
24066DPPC   C2B29234  14.980   4.808  28.240  0.0402  0.1124 -0.0638
24066DPPC   C3B29235  15.082   4.594  27.757  0.0225  0.0748 -0.1630
24066DPPC   C4B29236  15.278   4.409  27.369 -0.1194 -0.1552 -0.1983
24067DPPC   NC329237  20.312   2.999  25.112  0.0100  0.3042 -0.1411
24067DPPC   PO429238  20.268   2.625  25.302 -0.0855 -0.1719 -0.1179
24067DPPC   GL129239  19.839   2.619  25.267  0.2951 -0.1845 -0.0188
24067DPPC   GL229240  19.736   2.701  25.490 -0.0460 -0.2230  0.0303
24067DPPC   C1A29241  19.592   2.501  24.980 -0.3594 -0.1337 -0.2534
24067DPPC   C2A29242  19.283   2.408  24.655 -0.0770  0.1270  0.0931
24067DPPC   C3A29243  19.072   2.393  24.205 -0.3089 -0.1258 -0.0772
24067DPPC   C4A29244  18.801   2.416  23.815 -0.0001 -0.2627  0.2218
24067DPPC   C1B29245  19.471   2.831  25.220  0.0560 -0.2875 -0.5096
24067DPPC   C2B29246  19.267   2.851  24.865  0.0048  0.0348 -0.3554
24067DPPC   C3B29247  19.035   2.800  24.467 -0.3946  0.1254  0.2567
24067DPPC   C4B29248  18.715   2.804  24.031 -0.1062 -0.2232  0.0296
24068DPPC   NC329249  18.431   3.689  27.618 -0.0298 -0.3237 -0.0290
24068DPPC   PO429250  18.485   3.745  27.265 -0.0052 -0.0425 -0.2200
24068DPPC   GL129251  18.338   3.811  26.951 -0.2241  0.2758  0.2915
24068DPPC   GL229252  18.511   3.916  26.762  0.1499  0.1364  0.5251
24068DPPC   C1A29253  17.974   3.689  26.759 -0.2757  0.2827  0.3801
24068DPPC   C2A29254  17.767   3.761  26.463 -0.2222 -0.0214 -0.0173
24068DPPC   C3A29255  17.536   3.706  26.013 -0.0700  0.0021  0.2018
24068DPPC   C4A29256  17.247   3.642  25.620  0.0000 -0.0428  0.1662
24068DPPC   C1B29257  18.318   4.112  26.529 -0.0994 -0.1111 -0.3824
24068DPPC   C2B29258  18.107   4.090  26.211  0.2161  0.1677 -0.0124
24068DPPC   C3B29259  17.815   4.137  25.848  0.1845 -0.2561  0.0114
24068DPPC   C4B29260  17.482   4.127  25.565  0.1528  0.0623 -0.1131
24069DPPC   NC329261  18.994   3.705  27.102 -0.1754 -0.1676  0.0287
24069DPPC   PO429262  19.302   3.753  26.889 -0.0721 -0.0203 -0.1392
24069DPPC   GL129263  19.079   3.651  26.475 -0.1312 -0.1460 -0.2373
24069DPPC   GL229264  18.925   3.761  26.664  0.0545  0.0983  0.1642
24069DPPC   C1A29265  18.896   3.529  26.169  0.0699 -0.0630 -0.3823
24069DPPC   C2A29266  18.577   3.517  25.850 -0.1015  0.0267 -0.1975
24069DPPC   C3A29267  18.261   3.429  25.481  0.2171 -0.1325 -0.0845
24069DPPC   C4A29268  18.039   3.502  25.048 -0.1607  0.1070  0.1365
24069DPPC   C1B29269  18.758   3.930  26.350  0.0599  0.0956 -0.3523
24069DPPC   C2B29270  18.533   4.014  25.960 -0.3689  0.0995  0.1668
24069DPPC   C3B29271  18.183   3.975  25.609  0.0788  0.1710  0.0116
24069DPPC   C4B29272  17.876   4.013  25.208 -0.3597  0.0427 -0.0543
24070DPPC   NC329273  20.305   6.250  25.333  0.1313 -0.0064  0.3541
24070DPPC   PO429274  20.205   5.957  25.566 -0.1747 -0.0696 -0.2449
24070DPPC   GL129275  19.875   5.805  25.426  0.0399  0.2209 -0.0994
24070DPPC   GL229276  19.643   5.860  25.606 -0.0911  0.2012 -0.2927
24070DPPC   C1A29277  19.854   5.846  25.028 -0.0816  0.1666 -0.2265
24070DPPC   C2A29278  19.586   5.824  24.729  0.1550 -0.1853 -0.0128
24070DPPC   C3A29279  19.284   5.870  24.356 -0.1652 -0.2757 -0.2300
24070DPPC   C4A29280  19.019   5.910  23.937  0.2962 -0.0652 -0.1228
24070DPPC   C1B29281  19.369   5.975  25.369  0.0616 -0.2147 -0.1574
24070DPPC   C2B29282  19.156   5.968  24.970  0.0875  0.1530  0.0447
24070DPPC   C3B29283  18.871   5.946  24.585 -0.0670 -0.0337 -0.2989
24070DPPC   C4B29284  18.530   5.944  24.154  0.0359  0.0846  0.0470
24071DPPC   NC329285  16.084   0.646  29.558  0.0449 -0.1618  0.2162
24071DPPC   PO429286  15.742   0.607  29.491  0.0892  0.0358  0.2673
24071DPPC   GL129287  15.738   0.466  29.025  0.4787 -0.0284  0.2047
24071DPPC   GL229288  15.519   0.673  29.030  0.1336 -0.1380  0.2001
24071DPPC   C1A29289  15.601   0.254  28.775  0.0828 -0.0091  0.1536
24071DPPC   C2A29290  15.683  -0.016  28.463 -0.0463 -0.0494  0.0360
24071DPPC   C3A29291  15.927  -0.295  28.146  0.0855  0.0376 -0.0211
24071DPPC   C4A29292  16.169  -0.644  27.908  0.1564 -0.0662  0.0164
24071DPPC   C1B29293  15.560   0.704  28.706  0.0672 -0.1135  0.4135
24071DPPC   C2B29294  15.774   0.907  28.410 -0.1839  0.0506 -0.1804
24071DPPC   C3B29295  16.076   1.131  28.144  0.2088 -0.1615 -0.0833
24071DPPC   C4B29296  16.298   1.000  27.781  0.2017 -0.1112  0.0877
24072DPPC   NC329297  19.652   6.557  26.648 -0.0439 -0.0002 -0.0259
24072DPPC   PO429298  19.599   6.351  26.281 -0.1849 -0.0043  0.1695
24072DPPC   GL129299  19.205   6.546  26.077  0.2836  0.2072  0.1910
24072DPPC   GL229300  19.336   6.714  26.010  0.0158 -0.3683  0.3234
24072DPPC   C1A29301  18.932   6.539  25.786 -0.3046  0.1608 -0.3632
24072DPPC   C2A29302  18.709   6.558  25.425 -0.0230  0.0645 -0.1056
24072DPPC   C3A29303  18.469   6.632  24.988  0.1336 -0.0396 -0.1206
24072DPPC   C4A29304  18.157   6.581  24.530 -0.1322 -0.1530  0.1570
24072DPPC   C1B29305  19.226   6.874  25.713 -0.0444  0.0592  0.2718
24072DPPC   C2B29306  19.089   6.911  25.366  0.0132  0.0424 -0.0567
24072DPPC   C3B29307  18.815   6.977  24.966  0.1183 -0.1447 -0.1564
24072DPPC   C4B29308  18.588   6.963  24.589 -0.2158  0.0972  0.0191
24073DPPC   NC329309  13.138   5.669  28.129 -0.3288 -0.0299  0.1559
24073DPPC   PO429310  13.128   5.438  28.412 -0.1713  0.0340  0.0668
24073DPPC   GL129311  13.479   5.086  28.449  0.2603 -0.3043  0.1141
24073DPPC   GL229312  13.512   5.290  28.204  0.1040 -0.1024  0.1403
24073DPPC   C1A29313  13.664   4.806  28.300 -0.2944 -0.0944 -0.2056
24073DPPC   C2A29314  13.954   4.817  27.928  0.1826 -0.1475  0.2638
24073DPPC   C3A29315  14.193   4.783  27.501  0.0937  0.0285  0.0425
24073DPPC   C4A29316  14.392   4.956  27.066 -0.2000  0.4046  0.3282
24073DPPC   C1B29317  13.724   5.209  27.923  0.0835 -0.0124 -0.2524
24073DPPC   C2B29318  13.954   5.295  27.606 -0.2700 -0.0773 -0.1282
24073DPPC   C3B29319  14.162   5.377  27.204  0.1819 -0.0169  0.0551
24073DPPC   C4B29320  14.282   5.368  26.764 -0.0937 -0.1651  0.2441
24074DPPC   NC329321  18.671   0.559  26.886 -0.0287 -0.3205 -0.0557
24074DPPC   PO429322  18.923   0.280  26.800 -0.2186  0.3338  0.0057
24074DPPC   GL129323  18.727   0.021  26.397  0.1156 -0.6200 -0.2546
24074DPPC   GL229324  18.659   0.342  26.396  0.4486  0.1622 -0.0049
24074DPPC   C1A29325  18.563   0.026  26.097  0.3006 -0.0272  0.0915
24074DPPC   C2A29326  18.327  -0.030  25.747  0.3192  0.1888  0.3720
24074DPPC   C3A29327  18.072   0.041  25.367  0.0482  0.1489 -0.0033
24074DPPC   C4A29328  17.771   0.100  24.994  0.0116  0.1191  0.2905
24074DPPC   C1B29329  18.400   0.454  26.174  0.0579  0.4119 -0.1501
24074DPPC   C2B29330  18.178   0.475  25.780 -0.0672 -0.2624 -0.1235
24074DPPC   C3B29331  17.808   0.496  25.399 -0.2812 -0.0157 -0.0129
24074DPPC   C4B29332  17.681   0.578  25.009 -0.3830 -0.1290  0.0962
24075DPPC   NC329333  15.266   1.091  28.855  0.1622 -0.1947  0.1439
24075DPPC   PO429334  14.915   1.026  29.070 -0.1102 -0.1814  0.1629
24075DPPC   GL129335  14.563   0.873  29.041  0.0361 -0.2952  0.2404
24075DPPC   GL229336  14.636   0.587  29.122 -0.0044 -0.4917 -0.0377
24075DPPC   C1A29337  14.279   0.815  28.735  0.0967 -0.2237  0.0678
24075DPPC   C2A29338  14.099   0.732  28.399  0.0025  0.0576 -0.1339
24075DPPC   C3A29339  13.922   0.824  27.998  0.1894  0.0504 -0.3041
24075DPPC   C4A29340  14.078   0.858  27.513  0.2634 -0.2806  0.4005
24075DPPC   C1B29341  14.469   0.346  28.910 -0.3770 -0.1293  0.1073
24075DPPC   C2B29342  14.373   0.314  28.463 -0.2924 -0.1401  0.2221
24075DPPC   C3B29343  14.610   0.361  28.024  0.0216 -0.4206  0.1205
24075DPPC   C4B29344  14.480  -0.079  27.779  0.1191 -0.1161  0.1357
24076DPPC   NC329345  17.100   2.881  28.723  0.0092 -0.2526  0.1961
24076DPPC   PO429346  16.787   3.068  28.708  0.1371 -0.2125  0.1327
24076DPPC   GL129347  16.704   3.064  28.249  0.0495 -0.0604 -0.0789
24076DPPC   GL229348  16.956   2.889  28.218 -0.1737  0.1694  0.1408
24076DPPC   C1A29349  16.435   2.897  28.030 -0.2615 -0.1135 -0.1235
24076DPPC   C2A29350  16.265   2.838  27.658  0.0468 -0.0034 -0.1118
24076DPPC   C3A29351  16.053   2.943  27.219 -0.3171 -0.0698 -0.1294
24076DPPC   C4A29352  16.183   3.255  26.856 -0.2092  0.2857  0.1728
24076DPPC   C1B29353  16.806   2.691  27.933  0.0513  0.4674 -0.1030
24076DPPC   C2B29354  16.784   2.622  27.577 -0.0444 -0.0137  0.2829
24076DPPC   C3B29355  16.511   2.680  27.189 -0.0252 -0.3248  0.0543
24076DPPC   C4B29356  16.161   2.469  26.927  0.3568 -0.1662 -0.1937
24077DPPC   NC329357  18.474   0.494  27.611  0.3314  0.1658  0.1469
24077DPPC   PO429358  18.638   0.302  27.315 -0.1247 -0.0251 -0.0144
24077DPPC   GL129359  18.481   0.169  26.894  0.1933 -0.0622  0.1483
24077DPPC   GL229360  18.646  -0.095  26.830 -0.1742 -0.3194 -0.0827
24077DPPC   C1A29361  18.329   0.150  26.549 -0.1566  0.0358 -0.2309
24077DPPC   C2A29362  18.134   0.073  26.203  0.0749 -0.1661  0.1916
24077DPPC   C3A29363  17.862   0.101  25.860 -0.1802  0.1139 -0.2773
24077DPPC   C4A29364  17.553   0.126  25.528  0.1155 -0.0386  0.1219
24077DPPC   C1B29365  18.487  -0.266  26.543  0.2523 -0.1556  0.1112
24077DPPC   C2B29366  18.264  -0.384  26.160  0.0757 -0.1060 -0.3164
24077DPPC   C3B29367  17.992  -0.370  25.787 -0.1407  0.0225  0.0613
24077DPPC   C4B29368  17.613  -0.405  25.477 -0.0888 -0.1692 -0.3234
24078DPPC   NC329369  20.005   2.963  25.978  0.0985  0.0266  0.3189
24078DPPC   PO429370  19.666   3.051  26.201 -0.0321  0.0647  0.1384
24078DPPC   GL129371  19.216   3.188  26.121 -0.2577 -0.3377 -0.2897
24078DPPC   GL229372  19.351   3.472  26.028  0.2121  0.1670  0.3066
24078DPPC   C1A29373  18.886   3.067  25.951  0.1039 -0.1309 -0.3406
24078DPPC   C2A29374  18.680   3.021  25.635  0.1611 -0.0376 -0.0816
24078DPPC   C3A29375  18.361   3.007  25.217 -0.1229 -0.2912  0.2668
24078DPPC   C4A29376  18.027   3.050  24.838  0.0138 -0.0682  0.1729
24078DPPC   C1B29377  19.113   3.469  25.774  0.5793  0.1390  0.1727
24078DPPC   C2B29378  18.943   3.404  25.396 -0.1763  0.1355  0.1120
24078DPPC   C3B29379  18.586   3.471  25.025 -0.0282  0.3934  0.1607
24078DPPC   C4B29380  18.296   3.415  24.640  0.0552  0.0408  0.1440
24079DPPC   NC329381  19.484   2.457  26.975 -0.2775 -0.2717  0.1567
24079DPPC   PO429382  19.111   2.341  27.005 -0.2094  0.0237 -0.1852
24079DPPC   GL129383  18.655   2.317  27.159 -0.3459  0.2453 -0.0054
24079DPPC   GL229384  18.707   2.047  27.016 -0.4297 -0.0798 -0.2774
24079DPPC   C1A29385  18.396   2.445  26.972 -0.0126 -0.3621  0.2654
24079DPPC   C2A29386  18.077   2.362  26.709  0.2920 -0.0022  0.1493
24079DPPC   C3A29387  17.797   2.301  26.364 -0.0419  0.2823 -0.0657
24079DPPC   C4A29388  17.465   2.421  25.952 -0.1452  0.0806 -0.1108
24079DPPC   C1B29389  18.437   2.012  26.737 -0.1363 -0.0829  0.0686
24079DPPC   C2B29390  18.144   1.902  26.493  0.0892 -0.0004  0.0656
24079DPPC   C3B29391  17.772   1.853  26.178  0.0302  0.1081 -0.1202
24079DPPC   C4B29392  17.481   1.876  25.721  0.0005 -0.0850 -0.1238
24080DPPC   NC329393  13.180   5.025  28.928 -0.1096 -0.1651 -0.1148
24080DPPC   PO429394  13.497   5.260  28.848  0.1093 -0.1477 -0.2124
24080DPPC   GL129395  13.855   5.286  28.585  0.2796 -0.1920  0.1472
24080DPPC   GL229396  13.643   5.536  28.526  0.3770  0.2341  0.1470
24080DPPC   C1A29397  14.077   5.596  28.495  0.0325  0.2653  0.3919
24080DPPC   C2A29398  14.269   5.939  28.267  0.0473 -0.3105  0.0722
24080DPPC   C3A29399  14.573   6.313  28.242  0.0526 -0.0482 -0.1604
24080DPPC   C4A29400  14.889   6.619  28.103 -0.0134  0.0971  0.0373
24080DPPC   C1B29401  13.764   5.736  28.187 -0.0409 -0.3508 -0.1295
24080DPPC   C2B29402  14.041   5.708  27.886  0.1390  0.0726 -0.2249
24080DPPC   C3B29403  14.364   5.663  27.527  0.0924 -0.0418 -0.2185
24080DPPC   C4B29404  14.601   5.639  27.095  0.1361  0.0523 -0.0806
24081DPPC   NC329405  20.374   4.190  26.290  0.4189  0.3114  0.1395
24081DPPC   PO429406  20.002   3.990  26.178 -0.1722  0.3002  0.1299
24081DPPC   GL129407  19.840   3.890  25.802  0.0404 -0.4255 -0.1311
24081DPPC   GL229408  19.580   3.875  25.932 -0.0986  0.0202 -0.1706
24081DPPC   C1A29409  19.713   3.803  25.477 -0.1262 -0.1388 -0.2061
24081DPPC   C2A29410  19.348   3.729  25.382 -0.0617 -0.1856 -0.0513
24081DPPC   C3A29411  19.067   3.754  25.034 -0.1340 -0.2649  0.0407
24081DPPC   C4A29412  18.723   3.770  24.583 -0.1605  0.0831 -0.1489
24081DPPC   C1B29413  19.384   4.035  25.717 -0.1431 -0.0472 -0.1123
24081DPPC   C2B29414  19.127   4.252  25.419  0.1351  0.2152  0.0888
24081DPPC   C3B29415  18.766   4.172  25.015  0.2141  0.1265  0.1671
24081DPPC   C4B29416  18.534   4.235  24.629  0.0931 -0.1153  0.0189
24082DPPC   NC329417  16.529   5.084  28.867  0.1841  0.3305  0.0936
24082DPPC   PO429418  16.831   4.848  28.755 -0.1370  0.3224  0.2931
24082DPPC   GL129419  16.826   4.667  28.410  0.1447  0.0467 -0.0365
24082DPPC   GL229420  16.966   4.927  28.244 -0.1687 -0.0574 -0.3660
24082DPPC   C1A29421  16.577   4.438  28.196 -0.0149  0.1216  0.2770
24082DPPC   C2A29422  16.262   4.232  28.017 -0.0833 -0.3151 -0.0828
24082DPPC   C3A29423  15.915   3.909  27.791 -0.2166 -0.0916 -0.0062
24082DPPC   C4A29424  15.536   3.603  27.610 -0.0316  0.1891  0.1455
24082DPPC   C1B29425  16.735   5.104  28.045 -0.1674  0.0672 -0.0457
24082DPPC   C2B29426  16.541   5.157  27.686  0.2443  0.2932 -0.0558
24082DPPC   C3B29427  16.458   5.348  27.260 -0.0024  0.2352  0.1860
24082DPPC   C4B29428  16.625   5.664  26.915 -0.2353  0.0143  0.0186
24083DPPC   NC329429  14.260   4.192  28.997  0.1936 -0.2297  0.2561
24083DPPC   PO429430  14.345   4.574  29.056 -0.0414 -0.0829 -0.0605
24083DPPC   GL129431  14.078   4.686  28.702 -0.1837 -0.3664 -0.3890
24083DPPC   GL229432  14.187   4.495  28.542 -0.0671 -0.2658  0.1340
24083DPPC   C1A29433  14.094   4.935  28.490  0.3502 -0.2549  0.0565
24083DPPC   C2A29434  14.302   5.136  28.228 -0.0697 -0.0461  0.2850
24083DPPC   C3A29435  14.478   5.588  28.044 -0.2656 -0.1512  0.1344
24083DPPC   C4A29436  14.587   6.003  27.823 -0.1976 -0.0938  0.1891
24083DPPC   C1B29437  14.005   4.497  28.232  0.0040 -0.0685  0.0931
24083DPPC   C2B29438  14.135   4.393  27.876  0.2119 -0.1814 -0.0651
24083DPPC   C3B29439  14.383   4.277  27.607  0.3181  0.2974  0.0511
24083DPPC   C4B29440  14.735   4.143  27.270  0.2675  0.1390  0.2183
24084DPPC   NC329441  17.223   4.568  28.609 -0.1110  0.0944  0.5407
24084DPPC   PO429442  17.469   4.338  28.462  0.0023 -0.1586 -0.0289
24084DPPC   GL129443  17.299   4.118  28.058 -0.0279 -0.1861 -0.1917
24084DPPC   GL229444  17.414   4.341  27.899 -0.0970 -0.0585  0.1828
24084DPPC   C1A29445  17.027   4.000  27.836  0.2690  0.4910  0.0537
24084DPPC   C2A29446  16.749   4.304  27.696  0.0792 -0.1879 -0.2020
24084DPPC   C3A29447  16.556   4.566  27.383 -0.1088 -0.2124 -0.3048
24084DPPC   C4A29448  16.450   4.892  27.011 -0.0934 -0.0073  0.2005
24084DPPC   C1B29449  17.258   4.443  27.585  0.3007  0.2738 -0.4194
24084DPPC   C2B29450  17.093   4.481  27.198  0.0947 -0.0945 -0.0233
24084DPPC   C3B29451  16.722   4.434  26.886 -0.0365  0.3095  0.4251
24084DPPC   C4B29452  16.430   4.354  26.534  0.2741 -0.0993  0.1985
24085DPPC   NC329453  12.870   0.223  28.564  0.0981 -0.1969  0.3653
24085DPPC   PO429454  12.670   0.544  28.646 -0.0532  0.1868  0.3320
24085DPPC   GL129455  12.476   0.588  28.163 -0.1212  0.1403 -0.2817
24085DPPC   GL229456  12.773   0.529  28.138 -0.0575 -0.2180 -0.0358
24085DPPC   C1A29457  12.170   0.467  27.953  0.1020  0.1568 -0.0093
24085DPPC   C2A29458  11.867   0.295  27.834  0.1363  0.1976  0.0271
24085DPPC   C3A29459  11.780  -0.164  27.678  0.4310  0.0616  0.1316
24085DPPC   C4A29460  11.657  -0.552  27.380  0.0800 -0.2318 -0.0908
24085DPPC   C1B29461  13.056   0.531  27.834 -0.0031 -0.1437  0.0346
24085DPPC   C2B29462  13.201   0.501  27.448 -0.1504  0.2279 -0.0025
24085DPPC   C3B29463  13.453   0.487  27.056  0.4458  0.2708 -0.2582
24085DPPC   C4B29464  13.699   0.520  26.593 -0.3080  0.3949 -0.0501
24086DPPC   NC329465  18.805   6.433  27.206 -0.0548  0.1195 -0.0140
24086DPPC   PO429466  18.924   6.164  26.922 -0.0963  0.2494 -0.3767
24086DPPC   GL129467  18.867   6.116  26.545  0.0958  0.4801  0.1488
24086DPPC   GL229468  18.562   5.968  26.709  0.1542  0.1712 -0.0868
24086DPPC   C1A29469  18.857   6.243  26.195  0.0068 -0.0312  0.3396
24086DPPC   C2A29470  18.648   6.180  25.870  0.0367 -0.1288  0.0143
24086DPPC   C3A29471  18.394   6.114  25.490 -0.1138  0.0055  0.2814
24086DPPC   C4A29472  18.020   6.200  25.172 -0.2080 -0.0615 -0.2449
24086DPPC   C1B29473  18.208   5.988  26.562 -0.3748 -0.0600 -0.0052
24086DPPC   C2B29474  17.929   5.895  26.233  0.2019 -0.0204  0.0083
24086DPPC   C3B29475  17.615   5.905  25.930 -0.2465 -0.0976 -0.1306
24086DPPC   C4B29476  17.212   5.919  25.608 -0.1470 -0.0124 -0.0554
24087DPPC   NC329477  10.249   5.544  27.890 -0.3094  0.2868  0.2945
24087DPPC   PO429478  10.617   5.630  27.870  0.2485 -0.0221  0.1619
24087DPPC   GL129479  10.657   5.546  27.409  0.1241 -0.1112  0.1124
24087DPPC   GL229480  10.849   5.790  27.477 -0.2150  0.1241 -0.1684
24087DPPC   C1A29481  10.780   5.427  27.094  0.0401 -0.2674 -0.3256
24087DPPC   C2A29482  11.092   5.393  26.809  0.0529  0.1473  0.1888
24087DPPC   C3A29483  11.365   5.390  26.448  0.7035 -0.0318  0.1283
24087DPPC   C4A29484  11.622   5.369  26.022 -0.3803 -0.2134  0.0219
24087DPPC   C1B29485  10.898   5.985  27.242  0.4060 -0.3357  0.1842
24087DPPC   C2B29486  11.189   6.103  26.945  0.3748 -0.0108  0.0409
24087DPPC   C3B29487  11.357   6.210  26.518  0.2228 -0.1682  0.1149
24087DPPC   C4B29488  11.634   6.229  26.206 -0.5639 -0.1860 -0.2005
24088DPPC   NC329489  19.762   5.303  26.521 -0.1118  0.0862  0.0225
24088DPPC   PO429490  19.702   5.218  26.125 -0.1740 -0.2669 -0.2425
24088DPPC   GL129491  19.395   4.957  25.987  0.1859 -0.0092  0.5359
24088DPPC   GL229492  19.146   5.165  26.007  0.0393 -0.1770 -0.1716
24088DPPC   C1A29493  19.317   4.730  25.738 -0.0030 -0.1340 -0.1424
24088DPPC   C2A29494  19.104   4.770  25.392 -0.0272  0.0739  0.0683
24088DPPC   C3A29495  18.699   4.788  25.152  0.1238 -0.0952  0.0976
24088DPPC   C4A29496  18.394   4.782  24.738 -0.0806  0.0575 -0.0058
24088DPPC   C1B29497  18.926   5.243  25.750 -0.1238 -0.1149 -0.0221
24088DPPC   C2B29498  18.696   5.192  25.402  0.1378  0.0283  0.2895
24088DPPC   C3B29499  18.339   5.162  25.017 -0.0270 -0.4012  0.1152
24088DPPC   C4B29500  18.037   5.246  24.635 -0.2960 -0.1101  0.0514
24089DPPC   NC329501  13.464   1.558  29.017  0.1719  0.2090  0.0208
24089DPPC   PO429502  13.393   1.224  28.841  0.1332 -0.0636 -0.0571
24089DPPC   GL129503  13.599   1.308  28.551 -0.2641  0.1988  0.1941
24089DPPC   GL229504  13.560   1.565  28.479  0.1137  0.4729 -0.1609
24089DPPC   C1A29505  13.665   1.184  28.232  0.0833  0.5398  0.0513
24089DPPC   C2A29506  13.738   1.308  27.869  0.3081  0.0334 -0.0513
24089DPPC   C3A29507  13.942   1.359  27.497  0.0054  0.6552  0.0707
24089DPPC   C4A29508  14.179   1.379  27.062  0.1244 -0.1623 -0.0898
24089DPPC   C1B29509  13.570   1.696  28.129 -0.1510 -0.4962  0.3414
24089DPPC   C2B29510  13.590   1.773  27.703 -0.2995  0.2338  0.1311
24089DPPC   C3B29511  13.760   1.765  27.267 -0.0162 -0.1782 -0.1817
24089DPPC   C4B29512  14.020   1.772  26.809  0.0468  0.1773  0.2327
24090DPPC   NC329513  10.543   5.051  28.066  0.0842  0.0704  0.1390
24090DPPC   PO429514  10.615   4.775  27.816  0.1991 -0.3079  0.1184
24090DPPC   GL129515  10.679   4.864  27.443  0.2648  0.1150  0.0924
24090DPPC   GL229516  10.839   5.071  27.354  0.0549 -0.1417 -0.1721
24090DPPC   C1A29517  10.673   4.757  27.099  0.0100 -0.2370 -0.0113
24090DPPC   C2A29518  10.926   4.611  26.824  0.0548  0.1197  0.4406
24090DPPC   C3A29519  11.130   4.491  26.376  0.2307 -0.2509 -0.3314
24090DPPC   C4A29520  11.391   4.525  25.971  0.3734 -0.2538  0.0742
24090DPPC   C1B29521  11.020   4.994  27.012 -0.1616  0.0997  0.3638
24090DPPC   C2B29522  11.305   4.930  26.705  0.1992 -0.0511 -0.1834
24090DPPC   C3B29523  11.565   4.800  26.348 -0.0515 -0.1708  0.1444
24090DPPC   C4B29524  11.860   4.808  25.995  0.0938 -0.1297 -0.1309
24091DPPC   NC329525  13.914   5.691  28.958  0.0297 -0.1578  0.0953
24091DPPC   PO429526  14.195   5.458  29.068  0.1510  0.0703  0.0468
24091DPPC   GL129527  14.455   5.617  28.894 -0.2249  0.1332  0.2003
24091DPPC   GL229528  14.703   5.470  29.014 -0.1072  0.0044 -0.3221
24091DPPC   C1A29529  14.571   5.625  28.512 -0.0631 -0.0698 -0.1340
24091DPPC   C2A29530  14.826   5.876  28.283 -0.0708  0.2306 -0.0201
24091DPPC   C3A29531  15.209   6.098  28.037 -0.0450  0.2810 -0.2880
24091DPPC   C4A29532  15.479   6.496  28.052 -0.1490 -0.0075  0.2950
24091DPPC   C1B29533  14.857   5.371  28.713 -0.1707 -0.1062 -0.1251
24091DPPC   C2B29534  14.808   5.322  28.303 -0.2471 -0.1760  0.0014
24091DPPC   C3B29535  14.792   5.239  27.873 -0.3457 -0.0186  0.0572
24091DPPC   C4B29536  14.507   5.164  27.498  0.1226 -0.1755 -0.1255
24092DPPC   NC329537  12.943   4.157  28.881 -0.0138  0.1200 -0.0404
24092DPPC   PO429538  12.811   3.943  28.563  0.1352  0.1084  0.0657
24092DPPC   GL129539  12.914   4.151  28.155  0.1156 -0.2865 -0.0589
24092DPPC   GL229540  12.737   4.055  28.046 -0.3533 -0.3011  0.0459
24092DPPC   C1A29541  13.213   4.096  27.906  0.0805 -0.3450 -0.1177
24092DPPC   C2A29542  13.373   4.067  27.534  0.2281  0.3357  0.4235
24092DPPC   C3A29543  13.583   4.070  27.096 -0.1036 -0.1688  0.2057
24092DPPC   C4A29544  13.902   4.065  26.759 -0.3236  0.0297 -0.1069
24092DPPC   C1B29545  12.529   4.337  27.881  0.7457  0.3898 -0.1433
24092DPPC   C2B29546  12.197   4.505  27.696  0.0347 -0.0650  0.0031
24092DPPC   C3B29547  11.761   4.659  27.564  0.1317 -0.1915 -0.0675
24092DPPC   C4B29548  11.314   4.837  27.306 -0.3847 -0.0889 -0.4273
24093DPPC   NC329549  19.040   1.964  27.884 -0.0709  0.1366 -0.0015
24093DPPC   PO429550  18.741   1.734  27.863 -0.0200 -0.2406 -0.0088
24093DPPC   GL129551  18.425   1.873  27.671  0.0368 -0.2087 -0.2205
24093DPPC   GL229552  18.521   1.985  27.486  0.0199  0.0247  0.1599
24093DPPC   C1A29553  18.123   1.694  27.522 -0.4250  0.0091 -0.2356
24093DPPC   C2A29554  17.802   1.510  27.355 -0.0878 -0.2284  0.0942
24093DPPC   C3A29555  17.417   1.505  27.005  0.1157  0.2825 -0.1195
24093DPPC   C4A29556  17.153   1.636  26.675 -0.1965 -0.5853 -0.0636
24093DPPC   C1B29557  18.318   1.993  27.186 -0.3570  0.2642 -0.3032
24093DPPC   C2B29558  17.990   1.918  26.967 -0.0512  0.1701  0.1422
24093DPPC   C3B29559  17.623   1.922  26.651  0.1602  0.1574 -0.2340
24093DPPC   C4B29560  17.257   1.940  26.283 -0.0899  0.0512 -0.0863
24094DPPC   NC329561  18.621   1.609  27.137  0.5491  0.0656 -0.0368
24094DPPC   PO429562  18.916   1.615  26.864  0.0896 -0.2522 -0.0473
24094DPPC   GL129563  18.778   1.606  26.558  0.2033 -0.1338  0.2943
24094DPPC   GL229564  18.835   1.459  26.312 -0.2869  0.3189  0.6589
24094DPPC   C1A29565  18.597   1.846  26.353 -0.1820  0.2793  0.2304
24094DPPC   C2A29566  18.349   1.788  26.034  0.1306  0.0126  0.0891
24094DPPC   C3A29567  18.093   1.761  25.686  0.2424  0.1822  0.3599
24094DPPC   C4A29568  17.760   1.794  25.339 -0.1257  0.1519  0.2687
24094DPPC   C1B29569  18.524   1.339  26.098  0.0247 -0.0003  0.0110
24094DPPC   C2B29570  18.248   1.295  25.744  0.1904  0.0606 -0.2702
24094DPPC   C3B29571  17.939   1.303  25.381 -0.1369 -0.0832  0.2427
24094DPPC   C4B29572  17.679   1.288  24.965 -0.0599 -0.1400 -0.1712
24095DPPC   NC329573  12.142   2.735  28.523 -0.1449  0.0927 -0.0969
24095DPPC   PO429574  12.441   2.972  28.323  0.0598  0.0875 -0.0103
24095DPPC   GL129575  12.618   3.045  27.953 -0.0231 -0.1467  0.3285
24095DPPC   GL229576  12.480   3.298  27.818 -0.1395 -0.0156 -0.2472
24095DPPC   C1A29577  12.897   3.021  27.696  0.0382  0.3473  0.0311
24095DPPC   C2A29578  13.133   3.138  27.325 -0.0805  0.2275 -0.4213
24095DPPC   C3A29579  13.463   3.131  26.973 -0.0478  0.0399 -0.2240
24095DPPC   C4A29580  13.602   3.205  26.527 -0.2183 -0.0615 -0.3850
24095DPPC   C1B29581  12.620   3.274  27.475 -0.0559 -0.2718 -0.0246
24095DPPC   C2B29582  12.712   3.319  27.082  0.1926 -0.0999 -0.0003
24095DPPC   C3B29583  12.997   3.375  26.667  0.0988  0.1306 -0.0810
24095DPPC   C4B29584  13.290   3.410  26.223 -0.1975 -0.1145 -0.4268
24096DPPC   NC329585  15.916   5.163  29.686  0.3340  0.0740 -0.0724
24096DPPC   PO429586  15.902   5.369  29.331 -0.0075 -0.0524 -0.1771
24096DPPC   GL129587  15.643   5.392  28.965  0.2089  0.0696  0.0177
24096DPPC   GL229588  15.544   5.087  28.948  0.1123  0.1947  0.0727
24096DPPC   C1A29589  15.793   5.521  28.648  0.0683  0.0792  0.0625
24096DPPC   C2A29590  16.073   5.398  28.378  0.1498  0.0163  0.3356
24096DPPC   C3A29591  16.332   5.006  28.195  0.1476  0.0282 -0.2037
24096DPPC   C4A29592  16.411   4.655  27.840  0.4299 -0.0355  0.1531
24096DPPC   C1B29593  15.564   5.129  28.608 -0.0103 -0.2998  0.0175
24096DPPC   C2B29594  15.797   5.011  28.284  0.1816 -0.0625  0.0245
24096DPPC   C3B29595  15.949   4.935  27.842 -0.0811 -0.3247 -0.1027
24096DPPC   C4B29596  16.071   4.726  27.411  0.1009 -0.1192  0.1520
24097DPPC   NC329597  15.404   0.270  24.261 -0.1435 -0.0292 -0.1857
24097DPPC   PO429598  15.612   0.336  23.946  0.1835 -0.2290  0.4720
24097DPPC   GL129599  15.995   0.450  24.078  0.2448 -0.4298  0.3453
24097DPPC   GL229600  16.094   0.646  23.871 -0.1090 -0.4454  0.1968
24097DPPC   C1A29601  16.171   0.532  24.339  0.0848  0.0020 -0.2347
24097DPPC   C2A29602  16.503   0.604  24.596 -0.0178 -0.2331 -0.1689
24097DPPC   C3A29603  16.867   0.601  24.932 -0.0678  0.0469  0.0502
24097DPPC   C4A29604  17.225   0.525  25.227 -0.0745  0.0709 -0.1071
24097DPPC   C1B29605  16.274   0.927  24.078  0.0299  0.2356 -0.1835
24097DPPC   C2B29606  16.624   0.974  24.296 -0.0697 -0.1094 -0.0881
24097DPPC   C3B29607  16.988   0.943  24.549  0.1281  0.1661  0.1576
24097DPPC   C4B29608  17.299   0.915  24.921 -0.0705  0.0842  0.0933
24098DPPC   NC329609  14.064   0.835  25.115 -0.1191  0.2922  0.0595
24098DPPC   PO429610  13.710   0.631  25.145 -0.0475  0.1644 -0.1132
24098DPPC   GL129611  13.371   0.639  25.352 -0.0353 -0.0944 -0.1292
24098DPPC   GL229612  13.287   0.883  25.468  0.0952  0.0350 -0.2778
24098DPPC   C1A29613  13.276   0.369  25.616  0.3628 -0.0849  0.1497
24098DPPC   C2A29614  13.136   0.318  25.996  0.1189 -0.1107  0.0359
24098DPPC   C3A29615  12.807   0.320  26.345 -0.3703  0.0708 -0.3212
24098DPPC   C4A29616  12.586   0.288  26.784 -0.0080 -0.3034 -0.3196
24098DPPC   C1B29617  13.202   0.809  25.809  0.1053  0.3221 -0.0030
24098DPPC   C2B29618  12.909   0.782  26.086 -0.1164  0.2712 -0.1680
24098DPPC   C3B29619  12.575   0.738  26.515 -0.2436  0.1506 -0.0403
24098DPPC   C4B29620  12.298   0.688  26.898  0.0805 -0.3693 -0.0414
24099DPPC   NC329621  14.802   1.581  25.414 -0.2042  0.1278 -0.3897
24099DPPC   PO429622  14.929   1.266  25.281 -0.2824 -0.4275  0.0836
24099DPPC   GL129623  15.246   1.102  25.472 -0.3096  0.0310  0.4332
24099DPPC   GL229624  15.097   1.207  25.697 -0.0262 -0.0085 -0.1271
24099DPPC   C1A29625  15.564   1.089  25.619  0.0057  0.2869 -0.1162
24099DPPC   C2A29626  15.855   0.940  25.907 -0.1571  0.2335 -0.1901
24099DPPC   C3A29627  16.124   0.852  26.350 -0.1536 -0.0250 -0.0139
24099DPPC   C4A29628  16.381   0.908  26.735  0.1009  0.1091 -0.0585
24099DPPC   C1B29629  15.299   1.169  25.972  0.1897  0.1903 -0.4058
24099DPPC   C2B29630  15.423   0.970  26.314  0.2879  0.1797  0.1870
24099DPPC   C3B29631  15.720   0.908  26.665 -0.2095  0.0737 -0.0095
24099DPPC   C4B29632  16.017   0.979  27.080  0.2877  0.1894  0.1820
24100DPPC   NC329633  15.141   4.600  24.673 -0.0563 -0.4372  0.0537
24100DPPC   PO429634  14.814   4.426  24.904  0.0371 -0.2221  0.0910
24100DPPC   GL129635  15.037   4.059  25.048 -0.1734 -0.4737 -0.0710
24100DPPC   GL229636  14.852   4.089  25.293 -0.0689 -0.1980  0.2851
24100DPPC   C1A29637  15.259   4.032  25.288 -0.2522 -0.0085  0.2985
24100DPPC   C2A29638  15.436   4.082  25.652 -0.0268 -0.1146 -0.0779
24100DPPC   C3A29639  15.692   4.004  26.011 -0.0044 -0.0884  0.0868
24100DPPC   C4A29640  15.925   3.944  26.389 -0.0610 -0.4031 -0.0954
24100DPPC   C1B29641  14.973   4.087  25.647 -0.2819 -0.0859 -0.2454
24100DPPC   C2B29642  15.145   4.173  26.110 -0.1940  0.0602 -0.0607
24100DPPC   C3B29643  15.381   4.102  26.493 -0.0527  0.0752  0.0316
24100DPPC   C4B29644  15.661   3.932  26.864  0.0464  0.0418 -0.1545
24101DPPC   NC329645  13.418   4.372  24.346  0.2413  0.3398  0.0069
24101DPPC   PO429646  13.299   4.344  24.708  0.2062  0.2790  0.1419
24101DPPC   GL129647  13.119   4.554  25.086  0.1308  0.1860  0.0084
24101DPPC   GL229648  13.087   4.292  25.163 -0.0080  0.4792 -0.0606
24101DPPC   C1A29649  12.876   4.822  25.206 -0.1611  0.0690  0.2544
24101DPPC   C2A29650  12.685   4.786  25.530  0.0024  0.1569  0.1132
24101DPPC   C3A29651  12.384   4.819  25.917 -0.1318  0.0696 -0.2253
24101DPPC   C4A29652  12.164   4.754  26.377 -0.2109 -0.1936  0.2650
24101DPPC   C1B29653  12.944   4.342  25.483 -0.2070  0.0109 -0.0042
24101DPPC   C2B29654  12.740   4.298  25.825 -0.1470  0.1791 -0.3020
24101DPPC   C3B29655  12.441   4.343  26.220 -0.0812 -0.0877 -0.0402
24101DPPC   C4B29656  12.155   4.346  26.670 -0.4259 -0.1065 -0.2423
24102DPPC   NC329657  15.327   5.346  23.409 -0.1428  0.1824  0.0885
24102DPPC   PO429658  15.441   5.635  23.660 -0.1569 -0.3005 -0.1310
24102DPPC   GL129659  15.817   5.562  23.933 -0.0291  0.0825 -0.2081
24102DPPC   GL229660  15.732   5.299  24.035  0.1065  0.1556  0.0204
24102DPPC   C1A29661  16.007   5.751  24.196  0.1553  0.2717 -0.0178
24102DPPC   C2A29662  16.338   5.857  24.394 -0.0480 -0.1905  0.1172
24102DPPC   C3A29663  16.650   5.884  24.704  0.0912  0.0771 -0.0572
24102DPPC   C4A29664  16.966   5.938  25.090 -0.0783 -0.0622  0.3153
24102DPPC   C1B29665  15.981   5.133  24.153 -0.1514  0.0596 -0.2986
24102DPPC   C2B29666  16.252   5.071  24.468  0.1547 -0.0368 -0.0563
24102DPPC   C3B29667  16.568   5.119  24.866 -0.0022  0.0134  0.0854
24102DPPC   C4B29668  16.918   5.126  25.201  0.1558 -0.2275 -0.1711
24103DPPC   NC329669  15.530   1.436  23.890  0.1203 -0.2727 -0.4231
24103DPPC   PO429670  15.338   1.502  24.215 -0.2051 -0.0273  0.1369
24103DPPC   GL129671  15.666   1.474  24.437 -0.0116 -0.1459 -0.1168
24103DPPC   GL229672  15.695   1.230  24.623  0.2027 -0.1497  0.1427
24103DPPC   C1A29673  15.962   1.544  24.555 -0.0960 -0.1894  0.0651
24103DPPC   C2A29674  16.307   1.619  24.779  0.2079 -0.1994 -0.1485
24103DPPC   C3A29675  16.665   1.547  25.130 -0.0334  0.2448  0.1865
24103DPPC   C4A29676  16.942   1.546  25.548  0.1931  0.2949  0.3901
24103DPPC   C1B29677  15.884   1.233  24.888 -0.5278 -0.2885 -0.1497
24103DPPC   C2B29678  16.226   1.241  25.138 -0.0873  0.1781 -0.2000
24103DPPC   C3B29679  16.519   1.202  25.463 -0.1792  0.1156  0.0130
24103DPPC   C4B29680  16.805   1.223  25.886 -0.0083  0.1577 -0.0775
24104DPPC   NC329681  15.063   0.812  25.122 -0.0246  0.0286  0.2266
24104DPPC   PO429682  15.298   1.034  24.926  0.0554  0.0886 -0.3565
24104DPPC   GL129683  15.452   1.265  25.134  0.4405 -0.1537 -0.0106
24104DPPC   GL229684  15.286   1.522  25.202  0.2650  0.2074  0.1595
24104DPPC   C1A29685  15.756   1.287  25.290 -0.1192 -0.0338 -0.1328
24104DPPC   C2A29686  16.010   1.303  25.610  0.0482  0.4340  0.3098
24104DPPC   C3A29687  16.255   1.298  26.004 -0.0938 -0.0925 -0.0701
24104DPPC   C4A29688  16.540   1.243  26.447  0.1669 -0.5098  0.0626
24104DPPC   C1B29689  15.400   1.505  25.602 -0.1166  0.1182  0.1019
24104DPPC   C2B29690  15.644   1.418  25.938  0.0873 -0.1321 -0.0455
24104DPPC   C3B29691  15.841   1.336  26.334 -0.1432 -0.0449  0.0963
24104DPPC   C4B29692  16.094   1.346  26.723  0.2894 -0.0526  0.0542
24105DPPC   NC329693  15.526   6.480  23.749  0.0431  0.3294  0.1144
24105DPPC   PO429694  15.299   6.427  24.036 -0.1579 -0.2165 -0.3236
24105DPPC   GL129695  15.446   6.199  24.369 -0.0679  0.2311  0.0835
24105DPPC   GL229696  15.572   6.430  24.493  0.1205 -0.1874 -0.2596
24105DPPC   C1A29697  15.708   6.018  24.572  0.1194 -0.0831 -0.1095
24105DPPC   C2A29698  16.062   5.990  24.779  0.0034  0.2242 -0.0994
24105DPPC   C3A29699  16.378   5.979  25.157 -0.0303 -0.3260 -0.1075
24105DPPC   C4A29700  16.703   6.032  25.516 -0.2813 -0.1138 -0.0385
24105DPPC   C1B29701  15.862   6.451  24.784 -0.3324 -0.0290 -0.3226
24105DPPC   C2B29702  16.111   6.469  25.119  0.1164 -0.1437  0.0972
24105DPPC   C3B29703  16.462   6.411  25.441 -0.4183 -0.4216  0.3896
24105DPPC   C4B29704  16.781   6.481  25.823  0.2703 -0.1228  0.2642
24106DPPC   NC329705  14.534   1.844  24.739 -0.3790  0.0147  0.2839
24106DPPC   PO429706  14.566   1.909  25.125 -0.0260  0.1888  0.1628
24106DPPC   GL129707  14.844   2.274  25.309  0.2034  0.0500  0.0466
24106DPPC   GL229708  14.823   2.038  25.489 -0.0776 -0.0630  0.2160
24106DPPC   C1A29709  15.063   2.526  25.504  0.0623 -0.0004 -0.1681
24106DPPC   C2A29710  15.275   2.403  25.849  0.0081  0.2884 -0.0688
24106DPPC   C3A29711  15.520   2.329  26.258 -0.0598 -0.0803  0.1958
24106DPPC   C4A29712  15.790   2.327  26.654  0.2054 -0.0071 -0.0386
24106DPPC   C1B29713  14.953   2.041  25.868  0.1020  0.1291  0.1554
24106DPPC   C2B29714  15.144   2.068  26.267  0.1029  0.1800 -0.0545
24106DPPC   C3B29715  15.408   1.942  26.667  0.1345 -0.0328  0.1383
24106DPPC   C4B29716  15.664   1.925  27.052  0.1735  0.2858  0.1574
24107DPPC   NC329717  13.461   3.227  24.644  0.0480 -0.1467 -0.3062
24107DPPC   PO429718  13.366   3.373  25.004  0.0037 -0.0508  0.1145
24107DPPC   GL129719  13.038   3.139  25.257 -0.4112  0.1481 -0.0345
24107DPPC   GL229720  13.216   3.291  25.447 -0.0500 -0.0975 -0.5615
24107DPPC   C1A29721  12.848   2.960  25.522  0.3138 -0.3588 -0.3073
24107DPPC   C2A29722  12.601   3.051  25.827 -0.1771 -0.1459  0.4471
24107DPPC   C3A29723  12.328   3.076  26.249 -0.2345  0.6370  0.2089
24107DPPC   C4A29724  12.049   3.100  26.673  0.1744  0.0322 -0.1289
24107DPPC   C1B29725  13.139   3.415  25.764  0.3835 -0.2341  0.0265
24107DPPC   C2B29726  12.857   3.411  26.093 -0.3080  0.0604  0.0725
24107DPPC   C3B29727  12.580   3.479  26.479  0.1923  0.0525 -0.1238
24107DPPC   C4B29728  12.344   3.559  26.871 -0.0026 -0.0196 -0.0206
24108DPPC   NC329729  14.841   2.706  25.127  0.0700  0.0187 -0.1934
24108DPPC   PO429730  14.511   2.589  25.362  0.1195 -0.2748  0.1351
24108DPPC   GL129731  14.584   2.607  25.782  0.0933 -0.1316 -0.2469
24108DPPC   GL229732  14.721   2.407  25.771 -0.1427 -0.0802  0.3889
24108DPPC   C1A29733  14.483   2.527  26.153  0.2129  0.0854 -0.0086
24108DPPC   C2A29734  14.443   2.468  26.569 -0.0396 -0.0139 -0.2226
24108DPPC   C3A29735  14.186   2.624  26.967 -0.2116 -0.3105  0.0401
24108DPPC   C4A29736  14.173   2.503  27.416  0.0212 -0.0449 -0.2039
24108DPPC   C1B29737  14.889   2.449  26.103  0.3865 -0.1247 -0.2041
24108DPPC   C2B29738  14.998   2.490  26.563  0.0921 -0.1104  0.1194
24108DPPC   C3B29739  15.210   2.391  26.936  0.5165  0.1739 -0.1294
24108DPPC   C4B29740  15.503   2.303  27.328  0.0596  0.0352 -0.1285
24109DPPC   NC329741  13.714   2.506  25.503 -0.0513 -0.2077 -0.2557
24109DPPC   PO429742  13.765   2.733  25.843  0.0294 -0.2398 -0.0089
24109DPPC   GL129743  13.634   2.538  26.234  0.1974  0.1514 -0.2702
24109DPPC   GL229744  13.542   2.847  26.238  0.1433  0.0474 -0.1222
24109DPPC   C1A29745  13.501   2.422  26.539  0.0394  0.3115 -0.1329
24109DPPC   C2A29746  13.331   2.333  26.869  0.1616 -0.0353 -0.3306
24109DPPC   C3A29747  13.011   2.409  27.258  0.2458  0.0351 -0.1284
24109DPPC   C4A29748  12.806   2.151  27.651  0.0365  0.2034 -0.0770
24109DPPC   C1B29749  13.284   2.813  26.519  0.0884  0.0557  0.1176
24109DPPC   C2B29750  13.053   2.836  26.854 -0.5542 -0.2051  0.0905
24109DPPC   C3B29751  12.768   2.823  27.228 -0.1010  0.1048 -0.1513
24109DPPC   C4B29752  12.573   2.643  27.700  0.1482 -0.3321  0.0274
24110DPPC   NC329753  15.037   4.999  25.579 -0.1676 -0.0295  0.0448
24110DPPC   PO429754  14.634   4.988  25.645 -0.1773 -0.2899 -0.2069
24110DPPC   GL129755  14.518   5.174  26.060  0.0887 -0.0547  0.6277
24110DPPC   GL229756  14.689   5.010  26.167  0.2538 -0.0510 -0.0599
24110DPPC   C1A29757  14.617   5.423  26.297  0.1242 -0.1650 -0.3371
24110DPPC   C2A29758  14.770   5.568  26.648 -0.1128 -0.0901 -0.1487
24110DPPC   C3A29759  15.091   5.488  26.944  0.2277 -0.2546  0.1698
24110DPPC   C4A29760  15.418   5.408  27.321  0.1149 -0.0236 -0.0871
24110DPPC   C1B29761  14.961   5.125  26.385 -0.0485  0.0297 -0.0425
24110DPPC   C2B29762  15.213   4.999  26.720 -0.2174  0.0846  0.1848
24110DPPC   C3B29763  15.433   4.935  27.099 -0.0169 -0.1344  0.2932
24110DPPC   C4B29764  15.622   4.847  27.515 -0.0042 -0.2297  0.0575
24111DPPC   NC329765  14.717   5.316  25.250  0.0346  0.3320  0.1172
24111DPPC   PO429766  14.918   5.019  25.117  0.1188  0.0449 -0.1032
24111DPPC   GL129767  15.295   4.846  25.188 -0.0922 -0.1334 -0.2373
24111DPPC   GL229768  15.161   4.569  25.158  0.2051 -0.3746 -0.1483
24111DPPC   C1A29769  15.490   4.836  25.484  0.2595 -0.3356  0.2342
24111DPPC   C2A29770  15.700   4.917  25.809  0.0072 -0.2609 -0.1930
24111DPPC   C3A29771  16.039   4.844  26.144 -0.4792 -0.1824  0.1741
24111DPPC   C4A29772  16.338   4.865  26.541 -0.0794 -0.3578  0.0719
24111DPPC   C1B29773  15.164   4.502  25.481 -0.0902 -0.0316  0.0823
24111DPPC   C2B29774  15.296   4.592  25.881 -0.0609  0.1459 -0.0671
24111DPPC   C3B29775  15.601   4.555  26.165  0.2720  0.0125 -0.0711
24111DPPC   C4B29776  15.870   4.435  26.547  0.1423  0.2188  0.0137
24112DPPC   NC329777  14.188   1.508  26.014  0.1443  0.0987  0.0037
24112DPPC   PO429778  14.128   1.107  25.922 -0.1546 -0.0499 -0.2427
24112DPPC   GL129779  14.434   1.029  26.091  0.0418 -0.0206  0.2141
24112DPPC   GL229780  14.283   1.106  26.298 -0.4610  0.3732  0.0595
24112DPPC   C1A29781  14.788   1.016  26.134 -0.0279 -0.0890 -0.1386
24112DPPC   C2A29782  14.991   1.160  26.465 -0.0629 -0.1587 -0.1949
24112DPPC   C3A29783  15.235   1.116  26.755 -0.0192  0.0778  0.0383
24112DPPC   C4A29784  15.518   1.125  27.177  0.0019 -0.1074 -0.2152
24112DPPC   C1B29785  14.538   0.894  26.526  0.2326  0.1141 -0.2834
24112DPPC   C2B29786  14.824   0.730  26.759 -0.2986 -0.0402 -0.1211
24112DPPC   C3B29787  15.127   0.803  27.110  0.1530  0.2792  0.0677
24112DPPC   C4B29788  15.347   0.824  27.580  0.1627 -0.0204  0.1609
24113DPPC   NC329789  15.184   4.439  24.122 -0.0842 -0.0022 -0.0446
24113DPPC   PO429790  15.166   4.826  24.159 -0.1669 -0.0600 -0.1701
24113DPPC   GL129791  15.567   4.917  24.305  0.0160 -0.1995 -0.1654
24113DPPC   GL229792  15.602   4.603  24.408  0.1182 -0.2356 -0.1766
24113DPPC   C1A29793  15.793   5.062  24.541  0.0354  0.0638 -0.0710
24113DPPC   C2A29794  15.954   5.178  24.885 -0.0863  0.2546 -0.0373
24113DPPC   C3A29795  16.232   5.191  25.252 -0.2329 -0.1814  0.0688
24113DPPC   C4A29796  16.528   5.094  25.565  0.0755 -0.2509  0.2556
24113DPPC   C1B29797  15.946   4.635  24.582 -0.0892  0.0197  0.4658
24113DPPC   C2B29798  16.249   4.681  24.895 -0.0260  0.0222 -0.1831
24113DPPC   C3B29799  16.571   4.736  25.269 -0.1640 -0.0114  0.0082
24113DPPC   C4B29800  16.876   4.707  25.592  0.0711 -0.0585  0.1197
24114DPPC   NC329801  14.258   3.924  25.736  0.1528  0.2479 -0.0311
24114DPPC   PO429802  14.456   3.861  25.388 -0.4732  0.1241  0.1691
24114DPPC   GL129803  14.841   3.614  25.267  0.1693  0.0079  0.1910
24114DPPC   GL229804  14.742   3.412  25.437  0.0199  0.0996 -0.1742
24114DPPC   C1A29805  15.080   3.670  25.558 -0.0935 -0.1068  0.1181
24114DPPC   C2A29806  15.207   3.751  25.915 -0.2001 -0.3265  0.1503
24114DPPC   C3A29807  15.451   3.622  26.295  0.1994 -0.2108  0.0353
24114DPPC   C4A29808  15.843   3.515  26.587  0.1411  0.0676 -0.2179
24114DPPC   C1B29809  14.887   3.393  25.797  0.2390 -0.3200 -0.2133
24114DPPC   C2B29810  15.035   3.354  26.197  0.0823 -0.0508  0.1921
24114DPPC   C3B29811  15.320   3.196  26.538  0.0813  0.0447 -0.1731
24114DPPC   C4B29812  15.597   3.143  26.925 -0.0091  0.2012 -0.1752
24115DPPC   NC329813  13.697   0.258  25.470  0.0654  0.1529 -0.1582
24115DPPC   PO429814  13.774   0.536  25.700 -0.1554  0.0407  0.1230
24115DPPC   GL129815  13.523   0.524  26.025  0.1918 -0.1346  0.0028
24115DPPC   GL229816  13.487   0.753  26.122 -0.0095  0.1469 -0.2934
24115DPPC   C1A29817  13.449   0.283  26.301 -0.2467 -0.2261  0.3025
24115DPPC   C2A29818  13.266   0.182  26.669  0.0696  0.0737  0.0222
24115DPPC   C3A29819  13.002   0.198  27.057  0.0911 -0.2241 -0.1086
24115DPPC   C4A29820  12.731   0.197  27.464  0.1213 -0.1646 -0.1112
24115DPPC   C1B29821  13.257   0.650  26.431 -0.0934  0.3688 -0.0660
24115DPPC   C2B29822  12.974   0.634  26.757 -0.3568 -0.1291 -0.0219
24115DPPC   C3B29823  12.779   0.620  27.191  0.0468 -0.1064  0.1830
24115DPPC   C4B29824  12.560   0.673  27.644 -0.1190 -0.0266  0.1003
24116DPPC   NC329825  13.631   1.943  24.837 -0.2028  0.2619 -0.2670
24116DPPC   PO429826  13.555   1.534  24.756 -0.2384 -0.1817 -0.1751
24116DPPC   GL129827  13.161   1.562  24.940 -0.2027 -0.2237 -0.2558
24116DPPC   GL229828  12.996   1.341  24.886 -0.0947 -0.1698 -0.1212
24116DPPC   C1A29829  13.021   1.753  25.252 -0.0548 -0.3986 -0.0872
24116DPPC   C2A29830  12.840   1.700  25.661  0.1557 -0.1340 -0.2062
24116DPPC   C3A29831  12.547   1.684  26.063 -0.2244 -0.1476 -0.1407
24116DPPC   C4A29832  12.208   1.716  26.534  0.0807 -0.3296  0.1652
24116DPPC   C1B29833  12.715   1.338  25.163 -0.1297 -0.0081 -0.2927
24116DPPC   C2B29834  12.480   1.253  25.494  0.0980  0.2833 -0.0698
24116DPPC   C3B29835  12.220   1.325  25.874  0.0353  0.0299 -0.1692
24116DPPC   C4B29836  11.986   1.329  26.287 -0.0379 -0.1967  0.4905
24117DPPC   NC329837  13.722   2.215  25.910  0.1023  0.1468 -0.1270
24117DPPC   PO429838  14.057   1.965  25.847  0.4633  0.3497 -0.2297
24117DPPC   GL129839  14.393   2.121  26.049  0.1115 -0.3148 -0.2469
24117DPPC   GL229840  14.273   2.105  26.341 -0.1976  0.0672 -0.0817
24117DPPC   C1A29841  14.713   2.056  26.238  0.3039  0.3456  0.0382
24117DPPC   C2A29842  14.740   2.096  26.671 -0.0484  0.1319  0.1055
24117DPPC   C3A29843  14.925   1.947  27.105  0.0318 -0.3131 -0.0975
24117DPPC   C4A29844  15.220   1.908  27.473  0.1382 -0.1042 -0.2085
24117DPPC   C1B29845  14.379   1.882  26.586  0.0299 -0.3107  0.0375
24117DPPC   C2B29846  14.518   1.748  26.984 -0.0069  0.1725 -0.2737
24117DPPC   C3B29847  14.720   1.763  27.453  0.2981  0.2547  0.0156
24117DPPC   C4B29848  14.965   1.925  27.893 -0.0531 -0.1952 -0.2413
24118DPPC   NC329849  16.614   1.265  22.171  0.3193  0.0012 -0.2135
24118DPPC   PO429850  16.824   0.944  22.144 -0.2021 -0.4997  0.0984
24118DPPC   GL129851  17.111   0.796  22.446 -0.1888 -0.0669  0.2097
24118DPPC   GL229852  17.316   1.002  22.351 -0.1036  0.3561  0.2189
24118DPPC   C1A29853  17.247   0.666  22.739 -0.2659  0.1870  0.4984
24118DPPC   C2A29854  17.611   0.682  22.997  0.2371 -0.3514  0.1931
24118DPPC   C3A29855  17.876   0.682  23.334 -0.1017  0.0897  0.3098
24118DPPC   C4A29856  18.211   0.678  23.699  0.0246 -0.2205  0.0659
24118DPPC   C1B29857  17.620   1.080  22.548 -0.0826 -0.0451  0.0081
24118DPPC   C2B29858  17.882   1.064  22.868 -0.0676 -0.2232 -0.1791
24118DPPC   C3B29859  18.204   1.041  23.226 -0.3196 -0.1682  0.3129
24118DPPC   C4B29860  18.481   1.106  23.620 -0.5164  0.0341  0.1410
24119DPPC   NC329861  14.506   5.692  25.992  0.1370  0.3348 -0.1079
24119DPPC   PO429862  14.705   5.482  25.720 -0.0537  0.1199 -0.0473
24119DPPC   GL129863  14.950   5.343  26.011 -0.0019 -0.2872  0.0812
24119DPPC   GL229864  15.156   5.173  25.981  0.1299 -0.3924 -0.4165
24119DPPC   C1A29865  15.078   5.518  26.297 -0.4425  0.0911  0.0129
24119DPPC   C2A29866  15.415   5.415  26.528 -0.1356  0.5774 -0.2466
24119DPPC   C3A29867  15.747   5.298  26.869 -0.1814 -0.1575  0.1048
24119DPPC   C4A29868  15.902   5.197  27.323  0.1591 -0.0861 -0.0224
24119DPPC   C1B29869  15.350   5.020  26.224 -0.2016 -0.1539  0.2290
24119DPPC   C2B29870  15.651   4.926  26.450 -0.1683  0.1033  0.0015
24119DPPC   C3B29871  15.893   4.842  26.905 -0.0859  0.0325  0.0442
24119DPPC   C4B29872  16.242   4.412  27.010  0.3406  0.2753  0.0724
24120DPPC   NC329873  14.621   0.116  25.234  0.1270 -0.1171 -0.2531
24120DPPC   PO429874  14.760   0.466  25.231  0.2846  0.1272  0.1156
24120DPPC   GL129875  15.066   0.468  25.519  0.4059 -0.0600  0.0880
24120DPPC   GL229876  15.075   0.651  25.561 -0.0385 -0.0542 -0.3709
24120DPPC   C1A29877  15.152   0.250  25.785  0.0158  0.0112 -0.0503
24120DPPC   C2A29878  15.510   0.076  25.933 -0.3100  0.0698 -0.1966
24120DPPC   C3A29879  15.875   0.056  26.274  0.2056 -0.2155 -0.0743
24120DPPC   C4A29880  16.155  -0.076  26.622  0.0751 -0.0568  0.0207
24120DPPC   C1B29881  15.023   0.724  25.920 -0.2271  0.2317 -0.1887
24120DPPC   C2B29882  14.981   0.643  26.308 -0.1035  0.2110  0.2552
24120DPPC   C3B29883  15.312   0.633  26.681  0.1231  0.1118 -0.1817
24120DPPC   C4B29884  15.597   0.625  27.117 -0.2682 -0.0464 -0.2881
24121DPPC   NC329885  15.808   0.943  23.310 -0.3103  0.0031 -0.1847
24121DPPC   PO429886  16.199   0.984  23.432  0.0792 -0.0871  0.1052
24121DPPC   GL129887  16.605   0.945  23.338 -0.1861  0.0274  0.0255
24121DPPC   GL229888  16.657   0.782  23.131 -0.1074  0.1342  0.2797
24121DPPC   C1A29889  16.772   0.912  23.673  0.0901  0.1726  0.3124
24121DPPC   C2A29890  17.078   0.852  23.913  0.1404  0.1056  0.3129
24121DPPC   C3A29891  17.454   0.906  24.201  0.0113  0.0348  0.1665
24121DPPC   C4A29892  17.774   0.863  24.596  0.2728 -0.0671 -0.2944
24121DPPC   C1B29893  17.010   0.766  23.160  0.1902  0.1865  0.1329
24121DPPC   C2B29894  17.283   0.766  23.428 -0.0815 -0.1965  0.2052
24121DPPC   C3B29895  17.569   0.784  23.743  0.1441  0.1976 -0.0624
24121DPPC   C4B29896  17.933   0.801  24.092  0.0176  0.0713  0.1217
24122DPPC   NC329897  16.329   0.022  22.834  0.2504  0.2206 -0.4623
24122DPPC   PO429898  16.475   0.360  22.862  0.0125  0.3477 -0.2738
24122DPPC   GL129899  16.887   0.283  23.023  0.0905  0.1423 -0.3853
24122DPPC   GL229900  16.774   0.270  23.253  0.2851 -0.2566  0.0512
24122DPPC   C1A29901  17.213   0.370  23.100  0.1150 -0.0370  0.2979
24122DPPC   C2A29902  17.483   0.337  23.368 -0.1242 -0.4084  0.0452
24122DPPC   C3A29903  17.841   0.304  23.717  0.2430  0.1275 -0.1598
24122DPPC   C4A29904  18.194   0.326  24.087  0.1739 -0.0444 -0.1105
24122DPPC   C1B29905  16.942   0.477  23.507 -0.0464  0.3278  0.0622
24122DPPC   C2B29906  17.227   0.392  23.781  0.3704 -0.2630 -0.2259
24122DPPC   C3B29907  17.525   0.433  24.153  0.0426  0.1691 -0.0480
24122DPPC   C4B29908  17.906   0.397  24.502  0.4021  0.3441  0.1015
24123DPPC   NC329909  15.087   6.499  24.519  0.0680 -0.1126  0.0390
24123DPPC   PO429910  14.955   6.513  24.915  0.0392 -0.0857  0.0956
24123DPPC   GL129911  15.033   6.586  25.360 -0.0251 -0.0841  0.4340
24123DPPC   GL229912  15.292   6.812  25.225  0.3111 -0.1247  0.0713
24123DPPC   C1A29913  15.110   6.432  25.667 -0.0329 -0.0370  0.1126
24123DPPC   C2A29914  15.212   6.340  26.058 -0.2336 -0.1450 -0.0418
24123DPPC   C3A29915  15.555   6.303  26.412 -0.5183 -0.1132 -0.2964
24123DPPC   C4A29916  15.818   6.210  26.851  0.0913 -0.1930 -0.1839
24123DPPC   C1B29917  15.534   6.861  25.476  0.0280 -0.0723  0.2331
24123DPPC   C2B29918  15.794   7.005  25.738 -0.1876 -0.0311  0.0026
24123DPPC   C3B29919  16.167   7.061  26.059  0.2697 -0.3392  0.0242
24123DPPC   C4B29920  16.391   7.050  26.494 -0.2068 -0.1033  0.1703
24124DPPC   NC329921  16.314   4.382  23.256  0.0671 -0.2591  0.0157
24124DPPC   PO429922  16.547   4.380  22.898 -0.1780 -0.0596 -0.2055
24124DPPC   GL129923  16.872   4.521  23.113  0.0604  0.1537 -0.2215
24124DPPC   GL229924  16.843   4.401  23.371 -0.2452  0.2588  0.2266
24124DPPC   C1A29925  17.248   4.384  23.177  0.1113 -0.0708 -0.1933
24124DPPC   C2A29926  17.558   4.303  23.465 -0.0207  0.0336 -0.1002
24124DPPC   C3A29927  17.830   4.332  23.879 -0.1321  0.2549 -0.2327
24124DPPC   C4A29928  18.121   4.288  24.236 -0.1307 -0.1894 -0.0839
24124DPPC   C1B29929  17.095   4.395  23.656 -0.4248  0.0233 -0.1100
24124DPPC   C2B29930  17.334   4.398  23.954  0.0951  0.1728  0.0525
24124DPPC   C3B29931  17.638   4.408  24.301  0.1385 -0.0973 -0.3342
24124DPPC   C4B29932  17.991   4.373  24.746  0.2739  0.2593 -0.1237
24125DPPC   NC329933  13.800   4.157  25.901 -0.3975  0.0823  0.0898
24125DPPC   PO429934  14.101   4.413  25.956 -0.0704  0.0214  0.1699
24125DPPC   GL129935  14.200   4.500  26.390  0.1475  0.1644 -0.0973
24125DPPC   GL229936  14.467   4.551  26.255  0.0281 -0.2998  0.1003
24125DPPC   C1A29937  14.126   4.507  26.743 -0.1191  0.2097 -0.0676
24125DPPC   C2A29938  13.979   4.462  27.133 -0.0488 -0.0093  0.1379
24125DPPC   C3A29939  13.738   4.425  27.504  0.1432 -0.1029 -0.2104
24125DPPC   C4A29940  13.594   4.362  27.987  0.0313 -0.2190 -0.0938
24125DPPC   C1B29941  14.718   4.586  26.506 -0.0328  0.0148  0.0193
24125DPPC   C2B29942  14.946   4.246  26.617  0.2540 -0.2143 -0.1937
24125DPPC   C3B29943  15.197   4.037  27.032  0.0804  0.0739 -0.2167
24125DPPC   C4B29944  15.139   3.952  27.541 -0.1322 -0.3197 -0.2839
24126DPPC   NC329945  15.638   2.168  23.629  0.0544  0.3012 -0.0495
24126DPPC   PO429946  15.883   1.873  23.676  0.0602  0.3135 -0.1393
24126DPPC   GL129947  16.111   1.761  23.947 -0.1587 -0.1010 -0.2489
24126DPPC   GL229948  15.935   1.512  24.113 -0.2862  0.1556 -0.2831
24126DPPC   C1A29949  16.311   1.863  24.248 -0.0740 -0.4219 -0.0867
24126DPPC   C2A29950  16.597   1.911  24.522 -0.0648 -0.1406 -0.1238
24126DPPC   C3A29951  16.870   1.910  24.891  0.3355  0.0560  0.2554
24126DPPC   C4A29952  17.216   1.858  25.248 -0.1391  0.2350  0.2292
24126DPPC   C1B29953  16.165   1.267  24.298  0.0815 -0.0063 -0.3160
24126DPPC   C2B29954  16.378   1.138  24.650  0.0911 -0.4844  0.3331
24126DPPC   C3B29955  16.727   1.055  25.017  0.0811 -0.2514  0.2499
24126DPPC   C4B29956  17.025   1.065  25.384  0.0242  0.2398  0.0409
24127DPPC   NC329957  14.149   0.037  25.761 -0.0177 -0.1113  0.0351
24127DPPC   PO429958  13.758   0.003  25.874 -0.0883 -0.3039 -0.0351
24127DPPC   GL129959  14.006  -0.191  26.197 -0.3767  0.3513 -0.0033
24127DPPC   GL229960  13.975   0.029  26.193 -0.0064 -0.0094  0.1169
24127DPPC   C1A29961  14.043  -0.398  26.515  0.2961  0.0322 -0.1222
24127DPPC   C2A29962  14.332  -0.303  26.788  0.0602 -0.0532  0.2333
24127DPPC   C3A29963  14.376  -0.020  27.235 -0.1897 -0.2122  0.0267
24127DPPC   C4A29964  13.967   0.035  27.550 -0.2291 -0.0279  0.1514
24127DPPC   C1B29965  14.006   0.088  26.561 -0.1535  0.1203 -0.0592
24127DPPC   C2B29966  13.758  -0.031  26.823  0.0325 -0.0504  0.0008
24127DPPC   C3B29967  13.574   0.056  27.239  0.0977 -0.0248 -0.0390
24127DPPC   C4B29968  13.217  -0.013  27.619 -0.2174  0.0683 -0.2033
24128DPPC   NC329969  14.482   4.087  24.447 -0.2953 -0.1325 -0.1286
24128DPPC   PO429970  14.888   4.132  24.449 -0.1741  0.1869 -0.1773
24128DPPC   GL129971  15.264   4.182  24.653  0.0155  0.2012  0.2951
24128DPPC   GL229972  15.383   3.919  24.648 -0.0247 -0.1279  0.0392
24128DPPC   C1A29973  15.427   4.353  24.948 -0.1714  0.0121  0.5242
24128DPPC   C2A29974  15.567   4.406  25.291 -0.1927 -0.0742 -0.1763
24128DPPC   C3A29975  15.821   4.437  25.724  0.3100  0.4184 -0.0551
24128DPPC   C4A29976  16.077   4.338  26.088 -0.1552  0.3060  0.0372
24128DPPC   C1B29977  15.582   3.919  24.997 -0.0863  0.5343  0.3205
24128DPPC   C2B29978  15.822   3.959  25.315  0.0194  0.0033 -0.2715
24128DPPC   C3B29979  16.109   3.974  25.732 -0.0369 -0.1440  0.4548
24128DPPC   C4B29980  16.438   3.981  26.094 -0.2583 -0.2218  0.2220
24129DPPC   NC329981  14.796   0.637  24.726 -0.0422  0.0755 -0.4216
24129DPPC   PO429982  15.075   0.390  24.853 -0.0682 -0.2640 -0.1366
24129DPPC   GL129983  15.441   0.216  24.797 -0.2427 -0.0851  0.2883
24129DPPC   GL229984  15.428  -0.007  24.852 -0.0923 -0.0853 -0.0899
24129DPPC   C1A29985  15.737   0.245  25.025  0.0917 -0.1730  0.0457
24129DPPC   C2A29986  16.046   0.361  25.235  0.2144 -0.1123 -0.4728
24129DPPC   C3A29987  16.318   0.352  25.579 -0.0436  0.0561 -0.0751
24129DPPC   C4A29988  16.678   0.352  25.866 -0.2262 -0.0812 -0.0255
24129DPPC   C1B29989  15.607  -0.136  25.162 -0.0550  0.0903  0.2662
24129DPPC   C2B29990  15.818  -0.136  25.539  0.0606 -0.1916  0.0869
24129DPPC   C3B29991  16.107  -0.037  25.864 -0.2060  0.0717  0.1401
24129DPPC   C4B29992  16.461  -0.036  26.176  0.1093  0.0190 -0.1207
24130DPPC   NC329993  13.541   4.324  25.154  0.3573 -0.0179 -0.0508
24130DPPC   PO429994  13.436   4.160  25.476  0.2338 -0.1631 -0.0450
24130DPPC   GL129995  13.273   4.194  25.908  0.0856 -0.0432  0.0869
24130DPPC   GL229996  13.455   4.458  25.948  0.3165  0.5462 -0.1069
24130DPPC   C1A29997  12.996   4.189  26.172  0.0381 -0.2485  0.1214
24130DPPC   C2A29998  12.811   4.236  26.529  0.4132  0.0977  0.1353
24130DPPC   C3A29999  12.573   4.204  26.908  0.1217 -0.1564 -0.1331
24130DPPC   C4A30000  12.369   4.265  27.298 -0.1221  0.1573 -0.0092
24130DPPC   C1B30001  13.258   4.501  26.266 -0.2402 -0.1596  0.0111
24130DPPC   C2B30002  13.083   4.638  26.658 -0.0050 -0.0657  0.2305
24130DPPC   C3B30003  12.937   4.640  27.119  0.0544  0.1780  0.2282
24130DPPC   C4B30004  12.685   4.545  27.548  0.3162  0.0130 -0.0351
24131DPPC   NC330005  16.378   3.648  23.058  0.0854 -0.0283 -0.0503
24131DPPC   PO430006  16.207   3.324  23.103 -0.1811 -0.0909 -0.2834
24131DPPC   GL130007  16.405   3.275  23.521 -0.0825 -0.0941  0.2383
24131DPPC   GL230008  16.549   3.563  23.445  0.2251  0.0766  0.0684
24131DPPC   C1A30009  16.652   3.134  23.769 -0.2167 -0.3175 -0.5580
24131DPPC   C2A30010  16.927   3.147  24.079  0.1538  0.2198  0.0991
24131DPPC   C3A30011  17.130   3.151  24.498 -0.1930 -0.1096 -0.0783
24131DPPC   C4A30012  17.448   3.114  24.858 -0.1032 -0.2556  0.2439
24131DPPC   C1B30013  16.874   3.595  23.554 -0.2712  0.1600 -0.0886
24131DPPC   C2B30014  17.160   3.537  23.879  0.1629 -0.1991 -0.1584
24131DPPC   C3B30015  17.473   3.505  24.226  0.1760  0.1477  0.0899
24131DPPC   C4B30016  17.781   3.462  24.599  0.1267  0.0383  0.1222
24132DPPC   NC330017  13.829   6.300  24.734 -0.0680  0.0896 -0.2488
24132DPPC   PO430018  13.653   5.979  24.920 -0.3176  0.0203  0.1449
24132DPPC   GL130019  13.228   5.908  25.037  0.0585  0.0649  0.4345
24132DPPC   GL230020  13.401   5.952  25.286 -0.0108 -0.0590  0.0187
24132DPPC   C1A30021  12.903   6.105  25.110 -0.2939  0.1894  0.2957
24132DPPC   C2A30022  12.772   6.143  25.538  0.1318  0.1821 -0.1213
24132DPPC   C3A30023  12.493   6.092  25.893  0.1900  0.0824 -0.2325
24132DPPC   C4A30024  12.142   6.129  26.285  0.3527 -0.0374  0.2025
24132DPPC   C1B30025  13.198   5.990  25.598 -0.0751  0.2020 -0.0034
24132DPPC   C2B30026  13.001   6.024  25.969 -0.2684 -0.0261  0.0193
24132DPPC   C3B30027  12.810   6.058  26.335  0.0633 -0.0363 -0.0661
24132DPPC   C4B30028  12.506   6.054  26.712 -0.1167  0.1927 -0.0097
24133DPPC   NC330029  13.711   5.605  25.256  0.1232  0.1801 -0.1410
24133DPPC   PO430030  13.858   5.924  25.385  0.2904 -0.1485 -0.1809
24133DPPC   GL130031  13.625   5.775  25.675 -0.0560 -0.3150  0.0543
24133DPPC   GL230032  13.399   5.586  25.634 -0.2848 -0.0412 -0.4222
24133DPPC   C1A30033  13.427   5.874  26.002 -0.6353  0.0543 -0.1261
24133DPPC   C2A30034  13.279   5.958  26.411 -0.0562  0.1007  0.1579
24133DPPC   C3A30035  13.001   5.968  26.812 -0.0279  0.4818 -0.4806
24133DPPC   C4A30036  12.716   5.967  27.246  0.2575  0.0583  0.0459
24133DPPC   C1B30037  13.259   5.453  25.865 -0.4056  0.3593  0.1277
24133DPPC   C2B30038  13.009   5.531  26.185  0.0652 -0.1009  0.1823
24133DPPC   C3B30039  12.728   5.586  26.610  0.0696  0.2282 -0.1379
24133DPPC   C4B30040  12.426   5.581  27.043  0.0537  0.0891  0.0233
24134DPPC   NC330041  13.363   5.689  23.572 -0.0520 -0.1607 -0.1760
24134DPPC   PO430042  13.177   6.041  23.728 -0.1336 -0.2672 -0.0563
24134DPPC   GL130043  12.805   6.166  23.851  0.2090  0.0679  0.0942
24134DPPC   GL230044  12.737   5.857  23.948  0.0010 -0.2725  0.0434
24134DPPC   C1A30045  12.491   6.266  24.098  0.2975  0.1153 -0.0248
24134DPPC   C2A30046  12.276   6.277  24.458  0.0938  0.1897 -0.0071
24134DPPC   C3A30047  12.014   6.290  24.870 -0.2795 -0.1206  0.1634
24134DPPC   C4A30048  11.733   6.306  25.286 -0.1824 -0.0376 -0.1204
24134DPPC   C1B30049  12.560   5.817  24.247  0.0172 -0.0130  0.0387
24134DPPC   C2B30050  12.375   5.786  24.641 -0.2531  0.0963 -0.1229
24134DPPC   C3B30051  12.109   5.843  25.015  0.0195 -0.2063  0.1845
24134DPPC   C4B30052  11.833   5.860  25.418 -0.2444  0.1331 -0.2380
24135DPPC   NC330053  14.399   2.143  25.542  0.0850 -0.1049  0.0133
24135DPPC   PO430054  14.157   2.418  25.737  0.3860 -0.0059 -0.0274
24135DPPC   GL130055  14.062   2.403  26.159  0.0341  0.3053 -0.0003
24135DPPC   GL230056  14.026   2.662  26.219 -0.3410 -0.0348 -0.1762
24135DPPC   C1A30057  13.841   2.101  26.331 -0.2768 -0.0144 -0.3948
24135DPPC   C2A30058  13.634   1.850  26.559 -0.1046 -0.1328 -0.2940
24135DPPC   C3A30059  13.391   1.854  27.009  0.0935  0.2024  0.0819
24135DPPC   C4A30060  13.118   1.824  27.402 -0.2298  0.0125  0.1617
24135DPPC   C1B30061  13.857   2.738  26.522  0.2362  0.1876 -0.1218
24135DPPC   C2B30062  13.668   2.681  26.884 -0.0126  0.1638  0.0518
24135DPPC   C3B30063  13.384   2.712  27.254 -0.2812 -0.0793 -0.3857
24135DPPC   C4B30064  13.194   2.600  27.671 -0.1551  0.0360 -0.0566
24136DPPC   NC330065  13.868   6.129  25.863  0.0746  0.1344 -0.0866
24136DPPC   PO430066  14.269   6.160  25.889 -0.2394 -0.0931  0.4113
24136DPPC   GL130067  14.606   6.173  26.144 -0.2203 -0.0961  0.1880
24136DPPC   GL230068  14.754   6.336  26.143 -0.3787 -0.0871  0.5305
24136DPPC   C1A30069  14.650   6.024  26.474 -0.1724 -0.1025  0.0221
24136DPPC   C2A30070  14.843   6.007  26.833 -0.2758 -0.0097 -0.2885
24136DPPC   C3A30071  15.065   6.004  27.243  0.0441 -0.2681 -0.0765
24136DPPC   C4A30072  15.307   5.907  27.564 -0.3205 -0.0991  0.1217
24136DPPC   C1B30073  14.992   6.352  26.493 -0.2025  0.0517 -0.0009
24136DPPC   C2B30074  15.264   6.335  26.848  0.0241  0.0881 -0.1569
24136DPPC   C3B30075  15.492   6.367  27.250 -0.0161 -0.2709  0.0818
24136DPPC   C4B30076  15.659   6.194  27.685 -0.1734  0.3537 -0.0300
24137DPPC   NC330077  14.064   2.351  25.230 -0.0796 -0.1276 -0.1372
24137DPPC   PO430078  13.835   2.068  25.388  0.0291 -0.1280  0.1622
24137DPPC   GL130079  13.478   1.966  25.268 -0.3784  0.0622 -0.4964
24137DPPC   GL230080  13.494   1.803  25.569 -0.2375  0.2079 -0.0077
24137DPPC   C1A30081  13.221   2.016  25.024 -0.2585 -0.1487  0.2841
24137DPPC   C2A30082  12.923   2.204  25.150 -0.1908  0.2149  0.2886
24137DPPC   C3A30083  12.647   2.241  25.540  0.3610 -0.1717 -0.0136
24137DPPC   C4A30084  12.376   2.186  25.967  0.1237  0.0260 -0.2146
24137DPPC   C1B30085  13.329   1.707  25.901  0.3024  0.2337  0.2685
24137DPPC   C2B30086  13.097   1.594  26.199 -0.3207  0.0812  0.0662
24137DPPC   C3B30087  12.799   1.595  26.563  0.0959 -0.1580  0.0837
24137DPPC   C4B30088  12.489   1.544  26.939  0.1202  0.0732  0.1757
24138DPPC   NC330089  15.979   0.540  22.642  0.0998 -0.0707 -0.0578
24138DPPC   PO430090  15.927   0.302  22.947 -0.2038  0.1610 -0.0448
24138DPPC   GL130091  16.275   0.281  23.237  0.1387  0.0688  0.1419
24138DPPC   GL230092  16.287   0.013  23.322 -0.1914  0.1149 -0.0456
24138DPPC   C1A30093  16.369   0.492  23.536 -0.0142  0.2665 -0.0727
24138DPPC   C2A30094  16.544   0.509  23.903  0.1928 -0.2841  0.1619
24138DPPC   C3A30095  16.846   0.515  24.249  0.0703 -0.0585  0.0568
24138DPPC   C4A30096  17.203   0.486  24.600 -0.1693  0.2716 -0.1801
24138DPPC   C1B30097  16.545   0.018  23.593 -0.0092  0.1006  0.0010
24138DPPC   C2B30098  16.803   0.033  23.904 -0.2122  0.0278 -0.1861
24138DPPC   C3B30099  17.111   0.079  24.242  0.1245  0.1844  0.0138
24138DPPC   C4B30100  17.500   0.069  24.564  0.2250 -0.3400  0.1259
24139DPPC   NC330101  13.305   3.824  24.662  0.1305  0.2647  0.2324
24139DPPC   PO430102  13.140   3.515  24.473 -0.2606  0.0401  0.1301
24139DPPC   GL130103  12.979   3.499  24.842 -0.1618  0.1894  0.0698
24139DPPC   GL230104  13.002   3.168  24.805  0.2312  0.0657  0.0220
24139DPPC   C1A30105  12.870   3.538  25.216  0.1229 -0.1920 -0.1929
24139DPPC   C2A30106  12.656   3.500  25.531  0.1350 -0.1008 -0.0268
24139DPPC   C3A30107  12.379   3.485  25.947  0.1485 -0.1346  0.0023
24139DPPC   C4A30108  12.089   3.493  26.336  0.0096  0.1055 -0.2053
24139DPPC   C1B30109  12.741   3.148  24.962  0.1856  0.2781  0.1650
24139DPPC   C2B30110  12.411   3.135  25.205 -0.0723  0.1183 -0.0917
24139DPPC   C3B30111  12.184   3.101  25.567 -0.1403 -0.0160 -0.0124
24139DPPC   C4B30112  11.908   3.127  26.009  0.0779 -0.0573 -0.2427
24140DPPC   NC330113  16.212   5.166  23.272  0.2463 -0.2081 -0.3292
24140DPPC   PO430114  16.185   5.409  22.965 -0.1081  0.1764 -0.1853
24140DPPC   GL130115  16.632   5.505  22.819 -0.0895 -0.2466 -0.2567
24140DPPC   GL230116  16.612   5.781  22.940 -0.1422 -0.0136 -0.0229
24140DPPC   C1A30117  16.912   5.446  23.083  0.5794 -0.0985  0.1203
24140DPPC   C2A30118  17.069   5.315  23.408  0.1197  0.0285 -0.1280
24140DPPC   C3A30119  17.322   5.223  23.846  0.0458  0.0905 -0.0844
24140DPPC   C4A30120  17.717   5.268  24.149  0.1602  0.0332 -0.3762
24140DPPC   C1B30121  16.780   5.878  23.258  0.3511 -0.0832 -0.0490
24140DPPC   C2B30122  16.974   5.737  23.633 -0.0123 -0.0404 -0.0113
24140DPPC   C3B30123  17.278   5.726  23.968  0.1255 -0.0258  0.2680
24140DPPC   C4B30124  17.592   5.762  24.233 -0.2029  0.1324 -0.1604
24141DPPC   NC330125  12.947   2.790  24.069  0.5140  0.0902 -0.0759
24141DPPC   PO430126  13.011   3.148  24.001 -0.2985 -0.4717 -0.0848
24141DPPC   GL130127  12.619   3.328  24.261  0.0063 -0.5236  0.3020
24141DPPC   GL230128  12.516   3.127  24.135  0.1675 -0.2473 -0.3964
24141DPPC   C1A30129  12.604   3.439  24.623  0.1856 -0.0515 -0.1161
24141DPPC   C2A30130  12.484   3.642  24.966  0.0942  0.0891  0.0628
24141DPPC   C3A30131  12.143   3.598  25.340  0.4147 -0.1008  0.2099
24141DPPC   C4A30132  11.873   3.597  25.800 -0.2433 -0.0406  0.1008
24141DPPC   C1B30133  12.319   3.169  24.438  0.1119  0.2577 -0.1298
24141DPPC   C2B30134  12.136   3.248  24.806 -0.0526 -0.0557 -0.0084
24141DPPC   C3B30135  11.859   3.216  25.197 -0.0601 -0.0844 -0.1979
24141DPPC   C4B30136  11.563   3.193  25.643 -0.0230 -0.1711 -0.3396
24142DPPC   NC330137  15.534   3.752  24.234  0.0059  0.1178 -0.4880
24142DPPC   PO430138  15.564   4.154  24.203  0.0196  0.1081 -0.0872
24142DPPC   GL130139  15.740   4.163  24.583  0.3109 -0.2549  0.0817
24142DPPC   GL230140  15.890   3.899  24.494  0.0666 -0.2203  0.1120
24142DPPC   C1A30141  15.890   4.291  24.914  0.0799 -0.1974  0.0203
24142DPPC   C2A30142  16.152   4.376  25.286  0.3050  0.1317  0.0299
24142DPPC   C3A30143  16.490   4.386  25.631 -0.0102 -0.0807  0.2014
24142DPPC   C4A30144  16.802   4.335  26.058  0.3598  0.1605  0.4278
24142DPPC   C1B30145  16.078   3.882  24.830 -0.0041 -0.1392 -0.1084
24142DPPC   C2B30146  16.367   3.939  25.166 -0.0952  0.3131 -0.1767
24142DPPC   C3B30147  16.595   3.911  25.552  0.1138 -0.1252 -0.2003
24142DPPC   C4B30148  16.984   4.175  25.623 -0.2625 -0.0570  0.1553
24143DPPC   NC330149  17.023   3.521  22.692  0.1664  0.0716 -0.1745
24143DPPC   PO430150  16.759   3.805  22.745  0.2888 -0.0263 -0.1985
24143DPPC   GL130151  16.916   4.002  23.180 -0.3919  0.1664 -0.2531
24143DPPC   GL230152  16.644   4.009  23.250  0.5227 -0.2161 -0.0946
24143DPPC   C1A30153  17.150   4.006  23.500  0.0173  0.2226 -0.0435
24143DPPC   C2A30154  17.448   3.946  23.771 -0.1992  0.0627 -0.1157
24143DPPC   C3A30155  17.796   3.908  24.177 -0.1208 -0.4299 -0.3727
24143DPPC   C4A30156  18.118   3.876  24.579  0.0784  0.2329  0.0829
24143DPPC   C1B30157  16.724   4.092  23.615  0.0745 -0.3244  0.3570
24143DPPC   C2B30158  16.911   3.961  23.899  0.0782 -0.3918 -0.1874
24143DPPC   C3B30159  17.182   4.030  24.260 -0.1021 -0.1248 -0.2722
24143DPPC   C4B30160  17.533   4.017  24.664  0.0571  0.0271  0.0739
24144DPPC   NC330161  13.647   3.317  25.653 -0.0946 -0.2384 -0.1257
24144DPPC   PO430162  13.827   3.648  25.843 -0.1802 -0.1532  0.1495
24144DPPC   GL130163  13.682   3.635  26.308 -0.5265  0.0027  0.0848
24144DPPC   GL230164  13.809   3.938  26.329  0.1789  0.1218  0.0073
24144DPPC   C1A30165  13.454   3.689  26.617 -0.1316 -0.3139  0.5256
24144DPPC   C2A30166  13.302   3.673  26.960 -0.0934  0.4838  0.0314
24144DPPC   C3A30167  13.046   3.633  27.279 -0.1086 -0.1123  0.0254
24144DPPC   C4A30168  12.886   3.495  27.749 -0.0439  0.1309  0.0835
24144DPPC   C1B30169  13.520   4.163  26.359 -0.0513 -0.1570 -0.1219
24144DPPC   C2B30170  13.345   4.201  26.691 -0.1279  0.2958 -0.1319
24144DPPC   C3B30171  13.050   4.129  27.156 -0.3123 -0.2155  0.0896
24144DPPC   C4B30172  12.814   4.071  27.592 -0.2083  0.0054  0.2883
24145DPPC   NC330173  14.874   3.204  24.260 -0.0672  0.0120  0.0413
24145DPPC   PO430174  15.068   3.106  24.642  0.1259 -0.0598  0.0517
24145DPPC   GL130175  15.361   3.112  24.885 -0.0443  0.0525 -0.3318
24145DPPC   GL230176  15.317   2.895  25.102 -0.0036 -0.0920  0.2653
24145DPPC   C1A30177  15.605   3.218  25.136 -0.0397  0.1128 -0.2666
24145DPPC   C2A30178  15.801   3.153  25.505  0.2224 -0.0796  0.2266
24145DPPC   C3A30179  16.066   3.137  25.852  0.0928 -0.2455 -0.0286
24145DPPC   C4A30180  16.293   3.106  26.353  0.1560  0.1255  0.1506
24145DPPC   C1B30181  15.452   2.802  25.403  0.2664 -0.3402 -0.0893
24145DPPC   C2B30182  15.637   2.727  25.772  0.3357  0.0536 -0.2681
24145DPPC   C3B30183  15.844   2.671  26.223 -0.0977  0.0479 -0.0774
24145DPPC   C4B30184  15.986   2.831  26.674  0.3045  0.1199 -0.1943
24146DPPC   NC330185  14.245   2.912  25.898  0.2966  0.0579 -0.0753
24146DPPC   PO430186  14.196   3.251  25.745 -0.2870 -0.2817  0.0483
24146DPPC   GL130187  14.202   3.513  26.084 -0.0704 -0.0802  0.1095
24146DPPC   GL230188  14.298   3.225  26.264 -0.1243 -0.2978 -0.0009
24146DPPC   C1A30189  14.253   3.837  26.248  0.1594 -0.0619 -0.3560
24146DPPC   C2A30190  14.433   4.067  26.546  0.1835  0.0259 -0.2736
24146DPPC   C3A30191  14.546   4.395  26.902  0.1765  0.0072  0.0848
24146DPPC   C4A30192  14.997   4.639  26.988  0.4043 -0.2607 -0.0344
24146DPPC   C1B30193  14.270   3.067  26.587  0.0598 -0.2331  0.1929
24146DPPC   C2B30194  13.988   3.082  26.867 -0.1785  0.3741 -0.0754
24146DPPC   C3B30195  13.815   3.040  27.322 -0.0587 -0.3612  0.0369
24146DPPC   C4B30196  14.043   3.034  27.780  0.1182 -0.0649 -0.2027
24147DPPC   NC330197  13.410   4.866  24.876 -0.1040 -0.1734 -0.0582
24147DPPC   PO430198  13.533   4.828  25.257 -0.2933 -0.1704  0.1611
24147DPPC   GL130199  13.491   4.846  25.663  0.4273  0.0208  0.2748
24147DPPC   GL230200  13.253   4.624  25.649 -0.1673  0.2800 -0.0403
24147DPPC   C1A30201  13.369   5.007  25.957  0.3402 -0.2210 -0.1479
24147DPPC   C2A30202  13.162   5.069  26.334  0.0180 -0.3226 -0.0307
24147DPPC   C3A30203  12.916   5.103  26.752  0.0409  0.4663 -0.0540
24147DPPC   C4A30204  12.671   5.130  27.134  0.1996 -0.0085  0.1663
24147DPPC   C1B30205  13.021   4.677  25.895  0.5362 -0.0168 -0.0201
24147DPPC   C2B30206  12.798   4.719  26.283  0.4299 -0.2512  0.2840
24147DPPC   C3B30207  12.575   4.732  26.722  0.1059 -0.0045 -0.2114
24147DPPC   C4B30208  12.345   4.722  27.121 -0.3016  0.0644  0.2672
24148DPPC   NC330209  15.336   1.049  24.383  0.4038 -0.1131 -0.3603
24148DPPC   PO430210  15.233   0.697  24.508 -0.2333 -0.0944 -0.0603
24148DPPC   GL130211  15.541   0.650  24.828 -0.3776 -0.0286  0.0340
24148DPPC   GL230212  15.426   0.559  25.094  0.3858  0.0775 -0.1204
24148DPPC   C1A30213  15.802   0.735  25.065 -0.5329  0.0173  0.1236
24148DPPC   C2A30214  16.003   0.834  25.403 -0.1868 -0.1122 -0.3807
24148DPPC   C3A30215  16.345   0.831  25.756  0.0536  0.1563 -0.1049
24148DPPC   C4A30216  16.602   0.825  26.186 -0.0480  0.0630 -0.2228
24148DPPC   C1B30217  15.510   0.676  25.446  0.1596 -0.0208  0.1707
24148DPPC   C2B30218  15.435   0.709  25.860 -0.1359  0.0546 -0.0553
24148DPPC   C3B30219  15.654   0.527  26.267 -0.3102  0.0042  0.0313
24148DPPC   C4B30220  15.898   0.434  26.710  0.1571  0.4642 -0.2662
24149DPPC   NC330221  16.646   5.032  22.571 -0.2419  0.2032  0.1849
24149DPPC   PO430222  16.364   4.913  22.890  0.0987 -0.1433 -0.2216
24149DPPC   GL130223  16.538   4.740  23.303 -0.2140 -0.2180 -0.0893
24149DPPC   GL230224  16.663   5.009  23.319  0.2397  0.0895  0.4432
24149DPPC   C1A30225  16.472   4.673  23.694  0.0217 -0.1296 -0.0067
24149DPPC   C2A30226  16.744   4.456  23.949 -0.1196  0.0456 -0.1323
24149DPPC   C3A30227  17.043   4.495  24.351 -0.1428 -0.1338 -0.0460
24149DPPC   C4A30228  17.303   4.553  24.754  0.0126  0.0142  0.2942
24149DPPC   C1B30229  16.918   4.943  23.592  0.2825  0.1491  0.1142
24149DPPC   C2B30230  17.075   4.842  23.958 -0.0000 -0.3468  0.1174
24149DPPC   C3B30231  17.386   4.956  24.343 -0.0298  0.3504  0.0388
24149DPPC   C4B30232  17.708   4.854  24.697  0.2108 -0.1477 -0.2019
24150DPPC   NC330233  15.559   1.386  23.093 -0.0817 -0.0238  0.3011
24150DPPC   PO430234  15.766   1.434  23.433  0.0243  0.0497 -0.0493
24150DPPC   GL130235  16.108   1.440  23.586 -0.2576 -0.1942 -0.1257
24150DPPC   GL230236  16.290   1.679  23.418 -0.0170  0.1242 -0.1189
24150DPPC   C1A30237  16.374   1.419  23.857  0.0802  0.1279  0.1744
24150DPPC   C2A30238  16.545   1.466  24.258  0.0478 -0.0984  0.1206
24150DPPC   C3A30239  16.835   1.441  24.675 -0.0850  0.1374  0.2141
24150DPPC   C4A30240  17.162   1.417  25.044 -0.1241  0.2013  0.0632
24150DPPC   C1B30241  16.524   1.799  23.717  0.2688 -0.4579 -0.5227
24150DPPC   C2B30242  16.776   1.794  24.020  0.2322 -0.0561  0.2685
24150DPPC   C3B30243  17.103   1.848  24.362 -0.0821 -0.0366 -0.2956
24150DPPC   C4B30244  17.430   1.815  24.765 -0.0286  0.0986  0.0490
24151DPPC   NC330245  12.799   4.453  23.606  0.1225 -0.4078 -0.0695
24151DPPC   PO430246  12.786   4.119  23.812  0.1019 -0.2211 -0.1202
24151DPPC   GL130247  12.540   3.954  24.022  0.1751 -0.1876  0.2422
24151DPPC   GL230248  12.310   4.143  23.921  0.0744  0.1171  0.1187
24151DPPC   C1A30249  12.371   3.696  24.293  0.2985  0.3133 -0.1798
24151DPPC   C2A30250  12.062   3.623  24.549  0.2788  0.3879  0.0453
24151DPPC   C3A30251  11.885   3.658  24.947 -0.1080 -0.0117  0.3082
24151DPPC   C4A30252  11.553   3.712  25.375 -0.1133 -0.1251  0.0047
24151DPPC   C1B30253  12.097   4.115  24.200 -0.1593  0.0822 -0.2514
24151DPPC   C2B30254  11.963   4.179  24.553  0.1942 -0.3685 -0.0462
24151DPPC   C3B30255  11.774   4.131  24.909 -0.0774 -0.0590 -0.4078
24151DPPC   C4B30256  11.455   4.195  25.267  0.3436 -0.1031 -0.2882
24152DPPC   NC330257  16.177   5.833  22.696  0.0149  0.0466 -0.1222
24152DPPC   PO430258  16.264   6.201  22.689 -0.3600  0.0948  0.0140
24152DPPC   GL130259  16.604   6.318  23.018  0.0256  0.1881 -0.0746
24152DPPC   GL230260  16.835   6.134  22.887  0.0252 -0.2373  0.1346
24152DPPC   C1A30261  16.830   6.452  23.278  0.0889 -0.0859 -0.0815
24152DPPC   C2A30262  17.122   6.619  23.483 -0.2232  0.1220  0.1068
24152DPPC   C3A30263  17.419   6.557  23.816  0.1655  0.0471  0.1196
24152DPPC   C4A30264  17.815   6.629  24.102 -0.2849  0.1442 -0.1437
24152DPPC   C1B30265  17.122   6.171  23.095  0.1999  0.0425 -0.1759
24152DPPC   C2B30266  17.306   6.160  23.451  0.0423  0.1401 -0.2414
24152DPPC   C3B30267  17.609   6.114  23.830  0.1964  0.2502 -0.5948
24152DPPC   C4B30268  17.960   6.076  24.111  0.0710  0.1602  0.0154
24153DPPC   NC330269  16.118   2.962  23.397 -0.1496  0.2537 -0.0272
24153DPPC   PO430270  15.963   3.152  23.728 -0.2436 -0.1070 -0.0164
24153DPPC   GL130271  16.172   3.195  24.059 -0.1733  0.0671  0.0973
24153DPPC   GL230272  16.126   2.916  24.248  0.2234  0.2838  0.0342
24153DPPC   C1A30273  16.390   3.310  24.309  0.1383  0.3699  0.1794
24153DPPC   C2A30274  16.641   3.252  24.628  0.1085  0.0635  0.0062
24153DPPC   C3A30275  16.971   3.256  24.998 -0.0924 -0.0779  0.2926
24153DPPC   C4A30276  17.238   3.187  25.424  0.0965  0.3107 -0.0653
24153DPPC   C1B30277  16.336   2.925  24.518 -0.0784  0.0478  0.0702
24153DPPC   C2B30278  16.515   2.853  24.917  0.3939  0.1247  0.0048
24153DPPC   C3B30279  16.822   2.873  25.284 -0.0416 -0.2523  0.2527
24153DPPC   C4B30280  17.075   2.757  25.767 -0.1270 -0.2326 -0.3823
24154DPPC   NC330281  13.410   2.375  24.686 -0.2187 -0.2518  0.0741
24154DPPC   PO430282  13.632   2.440  25.001 -0.1538 -0.1160 -0.0987
24154DPPC   GL130283  13.265   2.523  25.286  0.2013 -0.1537 -0.3745
24154DPPC   GL230284  13.320   2.316  25.460  0.0081  0.1153  0.1965
24154DPPC   C1A30285  12.961   2.547  25.556 -0.0423  0.0667  0.3139
24154DPPC   C2A30286  12.853   2.555  25.930 -0.0239 -0.0956 -0.0266
24154DPPC   C3A30287  12.500   2.532  26.299  0.2117  0.3526  0.0793
24154DPPC   C4A30288  12.225   2.535  26.697  0.2740  0.0822  0.2893
24154DPPC   C1B30289  13.168   2.178  25.841 -0.0092  0.4602 -0.0188
24154DPPC   C2B30290  12.859   2.050  26.119  0.0546 -0.1316 -0.2580
24154DPPC   C3B30291  12.554   2.097  26.465  0.0136  0.0573 -0.0539
24154DPPC   C4B30292  12.340   2.086  26.914 -0.1848  0.0259  0.2832
24155DPPC   NC330293  13.526   3.079  23.933  0.0986 -0.0011  0.0154
24155DPPC   PO430294  13.524   2.889  24.257  0.0045 -0.1718 -0.0949
24155DPPC   GL130295  13.224   2.786  24.566  0.2104 -0.4585 -0.2523
24155DPPC   GL230296  13.140   3.007  24.436  0.3902 -0.1901  0.4223
24155DPPC   C1A30297  12.955   2.679  24.849 -0.0031 -0.2707  0.2023
24155DPPC   C2A30298  12.734   2.716  25.187  0.1478  0.0672  0.1747
24155DPPC   C3A30299  12.420   2.682  25.580  0.2670  0.0119  0.0036
24155DPPC   C4A30300  12.203   2.648  25.959  0.1896 -0.1743 -0.0767
24155DPPC   C1B30301  12.764   2.951  24.488  0.2820 -0.3288 -0.1162
24155DPPC   C2B30302  12.443   2.776  24.774 -0.0971  0.0305 -0.2555
24155DPPC   C3B30303  12.106   2.780  25.183  0.4430  0.0945 -0.1608
24155DPPC   C4B30304  11.802   2.782  25.547 -0.0772 -0.1891 -0.0074
24156DPPC   NC330305  15.825   2.681  23.921 -0.0953  0.1265  0.3951
24156DPPC   PO430306  15.665   2.691  24.312 -0.0337 -0.2142  0.0209
24156DPPC   GL130307  15.980   2.480  24.585 -0.0117  0.1837  0.3245
24156DPPC   GL230308  15.718   2.341  24.642  0.3348 -0.1639  0.0784
24156DPPC   C1A30309  16.126   2.465  24.896 -0.1634 -0.1459 -0.1549
24156DPPC   C2A30310  16.383   2.508  25.232 -0.1649  0.1041  0.0236
24156DPPC   C3A30311  16.677   2.413  25.674 -0.1863 -0.0288  0.1639
24156DPPC   C4A30312  16.930   2.399  26.106  0.1213 -0.2125  0.0047
24156DPPC   C1B30313  15.697   2.252  24.994 -0.2353  0.1905  0.2769
24156DPPC   C2B30314  15.942   2.113  25.283 -0.0976  0.1444 -0.2558
24156DPPC   C3B30315  16.252   2.174  25.654 -0.1692 -0.0103 -0.2504
24156DPPC   C4B30316  16.470   2.070  26.087  0.1005  0.1792 -0.1693
24157DPPC   NC330317  14.402   4.263  25.086 -0.0071  0.2221  0.0057
24157DPPC   PO430318  14.345   4.372  25.442  0.2263  0.0931 -0.0983
24157DPPC   GL130319  14.600   4.300  25.779 -0.1860  0.0829 -0.1669
24157DPPC   GL230320  14.613   4.608  25.849 -0.1713  0.1187 -0.2588
24157DPPC   C1A30321  14.688   4.078  26.072  0.3993 -0.1567  0.1040
24157DPPC   C2A30322  14.893   3.852  26.376  0.0981 -0.0561  0.0042
24157DPPC   C3A30323  15.175   3.665  26.706 -0.0264 -0.3245 -0.0557
24157DPPC   C4A30324  15.361   3.611  27.158  0.0306  0.0123  0.0493
24157DPPC   C1B30325  14.917   4.599  26.105 -0.1023 -0.1443  0.1633
24157DPPC   C2B30326  15.186   4.607  26.416 -0.3575 -0.1095 -0.1992
24157DPPC   C3B30327  15.450   4.536  26.757  0.0406 -0.0758 -0.0238
24157DPPC   C4B30328  15.677   4.416  27.150 -0.2481 -0.1577  0.3367
24158DPPC   NC330329  13.287   3.851  25.140 -0.1457  0.0934  0.1592
24158DPPC   PO430330  13.592   3.733  25.369 -0.3691  0.1663 -0.3380
24158DPPC   GL130331  13.304   3.775  25.755 -0.4776 -0.0802  0.1700
24158DPPC   GL230332  13.076   3.809  25.527  0.1492 -0.2031  0.0830
24158DPPC   C1A30333  13.281   3.831  26.125  0.0104 -0.1103  0.0162
24158DPPC   C2A30334  13.007   3.795  26.460  0.0347 -0.0472 -0.2299
24158DPPC   C3A30335  12.844   3.834  26.866 -0.0362  0.2618  0.1058
24158DPPC   C4A30336  12.583   3.764  27.295 -0.1663 -0.1370  0.0600
24158DPPC   C1B30337  12.834   3.866  25.807 -0.1126  0.2857 -0.1225
24158DPPC   C2B30338  12.671   3.895  26.162  0.3156  0.2620  0.0360
24158DPPC   C3B30339  12.335   3.921  26.498  0.4593 -0.2716 -0.2664
24158DPPC   C4B30340  12.116   3.959  26.930 -0.1832  0.0335 -0.1582
24159DPPC   NC330341  13.933   0.745  26.187  0.0393 -0.0534 -0.0984
24159DPPC   PO430342  14.122   0.436  26.064 -0.1314 -0.0007 -0.3175
24159DPPC   GL130343  14.330   0.351  26.438  0.3655  0.0875 -0.1302
24159DPPC   GL230344  14.572   0.454  26.402 -0.1782  0.4276 -0.0277
24159DPPC   C1A30345  14.287   0.354  26.814 -0.0208  0.3261  0.2453
24159DPPC   C2A30346  14.044   0.471  27.121 -0.3621  0.1458  0.0479
24159DPPC   C3A30347  13.790   0.461  27.526 -0.0215 -0.3050 -0.3878
24159DPPC   C4A30348  13.487   0.445  27.915 -0.1828  0.1115  0.0213
24159DPPC   C1B30349  14.842   0.314  26.640  0.2172 -0.1020 -0.1134
24159DPPC   C2B30350  15.076   0.265  26.963  0.0318 -0.3364 -0.2620
24159DPPC   C3B30351  15.301   0.276  27.402 -0.1094  0.2222 -0.1439
24159DPPC   C4B30352  15.673   0.321  27.695 -0.0934 -0.0560 -0.1316
24160DPPC   NC330353  14.447   3.460  25.082 -0.0368  0.3384  0.0168
24160DPPC   PO430354  14.426   3.095  25.213 -0.0571  0.0240 -0.1799
24160DPPC   GL130355  14.610   3.000  25.545 -0.6233  0.2076 -0.2289
24160DPPC   GL230356  14.905   2.973  25.494  0.1233 -0.1233  0.0783
24160DPPC   C1A30357  14.692   2.961  25.951  0.0899  0.1117 -0.0180
24160DPPC   C2A30358  14.629   2.910  26.374 -0.0115 -0.0518 -0.2950
24160DPPC   C3A30359  14.604   2.866  26.840  0.1558  0.2111  0.1768
24160DPPC   C4A30360  14.640   2.416  27.128  0.0566  0.1968  0.1826
24160DPPC   C1B30361  15.083   2.856  25.809 -0.2708  0.3068 -0.2260
24160DPPC   C2B30362  15.299   2.803  26.170  0.0113  0.0062 -0.0828
24160DPPC   C3B30363  15.452   2.748  26.608 -0.0514  0.0614  0.2480
24160DPPC   C4B30364  15.659   2.666  27.026  0.0617  0.3804  0.0838
24161DPPC   NC330365  15.990   1.144  23.861  0.0416 -0.0475 -0.1759
24161DPPC   PO430366  15.672   1.001  23.991  0.0376  0.2015  0.0502
24161DPPC   GL130367  15.798   0.886  24.404 -0.2771  0.3799  0.0145
24161DPPC   GL230368  15.673   0.595  24.345  0.0961 -0.0322 -0.4644
24161DPPC   C1A30369  16.002   0.849  24.712 -0.0994  0.0151  0.0848
24161DPPC   C2A30370  16.312   0.733  25.013 -0.2048 -0.3996  0.1756
24161DPPC   C3A30371  16.658   0.701  25.384  0.0342  0.0831  0.3286
24161DPPC   C4A30372  16.956   0.727  25.721  0.0310 -0.2588 -0.0731
24161DPPC   C1B30373  15.824   0.308  24.508 -0.0702 -0.2871  0.1495
24161DPPC   C2B30374  16.164   0.279  24.783 -0.2552  0.2165  0.0248
24161DPPC   C3B30375  16.521   0.260  25.036  0.1050  0.0358  0.1967
24161DPPC   C4B30376  16.815   0.214  25.389 -0.2163 -0.0772  0.0171
24162DPPC   NC330377  13.396   5.553  24.584  0.0058 -0.0017  0.2340
24162DPPC   PO430378  13.616   5.352  24.876 -0.1824  0.0847 -0.2539
24162DPPC   GL130379  13.313   5.285  25.224 -0.2658 -0.1921 -0.3590
24162DPPC   GL230380  13.216   5.473  25.132 -0.1707 -0.2765 -0.1284
24162DPPC   C1A30381  13.122   5.203  25.498 -0.2206 -0.0642  0.0105
24162DPPC   C2A30382  12.928   5.116  25.865 -0.2005  0.0789  0.2354
24162DPPC   C3A30383  12.616   5.171  26.230  0.0010 -0.1627 -0.3925
24162DPPC   C4A30384  12.360   5.205  26.702  0.1765 -0.2238 -0.1838
24162DPPC   C1B30385  12.999   5.665  25.400 -0.1875  0.1900  0.0905
24162DPPC   C2B30386  12.839   5.618  25.765  0.0583  0.2081 -0.0063
24162DPPC   C3B30387  12.500   5.645  26.115 -0.2203  0.1144 -0.1443
24162DPPC   C4B30388  12.242   5.671  26.510 -0.1621 -0.0792 -0.1984
24163DPPC   NC330389  13.900   5.121  25.284 -0.0883 -0.0782 -0.0156
24163DPPC   PO430390  13.735   5.247  25.625  0.4005 -0.0166  0.0821
24163DPPC   GL130391  13.851   5.262  26.077 -0.0192  0.0513  0.0513
24163DPPC   GL230392  13.637   5.474  26.074 -0.0369 -0.2005  0.2743
24163DPPC   C1A30393  13.711   5.144  26.385 -0.0148 -0.0861 -0.4667
24163DPPC   C2A30394  13.482   5.025  26.749  0.0036 -0.1709  0.3008
24163DPPC   C3A30395  13.206   5.082  27.142 -0.1325 -0.4772 -0.2368
24163DPPC   C4A30396  12.967   4.948  27.547 -0.2901 -0.1033 -0.1090
24163DPPC   C1B30397  13.482   5.511  26.402  0.0936  0.3146  0.1458
24163DPPC   C2B30398  13.224   5.512  26.757 -0.3040  0.1128 -0.0803
24163DPPC   C3B30399  12.968   5.537  27.140 -0.3124  0.0384  0.1848
24163DPPC   C4B30400  12.660   5.481  27.496 -0.4705  0.2535  0.1568
24164DPPC   NC330401  16.848   2.662  22.892  0.3000  0.1425  0.0540
24164DPPC   PO430402  16.473   2.831  22.779 -0.1535 -0.0246  0.3123
24164DPPC   GL130403  16.536   2.978  23.220 -0.3479 -0.2118  0.0244
24164DPPC   GL230404  16.546   2.700  23.263  0.0324 -0.1506 -0.1664
24164DPPC   C1A30405  16.854   3.126  23.362  0.0059  0.3569  0.0689
24164DPPC   C2A30406  17.142   3.073  23.597 -0.1275 -0.0531  0.2358
24164DPPC   C3A30407  17.402   3.029  23.959 -0.1424  0.2090  0.0338
24164DPPC   C4A30408  17.680   3.047  24.375  0.0847 -0.1901  0.1729
24164DPPC   C1B30409  16.785   2.718  23.551  0.2469  0.1305  0.0635
24164DPPC   C2B30410  16.944   2.616  23.927  0.0986  0.0668 -0.1584
24164DPPC   C3B30411  17.238   2.679  24.296  0.2778 -0.0492  0.2010
24164DPPC   C4B30412  17.565   2.647  24.646 -0.0555  0.0890 -0.1918
24165DPPC   NC330413  14.423   3.329  24.251 -0.2017  0.0354  0.1107
24165DPPC   PO430414  14.534   3.533  24.603  0.0481 -0.1507  0.0582
24165DPPC   GL130415  14.818   3.453  24.801  0.0014  0.2838  0.4127
24165DPPC   GL230416  14.794   3.192  25.029 -0.5272  0.2120  0.1978
24165DPPC   C1A30417  15.113   3.647  24.935 -0.0128  0.0207  0.1511
24165DPPC   C2A30418  15.386   3.587  25.235  0.0728  0.0296 -0.0627
24165DPPC   C3A30419  15.681   3.641  25.618 -0.0621 -0.0393  0.1347
24165DPPC   C4A30420  16.007   3.564  26.025 -0.4718 -0.1925  0.2311
24165DPPC   C1B30421  15.081   3.240  25.230 -0.5236  0.0622  0.0196
24165DPPC   C2B30422  15.278   3.199  25.574  0.2583  0.1551  0.1432
24165DPPC   C3B30423  15.505   3.300  25.929 -0.1655 -0.2137  0.0238
24165DPPC   C4B30424  15.825   3.132  26.292 -0.2433 -0.0516 -0.0300
24166DPPC   NC330425  13.288   0.997  24.992 -0.1362  0.1429  0.2420
24166DPPC   PO430426  13.608   1.112  25.186  0.1834  0.1169  0.3044
24166DPPC   GL130427  13.488   1.326  25.500  0.2263  0.2199 -0.2967
24166DPPC   GL230428  13.223   1.341  25.309  0.1012  0.0303 -0.1089
24166DPPC   C1A30429  13.282   1.237  25.824 -0.2050 -0.0639  0.4329
24166DPPC   C2A30430  13.217   1.116  26.229 -0.1770 -0.2624 -0.0647
24166DPPC   C3A30431  12.970   1.116  26.640  0.0432  0.1132  0.1700
24166DPPC   C4A30432  12.714   1.108  27.044 -0.2235  0.0008 -0.1525
24166DPPC   C1B30433  12.966   1.212  25.554 -0.2281  0.1014  0.0087
24166DPPC   C2B30434  12.783   1.218  25.957 -0.2560 -0.4288 -0.1384
24166DPPC   C3B30435  12.480   1.200  26.327 -0.0500 -0.0479  0.3177
24166DPPC   C4B30436  12.260   1.195  26.730 -0.4172  0.0503  0.4119
24167DPPC   NC330437  13.382   2.876  24.974 -0.4327  0.0478 -0.5029
24167DPPC   PO430438  13.445   2.936  25.397 -0.0090  0.0584 -0.0587
24167DPPC   GL130439  13.233   2.773  25.740 -0.0413 -0.1201  0.3903
24167DPPC   GL230440  13.361   2.539  25.828 -0.1680 -0.1627 -0.1449
24167DPPC   C1A30441  13.170   2.996  26.034  0.0127 -0.1700 -0.1662
24167DPPC   C2A30442  12.854   2.921  26.326 -0.4517 -0.3338  0.0145
24167DPPC   C3A30443  12.529   3.006  26.724 -0.3689 -0.0366 -0.2620
24167DPPC   C4A30444  12.304   2.972  27.202 -0.0957 -0.0808  0.2196
24167DPPC   C1B30445  13.231   2.499  26.172 -0.1650 -0.0260 -0.0299
24167DPPC   C2B30446  12.933   2.425  26.458  0.0244  0.2155 -0.0103
24167DPPC   C3B30447  12.706   2.439  26.857 -0.2864 -0.1033  0.3832
24167DPPC   C4B30448  12.423   2.427  27.259 -0.1503 -0.0991 -0.1640
24168DPPC   NC330449  15.503   3.019  23.978 -0.0497 -0.0024 -0.1684
24168DPPC   PO430450  15.313   3.322  24.144 -0.0343  0.1293  0.4108
24168DPPC   GL130451  15.466   3.325  24.513  0.2412 -0.1078 -0.0423
24168DPPC   GL230452  15.575   3.091  24.497 -0.2824 -0.1845  0.2454
24168DPPC   C1A30453  15.639   3.525  24.798 -0.1977  0.2468 -0.1258
24168DPPC   C2A30454  15.914   3.529  25.154  0.1621  0.0693  0.0636
24168DPPC   C3A30455  16.219   3.547  25.550 -0.0249  0.1810 -0.0779
24168DPPC   C4A30456  16.546   3.490  25.944 -0.0425 -0.1349  0.0262
24168DPPC   C1B30457  15.828   3.056  24.709  0.3475 -0.2988  0.3723
24168DPPC   C2B30458  16.072   3.029  25.038  0.3223  0.2304  0.0449
24168DPPC   C3B30459  16.286   2.977  25.444  0.2259  0.3642  0.0333
24168DPPC   C4B30460  16.587   2.977  25.821 -0.2412 -0.0038 -0.0422
24169DPPC   NC330461  16.261   3.733  22.535 -0.0596 -0.2405 -0.0608
24169DPPC   PO430462  16.396   3.375  22.646  0.1098 -0.2087 -0.3200
24169DPPC   GL130463  16.720   3.357  23.029  0.0356 -0.0767  0.0234
24169DPPC   GL230464  16.752   3.175  22.913  0.0256  0.0853 -0.1041
24169DPPC   C1A30465  17.009   3.552  23.147  0.2175 -0.0007  0.1287
24169DPPC   C2A30466  17.328   3.513  23.441 -0.0641 -0.0301 -0.0372
24169DPPC   C3A30467  17.654   3.429  23.777  0.1431 -0.2306  0.1164
24169DPPC   C4A30468  17.986   3.436  24.155  0.2116 -0.1957 -0.1222
24169DPPC   C1B30469  17.092   3.095  22.872 -0.1604  0.4820  0.3807
24169DPPC   C2B30470  17.330   2.950  23.137  0.1507 -0.1571 -0.0438
24169DPPC   C3B30471  17.665   2.917  23.465  0.3675  0.1050 -0.0753
24169DPPC   C4B30472  17.964   2.971  23.875  0.2058  0.1267  0.1341
24170DPPC   NC330473  15.941   5.716  23.240  0.3197  0.1227  0.1140
24170DPPC   PO430474  16.250   5.942  23.197 -0.0162 -0.1756  0.0934
24170DPPC   GL130475  16.364   5.595  23.376 -0.0063 -0.0789  0.3065
24170DPPC   GL230476  16.551   5.490  23.231 -0.1423  0.0498 -0.1771
24170DPPC   C1A30477  16.531   5.756  23.647 -0.0318 -0.1054  0.0216
24170DPPC   C2A30478  16.652   5.873  24.030 -0.1265  0.0433  0.1925
24170DPPC   C3A30479  17.034   5.866  24.332  0.1821  0.0739 -0.1704
24170DPPC   C4A30480  17.323   5.849  24.693 -0.1501 -0.0018 -0.2287
24170DPPC   C1B30481  16.679   5.371  23.559  0.1294 -0.1163  0.2017
24170DPPC   C2B30482  16.808   5.310  23.919 -0.0489  0.0065  0.3008
24170DPPC   C3B30483  17.142   5.385  24.322 -0.0353 -0.0700  0.1446
24170DPPC   C4B30484  17.548   5.366  24.619  0.4239 -0.3765 -0.1122
24171DPPC   NC330485  13.796   4.778  26.030 -0.1001  0.0715  0.0653
24171DPPC   PO430486  14.158   4.885  26.108  0.1354  0.0357 -0.1487
24171DPPC   GL130487  14.206   4.932  26.498  0.5033 -0.0273 -0.2605
24171DPPC   GL230488  14.494   5.009  26.528  0.1509 -0.1960  0.0074
24171DPPC   C1A30489  14.037   4.984  26.754  0.3041 -0.1369  0.0827
24171DPPC   C2A30490  13.880   4.962  27.127  0.0697 -0.1486 -0.0323
24171DPPC   C3A30491  13.621   4.883  27.516 -0.1985  0.3035 -0.2494
24171DPPC   C4A30492  13.427   4.857  27.963  0.1285 -0.0462 -0.1398
24171DPPC   C1B30493  14.756   5.059  26.806  0.1795  0.0094  0.0977
24171DPPC   C2B30494  14.898   5.089  27.165 -0.0012 -0.0701  0.2788
24171DPPC   C3B30495  15.148   5.061  27.589 -0.0201 -0.0705 -0.0509
24171DPPC   C4B30496  15.286   5.122  28.050  0.0207 -0.1969  0.0431
24172DPPC   NC330497  15.301   2.305  24.475  0.0599 -0.0695 -0.1551
24172DPPC   PO430498  15.416   1.944  24.609  0.3307 -0.0361 -0.1857
24172DPPC   GL130499  15.705   1.818  24.811 -0.1910 -0.1019 -0.4051
24172DPPC   GL230500  15.636   1.587  24.933 -0.0083 -0.0655 -0.0434
24172DPPC   C1A30501  16.052   1.967  24.847  0.1252 -0.1327 -0.2577
24172DPPC   C2A30502  16.403   2.037  25.047 -0.2077  0.2501  0.0627
24172DPPC   C3A30503  16.705   1.978  25.431 -0.2701  0.0137  0.0415
24172DPPC   C4A30504  16.981   1.958  25.821 -0.1531 -0.1122  0.2764
24172DPPC   C1B30505  15.909   1.673  25.171 -0.2634  0.0038 -0.2254
24172DPPC   C2B30506  16.285   1.692  25.395  0.0520 -0.3237  0.0897
24172DPPC   C3B30507  16.534   1.690  25.807  0.0036 -0.1190 -0.1581
24172DPPC   C4B30508  16.820   1.702  26.218  0.3065 -0.0306  0.0807
24173DPPC   NC330509  16.889   6.242  21.770  0.3161 -0.1173 -0.0623
24173DPPC   PO430510  16.953   6.611  21.923 -0.1669  0.0717  0.2057
24173DPPC   GL130511  17.288   6.663  22.258  0.2134 -0.1561 -0.0719
24173DPPC   GL230512  17.244   6.971  22.300 -0.5278 -0.0693  0.5165
24173DPPC   C1A30513  17.489   6.481  22.469 -0.2828  0.0850  0.0628
24173DPPC   C2A30514  17.826   6.401  22.721 -0.0720  0.1230  0.0097
24173DPPC   C3A30515  18.090   6.366  23.108 -0.0903  0.1408  0.0595
24173DPPC   C4A30516  18.448   6.354  23.436 -0.1022 -0.1484  0.3654
24173DPPC   C1B30517  17.544   7.169  22.381  0.1112  0.0397  0.1397
24173DPPC   C2B30518  17.910   7.239  22.568  0.0825  0.4515 -0.2688
24173DPPC   C3B30519  18.191   7.220  22.906  0.0834 -0.1049  0.2467
24173DPPC   C4B30520  18.500   7.243  23.294  0.0531  0.1411 -0.4716
24174DPPC   NC330521  15.539   5.799  24.230 -0.1361 -0.2808  0.2594
24174DPPC   PO430522  15.609   5.998  23.934 -0.1022  0.0001  0.2429
24174DPPC   GL130523  15.866   6.228  24.167  0.0532  0.0102 -0.1885
24174DPPC   GL230524  15.803   6.432  24.140 -0.0054  0.2088 -0.3224
24174DPPC   C1A30525  16.136   6.280  24.440 -0.0235  0.0728  0.0439
24174DPPC   C2A30526  16.408   6.420  24.742  0.0542 -0.1564 -0.2185
24174DPPC   C3A30527  16.772   6.399  24.987  0.0171  0.0351 -0.0825
24174DPPC   C4A30528  17.114   6.405  25.334  0.0611  0.0333  0.1657
24174DPPC   C1B30529  16.136   6.659  24.155 -0.3689  0.0553 -0.2068
24174DPPC   C2B30530  16.470   6.736  24.379  0.0332  0.0264  0.0526
24174DPPC   C3B30531  16.824   6.803  24.655 -0.0779  0.0534  0.2331
24174DPPC   C4B30532  17.205   6.703  24.997 -0.2214 -0.5654 -0.2886
24175DPPC   NC330533  14.726   0.936  25.573 -0.1397  0.1970  0.2319
24175DPPC   PO430534  14.519   1.247  25.627  0.2640  0.1387  0.0766
24175DPPC   GL130535  14.789   1.427  25.876 -0.0437  0.1989 -0.3220
24175DPPC   GL230536  14.621   1.407  26.137  0.1338 -0.1765 -0.0590
24175DPPC   C1A30537  15.106   1.526  26.047 -0.0100  0.5350  0.0319
24175DPPC   C2A30538  15.351   1.501  26.352 -0.2815 -0.1746  0.0731
24175DPPC   C3A30539  15.612   1.476  26.768 -0.0561  0.2250  0.1804
24175DPPC   C4A30540  15.898   1.433  27.206  0.0542 -0.0753 -0.2375
24175DPPC   C1B30541  14.790   1.572  26.411 -0.3124 -0.3072 -0.1148
24175DPPC   C2B30542  15.055   1.629  26.697 -0.0242 -0.0984 -0.0880
24175DPPC   C3B30543  15.263   1.606  27.111  0.0441  0.1325  0.2586
24175DPPC   C4B30544  15.553   1.536  27.475  0.2284  0.0774  0.0129
24176DPPC   NC330545  14.211   5.337  25.744 -0.2955  0.0808  0.1266
24176DPPC   PO430546  14.028   5.667  25.836  0.0758  0.1129  0.2660
24176DPPC   GL130547  13.903   5.825  26.263  0.1113  0.2041 -0.0420
24176DPPC   GL230548  14.219   5.923  26.275 -0.2878 -0.0402 -0.3109
24176DPPC   C1A30549  13.870   5.617  26.553 -0.0682  0.0598  0.1603
24176DPPC   C2A30550  13.719   5.446  26.884 -0.0833  0.0679  0.2556
24176DPPC   C3A30551  13.529   5.379  27.340  0.0832  0.2974 -0.1223
24176DPPC   C4A30552  13.240   5.336  27.754 -0.1580  0.1227  0.1071
24176DPPC   C1B30553  14.239   5.849  26.623  0.0229 -0.1737 -0.1320
24176DPPC   C2B30554  14.143   5.894  27.013 -0.0760 -0.1221  0.1564
24176DPPC   C3B30555  13.881   5.820  27.410 -0.1187 -0.0692 -0.0735
24176DPPC   C4B30556  13.576   5.663  27.765  0.0376  0.1001 -0.1432
24177DPPC   NC330557  15.884   1.567  22.760 -0.4095  0.1938  0.0105
24177DPPC   PO430558  16.066   1.324  22.989 -0.0138 -0.4108 -0.0011
24177DPPC   GL130559  16.406   1.291  23.159  0.1350  0.1250  0.1934
24177DPPC   GL230560  16.554   1.169  22.957  0.1874 -0.0880 -0.1346
24177DPPC   C1A30561  16.615   1.363  23.455 -0.1129  0.3580 -0.1075
24177DPPC   C2A30562  16.850   1.373  23.783  0.1964  0.2017 -0.1485
24177DPPC   C3A30563  17.026   1.285  24.217 -0.0150  0.0654  0.1295
24177DPPC   C4A30564  17.367   1.338  24.565 -0.1941 -0.2256  0.2068
24177DPPC   C1B30565  16.864   1.208  23.086  0.1540  0.2180 -0.1182
24177DPPC   C2B30566  17.117   1.230  23.415 -0.1725  0.0988  0.2631
24177DPPC   C3B30567  17.376   1.254  23.811 -0.0522 -0.0202 -0.0054
24177DPPC   C4B30568  17.756   1.277  24.183 -0.0327  0.1669  0.2626
24178DPPC   NC330569  14.613   5.828  24.837  0.1135 -0.1221  0.0182
24178DPPC   PO430570  14.764   6.098  24.598  0.4405 -0.0481  0.3858
24178DPPC   GL130571  15.115   6.093  24.731  0.0740  0.0727 -0.0963
24178DPPC   GL230572  14.998   6.014  24.992 -0.2009 -0.5080  0.0230
24178DPPC   C1A30573  15.469   6.176  24.957  0.1249 -0.1195 -0.0899
24178DPPC   C2A30574  15.755   6.041  25.208 -0.0445 -0.0284  0.2474
24178DPPC   C3A30575  16.124   6.044  25.553 -0.2314  0.0465  0.1418
24178DPPC   C4A30576  16.411   6.063  25.922 -0.0168  0.0018  0.0450
24178DPPC   C1B30577  15.151   6.127  25.295  0.0863  0.5074 -0.0034
24178DPPC   C2B30578  15.436   6.096  25.571 -0.1296 -0.1533  0.0315
24178DPPC   C3B30579  15.801   6.162  25.924  0.0028 -0.0725  0.0868
24178DPPC   C4B30580  16.108   6.191  26.325 -0.1684 -0.2334  0.2469
24179DPPC   NC330581  14.759   5.090  24.214  0.1817  0.1040  0.1914
24179DPPC   PO430582  14.984   5.098  24.557  0.0137 -0.2145 -0.0335
24179DPPC   GL130583  15.267   5.114  24.836  0.1640 -0.2435 -0.0235
24179DPPC   GL230584  15.428   4.908  24.754  0.0888 -0.0141 -0.1294
24179DPPC   C1A30585  15.511   5.210  25.082 -0.0107 -0.0101 -0.0424
24179DPPC   C2A30586  15.775   5.253  25.443 -0.2006 -0.1021  0.0678
24179DPPC   C3A30587  16.119   5.248  25.802 -0.0120 -0.0349 -0.0158
24179DPPC   C4A30588  16.446   5.243  26.172  0.0163  0.0517  0.2918
24179DPPC   C1B30589  15.703   4.799  24.939 -0.1361 -0.1676 -0.1114
24179DPPC   C2B30590  15.911   4.777  25.295 -0.3739  0.1009 -0.3449
24179DPPC   C3B30591  16.171   4.800  25.640 -0.2039 -0.0447  0.0006
24179DPPC   C4B30592  16.499   4.794  26.000 -0.0217  0.1060 -0.0615
24180DPPC   NC330593  13.124   2.066  24.096 -0.0890  0.0690  0.1582
24180DPPC   PO430594  13.076   2.390  24.348 -0.0882  0.0352  0.2031
24180DPPC   GL130595  12.861   2.151  24.548  0.1749 -0.2084  0.3675
24180DPPC   GL230596  13.072   1.921  24.630  0.1242  0.0702  0.1175
24180DPPC   C1A30597  12.593   2.245  24.821  0.0215 -0.0004 -0.5141
24180DPPC   C2A30598  12.354   2.323  25.138 -0.0002  0.0432 -0.2753
24180DPPC   C3A30599  12.071   2.371  25.484  0.0527 -0.0633 -0.0055
24180DPPC   C4A30600  11.836   2.276  25.913 -0.2296  0.1483  0.2479
24180DPPC   C1B30601  12.808   1.822  24.904  0.1560  0.1114  0.0621
24180DPPC   C2B30602  12.556   1.797  25.233 -0.1138  0.0815  0.2366
24180DPPC   C3B30603  12.280   1.869  25.556 -0.0442  0.0646 -0.2255
24180DPPC   C4B30604  12.027   1.792  26.003  0.1001  0.1698  0.1898
24181DPPC   NC330605  14.900   2.154  24.803  0.0036 -0.1912 -0.2307
24181DPPC   PO430606  14.847   2.502  24.659  0.1612 -0.3505 -0.0694
24181DPPC   GL130607  15.149   2.596  24.804 -0.0414 -0.2240  0.1717
24181DPPC   GL230608  15.419   2.716  24.721  0.3727  0.1698 -0.0902
24181DPPC   C1A30609  15.217   2.410  25.097  0.1313 -0.0715  0.1953
24181DPPC   C2A30610  15.475   2.312  25.376 -0.2159  0.0980 -0.0775
24181DPPC   C3A30611  15.794   2.192  25.784  0.0082  0.0184  0.1827
24181DPPC   C4A30612  16.002   2.207  26.159  0.1821 -0.3407  0.1139
24181DPPC   C1B30613  15.671   2.672  25.000 -0.1989  0.4201  0.0340
24181DPPC   C2B30614  15.883   2.611  25.348 -0.2855 -0.0810 -0.1031
24181DPPC   C3B30615  16.121   2.637  25.790  0.2019 -0.1857 -0.2085
24181DPPC   C4B30616  16.415   2.566  26.109  0.1899 -0.1096 -0.2891
24182DPPC   NC330617  14.026   1.230  25.455 -0.1736 -0.3323  0.0259
24182DPPC   PO430618  13.847   1.528  25.679 -0.1873  0.0601 -0.0103
24182DPPC   GL130619  13.677   1.407  26.026 -0.0319 -0.0954 -0.5966
24182DPPC   GL230620  13.662   1.616  26.180  0.0304 -0.0788 -0.2270
24182DPPC   C1A30621  13.709   1.143  26.271  0.0441  0.0197 -0.1175
24182DPPC   C2A30622  13.964   1.037  26.620 -0.0393 -0.0945  0.0947
24182DPPC   C3A30623  14.323   0.859  26.940  0.0296  0.1769 -0.1162
24182DPPC   C4A30624  14.550   0.879  27.405 -0.0157 -0.0172 -0.0618
24182DPPC   C1B30625  13.967   1.500  26.407  0.2365 -0.0972  0.3106
24182DPPC   C2B30626  14.386   1.438  26.525  0.0318  0.0208  0.1552
24182DPPC   C3B30627  14.699   1.260  26.888 -0.3967 -0.2247  0.0950
24182DPPC   C4B30628  14.926   1.225  27.328 -0.1395  0.1590 -0.0733
24183DPPC   NC330629  13.443   6.380  25.071 -0.0098 -0.0154  0.0013
24183DPPC   PO430630  13.663   6.368  25.379 -0.0100  0.3065 -0.1559
24183DPPC   GL130631  13.416   6.349  25.711  0.1003  0.1908  0.1220
24183DPPC   GL230632  13.229   6.555  25.529  0.1179  0.0316 -0.3145
24183DPPC   C1A30633  13.282   6.393  26.012  0.3831 -0.2208 -0.1764
24183DPPC   C2A30634  13.093   6.486  26.333 -0.2922 -0.4498 -0.0136
24183DPPC   C3A30635  12.867   6.434  26.731  0.0298  0.0233 -0.2068
24183DPPC   C4A30636  12.562   6.478  27.141  0.0835 -0.0324  0.0597
24183DPPC   C1B30637  12.957   6.491  25.731 -0.1070 -0.1366 -0.1374
24183DPPC   C2B30638  12.689   6.487  26.066 -0.0857 -0.0845 -0.1570
24183DPPC   C3B30639  12.393   6.572  26.438  0.0128 -0.2648 -0.0124
24183DPPC   C4B30640  11.876   6.611  26.428  0.3214 -0.2660  0.0611
24184DPPC   NC330641  15.857   6.461  23.181  0.1915 -0.0010  0.2198
24184DPPC   PO430642  15.921   6.296  23.518 -0.0758 -0.0684 -0.1113
24184DPPC   GL130643  16.320   6.256  23.746 -0.2244  0.5301 -0.2468
24184DPPC   GL230644  16.451   6.238  23.499  0.0798  0.3816  0.1568
24184DPPC   C1A30645  16.428   6.306  24.098  0.1984  0.2737 -0.1676
24184DPPC   C2A30646  16.704   6.288  24.383 -0.2183  0.3565  0.0611
24184DPPC   C3A30647  17.090   6.256  24.656  0.0679  0.1256  0.0135
24184DPPC   C4A30648  17.480   6.328  24.924  0.1370  0.1364 -0.2521
24184DPPC   C1B30649  16.774   6.139  23.622  0.0983 -0.0223  0.2668
24184DPPC   C2B30650  17.080   6.216  23.903 -0.1157 -0.0666 -0.1457
24184DPPC   C3B30651  17.441   6.267  24.248 -0.2882  0.1752 -0.1293
24184DPPC   C4B30652  17.805   6.245  24.559  0.0178 -0.2984  0.1798
24185DPPC   NC330653  15.255   3.256  23.554  0.0072  0.1522 -0.1035
24185DPPC   PO430654  15.463   3.572  23.642 -0.2460  0.0143 -0.2920
24185DPPC   GL130655  15.848   3.560  23.925  0.0550  0.2430 -0.2350
24185DPPC   GL230656  15.744   3.418  24.081 -0.2261  0.0505  0.3269
24185DPPC   C1A30657  16.117   3.757  24.117  0.0980 -0.2467 -0.4442
24185DPPC   C2A30658  16.421   3.759  24.450  0.1535 -0.5334 -0.1303
24185DPPC   C3A30659  16.694   3.730  24.826 -0.2175  0.1534  0.5465
24185DPPC   C4A30660  16.968   3.768  25.236  0.1862  0.1646  0.0679
24185DPPC   C1B30661  15.866   3.428  24.424  0.0464  0.1318 -0.1397
24185DPPC   C2B30662  16.163   3.377  24.725  0.0267 -0.0363  0.2280
24185DPPC   C3B30663  16.425   3.363  25.117  0.4964  0.1502 -0.3222
24185DPPC   C4B30664  16.774   3.335  25.506  0.1471 -0.0998  0.1266
24186DPPC   NC330665  15.736   4.320  23.064 -0.1734 -0.1192 -0.2112
24186DPPC   PO430666  15.670   4.415  23.449 -0.3668 -0.1751  0.1184
24186DPPC   GL130667  16.081   4.398  23.659 -0.2466  0.0441  0.0153
24186DPPC   GL230668  16.060   4.677  23.726  0.1334 -0.1518 -0.0745
24186DPPC   C1A30669  16.103   4.319  23.990  0.1580 -0.1304 -0.1023
24186DPPC   C2A30670  16.197   4.247  24.401 -0.1195  0.0766  0.1078
24186DPPC   C3A30671  16.481   4.219  24.798 -0.1406  0.0946 -0.2086
24186DPPC   C4A30672  16.773   4.263  25.157  0.3763  0.2127 -0.2587
24186DPPC   C1B30673  16.213   4.728  24.089  0.2904 -0.2373  0.1050
24186DPPC   C2B30674  16.487   4.622  24.381 -0.0935 -0.3547  0.1029
24186DPPC   C3B30675  16.765   4.617  24.802  0.1063 -0.1050 -0.0526
24186DPPC   C4B30676  17.087   4.652  25.163  0.0120 -0.0623  0.0576
24187DPPC   NC330677  15.244   1.462  24.684  0.1698 -0.0416  0.2137
24187DPPC   PO430678  14.950   1.661  24.889 -0.4223  0.0015  0.1198
24187DPPC   GL130679  15.116   1.930  25.169 -0.0799  0.1607 -0.1398
24187DPPC   GL230680  15.342   1.969  25.088  0.2324 -0.1984  0.1486
24187DPPC   C1A30681  15.172   1.866  25.531 -0.1965  0.0391 -0.3107
24187DPPC   C2A30682  15.386   1.836  25.890 -0.1664 -0.0930  0.0765
24187DPPC   C3A30683  15.686   1.853  26.236 -0.0007  0.1424  0.3407
24187DPPC   C4A30684  15.874   1.832  26.631 -0.6277 -0.1084 -0.1492
24187DPPC   C1B30685  15.554   1.878  25.300  0.3114 -0.1859 -0.2439
24187DPPC   C2B30686  15.801   1.753  25.574 -0.2935 -0.0209 -0.0327
24187DPPC   C3B30687  16.095   1.757  25.893  0.4354  0.2455 -0.1642
24187DPPC   C4B30688  16.280   1.640  26.320  0.3823 -0.2065  0.0370
24188DPPC   NC330689  15.692   4.975  23.640 -0.2752  0.1456 -0.1658
24188DPPC   PO430690  15.842   5.343  23.564  0.1168  0.1793  0.3342
24188DPPC   GL130691  16.231   5.389  23.725  0.4023 -0.4597  0.1877
24188DPPC   GL230692  16.329   5.093  23.679  0.0040 -0.0313  0.1524
24188DPPC   C1A30693  16.361   5.433  24.059  0.1385 -0.3824  0.1357
24188DPPC   C2A30694  16.585   5.446  24.402  0.4633  0.1269 -0.2750
24188DPPC   C3A30695  16.965   5.505  24.730  0.2752  0.0856 -0.1500
24188DPPC   C4A30696  17.214   5.508  25.040 -0.1268 -0.1315 -0.3362
24188DPPC   C1B30697  16.516   4.980  24.042 -0.1793 -0.2545  0.0931
24188DPPC   C2B30698  16.833   5.005  24.381  0.0302  0.0057  0.0727
24188DPPC   C3B30699  17.175   5.060  24.775  0.1594  0.1330  0.0488
24188DPPC   C4B30700  17.496   4.998  25.176  0.3469 -0.0616  0.1282
24189DPPC   NC330701  14.569   0.603  25.973 -0.2204 -0.1749  0.3407
24189DPPC   PO430702  14.528   0.327  25.711 -0.1561  0.1656 -0.2698
24189DPPC   GL130703  14.550   0.104  26.065  0.0630 -0.2296  0.1641
24189DPPC   GL230704  14.427  -0.046  26.158 -0.0223 -0.1849 -0.0347
24189DPPC   C1A30705  14.925   0.182  26.192 -0.2019  0.1613  0.0347
24189DPPC   C2A30706  15.233   0.144  26.444  0.0596 -0.1397  0.1183
24189DPPC   C3A30707  15.599   0.047  26.773  0.0974 -0.0875 -0.3060
24189DPPC   C4A30708  15.815   0.181  27.188  0.1448 -0.2458 -0.1970
24189DPPC   C1B30709  14.621  -0.095  26.468  0.2354 -0.3863 -0.1948
24189DPPC   C2B30710  14.722  -0.054  26.880 -0.0662 -0.0917  0.0500
24189DPPC   C3B30711  14.983  -0.080  27.252  0.0326  0.0915 -0.0845
24189DPPC   C4B30712  15.164  -0.169  27.682 -0.2120  0.1520  0.3227
24190DPPC   NC330713  15.848   1.882  24.367 -0.0387  0.3285 -0.0282
24190DPPC   PO430714  15.793   2.231  24.157  0.1049 -0.1475  0.0062
24190DPPC   GL130715  16.173   2.239  23.963 -0.0673 -0.0043  0.4226
24190DPPC   GL230716  16.182   2.498  24.129 -0.2289 -0.3093  0.2535
24190DPPC   C1A30717  16.535   2.146  23.954 -0.0825  0.0561 -0.0376
24190DPPC   C2A30718  16.831   2.258  24.251 -0.2522  0.3713  0.0811
24190DPPC   C3A30719  17.173   2.295  24.615 -0.2436 -0.2567  0.4300
24190DPPC   C4A30720  17.398   2.258  25.058 -0.1436 -0.3116  0.0383
24190DPPC   C1B30721  16.393   2.342  24.389 -0.0670 -0.1274 -0.2497
24190DPPC   C2B30722  16.624   2.360  24.730 -0.0883  0.2740 -0.1967
24190DPPC   C3B30723  16.918   2.331  25.105  0.0727  0.2677 -0.3006
24190DPPC   C4B30724  17.194   2.307  25.534  0.0517  0.3029  0.3688
24191DPPC   NC330725  14.655   6.464  25.649 -0.2303 -0.2644 -0.0831
24191DPPC   PO430726  14.728   6.059  25.709  0.0669 -0.1451 -0.1514
24191DPPC   GL130727  14.957   5.902  25.922 -0.0141 -0.3749 -0.2916
24191DPPC   GL230728  15.198   5.724  25.772  0.1148  0.1603 -0.1249
24191DPPC   C1A30729  15.114   5.935  26.256  0.2087 -0.1342 -0.5277
24191DPPC   C2A30730  15.229   5.878  26.601 -0.2039 -0.1095 -0.3863
24191DPPC   C3A30731  15.528   5.801  27.000 -0.1866  0.2772 -0.3046
24191DPPC   C4A30732  15.797   5.751  27.396  0.2155  0.3323 -0.2811
24191DPPC   C1B30733  15.506   5.783  25.993 -0.3658  0.0913  0.3944
24191DPPC   C2B30734  15.681   5.819  26.358  0.2445 -0.2573  0.1172
24191DPPC   C3B30735  16.040   5.793  26.689 -0.0437 -0.0819 -0.0185
24191DPPC   C4B30736  16.190   5.758  27.149 -0.0395 -0.2565  0.2944
24192DPPC   NC330737  15.345   5.201  23.876  0.0164  0.0170  0.4716
24192DPPC   PO430738  15.281   5.320  24.234  0.0327 -0.0922  0.1724
24192DPPC   GL130739  15.578   5.414  24.423  0.1926  0.2042 -0.3035
24192DPPC   GL230740  15.432   5.536  24.675 -0.2876  0.0783 -0.1117
24192DPPC   C1A30741  15.969   5.489  24.502  0.2212  0.1732  0.1081
24192DPPC   C2A30742  16.280   5.522  24.792  0.1239  0.4178  0.2280
24192DPPC   C3A30743  16.625   5.550  25.137 -0.1555  0.2065  0.2599
24192DPPC   C4A30744  16.907   5.516  25.516  0.2391  0.0313  0.3331
24192DPPC   C1B30745  15.774   5.608  24.943 -0.0945  0.5710 -0.1345
24192DPPC   C2B30746  16.039   5.614  25.261  0.0180  0.0228 -0.1568
24192DPPC   C3B30747  16.331   5.612  25.555 -0.2396 -0.0138  0.2666
24192DPPC   C4B30748  16.662   5.668  25.933 -0.1866 -0.0885 -0.2434
24193DPPC   NC330749  16.754   0.198  22.415 -0.0614 -0.0776 -0.2382
24193DPPC   PO430750  16.786  -0.002  22.708  0.1289 -0.2603 -0.0191
24193DPPC   GL130751  17.127  -0.077  22.861 -0.0242  0.2115  0.2758
24193DPPC   GL230752  17.186   0.188  22.683 -0.1667 -0.3160 -0.4459
24193DPPC   C1A30753  17.428  -0.072  23.077 -0.0136  0.2112  0.0431
24193DPPC   C2A30754  17.696  -0.133  23.338 -0.2573 -0.0920  0.2177
24193DPPC   C3A30755  17.995  -0.214  23.672  0.0760 -0.3800 -0.1076
24193DPPC   C4A30756  18.315  -0.171  24.082  0.0873 -0.2531  0.5102
24193DPPC   C1B30757  17.551   0.285  22.692 -0.3335  0.3682 -0.0551
24193DPPC   C2B30758  17.837   0.266  22.994  0.2532  0.1565  0.0902
24193DPPC   C3B30759  18.136   0.240  23.337  0.0282  0.1226  0.1864
24193DPPC   C4B30760  18.456   0.184  23.687 -0.1966 -0.0253 -0.0340
24194DPPC   NC330761  15.990   3.581  23.483  0.2953 -0.2189  0.1376
24194DPPC   PO430762  16.133   3.946  23.397  0.0030 -0.1797 -0.0861
24194DPPC   GL130763  16.371   3.918  23.767 -0.0168 -0.0983  0.1712
24194DPPC   GL230764  16.419   3.649  23.823  0.0827 -0.0766 -0.0673
24194DPPC   C1A30765  16.507   4.069  24.064  0.1462  0.2311  0.2478
24194DPPC   C2A30766  16.730   4.125  24.385 -0.0093 -0.0543 -0.3022
24194DPPC   C3A30767  16.984   4.124  24.740  0.1316  0.0273 -0.1821
24194DPPC   C4A30768  17.321   4.066  25.113 -0.1973  0.0403 -0.1941
24194DPPC   C1B30769  16.680   3.562  24.045 -0.1305  0.0876  0.2646
24194DPPC   C2B30770  16.937   3.603  24.375  0.0062  0.1929  0.0101
24194DPPC   C3B30771  17.200   3.620  24.738  0.1180  0.0417  0.1324
24194DPPC   C4B30772  17.482   3.565  25.146  0.1340 -0.3350 -0.3313
24195DPPC   NC330773  16.247   2.139  23.413 -0.3753  0.0412  0.4402
24195DPPC   PO430774  15.999   2.449  23.471 -0.2120  0.2049  0.1173
24195DPPC   GL130775  16.274   2.549  23.634  0.2160 -0.4332 -0.1025
24195DPPC   GL230776  16.360   2.772  23.766 -0.5486  0.1404 -0.2535
24195DPPC   C1A30777  16.585   2.361  23.579 -0.0976 -0.2594 -0.3433
24195DPPC   C2A30778  16.950   2.183  23.743  0.2924  0.1358  0.1087
24195DPPC   C3A30779  17.318   2.207  24.068  0.2467  0.0208  0.3506
24195DPPC   C4A30780  17.633   2.199  24.459  0.0206  0.2458 -0.2508
24195DPPC   C1B30781  16.511   2.723  24.107  0.0011 -0.1196  0.0037
24195DPPC   C2B30782  16.753   2.770  24.455 -0.0177  0.0262  0.4912
24195DPPC   C3B30783  17.096   2.729  24.822  0.0911 -0.0206 -0.1337
24195DPPC   C4B30784  17.422   2.762  25.250 -0.1804  0.3286 -0.1083
24196DPPC   NC330785  15.029   5.650  24.515  0.0126  0.2115  0.1064
24196DPPC   PO430786  15.016   5.516  24.896  0.2838  0.1178  0.1490
24196DPPC   GL130787  15.285   5.527  25.137  0.1840 -0.2622 -0.0198
24196DPPC   GL230788  15.158   5.368  25.366 -0.3758  0.0045  0.0517
24196DPPC   C1A30789  15.512   5.691  25.385  0.0895  0.0920  0.0050
24196DPPC   C2A30790  15.786   5.708  25.679  0.1200 -0.0573 -0.0603
24196DPPC   C3A30791  16.080   5.734  26.044 -0.4193  0.2818  0.1058
24196DPPC   C4A30792  16.423   5.663  26.401  0.1198  0.2462 -0.0168
24196DPPC   C1B30793  15.420   5.360  25.656  0.2572 -0.0177  0.1131
24196DPPC   C2B30794  15.647   5.334  26.044 -0.2121  0.0248 -0.2179
24196DPPC   C3B30795  15.977   5.327  26.398  0.1114 -0.1302 -0.2228
24196DPPC   C4B30796  16.270   5.275  26.804  0.1521  0.2942 -0.2598
24197W        W30797  16.435   1.293   8.845  0.3269 -0.0356 -0.0804
24198W        W30798  15.850   6.499  22.636  0.1053 -0.0036 -0.1360
24199W        W30799  11.059   1.974  11.565  0.1347 -0.0277  0.2454
24200W        W30800  10.820   3.985  37.548  0.1180 -0.3564  0.0958
24201W        W30801   0.553   3.016  24.553 -0.2513 -0.2678 -0.2961
24202W        W30802   6.328   2.255   3.662 -0.2006 -0.0918  0.2558
24203W        W30803  20.079   0.391   0.766 -0.1417 -0.4014  0.1021
24204W        W30804   7.877   4.641  39.214 -0.0459 -0.1092  0.0797
24205W        W30805  11.875   3.377  36.930  0.1136 -0.0815  0.1040
24206W        W30806   3.772   3.550   4.604  0.0787  0.0541  0.0786
24207W        W30807  17.697   1.675   7.780 -0.2982  0.0686 -0.0794
24208W        W30808   3.712   6.523  21.520  0.0588  0.1031 -0.2730
24209W        W30809  15.586   1.656  16.474  0.1212  0.0367  0.0902
24210W        W30810  10.090   1.782  30.432 -0.0703 -0.0431  0.2226
24211W        W30811   3.411   4.355  15.284 -0.1627 -0.0492  0.3373
24212W        W30812  16.538   5.416  18.637  0.2553 -0.1451 -0.3132
24213W        W30813  18.935   6.006  31.606 -0.1015 -0.1218  0.4400
24214W        W30814   2.500   6.540   2.727 -0.2007  0.0584 -0.3977
24215W        W30815  10.594   1.212  28.229  0.0002 -0.0184  0.1014
24216W        W30816  10.277   5.016   5.932  0.0899 -0.0794  0.0599
24217W        W30817  12.898   6.333  17.128  0.0744 -0.0776 -0.1874
24218W        W30818  20.245   6.597   0.119  0.0554  0.0376  0.0574
24219W        W30819  18.220   6.384   4.832  0.3344  0.0363  0.1020
24220W        W30820  14.176   3.540   5.358  0.1154  0.0570 -0.0905
24221W        W30821  19.306   5.415   9.799 -0.0681  0.1023 -0.0266
24222W        W30822   9.154   4.755  10.204  0.0089 -0.0390  0.0883
24223W        W30823  14.078   0.559  40.582 -0.2462 -0.0194 -0.3024
24224W        W30824  16.600   2.239  14.471 -0.2470  0.0281  0.0304
24225W        W30825  16.056   0.019  36.733 -0.1844 -0.2725 -0.2128
24226W        W30826   9.650   3.921   9.234 -0.2399  0.0691  0.0339
24227W        W30827   4.269   5.940  22.653 -0.0800  0.0917 -0.0139
24228W        W30828   3.435   0.503   6.673  0.2305 -0.0886 -0.0448
24229W        W30829   4.790   4.948  36.086 -0.0335 -0.0018 -0.1584
24230W        W30830  12.990   3.242   7.119 -0.2004 -0.1449  0.1036
24231W        W30831  20.763   2.128  11.303  0.3551 -0.0387 -0.1627
24232W        W30832  18.127   2.167  20.153 -0.1214 -0.1500  0.0535
24233W        W30833  20.051   3.595  30.070  0.1629  0.0408  0.1964
24234W        W30834   9.002   1.510  15.576 -0.0406 -0.1109 -0.0687
24235W        W30835  13.212   0.403   4.938 -0.0882 -0.1357  0.1492
24236W        W30836   6.518   0.331  11.975 -0.4724  0.0636 -0.0545
24237W        W30837  17.569   1.246  31.231  0.2284  0.2049  0.0742
24238W        W30838   3.628   5.407  11.923  0.0241  0.0156  0.2692
24239W        W30839  16.867   0.805  41.110 -0.1846  0.3243  0.0636
24240W        W30840   0.872   3.302  31.099  0.0927 -0.1393  0.1047
24241W        W30841  14.961   1.039  11.359 -0.0166 -0.2680  0.1991
24242W        W30842  20.729   1.299  17.109  0.1474  0.1224  0.1596
24243W        W30843   4.726   2.345  33.931 -0.1869  0.0862 -0.1544
24244W        W30844  10.635   3.485  35.175 -0.0823  0.0850  0.0318
24245W        W30845   1.449   1.274  33.463 -0.2424 -0.1280 -0.0715
24246W        W30846   7.403   4.449  42.098  0.0581  0.1108 -0.1619
24247W        W30847  18.919   2.849  14.959  0.3132  0.3854 -0.0768
24248W        W30848   7.522   4.357   4.179 -0.3295  0.0317  0.2434
24249W        W30849  19.510   0.239  14.331  0.1234  0.2109  0.0078
24250W        W30850  15.598   2.459  41.049 -0.1612 -0.0272  0.1761
24251W        W30851  10.092   0.092  36.323  0.1374  0.0959 -0.0832
24252W        W30852   6.376   0.964  24.825  0.0608 -0.3308  0.1451
24253W        W30853   9.437   6.015   3.007  0.1104  0.2955 -0.1654
24254W        W30854   6.257   5.099  36.906  0.1112  0.1111  0.0574
24255W        W30855   9.881   6.034  41.347  0.0500  0.1865 -0.2799
24256W        W30856   3.173   0.294  34.506 -0.2112 -0.1566 -0.0476
24257W        W30857  17.067   4.110   1.253 -0.0307  0.0538  0.0782
24258W        W30858   5.190   6.595  39.682  0.1196  0.0917  0.0556
24259W        W30859   4.226   2.872  33.416 -0.0463  0.1427  0.0056
24260W        W30860   3.620   2.186   5.719  0.0296  0.0968  0.3492
24261W        W30861  11.076   1.253   8.509 -0.2923  0.1600  0.1544
24262W        W30862  16.059   6.336  11.294  0.1470  0.0490 -0.0561
24263W        W30863  18.668   0.563  38.400 -0.3094  0.0883 -0.0226
24264W        W30864  20.314   3.960   4.266  0.0433  0.0926 -0.2890
24265W        W30865   9.849   4.601   4.320  0.0572  0.0466  0.1113
24266W        W30866   8.686   1.695  30.779 -0.1799 -0.1768  0.1982
24267W        W30867   9.402   5.516  11.100  0.0656  0.2029  0.0465
24268W        W30868  10.901   5.004  37.653 -0.1708  0.1925 -0.0607
24269W        W30869   7.961   2.032   6.965 -0.0931  0.1150  0.0614
24270W        W30870  11.201   6.312  41.927 -0.1215  0.3690 -0.0043
24271W        W30871   7.956   2.457   8.124  0.1485 -0.2831 -0.0093
24272W        W30872  16.367   5.175   6.200 -0.1625 -0.3087  0.0895
24273W        W30873  13.514   2.757   9.665  0.0547 -0.1247  0.1425
24274W        W30874   0.138   0.690  32.374 -0.1709  0.1968 -0.0513
24275W        W30875   9.408   6.061  44.743  0.3381 -0.2387 -0.2228
24276W        W30876  15.454   5.570  42.361 -0.2921  0.0501 -0.1221
24277W        W30877   0.879   2.232  28.179  0.4151  0.1070  0.0967
24278W        W30878  10.142   1.227  40.352 -0.2416 -0.3226  0.0795
24279W        W30879  18.668   3.828   4.121  0.0345 -0.2130 -0.0687
24280W        W30880  11.765   4.703  13.624  0.0431  0.1134  0.0754
24281W        W30881   9.058   0.639  38.539 -0.1754 -0.3939 -0.0070
24282W        W30882   1.342   0.591   7.439 -0.1815  0.1879 -0.2266
24283W        W30883   6.247   6.491   3.034 -0.2327 -0.0106  0.0764
24284W        W30884   8.591   2.771   8.626  0.0585 -0.1405  0.0978
24285W        W30885  16.388   0.538  15.777 -0.1706 -0.3366 -0.1627
24286W        W30886  18.709   5.846  36.873  0.2711 -0.0399  0.0291
24287W        W30887   1.788   4.274   4.920  0.1014  0.0715  0.0551
24288W        W30888  17.149   3.854   7.058  0.0042 -0.1507 -0.3682
24289W        W30889   4.036   1.178  28.409 -0.1360  0.2595  0.1809
24290W        W30890  18.067   2.186  39.579 -0.0236  0.0025  0.0214
24291W        W30891  15.210   0.681  23.972  0.3038 -0.1280  0.1156
24292W        W30892  16.072   2.545   3.819  0.0558  0.2033  0.1187
24293W        W30893  12.157   2.326  39.941 -0.4109 -0.0800 -0.3882
24294W        W30894  18.480   2.281   8.439  0.2949  0.2489  0.1151
24295W        W30895  14.200   1.974   1.313 -0.0773 -0.0831  0.0640
24296W        W30896  10.889   3.468   2.412  0.0651  0.0593  0.1760
24297W        W30897   7.153   3.308  35.213 -0.0640 -0.1069  0.2654
24298W        W30898  19.779   2.904  42.190  0.0314 -0.0161  0.4482
24299W        W30899   5.417   5.695  22.591 -0.1994 -0.0579  0.0621
24300W        W30900  19.976   5.277  30.918  0.0836  0.3373  0.0473
24301W        W30901  14.225   0.950  19.870 -0.1879  0.2393 -0.0110
24302W        W30902   8.954   3.231  40.543 -0.0579  0.1940 -0.0682
24303W        W30903  12.779   5.629  41.725  0.0025  0.2438 -0.0016
24304W        W30904  11.208   4.937  38.018 -0.1439 -0.1655  0.0955
24305W        W30905   6.210   2.092  15.885 -0.2203 -0.2005  0.1034
24306W        W30906   8.230   5.542  30.760 -0.0235 -0.1829  0.0668
24307W        W30907   6.729   0.366  39.863  0.0862  0.3649 -0.0975
24308W        W30908   9.967   3.134  32.049 -0.1726 -0.0181 -0.1152
24309W        W30909  14.181   3.740  21.305  0.3137 -0.2985  0.2127
24310W        W30910  17.441   5.290  19.472 -0.4010  0.0253 -0.2158
24311W        W30911  19.875   5.092  27.701  0.0466  0.0141  0.2002
24312W        W30912  20.463   6.386  42.285 -0.0815 -0.5849  0.1400
24313W        W30913  15.046   5.239   3.998  0.1225 -0.0701  0.2450
24314W        W30914  16.391   3.834  21.481 -0.3853  0.0575  0.0414
24315W        W30915  17.066   5.080  18.264 -0.2305 -0.2558  0.2075
24316W        W30916  19.026   4.556  29.422 -0.2270  0.6045 -0.2950
24317W        W30917  18.939   4.039  29.352  0.1835  0.0194 -0.0144
24318W        W30918   5.637   6.144  36.545  0.2495  0.0294 -0.1082
24319W        W30919  15.066   5.233   1.993 -0.1202  0.0206  0.0140
24320W        W30920   8.980   2.345  32.586  0.0166  0.1701 -0.0816
24321W        W30921  12.961   2.561  30.125  0.1557 -0.0095  0.1363
24322W        W30922   5.058   0.336  40.080  0.0919  0.0020 -0.0210
24323W        W30923  15.204   5.203  33.484 -0.1736 -0.2707  0.1430
24324W        W30924  16.078   4.495   0.294  0.4418  0.3034  0.1366
24325W        W30925  12.798   1.826  38.580  0.1801 -0.0070  0.0897
24326W        W30926   8.422   2.703  16.524 -0.0806 -0.0440 -0.1088
24327W        W30927   2.486   6.266  27.536  0.1343 -0.1585 -0.1265
24328W        W30928   8.354   4.429   0.673  0.2130 -0.0239  0.0099
24329W        W30929  14.087   2.391  21.527 -0.0062 -0.3575 -0.0007
24330W        W30930  16.851   5.835  36.641 -0.2031  0.1589  0.1991
24331W        W30931   7.581   3.523  35.208 -0.0634  0.1821 -0.2488
24332W        W30932  15.418   3.606   8.553  0.0059 -0.0186  0.1782
24333W        W30933   8.507   4.484   0.206 -0.0550 -0.1021 -0.0283
24334W        W30934  13.710   4.115   2.759  0.0896  0.0182 -0.2982
24335W        W30935   3.870   1.988   0.659  0.1128 -0.0353 -0.3350
24336W        W30936   1.521   4.382  40.249  0.0784 -0.3387 -0.0957
24337W        W30937  19.799   5.042   8.146  0.2124 -0.0394 -0.1306
24338W        W30938   6.159   1.967  26.060  0.0768 -0.3108 -0.0171
24339W        W30939   6.944   5.968  42.936  0.0071  0.2512 -0.0221
24340W        W30940   7.542   0.980  29.012  0.0165  0.0096  0.0818
24341W        W30941   3.249   2.971  15.113 -0.1893  0.2138 -0.0079
24342W        W30942   3.490   0.734   0.729 -0.1823  0.2277  0.0108
24343W        W30943  16.386   0.984  21.390  0.1312  0.0711 -0.4575
24344W        W30944  14.552   6.304  29.971 -0.0091 -0.0720  0.0400
24345W        W30945   1.679   4.908  10.383 -0.0170 -0.0851 -0.1401
24346W        W30946   5.785   1.330  15.658  0.0759 -0.2379  0.1140
24347W        W30947  15.809   0.300  31.404 -0.2672 -0.0122  0.0860
24348W        W30948  17.860   3.632  16.364 -0.1125  0.1252 -0.1464
24349W        W30949  16.835   2.455  13.635  0.0851 -0.1674  0.2752
24350W        W30950  18.819   5.412   6.803 -0.2482  0.1840  0.0517
24351W        W30951  19.156   5.502   4.825 -0.1642 -0.1984 -0.0148
24352W        W30952  11.152   1.947   6.738 -0.2771  0.2287 -0.0196
24353W        W30953  17.435   5.935  34.212  0.2629 -0.1803  0.2532
24354W        W30954  10.017   2.681   8.455 -0.1179  0.2276 -0.1188
24355W        W30955  18.258   5.155   0.928 -0.2938  0.0099 -0.2005
24356W        W30956   7.531   6.229  27.897  0.0607  0.0008  0.0554
24357W        W30957  10.119   1.191   8.976 -0.0478 -0.1566  0.1084
24358W        W30958   7.511   0.129   3.334  0.2536  0.1984 -0.3849
24359W        W30959   4.684   0.162  43.655 -0.1332 -0.0432 -0.2430
24360W        W30960  14.218   2.845  40.333 -0.0205  0.1216 -0.0767
24361W        W30961  13.934   3.636   6.210 -0.3231 -0.0867 -0.0968
24362W        W30962   1.290   1.770  12.170 -0.0569 -0.2187  0.1383
24363W        W30963  16.415   5.940  17.874 -0.1192  0.3832  0.0540
24364W        W30964  12.866   0.713  11.015  0.0312 -0.0571  0.0459
24365W        W30965   2.301   0.445  22.595 -0.0043  0.1339  0.0088
24366W        W30966  16.005   6.101  30.692 -0.0595  0.1445 -0.0090
24367W        W30967   6.527   5.650  13.023 -0.1749 -0.1614  0.3646
24368W        W30968   9.590   5.647   9.146  0.1188  0.0891 -0.1442
24369W        W30969  15.233   3.965  18.508  0.0481  0.0599 -0.0406
24370W        W30970   2.335   6.385  31.695  0.0370  0.2951  0.2851
24371W        W30971   4.709   1.351  31.897  0.0594  0.3166 -0.0583
24372W        W30972  18.026   0.646  12.163  0.0797  0.5341 -0.3103
24373W        W30973   3.095   4.974   5.219  0.0008 -0.0174  0.0290
24374W        W30974  11.729   5.661   5.000  0.4798  0.0221  0.0292
24375W        W30975  17.421   1.406  12.577 -0.0788  0.1649 -0.1112
24376W        W30976   5.670   2.640  24.603 -0.0443  0.2136 -0.2249
24377W        W30977   0.841   4.842  25.181  0.1264  0.0119 -0.1102
24378W        W30978   0.127   0.504  12.111 -0.1291  0.0208  0.1315
24379W        W30979   6.450   6.415  12.522 -0.1654 -0.1458  0.2188
24380W        W30980  17.578   4.765  34.681  0.1256  0.2339  0.0742
24381W        W30981   0.885   0.038  12.280 -0.0330  0.0387 -0.1609
24382W        W30982  12.936   2.921  18.251 -0.0684  0.1333 -0.0794
24383W        W30983   2.847   2.319  23.615 -0.0432  0.2720  0.2219
24384W        W30984  15.826   5.981  22.336  0.1501 -0.4569  0.0909
24385W        W30985   5.676   3.074  31.517  0.2550 -0.3987  0.0762
24386W        W30986   6.567   2.089  11.482 -0.2150 -0.0030 -0.1396
24387W        W30987   9.171   6.201  36.299  0.0691  0.0963 -0.1235
24388W        W30988   0.589   5.261  30.846  0.0848 -0.0316 -0.0805
24389W        W30989   6.918   3.109   2.439  0.0000  0.0339  0.0865
24390W        W30990  21.125   5.597   2.386  0.3242  0.0307 -0.2378
24391W        W30991   9.233   1.394  30.791 -0.1538 -0.0884 -0.0038
24392W        W30992   2.724   4.494   5.044  0.1800  0.4208 -0.0241
24393W        W30993  21.159   4.026   9.284 -0.0024  0.2663 -0.0101
24394W        W30994   0.849   0.354  42.903 -0.1237 -0.1415 -0.2993
24395W        W30995   4.042   2.465  32.179 -0.0549 -0.3310 -0.1851
24396W        W30996  20.594   4.886  26.181  0.1205 -0.0574  0.3187
24397W        W30997   5.643   4.090   2.811  0.1645  0.1233  0.0438
24398W        W30998   6.274   5.492  14.949 -0.2871  0.0922 -0.2348
24399W        W30999  11.233   4.581   8.842  0.1788 -0.0930 -0.2706
24400W        W31000  17.736   4.013  28.776 -0.1039 -0.0108 -0.0444
24401W        W31001  14.773   1.094  23.486  0.0645  0.1177 -0.2236
24402W        W31002  16.371   2.507   8.293  0.0873 -0.3469  0.1437
24403W        W31003  10.142   5.646  43.827 -0.1657  0.1462 -0.2139
24404W        W31004   7.849   4.127  25.405 -0.1508  0.3294 -0.0125
24405W        W31005  12.465   6.126  16.836 -0.1910 -0.2723  0.0165
24406W        W31006  14.378   2.769   4.763  0.4690 -0.0692  0.2572
24407W        W31007  13.413   3.537  33.490 -0.2286  0.0869 -0.2861
24408W        W31008  10.558   3.979  36.422 -0.0215  0.0603  0.1323
24409W        W31009  12.809   6.324   1.589 -0.2841  0.1356 -0.2952
24410W        W31010  12.898   4.460  38.203 -0.0312 -0.1760  0.0601
24411W        W31011  14.227   4.104   4.973 -0.1289  0.0397 -0.3420
24412W        W31012   8.711   4.123  13.913  0.2113 -0.1301  0.1013
24413W        W31013  11.364   2.761  20.756 -0.0152 -0.0915 -0.1417
24414W        W31014   3.149   2.151  19.846  0.2534 -0.1021 -0.0317
24415W        W31015  12.153   6.529   7.062 -0.1314 -0.2661  0.1419
24416W        W31016   2.742   3.626  25.718  0.0161  0.1096 -0.1914
24417W        W31017  18.762   4.174   2.866 -0.1578 -0.0452  0.2353
24418W        W31018  19.165   4.146  12.346 -0.0925  0.2727 -0.3942
24419W        W31019  10.280   1.401  18.514 -0.1800 -0.0270  0.0102
24420W        W31020   4.494   1.099  23.872  0.1850 -0.1859  0.0910
24421W        W31021  17.436   5.992  18.267  0.2745 -0.0434  0.2195
24422W        W31022   5.610   1.354  10.309 -0.0410  0.0820  0.0360
24423W        W31023   4.352   5.292  19.743  0.0590 -0.0287  0.0390
24424W        W31024  19.919   1.589  40.380  0.4346 -0.2242 -0.1787
24425W        W31025  16.192   3.744  20.098  0.0304  0.1394 -0.2866
24426W        W31026  14.344   5.109  14.307  0.1976 -0.0718  0.1975
24427W        W31027  13.826   2.199  19.440 -0.1909  0.1094  0.2083
24428W        W31028  11.091   3.569   0.080  0.0836 -0.2228  0.1817
24429W        W31029   2.880   4.973  11.726  0.1256 -0.2810  0.1943
24430W        W31030  15.322   3.902   0.535  0.2575  0.3195 -0.0577
24431W        W31031  11.765   2.407  33.116  0.3476  0.0904  0.0796
24432W        W31032  14.545   5.002  15.620 -0.1438 -0.0846 -0.0870
24433W        W31033  14.270   3.110  18.078 -0.2144  0.2354  0.0212
24434W        W31034   4.059   3.662  33.264 -0.0294  0.1315 -0.1314
24435W        W31035  12.189   2.174  12.749  0.1144  0.0835 -0.3190
24436W        W31036   4.478   3.719   7.417 -0.2220 -0.2666  0.0782
24437W        W31037   4.263   2.763  38.953  0.0922 -0.1717  0.0262
24438W        W31038  20.137   5.475  29.091  0.2349 -0.0690 -0.1927
24439W        W31039   5.649   2.887  14.489  0.1019  0.1108  0.1418
24440W        W31040  11.350   3.437   1.048 -0.2145 -0.4157  0.3203
24441W        W31041  17.850   1.424  19.622 -0.0727 -0.0843 -0.0313
24442W        W31042  20.108   2.907  38.047 -0.0579 -0.2136 -0.0319
24443W        W31043   1.233   5.296  41.479  0.1032  0.0103  0.0315
24444W        W31044   6.845   1.428  33.653 -0.2120  0.2774  0.1409
24445W        W31045  15.554   6.159  32.522  0.0214  0.1708 -0.1918
24446W        W31046   1.634   0.441  13.546  0.0260 -0.0182 -0.0682
24447W        W31047  17.388   3.434  16.650 -0.0466 -0.0787  0.1442
24448W        W31048   0.965   5.048  28.745 -0.0338  0.1318  0.2831
24449W        W31049  12.954   6.513   2.110  0.1706 -0.1873 -0.0981
24450W        W31050   2.559   4.448  37.043  0.1103  0.0184 -0.1645
24451W        W31051  16.560   4.487  31.776 -0.0333  0.0583 -0.2864
24452W        W31052  18.362   0.604  35.356 -0.0617 -0.2304  0.0157
24453W        W31053  10.125   2.435   9.504  0.0469  0.0825 -0.0612
24454W        W31054  18.590   2.070  34.515  0.0696  0.0227 -0.2943
24455W        W31055  13.822   2.863  14.256 -0.1071 -0.2274 -0.0654
24456W        W31056  10.385   2.200  10.213 -0.1137 -0.0198 -0.1712
24457W        W31057  14.791   0.390  41.466 -0.2359  0.0522 -0.0562
24458W        W31058   4.682   5.386  43.233  0.1368 -0.1527  0.0101
24459W        W31059   5.709   0.395  13.287 -0.2551 -0.2365 -0.2055
24460W        W31060  12.418   5.316  31.809  0.1441  0.1534 -0.0591
24461W        W31061   0.878   1.992  39.562 -0.0241  0.2682 -0.1525
24462W        W31062   2.805   1.561  41.057 -0.0887  0.1864 -0.3795
24463W        W31063  20.226   4.534   7.614 -0.0162  0.0978 -0.3831
24464W        W31064   8.358   1.929  30.492  0.0492  0.1010 -0.0028
24465W        W31065  16.790   2.988  13.951 -0.3703 -0.1842 -0.1400
24466W        W31066  10.659   3.277   0.270 -0.1391  0.0756 -0.1095
24467W        W31067   2.530   5.514  21.610 -0.2793  0.0734  0.1169
24468W        W31068  17.534   1.058   7.309 -0.4095 -0.0973 -0.1537
24469W        W31069   1.320   4.304  43.746 -0.0349 -0.1134  0.3768
24470W        W31070   1.793   3.445  11.795 -0.2117 -0.1387  0.0265
24471W        W31071   9.074   3.343  41.852 -0.0009 -0.5175 -0.2127
24472W        W31072  15.002   1.423  37.103 -0.1301 -0.1293 -0.0357
24473W        W31073  16.854   5.978   8.605 -0.0920  0.0930  0.0373
24474W        W31074  12.452   1.161  41.156  0.4913  0.0936 -0.0898
24475W        W31075   2.397   5.572  43.127 -0.0719  0.0109  0.0579
24476W        W31076  17.434   4.725   5.629 -0.0650 -0.0834  0.0752
24477W        W31077   6.230   5.577  37.042 -0.0138 -0.2718  0.1279
24478W        W31078  18.987   4.486  18.978  0.0562 -0.0245 -0.0794
24479W        W31079  15.442   1.052   6.569 -0.0067 -0.2302 -0.1965
24480W        W31080  18.554   2.529  37.837 -0.2679 -0.2817 -0.3747
24481W        W31081   1.542   3.040  27.594  0.3255  0.2764  0.3410
24482W        W31082   3.425   6.502   9.266  0.0452  0.1949  0.2101
24483W        W31083  13.580   2.353   6.943  0.1134  0.3427  0.0849
24484W        W31084  13.059   5.292  38.480  0.1728 -0.0086 -0.2051
24485W        W31085  15.619   1.705  29.426  0.0325  0.0238 -0.1322
24486W        W31086   5.308   1.344   4.131  0.1146  0.2237  0.1666
24487W        W31087  17.422   4.254   6.169  0.2689  0.0518  0.1407
24488W        W31088   9.906   2.215   4.200  0.0635 -0.2553 -0.2007
24489W        W31089  11.972   0.908  31.962 -0.0274  0.0297 -0.3074
24490W        W31090  14.628   4.612   3.640  0.2382  0.0382 -0.1279
24491W        W31091   4.923   0.072  12.727  0.3050  0.1199  0.4099
24492W        W31092  12.767   4.935  18.201  0.1190  0.0682  0.1415
24493W        W31093  13.541   4.466   9.683  0.0896 -0.1952  0.1016
24494W        W31094  15.563   5.245  41.126  0.1235 -0.0890 -0.1467
24495W        W31095   7.643   0.162  13.998  0.1006 -0.1037  0.1204
24496W        W31096   3.295   6.129  38.304 -0.0352 -0.1897  0.2432
24497W        W31097  19.484   2.384  11.221  0.3936 -0.1144 -0.1206
24498W        W31098  15.488   6.338  44.797  0.2098 -0.0899 -0.1646
24499W        W31099  12.394   1.921  15.817 -0.2130 -0.2151 -0.0532
24500W        W31100  17.426   1.856   9.262 -0.0607  0.2910  0.0837
24501W        W31101   8.054   3.965  11.468  0.2184 -0.1586  0.4284
24502W        W31102   3.742   5.047  28.448 -0.2379 -0.0401  0.1471
24503W        W31103   8.741   4.079  42.453  0.0598 -0.2712 -0.0962
24504W        W31104   0.550   2.154   3.294 -0.0352  0.0739 -0.1038
24505W        W31105  18.913   3.953  15.306 -0.1012 -0.2064 -0.4104
24506W        W31106  12.437   5.314  17.287  0.0543  0.0526  0.0972
24507W        W31107   7.655   3.017  33.912  0.1873  0.0603 -0.0782
24508W        W31108   6.514   6.348  16.020  0.2389 -0.2212  0.1391
24509W        W31109  16.201   1.824   7.764 -0.1478 -0.0057  0.1176
24510W        W31110   4.165   3.093   3.047  0.0940  0.2274  0.0140
24511W        W31111   4.289   2.323  14.915  0.0829 -0.1464 -0.0452
24512W        W31112   4.695   1.904  14.783 -0.1111 -0.1303  0.1027
24513W        W31113  19.214   3.332   0.522 -0.1852  0.2153 -0.2086
24514W        W31114  10.522   4.732  15.683  0.4114  0.1385 -0.0386
24515W        W31115  11.669   0.773  16.648 -0.1251 -0.0718  0.0587
24516W        W31116  10.283   4.751   7.740  0.1733 -0.1473 -0.0810
24517W        W31117   1.281   5.450  24.547  0.1180 -0.0144  0.3414
24518W        W31118   7.338   5.728  32.743  0.3510  0.5465 -0.4202
24519W        W31119   3.346   3.636  40.158 -0.2604  0.0015 -0.0184
24520W        W31120  20.629   1.389   6.266  0.0495  0.1238 -0.1888
24521W        W31121   2.588   2.298  14.462  0.3787  0.2011 -0.1242
24522W        W31122  14.852   1.787  10.296  0.0314  0.1540  0.0022
24523W        W31123  11.765   6.503  19.940  0.3966 -0.1342 -0.1039
24524W        W31124  12.095   3.358  34.129 -0.0631 -0.1343  0.2610
24525W        W31125   0.327   0.403  43.482 -0.0313  0.1002 -0.2469
24526W        W31126   2.151   3.302  25.181  0.1017 -0.0063  0.0727
24527W        W31127  16.007   0.947   0.149  0.0628  0.3275  0.0130
24528W        W31128   5.582   0.557   3.033 -0.0146 -0.0588  0.0642
24529W        W31129   4.484   3.190  13.552  0.0484  0.3536  0.1613
24530W        W31130   3.896   2.902  12.209 -0.2056  0.1672  0.0296
24531W        W31131   6.252   4.201  25.437  0.1559  0.0561  0.2432
24532W        W31132   6.597   4.794  10.690  0.1013  0.1792  0.1174
24533W        W31133  17.680   5.630   9.669 -0.0066 -0.2011 -0.1815
24534W        W31134   4.253   0.018  41.326 -0.1197 -0.0933  0.0158
24535W        W31135  10.637   3.948   0.169  0.1237  0.0078 -0.1645
24536W        W31136   7.769   5.271  36.561  0.2699 -0.0732  0.1143
24537W        W31137  20.952   2.860   6.333  0.2119 -0.0800 -0.1866
24538W        W31138  16.753   1.080  34.606  0.1165 -0.0831 -0.0814
24539W        W31139  17.387   4.672   5.019 -0.2181 -0.0655 -0.2529
24540W        W31140   9.642   0.936  31.284  0.0066  0.4847  0.1268
24541W        W31141   3.678   3.226   1.138 -0.1976  0.4976 -0.1733
24542W        W31142  14.206   0.313  34.394 -0.1643 -0.1683 -0.0296
24543W        W31143   4.192   1.203  25.364 -0.0864 -0.1596  0.1235
24544W        W31144   1.441   3.451  12.216  0.0902 -0.0197 -0.4797
24545W        W31145  20.470   0.318  26.000  0.1627 -0.0199 -0.1861
24546W        W31146   8.915   3.820  39.010 -0.2265 -0.0341  0.3169
24547W        W31147   0.918   3.386  32.312 -0.1194 -0.2702 -0.1524
24548W        W31148  10.019   0.241  14.480 -0.2276 -0.1394  0.0181
24549W        W31149  12.108   0.620  32.359  0.0660 -0.3609  0.2088
24550W        W31150  11.064   0.156  41.104 -0.0883 -0.1885  0.2255
24551W        W31151  19.090   2.807  38.815  0.1723  0.3913 -0.1051
24552W        W31152  16.099   0.666  33.727  0.0603  0.1171  0.0647
24553W        W31153  20.312   6.328  35.501 -0.2042 -0.3269  0.3925
24554W        W31154   0.695   4.645  25.595 -0.0361 -0.0638  0.1622
24555W        W31155  18.841   1.784  28.353 -0.2055 -0.1778  0.0471
24556W        W31156   5.821   5.806   6.066 -0.1723  0.1019  0.0714
24557W        W31157   3.738   4.950  38.769  0.0109  0.0755  0.1724
24558W        W31158   3.192   1.366  21.141 -0.2382 -0.4034  0.0522
24559W        W31159  19.392   1.749  35.158 -0.0247  0.0410 -0.1266
24560W        W31160  15.415   5.651  43.275  0.2157  0.1130 -0.3539
24561W        W31161  19.221   5.128  35.945 -0.1998  0.0354 -0.2619
24562W        W31162  18.385   2.198  10.182  0.1284 -0.1259  0.1716
24563W        W31163  19.402   5.229  34.202 -0.3954 -0.0102  0.1135
24564W        W31164   1.847   0.531  34.160  0.0771  0.2524 -0.0554
24565W        W31165   7.986   0.412   3.428  0.0220  0.0097  0.1043
24566W        W31166   4.059   3.988  22.714  0.2662 -0.1459  0.4052
24567W        W31167   3.688   1.522  23.000  0.1718  0.1812 -0.1412
24568W        W31168  18.758   4.599  29.839 -0.0521  0.0904  0.0942
24569W        W31169   9.966   6.005  18.552  0.2218 -0.1008  0.2047
24570W        W31170  15.690   2.074  29.880  0.0246  0.1595  0.2841
24571W        W31171  11.193   1.448  16.258 -0.1251 -0.1632  0.0238
24572W        W31172  14.613   1.695  35.124 -0.1843  0.0699  0.2449
24573W        W31173  16.579   2.333   4.238 -0.0913  0.1258  0.0876
24574W        W31174  14.926   4.675  35.108 -0.1387  0.3394 -0.1386
24575W        W31175   7.180   5.679  14.060  0.0491 -0.0641 -0.2225
24576W        W31176  14.086   5.554  19.138  0.2263 -0.1901  0.0237
24577W        W31177   6.522   6.583   4.375 -0.1089 -0.0762  0.3715
24578W        W31178  18.398   0.605  36.365 -0.0129 -0.3420 -0.0044
24579W        W31179  20.279   4.410   1.218 -0.0687 -0.2038 -0.2797
24580W        W31180   2.551   4.755  26.559 -0.1780  0.0873 -0.0110
24581W        W31181  12.791   3.353  21.828  0.1988 -0.0911 -0.2361
24582W        W31182   5.038   3.637  23.343 -0.1224  0.0930  0.3372
24583W        W31183  12.858   5.239  11.759 -0.0196 -0.1212 -0.3805
24584W        W31184   6.611   1.002  41.611 -0.0718 -0.0905  0.0790
24585W        W31185   2.489   6.292   4.833  0.0901  0.1296  0.0206
24586W        W31186   1.288   2.113   7.790 -0.0341 -0.1046 -0.1477
24587W        W31187   1.442   6.520  10.883  0.0329 -0.2322 -0.0992
24588W        W31188  14.570   1.442  31.375 -0.0864 -0.1247 -0.2692
24589W        W31189   7.237   3.309  43.030  0.2136  0.1804 -0.0204
24590W        W31190   9.957   1.610  33.330  0.0041  0.3650 -0.0041
24591W        W31191  10.509   3.524   8.235 -0.1443  0.1085 -0.1374
24592W        W31192   6.773   5.654   4.264  0.1359 -0.1507  0.1794
24593W        W31193  13.660   5.436  44.331  0.1127  0.1477 -0.0825
24594W        W31194  13.592   3.649  40.897  0.1084  0.1293 -0.4637
24595W        W31195   2.953   1.851  29.344  0.1210  0.0706  0.1477
24596W        W31196   9.385   3.832  33.213 -0.1636  0.0406  0.0587
24597W        W31197  11.123   4.737   2.769  0.0622 -0.0204  0.1137
24598W        W31198   8.083   2.867  27.214 -0.2818  0.1455  0.2432
24599W        W31199  10.120   6.232  40.233 -0.1214 -0.0462  0.0025
24600W        W31200  18.213   4.579  27.345  0.2480  0.0364 -0.0655
24601W        W31201  10.526   5.632  39.769 -0.3739 -0.1824 -0.1555
24602W        W31202  18.234   3.590  30.367 -0.1356 -0.0204 -0.2678
24603W        W31203   2.423   6.602   0.308 -0.0581 -0.2542 -0.3657
24604W        W31204  12.059   3.645   7.993  0.1314 -0.3933 -0.1164
24605W        W31205   8.232   2.210  36.842 -0.1426 -0.2363 -0.2893
24606W        W31206   1.368   2.035  25.505 -0.0550 -0.0592  0.1081
24607W        W31207   4.696   2.058  33.437 -0.0126  0.0859  0.0094
24608W        W31208  14.954   0.805  32.636  0.0522  0.0188 -0.2909
24609W        W31209   7.350   5.457  35.441  0.1574  0.3829  0.0328
24610W        W31210  19.993   5.703   9.545 -0.1666 -0.1521 -0.3806
24611W        W31211   5.092   6.147  44.307  0.0677  0.0831 -0.4344
24612W        W31212   8.549   5.521  36.765 -0.0852  0.0121  0.1575
24613W        W31213   4.248   3.950  36.239 -0.1327 -0.0944 -0.1890
24614W        W31214  14.426   1.947   7.937  0.1636  0.0372  0.1252
24615W        W31215   4.373   2.475   7.363 -0.0131 -0.0673  0.0753
24616W        W31216   0.404   0.230  24.262 -0.3306  0.0484  0.1673
24617W        W31217   3.662   5.505  34.996 -0.2305 -0.1223 -0.3410
24618W        W31218   9.478   2.718  12.219  0.2271  0.2058  0.0290
24619W        W31219   3.324   2.865  27.628 -0.1605 -0.2938  0.0563
24620W        W31220   4.658   1.724  32.266 -0.2671 -0.0108  0.2355
24621W        W31221   9.656   3.351   3.716  0.3896 -0.0164 -0.1445
24622W        W31222   4.741   2.150   6.761 -0.0187  0.0140 -0.2245
24623W        W31223   6.542   5.462  25.723  0.1096  0.3440  0.2276
24624W        W31224  21.040   1.402  34.257  0.1667  0.0856  0.3340
24625W        W31225   7.844   1.303  25.378  0.1511 -0.0510  0.1898
24626W        W31226  15.864   2.587  20.889 -0.1359 -0.3959  0.0346
24627W        W31227   3.566   5.902  31.055  0.0012  0.0438  0.3175
24628W        W31228  16.713   2.795   6.702  0.2067  0.0583  0.0989
24629W        W31229   9.837   4.297  35.915  0.3372  0.3806 -0.0032
24630W        W31230   3.210   0.884  28.212  0.0312  0.1453 -0.0733
24631W        W31231  20.385   5.972   9.304 -0.3321  0.0394 -0.1574
24632W        W31232   4.548   6.104  35.512 -0.1161  0.2237  0.1132
24633W        W31233  16.835   1.158  19.190 -0.0897  0.0302 -0.0122
24634W        W31234  16.487   5.949  32.761  0.0410  0.1830 -0.0741
24635W        W31235   9.716   3.400  18.228 -0.1497 -0.0546  0.0326
24636W        W31236   8.752   4.542  27.972  0.3307  0.1806 -0.2836
24637W        W31237  20.764   3.564  28.841 -0.1242  0.2591  0.0431
24638W        W31238  17.223   1.790  32.416  0.0152 -0.2969  0.0688
24639W        W31239   5.524   0.969  30.533  0.0279  0.0702  0.0673
24640W        W31240   2.422   1.588   6.116 -0.0959 -0.1246  0.3355
24641W        W31241  15.287   0.271  13.454 -0.2368  0.1469 -0.0877
24642W        W31242   8.016   0.556  28.486  0.1999 -0.0189  0.0724
24643W        W31243   5.429   0.986  38.516  0.1314 -0.0504  0.3234
24644W        W31244  19.327   0.822  10.211  0.1907  0.2725 -0.1907
24645W        W31245   4.269   2.954  20.644  0.1637  0.3403 -0.3604
24646W        W31246   2.302   3.749  24.174  0.1621 -0.1328  0.2561
24647W        W31247  13.376   0.160  21.956 -0.2114  0.1173 -0.1995
24648W        W31248   5.575   5.705  27.106 -0.2110 -0.1757 -0.0375
24649W        W31249  18.938   4.219  35.675 -0.1245  0.3083  0.2874
24650W        W31250   7.177   0.029  32.817 -0.0028 -0.0817  0.1886
24651W        W31251  11.384   6.396  13.591 -0.1322  0.1790 -0.0601
24652W        W31252   9.421   5.257  43.429  0.2484 -0.0937 -0.0354
24653W        W31253  17.241   1.385  11.302 -0.0913  0.0681  0.2670
24654W        W31254  19.558   5.324  12.578  0.0506 -0.0255 -0.1353
24655W        W31255  20.418   0.004  26.728  0.0266  0.0041 -0.4112
24656W        W31256   9.314   5.714  32.658  0.1884  0.1370  0.0607
24657W        W31257  20.388   3.203  32.417 -0.1761  0.3037  0.1291
24658W        W31258  17.360   4.592  44.641  0.1333 -0.0950  0.3939
24659W        W31259   9.688   0.616  34.032 -0.1125 -0.0958 -0.0246
24660W        W31260   6.500   0.789  29.644  0.2790  0.0575 -0.1114
24661W        W31261  19.139   5.567   4.149  0.0720  0.0377 -0.1012
24662W        W31262   2.079   4.589  14.556 -0.0988 -0.4515  0.0838
24663W        W31263  11.174   0.870   2.759  0.2068  0.0660 -0.1468
24664W        W31264   2.096   2.211  35.875 -0.2991 -0.4936 -0.2136
24665W        W31265  10.805   5.945  38.808 -0.1774  0.0667 -0.0546
24666W        W31266  15.364   1.357  34.118 -0.0607 -0.2263 -0.1570
24667W        W31267  15.754   1.880  40.170 -0.2323 -0.4092  0.0232
24668W        W31268  10.299   3.815  15.033  0.0625 -0.0310 -0.2079
24669W        W31269   4.562   3.972  39.652  0.3011 -0.0173  0.1628
24670W        W31270   3.471   2.234  38.223  0.0744  0.1721  0.0573
24671W        W31271  14.895   3.900   8.552 -0.2988  0.3154  0.0713
24672W        W31272   3.758   6.329   2.925 -0.1286 -0.1272  0.2344
24673W        W31273  17.781   6.342  19.071  0.0864  0.1617  0.0668
24674W        W31274   1.108   1.683  24.887 -0.1176  0.1728  0.2105
24675W        W31275  19.070   5.365  10.987 -0.1406 -0.2036 -0.2854
24676W        W31276  15.910   2.206   7.917 -0.2116 -0.0610 -0.0961
24677W        W31277   9.852   0.869  39.733  0.2156 -0.3952  0.0735
24678W        W31278  20.391   0.338  37.992 -0.0904 -0.2055  0.1565
24679W        W31279   8.984   5.544   9.482  0.2862  0.0974 -0.3145
24680W        W31280  14.439   2.800   1.583 -0.0381 -0.3441  0.3396
24681W        W31281  15.209   6.252  39.321  0.2659  0.1020 -0.0437
24682W        W31282   9.010   0.112   1.681  0.0602  0.1011 -0.1130
24683W        W31283  10.869   6.516  43.119 -0.1106  0.1237 -0.4741
24684W        W31284   8.046   2.715  44.848 -0.2390  0.0634 -0.1284
24685W        W31285  10.441   5.663  20.392  0.2501 -0.0458  0.1907
24686W        W31286   3.217   5.238  37.558 -0.0814 -0.2946 -0.0263
24687W        W31287   9.586   3.936  43.826  0.1663  0.3424  0.1155
24688W        W31288  14.212   6.020  11.045  0.1059  0.2857  0.1990
24689W        W31289  10.803   5.877   9.393 -0.0249  0.1068  0.0590
24690W        W31290   6.872   1.538   8.738  0.2661  0.3781  0.0330
24691W        W31291   1.751   4.250  24.342 -0.1015 -0.0899 -0.1376
24692W        W31292  12.388   3.403  43.526 -0.2037 -0.0274 -0.5031
24693W        W31293  16.006   0.833  34.208  0.0197 -0.0014  0.0181
24694W        W31294   0.572   0.976   0.570 -0.4835  0.2360  0.0563
24695W        W31295  13.351   3.326  39.518 -0.1599  0.1714 -0.2690
24696W        W31296   7.187   1.664   3.478 -0.0569 -0.0767 -0.0912
24697W        W31297  18.735   6.233   1.130 -0.0603  0.1115  0.0751
24698W        W31298   9.382   1.276  42.838  0.2088 -0.0370 -0.1388
24699W        W31299  16.180   2.218  11.181 -0.1616 -0.2597  0.0340
24700W        W31300  15.315   3.716  19.515 -0.1612  0.0435  0.0507
24701W        W31301   0.250   3.482  30.351 -0.0585  0.1540 -0.2747
24702W        W31302   9.131   0.963   7.928  0.2431  0.1526 -0.1520
24703W        W31303  13.447   4.180  29.043 -0.2623  0.0964 -0.3060
24704W        W31304   4.539   1.596  35.115 -0.3688  0.1475 -0.0610
24705W        W31305  17.712   0.619  15.813 -0.1807  0.2234  0.0647
24706W        W31306  13.733   5.048   7.803  0.4041  0.0468 -0.0314
24707W        W31307   6.306   4.303  30.120 -0.1289 -0.1460 -0.0944
24708W        W31308   6.396   1.199   0.319 -0.1625  0.2903 -0.0924
24709W        W31309   1.387   2.058  11.771  0.2114 -0.2748 -0.2406
24710W        W31310  14.365   0.696  38.706 -0.2655  0.2007  0.1361
24711W        W31311  18.528   2.663  10.207 -0.0450  0.1353 -0.2447
24712W        W31312   5.016   5.235  38.505  0.2610 -0.0075  0.0067
24713W        W31313  20.191   6.501  37.865 -0.1888 -0.1115 -0.2760
24714W        W31314   7.950   0.565  33.747  0.1458  0.0403  0.2260
24715W        W31315  10.964   1.566   7.223 -0.1802  0.1217  0.5314
24716W        W31316   1.722   3.920  11.952 -0.1473 -0.4098 -0.2443
24717W        W31317  13.775   2.806  24.659 -0.0827  0.0698 -0.1383
24718W        W31318   9.947   1.473   3.026  0.1510  0.1585 -0.0897
24719W        W31319  10.637   3.344   3.896 -0.0418 -0.1063 -0.1154
24720W        W31320  11.574   1.361  10.861 -0.2784 -0.1342  0.3502
24721W        W31321  20.259   0.501  16.683 -0.3211  0.0540  0.0943
24722W        W31322  13.935   6.161  33.362 -0.0897  0.1949 -0.0285
24723W        W31323  19.109   6.302   8.081  0.0535 -0.0280  0.1373
24724W        W31324  18.852   5.214  40.826  0.2658 -0.0384  0.0004
24725W        W31325  16.703   3.827   9.828 -0.0412  0.1301  0.0304
24726W        W31326  13.223   1.098  41.161  0.0070 -0.1544 -0.1650
24727W        W31327   5.725   2.150  10.898 -0.1517  0.1831  0.0781
24728W        W31328   0.710   0.329  32.861 -0.0089 -0.0750 -0.1431
24729W        W31329   9.866   3.157  10.142  0.3288 -0.0834 -0.2514
24730W        W31330  10.398   0.726  38.421 -0.3360 -0.1755  0.1571
24731W        W31331   5.215   4.021  20.378 -0.1523 -0.0711 -0.0708
24732W        W31332  19.070   1.693  10.771 -0.0201 -0.3298  0.3974
24733W        W31333  12.582   3.801  21.753 -0.0033  0.0935  0.2483
24734W        W31334  17.130   4.815  30.868 -0.1697 -0.0293  0.0607
24735W        W31335   1.568   5.478  43.066  0.2801  0.0642 -0.1619
24736W        W31336  16.292   3.618  35.149  0.0197 -0.0589  0.0345
24737W        W31337   1.964   1.167  15.998 -0.0485 -0.0979 -0.1749
24738W        W31338  12.304   1.383  45.049  0.2013 -0.2284  0.1688
24739W        W31339  12.643   5.628  14.536  0.0397 -0.1236  0.0771
24740W        W31340  12.029   0.318  45.139  0.2460  0.0008  0.1644
24741W        W31341   9.365   6.513  43.236  0.0792 -0.1329 -0.0641
24742W        W31342  13.528   3.324   4.402 -0.1178 -0.0786 -0.0116
24743W        W31343  18.792   0.836  36.597 -0.0779  0.0054  0.0474
24744W        W31344  15.202   3.906  40.850  0.1693  0.1995 -0.3381
24745W        W31345   9.159   0.239  39.368  0.3134 -0.1129 -0.1086
24746W        W31346   1.362   1.082  14.173 -0.1021 -0.2153 -0.0092
24747W        W31347   6.094   3.205  31.292 -0.0099  0.1850 -0.1447
24748W        W31348   0.830   4.468   6.382 -0.1393  0.0352 -0.2365
24749W        W31349  21.032   0.060   2.129 -0.1881 -0.0976  0.1752
24750W        W31350  17.368   4.077   8.787 -0.2142  0.0326  0.0335
24751W        W31351  10.654   5.387  35.282  0.0385 -0.0776 -0.3134
24752W        W31352   8.081   6.265  38.080  0.0410  0.2370  0.2107
24753W        W31353  17.335   2.809  37.883  0.0936 -0.3229  0.2340
24754W        W31354   9.700   5.174   9.783  0.0561 -0.0121  0.0417
24755W        W31355  18.971   1.231  40.991 -0.3697  0.0245  0.0304
24756W        W31356   0.708   6.214  36.364 -0.2705 -0.0892  0.1435
24757W        W31357  12.470   3.722  16.538  0.2041 -0.0066  0.1239
24758W        W31358  16.238   1.220  39.601 -0.4502  0.3685 -0.0181
24759W        W31359  14.102   6.312  36.847 -0.2013  0.6076  0.1719
24760W        W31360   4.958   0.379   1.854  0.0855 -0.3151 -0.0681
24761W        W31361  21.120   0.154  31.448 -0.0634  0.4613 -0.0391
24762W        W31362   6.387   4.031  31.961  0.1722 -0.1307 -0.1128
24763W        W31363   3.844   0.610   7.619  0.0172  0.0277 -0.0561
24764W        W31364  18.106   4.613  36.537 -0.1660  0.0738  0.3847
24765W        W31365   1.890   3.132  40.026  0.0308  0.0070  0.0801
24766W        W31366   0.284   5.284  32.568 -0.1762  0.2856  0.0977
24767W        W31367  16.213   0.764  23.012  0.0530  0.0262  0.1834
24768W        W31368  10.658   4.908   4.943  0.0580 -0.0176 -0.0769
24769W        W31369  16.861   0.073   7.415 -0.1861  0.0609  0.0596
24770W        W31370   2.385   5.143  32.750  0.2386 -0.2484  0.0542
24771W        W31371  18.513   3.059  37.990 -0.1534  0.2041 -0.2063
24772W        W31372   7.889   5.536  41.447  0.0677 -0.0305 -0.1956
24773W        W31373  18.850   3.745  39.854  0.2523 -0.0050  0.0154
24774W        W31374  14.835   6.452  23.906  0.0865  0.1043  0.1028
24775W        W31375   3.229   4.328  29.953 -0.0661 -0.0379 -0.0562
24776W        W31376   4.671   2.841   7.161 -0.1107  0.0962 -0.1133
24777W        W31377  15.523   2.454   0.992  0.1176  0.1454  0.4529
24778W        W31378   2.898   3.342  29.713 -0.1435  0.0495 -0.0532
24779W        W31379   2.575   1.031  13.658 -0.0160 -0.1720 -0.2600
24780W        W31380  13.166   3.246  33.148  0.3254 -0.1681  0.1707
24781W        W31381   8.957   2.760  39.395 -0.1448  0.2410 -0.1991
24782W        W31382   9.924   5.161  40.260  0.0508  0.0970 -0.2042
24783W        W31383   0.498   2.042  29.422  0.0824 -0.1286 -0.2232
24784W        W31384   8.679   4.059  25.773 -0.1239 -0.1672  0.0709
24785W        W31385   2.875   1.712  44.913  0.0597 -0.1238 -0.1790
24786W        W31386  13.331   0.746   3.967 -0.0762  0.3636 -0.1141
24787W        W31387  10.096   4.454  13.598  0.0764 -0.2433 -0.0057
24788W        W31388  14.076   3.806  17.049  0.0688 -0.0369  0.4299
24789W        W31389   3.042   0.744   6.545  0.0266  0.1100  0.1660
24790W        W31390   5.384   5.973  34.066 -0.2044 -0.0264  0.0459
24791W        W31391  17.626   2.028  32.158  0.1034  0.1162 -0.1375
24792W        W31392  16.247   4.833  11.288  0.1556 -0.2026  0.0627
24793W        W31393  12.830   2.071  36.525  0.1442 -0.1414  0.2486
24794W        W31394  14.501   5.566   8.057  0.1122  0.2170  0.0429
24795W        W31395   9.939   1.238  37.462  0.0960  0.0609  0.3599
24796W        W31396  11.506   6.078  12.679  0.0750  0.0882  0.0949
24797W        W31397  14.762   2.591  36.688  0.1837 -0.0756 -0.4088
24798W        W31398  15.389   1.582  34.617 -0.3674  0.1202 -0.2303
24799W        W31399  15.893   6.312   5.114 -0.0293  0.2515  0.1760
24800W        W31400  13.392   0.692  41.397  0.0522 -0.0591  0.0924
24801W        W31401  13.462   1.867   6.718 -0.1600  0.0031 -0.1026
24802W        W31402  19.334   0.984  13.760  0.1953 -0.0785  0.2290
24803W        W31403   5.398   0.919  11.127  0.3526 -0.0927  0.4044
24804W        W31404  16.265   3.671   0.247  0.0169 -0.2964  0.0607
24805W        W31405   0.862   5.948  43.335 -0.0761  0.0189 -0.0558
24806W        W31406   3.937   3.334   8.685 -0.0375  0.2142  0.0408
24807W        W31407  11.873   1.119  15.723  0.2847 -0.0183  0.0234
24808W        W31408   5.179   0.218  34.501 -0.2377 -0.2769 -0.0655
24809W        W31409  17.819   4.717  44.331  0.0791 -0.0740 -0.1087
24810W        W31410   1.221   2.701   2.719 -0.3295 -0.1595  0.0680
24811W        W31411   0.006   5.009   5.249  0.0442  0.0851  0.1350
24812W        W31412   8.328   0.489  37.531 -0.1592  0.0843 -0.2341
24813W        W31413  14.556   2.134  39.050  0.0939  0.0453  0.2621
24814W        W31414  16.229   5.356  34.512  0.3235 -0.1330 -0.0757
24815W        W31415   5.059   3.881  14.962 -0.0405  0.2169 -0.0500
24816W        W31416   6.323   5.109  29.749 -0.0503  0.2457  0.0462
24817W        W31417  15.416   5.653  18.651  0.1109  0.2464  0.0655
24818W        W31418   3.372   3.744  31.339 -0.2142 -0.0193 -0.4056
24819W        W31419   8.878   1.837   0.731  0.2335  0.2977 -0.0690
24820W        W31420   4.041   0.813  12.110 -0.2575  0.1278 -0.0002
24821W        W31421  14.395   1.614  18.992  0.0129 -0.0833 -0.2476
24822W        W31422  19.903   5.107   5.288  0.1932 -0.0445 -0.0811
24823W        W31423  16.900   2.903  40.669 -0.0655  0.1325 -0.3531
24824W        W31424  13.356   3.992   9.248 -0.0379  0.0408 -0.1119
24825W        W31425   6.557   1.335  28.669 -0.2020  0.0731 -0.1347
24826W        W31426  18.308   5.486   4.874  0.0305  0.0249 -0.0114
24827W        W31427   2.489   6.058   4.240  0.0955  0.1091  0.2801
24828W        W31428   3.987   3.982  41.180 -0.1841  0.0371  0.1464
24829W        W31429   7.671   5.591   0.375  0.2261  0.0404 -0.0503
24830W        W31430  16.848   0.222  42.241  0.0598 -0.0321  0.1258
24831W        W31431  19.696   3.495  10.955 -0.2148 -0.1353 -0.0053
24832W        W31432  18.105   6.158  36.114  0.1902 -0.0063 -0.2303
24833W        W31433  17.507   5.514  40.120 -0.0281 -0.1550  0.1581
24834W        W31434  15.503   0.259  30.109 -0.1164 -0.1866 -0.0007
24835W        W31435   6.740   4.883  35.058 -0.0924 -0.1165 -0.0162
24836W        W31436  11.119   6.156  16.754  0.0466  0.1643  0.2609
24837W        W31437  11.485   6.579   8.428 -0.1109 -0.1627 -0.4423
24838W        W31438  11.982   5.152   8.410  0.0154  0.1229 -0.0486
24839W        W31439   0.931   4.577  12.912 -0.0280  0.1290  0.0634
24840W        W31440   4.931   1.056  15.207 -0.0860  0.0256 -0.1335
24841W        W31441  18.385   3.812  17.398 -0.0138 -0.1464  0.0733
24842W        W31442  18.376   6.001   4.115 -0.1181  0.5727  0.2643
24843W        W31443   3.228   3.301   7.440 -0.2346  0.0276  0.0372
24844W        W31444   5.788   5.730  33.286 -0.0827  0.5850 -0.3324
24845W        W31445  20.339   1.927  25.046  0.2219  0.0907 -0.0641
24846W        W31446   7.252   1.739  28.099  0.2225 -0.0237 -0.3754
24847W        W31447   5.665   0.943  30.027  0.2375  0.0981 -0.2358
24848W        W31448  11.477   3.287  17.676  0.1979 -0.0008  0.0467
24849W        W31449   4.142   4.701   7.089  0.0600  0.0754 -0.0499
24850W        W31450   9.928   4.719   9.803 -0.0256  0.1364  0.2087
24851W        W31451   5.972   3.242  26.644 -0.2073 -0.1875  0.1702
24852W        W31452   1.113   4.736  13.621 -0.1161  0.0309 -0.1944
24853W        W31453  18.305   4.044   5.971  0.0769 -0.1953 -0.1314
24854W        W31454  14.044   2.167   5.046  0.0494 -0.1766 -0.0005
24855W        W31455  20.509   3.329  18.536 -0.0781  0.0677 -0.1077
24856W        W31456  13.766   2.726   7.600  0.1109  0.1068 -0.0009
24857W        W31457   4.987   3.080   6.240  0.2746 -0.0398 -0.2100
24858W        W31458   0.754   3.211  36.924 -0.2123 -0.1015 -0.1456
24859W        W31459  11.862   5.450  33.354 -0.0105  0.1165  0.1072
24860W        W31460  12.616   6.299  37.429  0.4467  0.2020  0.1766
24861W        W31461   6.856   1.329   4.497 -0.1325 -0.3832 -0.3320
24862W        W31462  11.880   0.789  36.018 -0.1598 -0.2900 -0.0245
24863W        W31463   3.963   5.835  28.292 -0.1058 -0.1281 -0.3505
24864W        W31464  20.931   0.675  37.373  0.4296 -0.3569 -0.3390
24865W        W31465   7.589   1.513  29.911  0.1303 -0.0891  0.1294
24866W        W31466   1.444   5.020  33.995  0.1826 -0.0093 -0.0643
24867W        W31467   9.019   1.524   4.488 -0.0192  0.1466  0.2673
24868W        W31468   7.863   3.238  12.623 -0.1391  0.1779  0.1814
24869W        W31469   4.317   6.373  42.369  0.1372  0.0397 -0.1857
24870W        W31470  19.133   5.327  38.147 -0.2048  0.1538  0.1545
24871W        W31471   1.301   6.311  10.426 -0.0519 -0.2474  0.1949
24872W        W31472  19.431   5.917  10.266  0.0437  0.1326  0.0363
24873W        W31473  19.459   5.120   4.088  0.3872  0.1689 -0.0519
24874W        W31474   5.197   2.627   6.293  0.0432  0.2073  0.0590
24875W        W31475  12.496   4.201  13.687 -0.3603  0.0484  0.1638
24876W        W31476  10.954   1.743  19.127 -0.0804 -0.0001  0.2089
24877W        W31477   5.012   1.804   5.719  0.2595 -0.1426 -0.4186
24878W        W31478   2.237   5.631  43.710 -0.2614  0.0702  0.1850
24879W        W31479  17.990   0.486  32.849 -0.3422  0.0920 -0.1032
24880W        W31480   8.980   1.266  36.604 -0.1835  0.1410  0.0566
24881W        W31481   2.057   0.705   0.774  0.2534 -0.0670  0.2962
24882W        W31482  10.286   3.607  33.136  0.0916 -0.1997 -0.3439
24883W        W31483  18.774   6.138  16.356  0.0467 -0.0694  0.2737
24884W        W31484  12.573   3.438  30.099  0.0032  0.4609  0.0010
24885W        W31485   8.565   2.181  39.971  0.1982 -0.0245  0.0363
24886W        W31486   9.506   0.903  41.393 -0.1416  0.1022 -0.1415
24887W        W31487   5.261   3.323  39.584 -0.1779 -0.1451 -0.0334
24888W        W31488   9.569   4.084  29.984  0.0384 -0.0352 -0.0584
24889W        W31489   1.907   0.660  30.495  0.1245  0.0690 -0.2121
24890W        W31490  14.971   6.142   0.323 -0.1127 -0.2405 -0.0353
24891W        W31491  14.233   1.547  35.470 -0.1136 -0.3824 -0.0689
24892W        W31492  20.368   1.116  13.566  0.1002 -0.1001  0.0775
24893W        W31493  11.374   0.850   9.351  0.1662 -0.0787 -0.2873
24894W        W31494   4.388   2.804   0.766 -0.1503 -0.0406  0.3436
24895W        W31495   3.733   0.843  27.008 -0.1803  0.0674  0.1630
24896W        W31496   1.900   0.808  27.766 -0.0678 -0.1521  0.1466
24897W        W31497   9.266   5.280  40.494  0.1268 -0.4228  0.0412
24898W        W31498  13.090   3.534  37.622 -0.1499  0.0843  0.0552
24899W        W31499   3.975   1.521  10.474 -0.1477  0.0382  0.5206
24900W        W31500  12.346   3.598  38.667  0.2413  0.0358 -0.2730
24901W        W31501  13.136   0.511  20.722 -0.3202 -0.0685  0.3280
24902W        W31502   4.655   2.691  26.859 -0.1350  0.1595  0.0439
24903W        W31503  10.458   0.201   6.357  0.2579  0.0179  0.0648
24904W        W31504   3.218   3.567  33.713 -0.0145  0.3197  0.2456
24905W        W31505  16.602   0.958  14.704 -0.3378  0.2320  0.1031
24906W        W31506  13.010   3.775  19.874  0.1384  0.3650  0.0784
24907W        W31507   3.633   1.810   0.226 -0.1621 -0.3173  0.0160
24908W        W31508   5.649   2.957   3.534  0.1688  0.0389 -0.2397
24909W        W31509  17.653   2.021  18.792 -0.1931 -0.0285 -0.2581
24910W        W31510   9.862   5.228  43.642 -0.5695  0.0855  0.0125
24911W        W31511   9.870   3.438  42.010  0.2572 -0.0997 -0.4238
24912W        W31512  20.533   0.718  33.371  0.2890  0.1865  0.0499
24913W        W31513   9.790   4.625  12.354 -0.1687 -0.0488 -0.0864
24914W        W31514   2.688   4.998  25.497 -0.0708  0.3406 -0.1357
24915W        W31515   8.099   1.686   3.760  0.2152 -0.1668  0.2502
24916W        W31516   5.635   6.076  24.020  0.3948  0.2151  0.1111
24917W        W31517  10.016   5.985  11.025  0.0083  0.0486  0.0545
24918W        W31518  19.873   2.910   1.108  0.1126  0.1427  0.0597
24919W        W31519   4.212   3.931   2.681  0.2516 -0.1112 -0.0278
24920W        W31520   2.326   3.932  30.219  0.1429  0.3370 -0.0787
24921W        W31521  18.025   2.255  18.083 -0.2332 -0.0441  0.3314
24922W        W31522  21.019   2.862  12.454 -0.0954 -0.0696  0.2987
24923W        W31523  10.321   1.926   5.458 -0.0621  0.0968 -0.1579
24924W        W31524  10.864   3.028  32.164  0.2374 -0.2533 -0.0540
24925W        W31525  18.173   5.058  17.499  0.0416 -0.1910 -0.0079
24926W        W31526  10.673   3.047  44.823  0.0484 -0.2149 -0.1760
24927W        W31527  13.558   1.261  32.950  0.0400  0.1566  0.0063
24928W        W31528   5.710   5.210  29.763  0.1791  0.1709  0.1907
24929W        W31529   8.270   3.084  28.004  0.0110 -0.0917  0.1888
24930W        W31530  11.730   5.478   2.716 -0.0676  0.0618 -0.0361
24931W        W31531  11.219   6.411   1.399 -0.0439  0.1320  0.0920
24932W        W31532   5.547   2.784  10.285 -0.0636  0.1128 -0.1559
24933W        W31533  12.450   1.260  18.958  0.2562  0.0070 -0.1701
24934W        W31534   8.905   1.531  12.446  0.2505 -0.1701  0.1158
24935W        W31535   9.551   1.751   1.468  0.0524 -0.0825 -0.0913
24936W        W31536  15.731   5.954  11.147  0.0595  0.0023 -0.0818
24937W        W31537   5.439   0.775  13.558  0.1560 -0.1957  0.0947
24938W        W31538  15.122   0.049   9.126 -0.1187  0.0967  0.0052
24939W        W31539  14.183   0.360  35.064 -0.0148  0.0544 -0.3549
24940W        W31540   8.036   4.006  44.762 -0.1250 -0.1482  0.1848
24941W        W31541  14.605   4.271   7.121  0.1428 -0.0827 -0.2463
24942W        W31542  18.341   5.894  36.513  0.0428 -0.1015  0.3161
24943W        W31543   4.962   0.348   0.505  0.1590  0.2290  0.2030
24944W        W31544  19.305   0.585   6.955 -0.0798 -0.2021  0.5164
24945W        W31545   4.404   4.923  26.697  0.0965  0.4145  0.0571
24946W        W31546  17.704   4.836  39.775 -0.0327 -0.0084 -0.0615
24947W        W31547   1.299   0.071  42.735  0.0962 -0.0673 -0.0610
24948W        W31548   3.922   3.750   9.392 -0.2303  0.0010  0.1458
24949W        W31549  17.137   0.436  43.133 -0.0608  0.1915  0.1200
24950W        W31550  10.756   2.022   9.926  0.0463 -0.0206 -0.0481
24951W        W31551   8.939   1.467   7.745  0.1263 -0.0448  0.0912
24952W        W31552   6.479   1.272   2.354 -0.1281  0.0246  0.0799
24953W        W31553  18.662   1.623  36.426  0.2035  0.2041 -0.1643
24954W        W31554  15.119   1.937  41.996 -0.2217  0.0704  0.0698
24955W        W31555  20.187   2.368  34.235 -0.1209 -0.1662 -0.0294
24956W        W31556   5.027   6.577  41.983  0.0251 -0.0418  0.1347
24957W        W31557  21.059   4.281  27.488  0.3532 -0.1080 -0.0973
24958W        W31558   0.975   5.479  26.361  0.1296 -0.0542 -0.0394
24959W        W31559  16.049   4.924  43.721  0.0502  0.4289  0.3680
24960W        W31560   8.692   2.839   4.323  0.2362  0.1885  0.0603
24961W        W31561   2.779   3.686  30.216  0.0639  0.0590 -0.0796
24962W        W31562  19.412   5.119  11.565  0.2069 -0.0204  0.1068
24963W        W31563   0.327   5.365   2.648 -0.1228  0.1967  0.2771
24964W        W31564   5.831   6.562  14.936  0.0240 -0.1241  0.1630
24965W        W31565  17.184   0.928   6.881 -0.0678 -0.3312  0.1929
24966W        W31566   0.571   1.885  44.200 -0.3197 -0.1418 -0.1140
24967W        W31567   7.652   6.032   9.231 -0.1887 -0.0409  0.2198
24968W        W31568   5.685   1.902  14.676 -0.0583  0.3491 -0.0713
24969W        W31569  18.087   3.610  31.537  0.2094  0.2712  0.1787
24970W        W31570  15.854   3.605   9.994  0.2085  0.2440  0.3381
24971W        W31571  10.509   2.558  19.235 -0.1003 -0.0127 -0.1280
24972W        W31572   0.708   5.531  42.729  0.1497 -0.1486 -0.1185
24973W        W31573  21.002   2.579  37.620 -0.2223 -0.3008 -0.1668
24974W        W31574   0.849   1.397  30.285  0.1892 -0.0847  0.3756
24975W        W31575   8.055   4.521  11.654  0.0405  0.0271  0.2299
24976W        W31576   3.262   0.305   0.853 -0.1337 -0.0742 -0.0088
24977W        W31577  19.414   6.452  27.086  0.0049 -0.2241 -0.0354
24978W        W31578  21.120   1.489  34.904 -0.0457 -0.0846  0.0513
24979W        W31579  16.214   0.013  15.399 -0.0033 -0.2741  0.2645
24980W        W31580  17.117   3.470  44.981 -0.2488 -0.2027  0.2595
24981W        W31581   1.070   1.060  33.829 -0.1974  0.5402  0.0665
24982W        W31582  11.066   0.441  36.176 -0.2135 -0.1320  0.1263
24983W        W31583  12.393   4.359   5.031 -0.1612  0.1444  0.0626
24984W        W31584  15.627   4.046  43.480  0.2134  0.3174 -0.2362
24985W        W31585  19.570   0.378  32.877 -0.3428  0.2973  0.3039
24986W        W31586  13.481   2.514  32.567  0.0186  0.0563  0.2150
24987W        W31587   3.368   5.151  31.285  0.0486  0.0094  0.2291
24988W        W31588   2.995   0.206  11.153  0.1143 -0.1875  0.2847
24989W        W31589  10.486   3.316  41.507  0.0535 -0.1566 -0.0089
24990W        W31590  17.937   3.302  44.338 -0.3114  0.1613 -0.0780
24991W        W31591   3.772   2.673  21.782 -0.1483 -0.0081  0.0656
24992W        W31592   7.345   3.683   5.631 -0.3174 -0.0137 -0.0890
24993W        W31593  19.616   1.527   0.075  0.1251 -0.3492  0.1168
24994W        W31594  16.698   6.552  17.277 -0.0038 -0.1965 -0.2571
24995W        W31595   1.015   1.074  26.437 -0.3251  0.0950  0.1581
24996W        W31596   7.461   2.315   9.960  0.0315  0.0885  0.2575
24997W        W31597  12.283   2.311  33.084 -0.0972  0.0841  0.0119
24998W        W31598   0.132   6.320  10.431  0.2228  0.2374 -0.3296
24999W        W31599   8.512   3.385  16.588  0.0446  0.1617 -0.1122
25000W        W31600  17.639   5.268   1.666  0.0519 -0.0817 -0.1809
25001W        W31601  15.376   4.780  30.770 -0.3435  0.2855  0.1332
25002W        W31602   6.682   3.064  36.222 -0.1188 -0.2505  0.1989
25003W        W31603  15.302   5.063  30.345  0.2162  0.0750  0.1695
25004W        W31604  13.940   0.353  44.798  0.0598  0.1544 -0.1524
25005W        W31605   2.887   3.587  26.284  0.0783 -0.0503 -0.1166
25006W        W31606  15.394   4.591  15.521 -0.1888 -0.2859  0.1427
25007W        W31607  17.898   1.686  34.898 -0.1660  0.2916  0.3520
25008W        W31608  10.713   4.708  14.805 -0.0596 -0.1378  0.0285
25009W        W31609  15.704   0.747   1.927  0.0715  0.0132 -0.1030
25010W        W31610   4.945   1.966  43.149 -0.0874 -0.1922  0.2144
25011W        W31611   6.511   3.080   8.661 -0.0138 -0.0463  0.0425
25012W        W31612  12.878   5.607  13.901 -0.0711 -0.1809 -0.1799
25013W        W31613   6.738   4.074  41.894  0.1134 -0.2228 -0.0303
25014W        W31614  13.490   2.049  17.568  0.1756  0.0116 -0.3051
25015W        W31615  18.854   0.230  28.695  0.3541 -0.2125 -0.2808
25016W        W31616   2.366   1.509  42.243  0.2694  0.1440  0.0605
25017W        W31617  17.431   5.850  35.547 -0.2373 -0.0788 -0.2612
25018W        W31618   1.244   0.010   6.768  0.1366 -0.0130  0.0176
25019W        W31619   1.923   0.028  42.318 -0.0277  0.2844  0.1013
25020W        W31620   9.096   1.650  36.994 -0.2638  0.0482 -0.0252
25021W        W31621  10.217   2.141  16.696  0.2073 -0.0282  0.2537
25022W        W31622   8.510   5.439  28.640 -0.0034 -0.3345 -0.2611
25023W        W31623   0.370   5.303  39.901 -0.1032 -0.0609 -0.0205
25024W        W31624   5.859   0.608  34.359 -0.0402 -0.0835  0.0295
25025W        W31625   0.263   4.454   9.572  0.0711 -0.1961  0.1755
25026W        W31626  19.424   0.927  42.561  0.1715  0.0755  0.2952
25027W        W31627  16.565   2.099   7.442  0.3872  0.0375  0.0571
25028W        W31628  19.525   5.340  27.989  0.0723  0.2110  0.0309
25029W        W31629   7.757   5.328  25.456 -0.0668 -0.2371  0.2046
25030W        W31630   3.299   4.832  28.658  0.0720  0.1746  0.1007
25031W        W31631   5.238   4.856  11.726 -0.2907  0.0138 -0.0654
25032W        W31632  18.890   4.797   8.371  0.1249  0.0217 -0.1458
25033W        W31633   9.518   0.577  14.549 -0.1772  0.1838 -0.2479
25034W        W31634   1.917   5.597  34.246 -0.0712  0.1453 -0.1415
25035W        W31635  15.433   6.280  43.956  0.1006 -0.3088  0.0138
25036W        W31636   2.564   0.031   3.574 -0.2711  0.0918  0.0450
25037W        W31637  19.629   1.209  11.257 -0.0963  0.0735  0.2180
25038W        W31638  18.793   4.980  43.502 -0.0793 -0.0083 -0.1866
25039W        W31639   4.510   4.557  25.354 -0.3300  0.0677  0.0673
25040W        W31640  18.419   3.276   7.587  0.0592 -0.0715 -0.0340
25041W        W31641   2.645   6.266  30.718 -0.0376  0.2727  0.0713
25042W        W31642   1.401   1.493  27.655 -0.1143  0.0788  0.1704
25043W        W31643  14.252   4.010   3.560 -0.2588  0.1245 -0.0786
25044W        W31644   8.936   5.436  42.203  0.3221  0.0300 -0.2247
25045W        W31645   2.761   4.140  25.373  0.1737 -0.0792 -0.3025
25046W        W31646   8.239   5.108  37.390 -0.2625 -0.2055 -0.1864
25047W        W31647   0.198   3.249  37.052  0.1870  0.0768 -0.3601
25048W        W31648  14.861   5.924   2.858  0.1616 -0.2222 -0.2318
25049W        W31649   3.269   1.435   0.172 -0.3396  0.1385 -0.3845
25050W        W31650  14.887   6.151  43.927  0.1281  0.2099 -0.0329
25051W        W31651   9.189   0.871   8.867 -0.2243 -0.0394 -0.0999
25052W        W31652  19.176   4.094  42.063  0.2263  0.3671 -0.0067
25053W        W31653  17.525   6.170  15.897  0.2177 -0.1005 -0.0979
25054W        W31654   5.373   1.389  16.490  0.3188  0.1597  0.1025
25055W        W31655  20.743   3.921  28.410 -0.2422 -0.1528 -0.0080
25056W        W31656   1.272   2.004  29.286 -0.1575  0.1562 -0.3824
25057W        W31657  13.214   2.519  14.575  0.1676  0.0804  0.1391
25058W        W31658   0.902   0.678  38.132  0.0423 -0.0020 -0.3259
25059W        W31659  20.443   5.846   8.495  0.0561  0.1373  0.1884
25060W        W31660   4.369   2.281   6.477  0.2689 -0.0421 -0.3241
25061W        W31661  14.674   6.303  40.723  0.1648 -0.2915 -0.1681
25062W        W31662  20.691   4.114  29.901  0.2082  0.0335 -0.0613
25063W        W31663  20.907   3.417  29.306  0.1698  0.2409 -0.0843
25064W        W31664  18.144   1.293  44.482 -0.0860 -0.0002 -0.1881
25065W        W31665  18.173   2.993  12.762  0.1058  0.0342  0.1749
25066W        W31666   8.812   0.941   3.805 -0.2030  0.0277 -0.0545
25067W        W31667  10.072   1.373   6.241  0.0875  0.2006 -0.0834
25068W        W31668  11.354   5.857  14.428  0.1881  0.0980 -0.0650
25069W        W31669   0.023   2.142  37.464  0.0617  0.2321  0.2449
25070W        W31670  14.582   2.096  22.377  0.1028  0.2452 -0.2532
25071W        W31671   7.425   4.795  26.852 -0.0275 -0.1087  0.0916
25072W        W31672   8.087   0.654  17.080  0.1965 -0.1941 -0.1168
25073W        W31673   4.317   3.276   4.857  0.2450 -0.1203  0.1190
25074W        W31674  13.089   0.855  36.646  0.2174 -0.0216  0.2254
25075W        W31675   7.717   0.725  29.479 -0.0707 -0.3162 -0.2716
25076W        W31676   7.004   1.506  14.757  0.4740  0.2386 -0.3295
25077W        W31677  15.949   1.519  30.869  0.1506 -0.3191 -0.1061
25078W        W31678   9.793   1.086  45.123 -0.2872  0.0585  0.0993
25079W        W31679  15.831   4.861  14.485  0.0336 -0.3353  0.2014
25080W        W31680  14.860   2.616  38.138  0.2526  0.0191  0.1777
25081W        W31681  11.737   2.862  39.144  0.0800 -0.2686 -0.1363
25082W        W31682   6.165   0.260  30.338 -0.1532 -0.0416 -0.0290
25083W        W31683  19.264   6.094   6.157  0.1877 -0.3206 -0.2418
25084W        W31684  16.377   0.091  39.658  0.0601  0.2420  0.2646
25085W        W31685   8.905   0.532   8.532  0.3171 -0.0192 -0.1394
25086W        W31686  12.654   6.084  15.877 -0.1011  0.0848  0.0352
25087W        W31687   5.481   1.303  41.611 -0.1778  0.0360  0.0346
25088W        W31688   2.910   5.996  33.352  0.0434  0.0034  0.0377
25089W        W31689   5.571   4.055  31.186 -0.1188 -0.1041 -0.2297
25090W        W31690  14.941   4.670  41.016 -0.1327 -0.2566  0.1710
25091W        W31691  19.219   1.832  16.930  0.2426  0.1790  0.1564
25092W        W31692  16.622   2.917  31.188 -0.0297  0.2278  0.2980
25093W        W31693   3.151   3.661  26.857 -0.0880 -0.0522  0.3440
25094W        W31694   2.488   1.232  33.803 -0.0498  0.1045 -0.1358
25095W        W31695   9.301   6.383  45.128 -0.1668 -0.1431 -0.2614
25096W        W31696   1.838   5.927   8.465  0.1353  0.0106  0.1824
25097W        W31697  15.553   3.053  45.118 -0.2825  0.0549 -0.0545
25098W        W31698  14.432   1.707   7.099  0.0576  0.1175  0.2574
25099W        W31699  10.834   3.856  20.079 -0.2070 -0.1619  0.1390
25100W        W31700   1.552   0.810   5.631 -0.1714 -0.0306  0.2264
25101W        W31701   3.376   0.909   1.220 -0.0718 -0.0573 -0.0491
25102W        W31702   5.366   1.865  29.173 -0.3163  0.3295 -0.0100
25103W        W31703  11.563   2.797  33.941  0.0420 -0.3054 -0.2470
25104W        W31704  10.511   1.751  37.045  0.2836  0.0675  0.1802
25105W        W31705  16.585   1.427  21.555  0.2277 -0.0538  0.5585
25106W        W31706  20.200   3.841   9.268  0.0315 -0.0428  0.1735
25107W        W31707  16.250   5.474   0.999 -0.1099 -0.1224 -0.1223
25108W        W31708   1.925   2.145  37.732  0.2691  0.4866  0.0523
25109W        W31709   3.230   4.661   9.773  0.1016  0.2262 -0.2134
25110W        W31710  12.306   5.993  33.959 -0.0256  0.1364 -0.1543
25111W        W31711   6.879   2.238  33.168 -0.1607 -0.0928  0.0332
25112W        W31712  11.428   1.902  16.164  0.0625 -0.2303  0.2017
25113W        W31713  15.099   2.420   5.778 -0.1957  0.1950 -0.0909
25114W        W31714   8.825   0.587  40.773 -0.0217 -0.3814 -0.2079
25115W        W31715  19.455   3.741  31.872 -0.0160 -0.1463  0.1817
25116W        W31716  16.399   1.579  33.829  0.2751 -0.1440  0.0546
25117W        W31717  11.115   4.385   8.345 -0.0233  0.0222  0.1360
25118W        W31718  18.339   3.605  39.598 -0.5607 -0.0041  0.2910
25119W        W31719   4.474   2.191  14.002  0.2276  0.0281 -0.0275
25120W        W31720   3.885   2.397  36.308  0.0267  0.1751  0.1290
25121W        W31721   8.211   4.276  16.643  0.1806 -0.1752  0.0784
25122W        W31722   0.380   5.582  34.357  0.0539  0.0903  0.4315
25123W        W31723  15.462   4.013  35.489  0.1837 -0.1301  0.1696
25124W        W31724   6.228   6.583  12.114  0.1679  0.0126  0.2554
25125W        W31725   3.675   6.345   4.946 -0.1809  0.0554 -0.1910
25126W        W31726  17.842   4.621   0.100 -0.1767 -0.0782 -0.0076
25127W        W31727  20.862   1.257   4.403 -0.1536  0.2144 -0.2095
25128W        W31728   8.265   5.535  42.900 -0.0706 -0.0889 -0.2295
25129W        W31729  16.130   6.285  38.590 -0.0834  0.1663  0.3677
25130W        W31730  10.243   4.197   5.305  0.0544 -0.0525  0.2703
25131W        W31731  15.576   3.516  30.284  0.2571  0.4003  0.1214
25132W        W31732   9.453   3.260   0.835 -0.2111 -0.0735  0.0679
25133W        W31733   5.931   5.118  29.240 -0.0615  0.1320 -0.1111
25134W        W31734   8.553   5.179  38.210 -0.2624  0.2574 -0.1226
25135W        W31735  15.276   2.960  13.559  0.0965 -0.0527  0.0984
25136W        W31736  13.309   2.459   2.396 -0.2130  0.0751  0.0179
25137W        W31737   7.264   1.278  34.424  0.1010  0.2748  0.1108
25138W        W31738  11.859   0.579   6.440  0.1400 -0.0146  0.1286
25139W        W31739   6.688   4.168   7.820 -0.1580  0.0517 -0.1334
25140W        W31740   0.423   5.066  13.985 -0.2928  0.0201  0.1962
25141W        W31741  14.603   3.326  11.035 -0.0335 -0.1029 -0.2159
25142W        W31742   4.414   5.086  14.721  0.1491 -0.0829  0.2452
25143W        W31743  10.091   0.758  37.397 -0.1486 -0.1640 -0.0068
25144W        W31744   0.964   0.533  28.975 -0.0022  0.1016  0.1460
25145W        W31745   2.222   2.486  15.779 -0.1691  0.2265  0.0626
25146W        W31746   2.201   1.475  36.368 -0.3200 -0.1394 -0.1919
25147W        W31747   9.476   2.795  13.479  0.3827  0.1733  0.1256
25148W        W31748  18.214   6.533  16.628  0.1593 -0.1361 -0.0599
25149W        W31749   4.369   6.241  20.171  0.0414 -0.1367 -0.2136
25150W        W31750   4.683   2.322  30.633 -0.1227 -0.1921  0.0120
25151W        W31751  18.859   2.773  11.673 -0.1835  0.0169  0.0870
25152W        W31752  17.376   2.142   2.373  0.2539  0.0376 -0.0010
25153W        W31753   5.587   2.781  41.871  0.3221 -0.2488  0.1208
25154W        W31754  18.177   1.424  34.072 -0.1681  0.1972  0.0233
25155W        W31755  11.125   4.995  38.519 -0.0589 -0.2324 -0.0609
25156W        W31756  14.893   4.513  32.877 -0.1777  0.1941 -0.0408
25157W        W31757  11.513   2.393  37.990  0.1081 -0.2680 -0.1772
25158W        W31758   0.865   5.292  31.793  0.1894  0.0823  0.1703
25159W        W31759  14.049   1.123   5.053  0.0293 -0.0755  0.0243
25160W        W31760  18.589   4.840  34.294  0.0399  0.0402  0.0801
25161W        W31761   6.140   2.086  11.191 -0.0416 -0.2418  0.1007
25162W        W31762  17.884   0.975  14.366 -0.0356 -0.1345 -0.3357
25163W        W31763   5.836   1.857  32.755 -0.2189  0.0054  0.1473
25164W        W31764  17.987   3.353  38.825  0.0127 -0.1286  0.0012
25165W        W31765   7.073   6.495  26.489  0.0727 -0.1661 -0.0576
25166W        W31766   9.464   5.616   7.719 -0.1026 -0.0428  0.1416
25167W        W31767   1.724   3.602   0.092  0.0452  0.1528 -0.2375
25168W        W31768  19.677   6.038  38.593 -0.0226 -0.0230  0.0569
25169W        W31769   0.895   4.345  11.921  0.0108  0.0644  0.0903
25170W        W31770   3.791   2.835  29.702 -0.1196 -0.0126  0.0752
25171W        W31771  18.801   4.660   7.937  0.2245 -0.1356  0.2643
25172W        W31772  16.876   1.149  15.113 -0.1067 -0.1491 -0.0494
25173W        W31773   5.527   0.898   3.913 -0.0236  0.3608 -0.0240
25174W        W31774   5.921   5.882  11.564 -0.0793  0.0920  0.0228
25175W        W31775  10.431   5.691  34.851  0.1650 -0.1421  0.1148
25176W        W31776   5.810   6.122  34.998  0.0652  0.1833 -0.2179
25177W        W31777   8.334   1.430  15.806 -0.0472  0.0486 -0.1553
25178W        W31778   1.688   6.488  29.410  0.0210 -0.1411 -0.1654
25179W        W31779   0.056   3.995  35.378  0.0086  0.2210 -0.0006
25180W        W31780  20.813   4.801  11.483 -0.1821  0.2324 -0.1202
25181W        W31781   2.879   6.089  21.024 -0.2510  0.1629  0.1735
25182W        W31782  12.675   1.088  22.561 -0.2100 -0.1192  0.3553
25183W        W31783   7.250   4.200  37.559 -0.0902 -0.2913  0.1516
25184W        W31784   2.125   2.902   5.138  0.2319  0.0630 -0.0445
25185W        W31785   9.835   2.506  31.063  0.1725  0.0396  0.3573
25186W        W31786   8.499   4.212  29.972 -0.1013 -0.1245 -0.0687
25187W        W31787   1.237   1.148   5.474  0.1471  0.0677  0.1017
25188W        W31788  10.643   4.899  35.660 -0.1006  0.3162 -0.0759
25189W        W31789   8.236   2.913  31.268  0.0049  0.0291 -0.1217
25190W        W31790  14.063   0.240  35.571  0.2689 -0.2122  0.2876
25191W        W31791   6.937   2.605   0.618 -0.0414  0.0986 -0.2069
25192W        W31792  19.739   5.076  41.757 -0.0190  0.1249  0.0108
25193W        W31793  16.635   1.913  40.459 -0.0186  0.1344 -0.1953
25194W        W31794  13.693   5.359  19.332  0.1659  0.1636 -0.0238
25195W        W31795   2.680   0.531  39.355 -0.0031  0.2419  0.0002
25196W        W31796   8.984   4.618  16.351  0.2407 -0.1800 -0.0391
25197W        W31797  17.006   1.506  43.452 -0.0222  0.2510  0.0005
25198W        W31798   1.886   3.621  33.041  0.0078 -0.0767  0.0045
25199W        W31799  18.940   4.221  33.317 -0.1599  0.0058  0.2340
25200W        W31800   0.703   0.285   9.025  0.3147 -0.3368 -0.0773
25201W        W31801  18.558   5.400   2.126 -0.2815  0.3070 -0.3953
25202W        W31802   4.581   1.012   3.189 -0.1411  0.0956 -0.2972
25203W        W31803   4.058   1.283   3.971 -0.0097  0.1101 -0.1289
25204W        W31804  20.626   6.534  25.713 -0.0204  0.3009 -0.0921
25205W        W31805  11.621   0.415   3.499 -0.0186 -0.3885 -0.1038
25206W        W31806  11.328   1.663  17.565 -0.0209 -0.2850  0.3222
25207W        W31807   5.200   1.346  40.722 -0.0493  0.0078  0.1884
25208W        W31808   8.011   5.782  17.048 -0.3982 -0.3295 -0.0251
25209W        W31809   5.735   0.155   7.749  0.0545 -0.0743 -0.0716
25210W        W31810  13.641   4.642  41.032 -0.0310 -0.0475  0.1585
25211W        W31811   7.271   0.992  30.715 -0.1059 -0.2674  0.2517
25212W        W31812  14.446   3.619   4.862  0.1668  0.0751 -0.0124
25213W        W31813   7.821   3.239   6.601 -0.1897  0.2939  0.1397
25214W        W31814  13.394   3.970   4.349  0.3442 -0.1372 -0.1056
25215W        W31815   2.905   0.333  41.815 -0.1032 -0.0225  0.2107
25216W        W31816   6.088   2.494  36.413  0.0333  0.2062 -0.1081
25217W        W31817  17.782   5.106  17.902 -0.1102 -0.0125 -0.0605
25218W        W31818  10.352   6.057   8.540 -0.2923  0.3125  0.2848
25219W        W31819   0.757   1.383   8.287  0.0375  0.1213 -0.0337
25220W        W31820   2.697   1.168  32.252  0.1272 -0.0421 -0.2001
25221W        W31821  17.646   4.195  44.930 -0.1361  0.0617  0.0370
25222W        W31822  18.840   3.940   2.079 -0.1177 -0.0683  0.1849
25223W        W31823   9.755   0.182   5.951 -0.0957 -0.1673  0.0165
25224W        W31824  20.662   3.381  43.637 -0.2326  0.4515 -0.2309
25225W        W31825  10.909   3.796  13.075  0.0737  0.1045 -0.1819
25226W        W31826  16.375   5.568  21.261 -0.0760  0.3256 -0.1635
25227W        W31827   0.613   4.170  23.024  0.1058 -0.3026 -0.1368
25228W        W31828  16.845   5.799  10.308  0.3386  0.2626  0.0903
25229W        W31829  17.079   3.440   5.855  0.1488 -0.4573 -0.2345
25230W        W31830  13.041   0.910   5.255 -0.3795  0.0540 -0.1363
25231W        W31831   4.868   0.254  43.162 -0.0471  0.3823 -0.1734
25232W        W31832  11.874   5.781   7.797 -0.2871  0.2304  0.0332
25233W        W31833  15.522   5.599   3.966 -0.1663  0.1080  0.0651
25234W        W31834  17.349   6.390  17.578 -0.2478  0.0801  0.3348
25235W        W31835  19.762   1.125  13.935 -0.0734 -0.0547 -0.0967
25236W        W31836  16.366   3.254  40.754  0.0509 -0.1303 -0.2715
25237W        W31837  13.911   0.175  29.547 -0.1303 -0.2350 -0.1997
25238W        W31838   4.173   2.921  21.581  0.3541  0.0993  0.2681
25239W        W31839  14.462   2.070  41.602  0.1522 -0.2878  0.1467
25240W        W31840  11.146   3.110  33.958 -0.0319  0.0366 -0.1135
25241W        W31841  12.688   0.377   7.738  0.1158 -0.0534 -0.0405
25242W        W31842   1.605   4.919  22.892 -0.0169 -0.0472  0.1289
25243W        W31843   8.174   3.982  33.841 -0.0719  0.0496  0.0526
25244W        W31844   9.972   4.344  38.358 -0.2900 -0.2119 -0.1007
25245W        W31845  14.178   2.839  37.349 -0.0377  0.3644 -0.1547
25246W        W31846   2.852   5.666  37.564 -0.2611  0.0938  0.1115
25247W        W31847  16.259   1.055  22.554  0.2355 -0.0895 -0.0862
25248W        W31848   0.911   4.417  29.521  0.1563  0.0803 -0.0902
25249W        W31849   0.905   6.451  25.087  0.5909 -0.0966  0.0678
25250W        W31850  19.528   4.105  40.086  0.1432 -0.1300  0.1035
25251W        W31851  12.128   5.916  30.014  0.0498 -0.0146  0.0787
25252W        W31852   5.388   2.647  40.653  0.0446  0.2580 -0.2141
25253W        W31853  10.059   3.730  43.975 -0.2671 -0.3582  0.0415
25254W        W31854  15.160   2.622  10.267 -0.0154  0.1220  0.1412
25255W        W31855  11.733   4.025  32.456  0.1682 -0.1518  0.0904
25256W        W31856  17.810   2.733   7.570 -0.2041 -0.0035  0.0782
25257W        W31857   6.439   3.589   5.987  0.2793 -0.1104 -0.1331
25258W        W31858  14.736   4.596   0.548  0.0378  0.0821 -0.1863
25259W        W31859  11.667   3.438  41.285 -0.2474 -0.1049  0.1203
25260W        W31860   6.339   3.315  16.135  0.0853 -0.0112 -0.0006
25261W        W31861  18.378   2.960  37.091 -0.1667 -0.0260  0.1513
25262W        W31862  11.141   2.157   7.770  0.2327 -0.0428  0.0293
25263W        W31863  10.876   4.861  36.076 -0.0286  0.2975  0.0095
25264W        W31864   8.885   0.681  10.657 -0.0369  0.2018 -0.1521
25265W        W31865  18.062   6.350  16.136  0.4431  0.0841 -0.2686
25266W        W31866   7.513   0.026  15.496 -0.0694 -0.1164  0.0526
25267W        W31867   2.865   3.144  14.238  0.0088 -0.3447 -0.2089
25268W        W31868  10.953   5.155  14.770  0.0938 -0.2790  0.3462
25269W        W31869   2.454   0.226  36.555 -0.0064  0.1207  0.0609
25270W        W31870   9.800   0.881  12.625  0.1771  0.0867  0.2452
25271W        W31871  14.255   1.091   8.266  0.0114  0.1420  0.0705
25272W        W31872   0.520   1.032  29.723 -0.2782 -0.0228 -0.3038
25273W        W31873  12.784   1.718  41.823  0.2765  0.0271 -0.3968
25274W        W31874  15.377   4.431  22.685  0.0055 -0.1102  0.1213
25275W        W31875  17.914   0.216  21.180 -0.0076  0.0338  0.2925
25276W        W31876   1.352   1.081  34.935  0.1565 -0.0448 -0.2393
25277W        W31877  19.526   0.529  31.325  0.1658  0.1756  0.1444
25278W        W31878  10.771   4.619  13.215 -0.0733 -0.2608 -0.2231
25279W        W31879  16.246   0.158  38.725  0.0540  0.2523  0.3187
25280W        W31880   0.499   1.716  43.187  0.0247  0.1066 -0.0965
25281W        W31881   8.566   0.569  13.839  0.1097 -0.0879 -0.0924
25282W        W31882   4.631   1.479  15.058 -0.1406  0.2233 -0.1646
25283W        W31883   5.005   1.776  23.811 -0.0113  0.1839  0.1589
25284W        W31884  19.466   3.701  17.766 -0.2612 -0.5766  0.0420
25285W        W31885  14.306   4.333  44.017  0.4220  0.1301  0.2332
25286W        W31886  10.659   1.923  30.431 -0.1348 -0.1862 -0.1878
25287W        W31887  15.295   4.769  21.301 -0.1325  0.0791 -0.0548
25288W        W31888   5.267   3.980  11.977  0.2319  0.0583  0.3807
25289W        W31889   6.487   0.178  43.242  0.0237  0.1260 -0.0057
25290W        W31890  12.461   6.352  15.265  0.1080 -0.0047  0.1191
25291W        W31891   6.933   0.755  27.600 -0.1633  0.1957  0.1482
25292W        W31892   0.185   6.086  14.216  0.0363 -0.2044  0.0584
25293W        W31893  12.905   3.174  28.217  0.1038 -0.0165 -0.0936
25294W        W31894  15.828   4.774  37.822  0.4218 -0.0796 -0.0742
25295W        W31895  20.611   5.115  29.013  0.1722  0.1323 -0.3075
25296W        W31896   7.428   4.339  27.066  0.1720 -0.1002 -0.0205
25297W        W31897   3.304   3.097  37.095  0.0604 -0.2152 -0.0157
25298W        W31898   9.144   1.981  15.865  0.0035  0.1143  0.0673
25299W        W31899   2.255   4.202  21.594  0.1049  0.0791  0.1740
25300W        W31900   3.747   4.542  20.419  0.0241 -0.0560  0.1219
25301W        W31901   9.824   1.564   0.160  0.0766 -0.0414  0.2273
25302W        W31902   1.719   0.878  43.137  0.1353  0.0203  0.0008
25303W        W31903  18.475   3.913  40.178  0.0375  0.0832 -0.0253
25304W        W31904  16.886   4.536  40.772  0.2235 -0.3352  0.1936
25305W        W31905  17.383   2.486  31.545 -0.1907 -0.0806  0.0517
25306W        W31906   5.092   5.439  26.763 -0.0663 -0.1211 -0.2371
25307W        W31907   5.395   5.840   8.737 -0.0194  0.2507  0.2584
25308W        W31908  16.499   1.312  14.351 -0.1662 -0.1902  0.1577
25309W        W31909   3.208   2.782  40.693 -0.0167  0.2158  0.1166
25310W        W31910   7.823   4.489  10.480 -0.0413 -0.0062  0.1270
25311W        W31911  19.121   0.430   8.823 -0.0854 -0.0885 -0.1358
25312W        W31912   0.665   5.776  38.934 -0.1573 -0.2989  0.0789
25313W        W31913   4.284   4.198   7.093  0.0472 -0.0187  0.2992
25314W        W31914  18.049   4.055  41.556 -0.0107  0.1998 -0.0677
25315W        W31915   8.231   1.451  33.766 -0.1657 -0.0436  0.1820
25316W        W31916   2.605   3.497  22.199  0.0482 -0.0380  0.0079
25317W        W31917  11.517   3.560  32.389  0.0852  0.3657  0.2266
25318W        W31918  16.409   6.382  30.534 -0.1229  0.0050 -0.0980
25319W        W31919  16.275   1.450  38.154  0.2570  0.1075 -0.0740
25320W        W31920  15.728   1.194  13.869  0.1503 -0.0864 -0.1835
25321W        W31921  16.254   5.599  28.899 -0.0868 -0.1605  0.0090
25322W        W31922  17.961   6.342  31.539 -0.1303  0.1545 -0.0263
25323W        W31923  11.539   1.705  42.556  0.1200  0.0380 -0.2370
25324W        W31924  15.297   2.086   7.523 -0.0940 -0.1902  0.1788
25325W        W31925   6.986   3.283  14.817 -0.1992  0.0019  0.1426
25326W        W31926   1.139   6.057  28.768  0.0610  0.1425  0.0948
25327W        W31927   0.239   2.055  41.200 -0.0398 -0.0714  0.1662
25328W        W31928  15.212   4.212  43.694  0.0208 -0.0101 -0.0254
25329W        W31929  10.004   0.062  37.611 -0.0292 -0.0691 -0.1462
25330W        W31930   2.414   6.319  44.354  0.0047 -0.1762 -0.0562
25331W        W31931   8.486   2.750   3.167  0.1826 -0.2157 -0.1338
25332W        W31932   1.788   6.540  13.219 -0.2231  0.0942 -0.0649
25333W        W31933   1.703   2.495  33.299  0.4071 -0.1543  0.1047
25334W        W31934   8.650   1.412   5.998  0.0864 -0.3388  0.3182
25335W        W31935  15.656   4.567  23.940  0.0978 -0.1352 -0.0277
25336W        W31936   4.110   3.926   3.869  0.2794  0.2093 -0.1053
25337W        W31937  19.180   2.585   7.233  0.0342  0.0580 -0.0776
25338W        W31938  20.294   2.904  42.298  0.0976  0.0436 -0.0989
25339W        W31939  19.100   4.755   2.556  0.0550  0.0200  0.2602
25340W        W31940  17.517   3.323   6.163  0.0565  0.1231  0.0059
25341W        W31941  14.317   5.700  20.021  0.0919 -0.2889 -0.3763
25342W        W31942  12.882   1.221   8.532  0.0615 -0.0412  0.2925
25343W        W31943  15.279   6.467  21.547 -0.0359  0.0524 -0.1051
25344W        W31944  19.169   4.597  33.482  0.0863 -0.0749  0.1251
25345W        W31945   9.465   6.002  40.153  0.1450 -0.0696  0.1484
25346W        W31946  18.726   2.269  16.832 -0.0024  0.2242 -0.1288
25347W        W31947  17.965   2.663   1.706  0.1342 -0.1741  0.1088
25348W        W31948   0.204   3.846  41.304 -0.1766  0.0393  0.2798
25349W        W31949  16.719   4.377  12.209 -0.0852 -0.0850 -0.0194
25350W        W31950   2.067   5.200  30.981  0.0833  0.4528 -0.0140
25351W        W31951  19.600   3.119  31.184 -0.3426 -0.0611 -0.1054
25352W        W31952  13.520   4.883  31.338 -0.1627  0.2939 -0.4248
25353W        W31953  13.131   0.326  38.828  0.0735  0.1207  0.0859
25354W        W31954   1.414   4.754   0.940  0.1566 -0.2311 -0.0759
25355W        W31955   0.786   4.865  24.403  0.0949 -0.1604 -0.0409
25356W        W31956  19.645   6.364  35.395 -0.0672 -0.0917 -0.2687
25357W        W31957   6.542   5.079  11.150  0.1578 -0.1674  0.0439
25358W        W31958  10.181   6.424   0.241 -0.0805  0.1815  0.0856
25359W        W31959   2.474   5.181  15.291  0.0128 -0.0861  0.3786
25360W        W31960   7.382   2.035  24.732  0.0683 -0.2331  0.1257
25361W        W31961   9.814   1.394  35.661 -0.2189  0.2752 -0.2773
25362W        W31962   7.167   0.597  35.588  0.0487  0.4294 -0.0180
25363W        W31963   1.815   2.093   6.488 -0.2170  0.1536  0.3091
25364W        W31964  17.411   1.678   6.177  0.0404 -0.2222  0.1971
25365W        W31965   1.131   0.027  38.778  0.2402 -0.1330 -0.1527
25366W        W31966   2.885   0.719  25.097  0.0340  0.2501  0.0899
25367W        W31967  19.879   4.383  12.347 -0.0667  0.0357 -0.1600
25368W        W31968  18.614   4.138  13.141 -0.3287  0.1094 -0.1365
25369W        W31969   7.141   3.258  32.225  0.1504 -0.0746 -0.2868
25370W        W31970   6.350   4.618  31.066 -0.2643  0.1591  0.0539
25371W        W31971  19.417   6.267  37.329 -0.3235 -0.0677  0.1116
25372W        W31972  15.248   4.778  16.394  0.4007  0.2526  0.2262
25373W        W31973   7.310   5.455   3.299  0.0759 -0.1393  0.0768
25374W        W31974  12.858   5.158  21.947 -0.1109 -0.3450  0.3229
25375W        W31975   9.001   3.335  11.718 -0.2800 -0.2017 -0.0711
25376W        W31976   6.542   0.619  11.522 -0.1010  0.0074  0.1253
25377W        W31977  19.031   3.355  37.342 -0.1115 -0.2659  0.1277
25378W        W31978  20.845   4.895  33.166  0.2025 -0.2208 -0.2208
25379W        W31979   4.512   4.324   1.226 -0.2015 -0.2648  0.1696
25380W        W31980  12.119   1.550   9.695  0.0384  0.2138  0.1784
25381W        W31981  20.916   1.982  30.532 -0.0492  0.0039 -0.1003
25382W        W31982  12.571   6.522   3.603 -0.1173  0.1148 -0.1668
25383W        W31983   1.281   3.853  36.452 -0.1773  0.0624  0.0618
25384W        W31984  10.624   0.779  10.028  0.0357 -0.0095  0.2377
25385W        W31985  13.114   3.777  15.984 -0.0022 -0.1185  0.1276
25386W        W31986  17.613   3.716   5.743 -0.2792 -0.1405 -0.1001
25387W        W31987  19.617   1.015  32.301 -0.1775 -0.2115 -0.0657
25388W        W31988   8.433   4.255   4.841 -0.1871 -0.2667  0.3472
25389W        W31989   6.619   0.285  12.477  0.1708  0.0088 -0.1187
25390W        W31990   3.217   4.969  37.107  0.1356 -0.3508 -0.0656
25391W        W31991   4.780   1.033  39.057 -0.0686  0.2417 -0.0775
25392W        W31992  15.624   2.437  15.270  0.1433 -0.2271 -0.1195
25393W        W31993   8.330   4.747  41.042 -0.0117  0.1174  0.2496
25394W        W31994   1.411   5.298   8.128 -0.0951 -0.1090  0.0268
25395W        W31995   9.435   4.411  30.315  0.2207 -0.0591  0.1154
25396W        W31996   4.802   6.553  22.088 -0.1793  0.0390  0.5784
25397W        W31997  18.731   3.960  36.642 -0.0954  0.3283  0.1655
25398W        W31998   9.825   5.757  29.720  0.2461 -0.1240  0.0334
25399W        W31999  20.548   1.197  10.334  0.1782 -0.0506 -0.2429
25400W        W32000   0.812   4.544  15.807 -0.0994 -0.0284  0.1079
25401W        W32001   3.483   0.002  29.167  0.0407 -0.2200 -0.0088
25402W        W32002   7.292   4.612   1.272  0.0008  0.2359 -0.1026
25403W        W32003  12.881   1.587  43.617  0.3408  0.0078 -0.0529
25404W        W32004  15.303   2.652  42.923 -0.1890  0.2674 -0.1077
25405W        W32005   8.346   2.063  35.542 -0.0794 -0.1348 -0.0699
25406W        W32006   1.362   2.861   0.081 -0.0334 -0.2253 -0.1905
25407W        W32007  10.904   5.326  17.255  0.2061 -0.0081  0.0141
25408W        W32008  15.000   2.461  39.806 -0.4195  0.1626 -0.0734
25409W        W32009  19.790   2.902   3.050  0.1434 -0.1813 -0.0092
25410W        W32010  11.226   1.460   1.053 -0.1336 -0.2338 -0.1203
25411W        W32011  10.251   4.728   2.307  0.0125 -0.0677  0.3970
25412W        W32012   1.860   3.367   3.675  0.2983 -0.2399 -0.4806
25413W        W32013   6.690   5.179   5.818 -0.2989 -0.2445 -0.1251
25414W        W32014  11.938   5.994   1.006 -0.2387  0.1810  0.2253
25415W        W32015  18.893   1.257  15.555 -0.3747  0.1532  0.1490
25416W        W32016   6.812   0.538  38.248  0.0704  0.1613 -0.2654
25417W        W32017   6.309   4.890   6.614 -0.2549 -0.2240 -0.0849
25418W        W32018   0.058   5.411   4.975  0.1215 -0.3017 -0.0107
25419W        W32019   9.854   3.874  14.750 -0.1612  0.0349  0.0384
25420W        W32020  14.629   5.987   2.175 -0.0407  0.0647  0.0030
25421W        W32021  11.661   5.565   5.489 -0.3116  0.1301  0.0227
25422W        W32022   5.132   5.508  10.042  0.1818 -0.0596  0.0398
25423W        W32023  10.552   1.255  15.798  0.0749  0.0818 -0.3623
25424W        W32024   9.287   6.161  13.196 -0.2164 -0.0485 -0.2756
25425W        W32025  18.389   0.124  33.106  0.0029 -0.3330  0.2882
25426W        W32026  19.518   1.294   4.883  0.0175 -0.0220 -0.1577
25427W        W32027  10.357   1.137  43.992  0.0045 -0.1825 -0.1189
25428W        W32028  11.981   0.674  37.478  0.0659  0.1905 -0.1522
25429W        W32029   1.580   4.980   8.941  0.0697 -0.0167  0.1798
25430W        W32030   0.077   5.354  38.290 -0.2000  0.1060  0.1594
25431W        W32031   2.391   2.611  44.974 -0.3197 -0.1942 -0.2315
25432W        W32032  14.783   1.067  18.380  0.1966 -0.0889  0.1004
25433W        W32033   6.494   5.794  35.139  0.1780  0.0842  0.2743
25434W        W32034   3.813   3.109  35.599 -0.0031  0.0871 -0.0203
25435W        W32035   7.044   0.282   1.901  0.2790  0.2045  0.0423
25436W        W32036  11.907   3.596  17.381  0.1233  0.1026  0.3340
25437W        W32037  17.084   2.308  28.780 -0.0290  0.3608 -0.1300
25438W        W32038   3.131   2.569  13.041  0.1618  0.0147 -0.0212
25439W        W32039   9.845   5.353   0.011 -0.2046 -0.1081 -0.2784
25440W        W32040   9.225   5.740   3.455 -0.2517  0.0030  0.0967
25441W        W32041   4.463   0.168   8.051  0.1086  0.2347  0.1540
25442W        W32042   7.636   3.752   4.934  0.0794  0.0380 -0.0329
25443W        W32043   9.705   1.211   8.279 -0.2702 -0.1885 -0.0310
25444W        W32044  17.836   2.868  14.098 -0.2657 -0.1852  0.1391
25445W        W32045   4.024   5.358   7.633 -0.1580  0.2918 -0.2242
25446W        W32046   7.012   1.601  12.190 -0.0963 -0.2678  0.2218
25447W        W32047  12.888   0.650   8.458  0.0439 -0.2753  0.0595
25448W        W32048   6.582   4.991   2.109  0.1219  0.2491 -0.3509
25449W        W32049  10.187   2.789  17.952  0.1267  0.0028  0.3337
25450W        W32050  11.018   3.490  37.197  0.0024 -0.2383 -0.0300
25451W        W32051  16.961   1.532  17.411 -0.1309 -0.0148  0.0822
25452W        W32052  11.578   3.002  15.236 -0.2309  0.0899 -0.1022
25453W        W32053  14.731   1.996   4.433  0.1326 -0.1662 -0.2034
25454W        W32054   5.540   1.437  35.143 -0.2843  0.3549 -0.2733
25455W        W32055  14.144   2.838   1.121 -0.1374 -0.0092 -0.1430
25456W        W32056  16.842   5.660  34.904  0.2223 -0.1707 -0.1154
25457W        W32057   5.035   3.667  36.871 -0.1312  0.0324  0.0556
25458W        W32058  18.397   4.520  12.751  0.0049  0.1654  0.0135
25459W        W32059   1.211   4.795   6.131 -0.0938 -0.4571  0.3875
25460W        W32060   7.879   6.295  41.940  0.0976 -0.0718  0.1547
25461W        W32061  11.482   1.467  32.927 -0.1396 -0.0893  0.1200
25462W        W32062  11.004   4.247  32.913  0.1946  0.0610 -0.1235
25463W        W32063  13.742   4.103  13.025 -0.2357 -0.2795  0.0191
25464W        W32064   7.139   2.317  12.991  0.0606  0.0920  0.1267
25465W        W32065  18.479   0.751  14.306  0.0100 -0.1332 -0.0648
25466W        W32066  16.727   4.288  20.263  0.2048  0.1663  0.0005
25467W        W32067  16.480   4.122  34.835  0.0836  0.1314 -0.1459
25468W        W32068   8.748   1.547  30.280  0.0995 -0.0525 -0.0337
25469W        W32069   0.567   6.320   8.553 -0.0871  0.0001  0.0595
25470W        W32070   3.569   6.004  39.606  0.0305 -0.1659 -0.1235
25471W        W32071  11.970   3.223  16.443 -0.1582  0.0679 -0.0778
25472W        W32072  18.088   3.656  36.070 -0.2059  0.0082  0.4126
25473W        W32073   0.065   4.488  42.251  0.3183 -0.1593 -0.0131
25474W        W32074  16.512   3.602  31.580 -0.1516 -0.1536 -0.0344
25475W        W32075   9.237   1.239  18.264  0.1996 -0.0785  0.1444
25476W        W32076   4.997   1.018  25.238 -0.0396 -0.0900  0.0900
25477W        W32077   1.837   1.733  25.586 -0.1228 -0.0105 -0.2178
25478W        W32078  19.040   5.090   6.464 -0.0788  0.4268 -0.3269
25479W        W32079  13.090   0.011   0.930  0.1500  0.0389 -0.2115
25480W        W32080  20.124   6.297   4.438 -0.2829  0.0579 -0.1343
25481W        W32081  11.682   6.347  15.741  0.1788 -0.1637 -0.0529
25482W        W32082   7.717   1.615   0.941 -0.3723  0.0005  0.1134
25483W        W32083  13.202   4.021   2.581  0.3213  0.1069  0.1321
25484W        W32084  20.228   2.864   2.742  0.0399  0.2104 -0.0042
25485W        W32085  19.531   6.021  27.265  0.0584  0.0988 -0.0148
25486W        W32086  16.220   3.285  34.508 -0.0561  0.0027  0.0025
25487W        W32087   5.772   2.689   0.162  0.1176 -0.1337  0.0042
25488W        W32088  17.771   0.398  14.236 -0.1878 -0.0066  0.4468
25489W        W32089   4.232   5.320  15.713 -0.0279 -0.1446  0.2056
25490W        W32090  11.056   3.671  35.379 -0.2577 -0.0783  0.1490
25491W        W32091  18.310   2.103  11.921  0.1689  0.2071  0.0380
25492W        W32092   3.286   2.287  23.827 -0.0209 -0.0484  0.0889
25493W        W32093  12.607   6.139  21.866  0.2733  0.0041  0.0223
25494W        W32094  20.038   2.344  40.995  0.0798  0.0757  0.1643
25495W        W32095   5.838   3.175  43.445  0.0748 -0.0064  0.1920
25496W        W32096   1.634   0.952  44.955 -0.1340 -0.0447  0.0508
25497W        W32097   9.258   4.954  27.250  0.0701 -0.0811  0.0748
25498W        W32098   8.553   0.729  36.062 -0.1576 -0.1724  0.2760
25499W        W32099   2.838   0.936   9.277 -0.3197  0.1297  0.0626
25500W        W32100   5.183   5.760   2.653 -0.0195  0.0842 -0.2549
25501W        W32101  19.432   1.240  11.911 -0.1482  0.0438  0.1082
25502W        W32102  16.048   5.034  41.139 -0.1802  0.1777 -0.0113
25503W        W32103  20.604   1.135  37.244 -0.0274 -0.1478 -0.1328
25504W        W32104  16.463   1.094   1.505  0.0011 -0.0887 -0.2247
25505W        W32105   2.088   2.242  32.498 -0.0480 -0.0253 -0.0075
25506W        W32106   5.681   4.339  24.140  0.1894  0.1214  0.1614
25507W        W32107   9.400   6.153  30.391  0.0132 -0.0508 -0.1388
25508W        W32108   4.085   3.827   0.322  0.0235 -0.0725  0.4143
25509W        W32109  11.951   5.381  31.551 -0.2457  0.1368 -0.1097
25510W        W32110  15.082   3.565  37.684  0.1607  0.2830 -0.1334
25511W        W32111   0.696   0.251  40.011 -0.0693  0.0895 -0.1512
25512W        W32112   9.272   4.172   7.919 -0.0801 -0.1995  0.0402
25513W        W32113  16.545   0.588  16.464 -0.0385 -0.0188  0.2081
25514W        W32114  13.748   4.952  44.583 -0.3882  0.0147  0.1763
25515W        W32115   7.429   0.622  27.650  0.0560  0.0220  0.2931
25516W        W32116   1.439   2.578   4.910  0.2537 -0.2969 -0.0169
25517W        W32117   5.074   6.248  35.558 -0.1003  0.1584 -0.1913
25518W        W32118   7.623   1.648  32.285 -0.1796  0.2181 -0.1263
25519W        W32119  14.188   2.768  24.965  0.1913 -0.0580 -0.2428
25520W        W32120   2.602   0.479   9.462  0.1049 -0.0425 -0.2895
25521W        W32121  17.551   0.695  14.541  0.1692  0.3188  0.2011
25522W        W32122   0.184   3.702  13.473 -0.1182  0.0091  0.3550
25523W        W32123   1.354   1.327  11.252 -0.0932  0.1877 -0.0057
25524W        W32124  14.871   1.822  42.792  0.0250  0.0718  0.3965
25525W        W32125   4.716   0.719  28.372 -0.0938  0.1788 -0.0518
25526W        W32126   3.198   1.058  37.233 -0.0013  0.0341  0.3148
25527W        W32127  10.651   0.305  41.814  0.2703  0.0028  0.2492
25528W        W32128   7.729   0.390   4.760 -0.2356  0.1895  0.0531
25529W        W32129  12.433   5.578  42.872 -0.1174  0.1366 -0.1143
25530W        W32130  14.323   1.061  35.511 -0.0279 -0.0651  0.3115
25531W        W32131   8.562   1.325  44.849 -0.1165 -0.4378 -0.0553
25532W        W32132  20.732   0.343  15.969 -0.1577  0.0899  0.0387
25533W        W32133  10.049   3.121  33.767 -0.0026 -0.0978 -0.2086
25534W        W32134   1.013   3.104   0.555 -0.0011 -0.0789  0.1029
25535W        W32135   2.115   3.597   1.794 -0.2605  0.1283 -0.1426
25536W        W32136   1.656   0.280  37.929 -0.3509  0.0447 -0.2854
25537W        W32137  11.538   6.584  30.098 -0.2574  0.0196  0.1311
25538W        W32138  12.029   1.660   0.762 -0.3167 -0.0341  0.1745
25539W        W32139   8.676   0.739  32.848  0.0448 -0.0652 -0.1402
25540W        W32140   2.816   2.571  33.217  0.0178 -0.0827 -0.2798
25541W        W32141   1.996   1.815  43.335 -0.0434 -0.1993 -0.0555
25542W        W32142  12.789   6.353   4.509 -0.0545 -0.3794  0.0556
25543W        W32143  17.173   4.762  38.572 -0.0307 -0.4574 -0.1184
25544W        W32144  17.619   3.999  37.570 -0.0727 -0.0514  0.1849
25545W        W32145   0.695   1.280  25.586  0.1279  0.0661  0.2505
25546W        W32146   0.845   1.203  29.284 -0.0648  0.0147  0.0682
25547W        W32147   0.591   1.915  39.141  0.0497 -0.0944 -0.2044
25548W        W32148  19.122   2.502  40.957 -0.3966  0.1795  0.0120
25549W        W32149   2.271   0.414   5.080  0.1128  0.3548 -0.0024
25550W        W32150  14.024   6.118  11.656 -0.0222 -0.1071  0.2712
25551W        W32151   5.932   6.546  41.079 -0.1112 -0.1313  0.0485
25552W        W32152  19.604   5.074  27.023  0.0370  0.2250  0.1298
25553W        W32153   5.388   2.247   4.334  0.2338 -0.0151 -0.2304
25554W        W32154  13.967   2.016  14.676 -0.1594 -0.1606  0.1705
25555W        W32155  16.295   5.559  34.964 -0.3476  0.1563 -0.1007
25556W        W32156  14.468   2.240  32.124  0.1418 -0.1219 -0.1389
25557W        W32157  18.481   0.264  43.262  0.0541 -0.0968  0.0097
25558W        W32158  15.765   5.796  13.188  0.1240  0.0011  0.3813
25559W        W32159  10.017   5.936   5.726 -0.3539 -0.0011  0.1840
25560W        W32160  18.258   2.180  38.051 -0.0581  0.0051 -0.0981
25561W        W32161  13.736   0.484   6.545  0.1565 -0.1726  0.1113
25562W        W32162  12.945   6.069  42.683  0.0332 -0.0008 -0.1976
25563W        W32163   2.400   6.549  23.732  0.0271  0.0648 -0.0749
25564W        W32164  16.795   3.902  20.935 -0.1594 -0.0447 -0.1110
25565W        W32165   2.966   3.485  43.966  0.0526  0.2427  0.0123
25566W        W32166  12.543   3.137  29.228  0.0952  0.1751  0.0557
25567W        W32167  16.429   6.050  11.397 -0.3058  0.0465  0.0916
25568W        W32168  11.520   4.224   5.586  0.0630 -0.1890 -0.1158
25569W        W32169  17.854   0.783  41.376  0.2162  0.3914 -0.2038
25570W        W32170  12.227   4.271  35.259 -0.1132  0.4057 -0.0460
25571W        W32171   4.771   0.577   6.549 -0.1557  0.3533  0.2065
25572W        W32172   8.508   4.476  11.427 -0.0817 -0.0365 -0.2451
25573W        W32173   3.377   3.841  11.461  0.0239  0.2209  0.0645
25574W        W32174   7.051   1.907   5.193 -0.0483  0.0674 -0.0175
25575W        W32175  20.282   5.801  30.161 -0.1814  0.2306  0.1779
25576W        W32176   7.898   0.926  23.919 -0.2990 -0.0147 -0.1327
25577W        W32177   1.893   2.856  39.471 -0.1880 -0.0649 -0.1877
25578W        W32178  16.178   4.348   7.846 -0.0598  0.3615 -0.1013
25579W        W32179  16.771   0.371  12.691  0.0519 -0.0592 -0.2499
25580W        W32180   4.943   3.920  32.350  0.0215 -0.1815  0.0787
25581W        W32181   5.910   6.272  44.556  0.2114  0.0418  0.1083
25582W        W32182   8.704   3.451   8.553  0.1115 -0.2289 -0.1067
25583W        W32183   1.614   4.002  29.510 -0.3047  0.3658 -0.2139
25584W        W32184  13.067   6.522  41.807  0.0541  0.1056 -0.0286
25585W        W32185  14.474   1.931   9.369  0.0978  0.1240  0.0691
25586W        W32186  15.437   0.813  21.455 -0.0266  0.0035  0.4262
25587W        W32187   6.048   0.670  15.952 -0.0477 -0.0503 -0.0978
25588W        W32188   3.640   0.625  23.496  0.3145 -0.3517 -0.3757
25589W        W32189  16.175   4.685  28.967  0.0246 -0.2169  0.2067
25590W        W32190   5.466   0.382   1.608  0.0915  0.1372  0.1303
25591W        W32191   6.789   6.423  13.847  0.2161 -0.1112  0.1290
25592W        W32192   2.547   4.240  31.206 -0.1577 -0.0617  0.0462
25593W        W32193  18.467   2.430  10.641  0.0228 -0.0365  0.1462
25594W        W32194   5.731   6.513   8.124 -0.2381  0.2634 -0.0071
25595W        W32195  10.566   6.476  14.153  0.0436 -0.2495 -0.4842
25596W        W32196  12.572   4.265  18.601  0.1002  0.0186 -0.4151
25597W        W32197   1.844   1.934  14.901 -0.2193 -0.4272 -0.3625
25598W        W32198   4.239   4.377  23.470 -0.2736  0.3397 -0.3866
25599W        W32199  12.485   6.281  35.060  0.1728 -0.5212  0.3157
25600W        W32200  14.953   5.611   2.313 -0.0610  0.0604 -0.2222
25601W        W32201  11.466   0.617  29.374  0.0391  0.1178  0.1491
25602W        W32202   9.464   1.579  39.985  0.0723 -0.0293 -0.0403
25603W        W32203   0.930   2.416   4.945 -0.1265 -0.0662 -0.0672
25604W        W32204  14.680   3.150  40.443  0.0323 -0.0662 -0.2407
25605W        W32205   4.216   1.692  33.795  0.0910  0.2175  0.0679
25606W        W32206   0.809   0.626  24.202  0.2331 -0.2449  0.1123
25607W        W32207   7.667   2.615  34.853 -0.1423  0.0730 -0.2140
25608W        W32208   6.230   2.718  25.968 -0.1128  0.0306 -0.1995
25609W        W32209  15.256   0.099  32.303  0.0548 -0.2609  0.1903
25610W        W32210   8.774   0.426   2.066  0.0708  0.0415  0.0489
25611W        W32211   5.604   0.453  44.807  0.2614  0.4265  0.3732
25612W        W32212   0.220   2.038  32.841  0.0418  0.3513  0.1300
25613W        W32213  10.964   4.346  10.789  0.1369  0.2900  0.0047
25614W        W32214  16.961   1.044  38.894  0.0273  0.0565  0.1705
25615W        W32215   3.368   1.039  24.253  0.2472 -0.2649 -0.0038
25616W        W32216  20.609   4.892  31.680 -0.1271  0.0819 -0.0145
25617W        W32217   0.036   3.007  37.510 -0.0371 -0.0042 -0.1188
25618W        W32218   6.277   3.910  11.014 -0.1224  0.2449 -0.5093
25619W        W32219  16.611   0.834   9.076  0.0901  0.3835  0.1395
25620W        W32220  15.854   4.791  35.331  0.1457 -0.0703 -0.1543
25621W        W32221  12.672   5.814  36.014 -0.1282  0.0610 -0.2371
25622W        W32222  12.526   4.111  17.684  0.2241  0.0650  0.0894
25623W        W32223  13.958   0.244  23.613 -0.1205 -0.1178 -0.0848
25624W        W32224  16.957   2.273  39.691 -0.1042  0.1886 -0.2051
25625W        W32225  20.195   5.005  42.839  0.1499 -0.1457 -0.1328
25626W        W32226  16.629   2.960  44.214 -0.2701  0.0271 -0.0039
25627W        W32227   8.766   0.744   1.616  0.0274 -0.0975 -0.1915
25628W        W32228   6.225   0.859  26.906 -0.1733  0.0784  0.0091
25629W        W32229  10.862   5.139   5.895 -0.0084 -0.1818  0.0117
25630W        W32230  13.131   2.480  40.501  0.0981 -0.1630  0.0190
25631W        W32231   3.279   0.702  22.588 -0.1828 -0.4266 -0.1289
25632W        W32232   7.483   2.833   5.340 -0.0155 -0.3316  0.0095
25633W        W32233  14.716   0.160  22.494  0.0392  0.0006 -0.1569
25634W        W32234  17.357   3.632  37.738 -0.1357 -0.0661  0.0367
25635W        W32235  18.909   1.009  17.071 -0.2607  0.1243 -0.0298
25636W        W32236  12.753   0.835  30.004 -0.0178 -0.0690 -0.0879
25637W        W32237  17.436   2.527   7.320  0.1145  0.0285  0.0197
25638W        W32238  10.530   0.651   6.862 -0.0257  0.1798 -0.1370
25639W        W32239  12.274   3.599   2.812 -0.0468 -0.2778  0.0806
25640W        W32240   4.318   2.075  35.223 -0.2991 -0.1194  0.0190
25641W        W32241  10.457   5.550  17.336 -0.0636 -0.1840 -0.0333
25642W        W32242  14.174   0.532  29.819 -0.0013  0.2079  0.0752
25643W        W32243  10.059   5.475   3.727  0.0703 -0.0354 -0.0362
25644W        W32244   6.808   1.659  41.357 -0.1791 -0.1325 -0.0580
25645W        W32245   7.974   2.704  41.681  0.0898 -0.0782 -0.2011
25646W        W32246  17.787   0.466  30.632 -0.0105 -0.0128 -0.2768
25647W        W32247   2.387   3.026  41.809  0.1600 -0.2049  0.1621
25648W        W32248  10.944   2.144  27.977 -0.0172 -0.2713 -0.0151
25649W        W32249   9.425   0.799  10.373 -0.2305 -0.0753 -0.1021
25650W        W32250  20.709   6.588   6.032  0.0524  0.3225 -0.0079
25651W        W32251  11.044   3.904  42.460 -0.0702  0.3180 -0.0094
25652W        W32252  11.295   0.116  14.083 -0.1335  0.0085  0.3147
25653W        W32253   4.736   4.799  29.135 -0.0482  0.1767 -0.0744
25654W        W32254   0.623   6.169   1.218 -0.0519 -0.0927 -0.1052
25655W        W32255   1.830   4.552   5.496  0.0309  0.0385  0.0633
25656W        W32256  19.110   1.625   3.605  0.0237 -0.1061 -0.0974
25657W        W32257   1.784   4.106  10.495 -0.0946  0.2794 -0.0047
25658W        W32258   8.226   2.257  43.825 -0.1202 -0.2643 -0.2443
25659W        W32259   4.760   0.947  22.386  0.1168 -0.0250  0.2226
25660W        W32260  16.437   2.548  42.619 -0.0402  0.0576  0.0824
25661W        W32261  14.745   0.375  39.876 -0.1286 -0.1690  0.0812
25662W        W32262  19.572   0.647  17.888  0.0046  0.2396  0.0991
25663W        W32263  11.212   0.897  13.580 -0.1481  0.0568 -0.2279
25664W        W32264   4.224   2.691  43.405 -0.0688 -0.0611 -0.0545
25665W        W32265  15.086   2.869  19.885 -0.1206  0.0688 -0.1473
25666W        W32266   8.778   6.161  43.842 -0.2620  0.1154  0.1484
25667W        W32267  11.831   6.270  33.192  0.3659 -0.2558 -0.1646
25668W        W32268   9.767   5.531  34.541  0.3316 -0.0558  0.0261
25669W        W32269  10.973   3.392   1.523 -0.1846  0.2012 -0.1869
25670W        W32270  19.972   3.690  39.991 -0.0010 -0.0869 -0.0956
25671W        W32271  11.363   2.926  34.405  0.0809 -0.1609  0.1594
25672W        W32272  17.566   2.371  36.060 -0.0682 -0.1224  0.1408
25673W        W32273  15.805   0.755  41.598  0.0347  0.1656  0.1729
25674W        W32274   5.513   4.538   2.954  0.3109 -0.1097 -0.0735
25675W        W32275   3.371   3.657   1.108  0.1296  0.3691 -0.1478
25676W        W32276  12.959   2.305  18.986  0.0816  0.0945 -0.2314
25677W        W32277  10.252   0.318  28.311  0.1250 -0.2402 -0.0298
25678W        W32278   1.010   1.396  13.044  0.0645  0.1219 -0.0778
25679W        W32279  14.538   3.792  15.055 -0.2001  0.1449  0.2431
25680W        W32280  14.731   1.522  11.482 -0.0009 -0.0597 -0.1271
25681W        W32281  18.440   1.070   7.957  0.0381 -0.0149  0.3720
25682W        W32282   5.960   3.817   8.350 -0.0764 -0.0769 -0.1551
25683W        W32283  10.025   5.664  28.306 -0.0698  0.3261  0.2064
25684W        W32284  10.718   3.781   5.609  0.0657 -0.1417 -0.0721
25685W        W32285   9.182   2.764   4.288 -0.0034 -0.1463  0.1195
25686W        W32286  11.375   4.861   0.757  0.0950 -0.1565  0.3907
25687W        W32287   2.651   3.875  38.581  0.2000  0.0520 -0.0639
25688W        W32288   0.568   1.815  15.814  0.0652 -0.0095 -0.0250
25689W        W32289   8.530   2.042  33.921 -0.0454 -0.0608  0.0206
25690W        W32290  19.548   5.605  13.659 -0.0801 -0.1846  0.1964
25691W        W32291   1.190   2.278  25.040 -0.4740  0.0908  0.0073
25692W        W32292   3.900   5.665  35.469  0.0506 -0.1552 -0.0598
25693W        W32293  12.334   3.718  13.558 -0.0434 -0.4386 -0.2171
25694W        W32294  13.425   4.336  17.000 -0.0251  0.1565 -0.0312
25695W        W32295  20.201   2.218   4.158 -0.3814 -0.2523  0.1155
25696W        W32296  12.984   4.418  34.108 -0.0904 -0.2077 -0.2728
25697W        W32297  14.105   1.639  39.726  0.0849  0.0185  0.1657
25698W        W32298  18.618   4.254  34.540  0.2533  0.1931 -0.0106
25699W        W32299   8.281   5.734  43.357 -0.0931 -0.0577 -0.3952
25700W        W32300   0.759   5.105  32.783  0.0050  0.0177 -0.0418
25701W        W32301   4.805   3.143   2.151 -0.1680  0.1104  0.0478
25702W        W32302  19.124   4.489   9.704  0.0670  0.0634  0.1518
25703W        W32303  11.386   4.175   9.961  0.0142  0.1936  0.2076
25704W        W32304  16.548   6.352  29.641 -0.3173  0.2506 -0.2054
25705W        W32305   0.496   1.297  44.543  0.1074  0.1319  0.0627
25706W        W32306  19.170   6.225  11.031 -0.0478 -0.1380 -0.0455
25707W        W32307   2.264   4.201  39.928  0.4509 -0.3401 -0.1641
25708W        W32308   2.782   2.542  30.923  0.0541  0.0187  0.0761
25709W        W32309  16.347   4.540  41.137  0.1155 -0.1141 -0.1700
25710W        W32310  18.949   0.404  17.923 -0.1056  0.1895  0.1831
25711W        W32311   0.805   0.580  13.482  0.0781 -0.1337 -0.0309
25712W        W32312   8.566   5.908  10.995  0.0768  0.1782 -0.0723
25713W        W32313   4.619   2.185  39.218  0.1991  0.1525 -0.2113
25714W        W32314  17.862   4.252  13.674  0.0244  0.0825  0.2917
25715W        W32315  13.642   6.309  44.654 -0.1021 -0.0309 -0.1440
25716W        W32316  14.785   1.682  15.722  0.0463 -0.4069 -0.2577
25717W        W32317  12.946   5.582   4.119  0.4640  0.2649  0.0274
25718W        W32318  19.544   0.101  44.657 -0.1045  0.0446  0.1353
25719W        W32319   6.714   5.014  38.194  0.2615 -0.1484  0.0025
25720W        W32320   3.140   5.743  27.929  0.1635  0.0878  0.0244
25721W        W32321  20.489   0.813   3.731  0.1176  0.2465 -0.2083
25722W        W32322  12.882   0.981   3.265 -0.2049  0.0443 -0.4079
25723W        W32323   3.396   0.634  22.106  0.0059  0.0060 -0.3507
25724W        W32324  20.460   6.119  15.921  0.2269 -0.0144 -0.1954
25725W        W32325   3.784   2.872  35.069  0.0269  0.1108 -0.0978
25726W        W32326  16.432   6.357  19.162  0.0091 -0.1920 -0.0221
25727W        W32327   0.484   1.743  33.183  0.2533  0.0788  0.1919
25728W        W32328  20.912   0.705  30.097  0.1134  0.2064  0.0748
25729W        W32329  12.035   6.444  39.819 -0.1797  0.0973 -0.0592
25730W        W32330  17.376   4.076  36.727  0.0012  0.2322  0.2623
25731W        W32331  11.940   1.960  20.921  0.3060 -0.0654  0.3137
25732W        W32332  16.140   0.603  44.821 -0.2016  0.0088  0.2455
25733W        W32333  15.293   4.250  40.164  0.0311  0.0817  0.1900
25734W        W32334  12.735   1.646  29.162  0.2267 -0.0742  0.2531
25735W        W32335   3.114   2.164  42.588  0.3959  0.0788 -0.3493
25736W        W32336   9.971   5.078  41.071 -0.0243 -0.2567  0.0835
25737W        W32337   9.249   2.350  36.756  0.1228 -0.0132 -0.3546
25738W        W32338   4.279   1.131  33.716  0.0844  0.1974 -0.0508
25739W        W32339   1.843   4.947   7.481 -0.2404 -0.0534  0.0947
25740W        W32340  14.228   1.075   4.090  0.3038 -0.1166  0.0920
25741W        W32341   4.521   1.492   8.974  0.4601 -0.0084 -0.0386
25742W        W32342  11.077   2.294  11.140 -0.1011  0.1839  0.1145
25743W        W32343  18.931   1.978  36.231  0.0157  0.4747  0.1275
25744W        W32344  13.053   2.320  12.086 -0.1132 -0.0246 -0.2546
25745W        W32345   0.001   0.328  38.788  0.2099  0.0264 -0.0083
25746W        W32346   3.430   0.860  31.280  0.1026 -0.2701 -0.2206
25747W        W32347   5.254   2.302   3.239 -0.0832  0.3360 -0.2295
25748W        W32348  12.288   3.352  32.986 -0.0964 -0.1218  0.0325
25749W        W32349  14.447   6.109   9.388  0.1636 -0.2633  0.0770
25750W        W32350  17.452   0.081  30.766  0.2098 -0.0798  0.1382
25751W        W32351  12.378   2.433  41.708  0.1676 -0.0198  0.1588
25752W        W32352   8.790   1.109  35.006 -0.1354 -0.0470 -0.0270
25753W        W32353   5.460   0.545  12.047  0.2068  0.2777 -0.2530
25754W        W32354  18.021   0.529  19.329 -0.1004 -0.0413  0.2249
25755W        W32355   4.530   6.426  13.597 -0.1083 -0.1574 -0.4549
25756W        W32356   8.688   0.024  30.304  0.2126  0.1015  0.4717
25757W        W32357  10.531   4.573  40.469 -0.2259 -0.0364  0.1840
25758W        W32358  12.762   5.922   2.323 -0.0830 -0.2354 -0.1362
25759W        W32359  16.819   3.868  29.694 -0.0103  0.3091  0.1039
25760W        W32360  14.627   2.559  21.831  0.1977 -0.0648 -0.2227
25761W        W32361  18.798   6.333  38.592  0.1318 -0.0047 -0.1749
25762W        W32362   7.411   4.797  37.323 -0.0310 -0.0330 -0.0140
25763W        W32363   7.884   3.291  34.575 -0.4344  0.2255 -0.0405
25764W        W32364   2.260   4.348  22.750 -0.0884 -0.1955 -0.1445
25765W        W32365   0.942   0.990  15.372  0.0615 -0.1215  0.1883
25766W        W32366  14.749   4.209  43.829 -0.0888  0.1980 -0.2262
25767W        W32367   7.609   5.872  13.865  0.0023 -0.0649 -0.1070
25768W        W32368  13.112   0.471  21.563  0.3629 -0.1608 -0.1014
25769W        W32369  18.977   5.362  29.783  0.0490 -0.2170  0.1381
25770W        W32370   6.519   0.328   5.636 -0.2497 -0.0261  0.3587
25771W        W32371  20.340   4.961  37.414  0.0507  0.0967  0.0610
25772W        W32372  20.569   0.370  17.041 -0.3431 -0.0785 -0.2236
25773W        W32373   8.192   4.119  25.915  0.0434  0.1964 -0.0917
25774W        W32374   4.133   3.756  24.245 -0.0034  0.0223 -0.0366
25775W        W32375  20.388   3.686  44.461 -0.1268  0.1598 -0.1876
25776W        W32376  18.581   4.624  14.141  0.0127  0.1584  0.2686
25777W        W32377  13.724   6.489  40.988 -0.0787  0.2217  0.2648
25778W        W32378   0.796   0.626  41.024  0.0849  0.0198  0.2021
25779W        W32379  13.280   1.474  11.135  0.1105  0.1938 -0.1239
25780W        W32380  16.699   6.207  19.958  0.1098 -0.1959 -0.1134
25781W        W32381  14.151   4.385   4.544 -0.2545 -0.0813  0.3850
25782W        W32382   0.331   0.542  24.829 -0.1260 -0.1046 -0.0374
25783W        W32383  10.241   6.262  21.041  0.3965 -0.1716 -0.0277
25784W        W32384  13.735   4.351  30.741  0.0063 -0.2588  0.2729
25785W        W32385  19.653   2.601  26.495  0.0214  0.1142  0.1715
25786W        W32386   9.159   0.395   3.162  0.2279  0.0793  0.0272
25787W        W32387  12.828   6.201   6.107  0.0353  0.4909  0.3534
25788W        W32388   3.858   5.514   0.071 -0.0945  0.0145  0.2804
25789W        W32389  14.363   4.994   3.413 -0.1190 -0.0259 -0.0446
25790W        W32390  16.222   4.936  30.930  0.1428  0.0692  0.0533
25791W        W32391  15.235   1.098   8.192 -0.2016  0.1059 -0.4888
25792W        W32392  19.189   1.422  37.545 -0.1618 -0.2680  0.0374
25793W        W32393  12.375   1.055   7.010  0.0483  0.0078  0.0854
25794W        W32394   4.255   0.967  10.439 -0.3579 -0.2165 -0.2284
25795W        W32395  10.216   1.659  32.833 -0.0161 -0.2107  0.1554
25796W        W32396  12.545   3.672  32.047  0.4279 -0.2157  0.2930
25797W        W32397  12.126   3.001   9.189  0.1941  0.2812 -0.1047
25798W        W32398   8.719   6.441  40.417  0.3403  0.0525  0.1848
25799W        W32399   3.606   1.004  22.905  0.2170 -0.0060 -0.2175
25800W        W32400  13.554   2.100  20.417 -0.4442 -0.2559 -0.0115
25801W        W32401  12.800   4.722   9.546  0.1918  0.1363 -0.2007
25802W        W32402  16.929   2.886   0.133  0.0029  0.0232  0.1106
25803W        W32403   4.534   0.863   7.515 -0.2485 -0.1988  0.1037
25804W        W32404  20.443   3.197  37.007 -0.0041  0.1578 -0.0333
25805W        W32405  20.500   3.976  27.494  0.1725  0.0168  0.0755
25806W        W32406   7.248   2.823  42.895 -0.1453 -0.2079  0.0265
25807W        W32407   7.790   1.097  37.284  0.0344 -0.1339  0.2316
25808W        W32408   9.612   3.572  37.953  0.1408  0.2003 -0.1459
25809W        W32409   3.454   2.570   0.954  0.2904 -0.4107 -0.2392
25810W        W32410  18.337   2.658   6.279  0.1329 -0.0711  0.0236
25811W        W32411   4.158   5.274   5.798 -0.2283 -0.1443 -0.4123
25812W        W32412  11.084   1.640  31.868 -0.0322 -0.0429 -0.3214
25813W        W32413   1.913   3.697  41.195 -0.1301  0.0272  0.2305
25814W        W32414  12.425   0.323  29.974  0.1151 -0.0682  0.2412
25815W        W32415   5.845   6.394  10.609  0.1461  0.2954  0.1800
25816W        W32416  14.305   2.466   3.222  0.1925 -0.1832  0.2445
25817W        W32417  14.973   0.593  35.527  0.0077 -0.0829 -0.1800
25818W        W32418  14.739   4.174  20.678  0.0484 -0.0180  0.3229
25819W        W32419   0.875   6.010   3.936  0.1479  0.2733 -0.0589
25820W        W32420   3.349   5.860   5.568  0.0645 -0.0876 -0.0165
25821W        W32421  12.810   1.279  33.943 -0.2000  0.1850 -0.3656
25822W        W32422   7.198   4.268   5.596  0.2000  0.0200 -0.0664
25823W        W32423  15.898   4.246   2.040 -0.2291 -0.0809 -0.2126
25824W        W32424   3.546   0.584   8.508  0.0556 -0.2615 -0.0620
25825W        W32425  12.978   5.518  42.769  0.1289 -0.0928 -0.2289
25826W        W32426   6.136   4.679  12.782 -0.1023  0.0484  0.1646
25827W        W32427  18.292   0.709   3.952  0.0483  0.0123 -0.2116
25828W        W32428   9.647   2.135  41.833  0.2597  0.1059 -0.0626
25829W        W32429  19.020   4.309  10.197 -0.0545  0.2425 -0.1028
25830W        W32430  18.967   0.478  14.278 -0.0639 -0.0600 -0.2881
25831W        W32431  17.478   1.877  43.523  0.1495 -0.2455 -0.1890
25832W        W32432   6.709   2.381  34.521 -0.1611  0.0399 -0.0294
25833W        W32433   8.112   5.193  40.203  0.0726 -0.2621 -0.3445
25834W        W32434   7.575   5.070  15.552  0.0850 -0.0498 -0.0789
25835W        W32435  19.027   4.615  38.786  0.1861  0.0184  0.0734
25836W        W32436  20.947   3.874  11.654  0.0955  0.1168 -0.1007
25837W        W32437  10.219   0.573  12.332  0.0180  0.1258 -0.0492
25838W        W32438  19.860   4.524  43.041  0.4910 -0.1204  0.1358
25839W        W32439  11.124   1.357  42.436 -0.3297  0.4110  0.4330
25840W        W32440   2.030   2.377   8.952  0.4849  0.0807 -0.1181
25841W        W32441   5.336   4.123  39.021  0.0977  0.0512 -0.3179
25842W        W32442  20.190   6.269  30.057  0.1011  0.0159  0.0670
25843W        W32443   4.725   1.490  43.011 -0.1658  0.2128 -0.0640
25844W        W32444   4.683   0.614  24.037 -0.1091  0.0504  0.0087
25845W        W32445   6.878   2.992  42.527 -0.0751 -0.0231  0.2050
25846W        W32446  15.061   0.632  23.259  0.1878 -0.2416 -0.1801
25847W        W32447  11.402   4.642  34.179  0.2389  0.0428 -0.0235
25848W        W32448  20.466   6.599  43.761  0.1217  0.3713 -0.2730
25849W        W32449  16.740   3.219  34.473 -0.2283 -0.0276  0.0929
25850W        W32450  19.583   1.353  28.588 -0.2970  0.0028 -0.1534
25851W        W32451  12.179   3.216  34.646 -0.1875 -0.1243  0.1103
25852W        W32452   3.560   1.064  10.961  0.0481  0.1664 -0.2008
25853W        W32453   6.835   0.170  23.491 -0.1278  0.1811  0.0048
25854W        W32454   8.390   3.709  39.456  0.1807 -0.2452 -0.2011
25855W        W32455  12.955   3.120  38.362  0.1430  0.2924 -0.1085
25856W        W32456  17.510   2.172   8.300 -0.0023  0.0618 -0.0854
25857W        W32457   1.116   0.074  11.792  0.2414  0.2303 -0.1650
25858W        W32458   7.243   6.045   9.531  0.2197 -0.0470  0.0816
25859W        W32459   0.534   1.200  33.039 -0.0968  0.2026 -0.0642
25860W        W32460   5.616   4.529  23.613  0.2524 -0.1005  0.1661
25861W        W32461   3.870   2.283   7.848  0.0352 -0.2892 -0.0909
25862W        W32462   9.049   1.597  31.195  0.0000 -0.0412  0.0012
25863W        W32463  17.218   0.763  16.983  0.1917  0.0013 -0.0711
25864W        W32464   9.553   6.100  16.736 -0.0790 -0.2765  0.0225
25865W        W32465  20.613   5.758  33.539  0.2000  0.1283 -0.2045
25866W        W32466  14.406   1.685   3.757  0.1930 -0.0620  0.2105
25867W        W32467  11.911   3.738  38.345 -0.1108 -0.1514  0.3203
25868W        W32468   1.553   5.667  10.888 -0.2198 -0.1701  0.0625
25869W        W32469   4.083   1.076   4.707  0.3121 -0.0038 -0.0874
25870W        W32470   9.635   0.752  33.537  0.0182  0.2054 -0.0490
25871W        W32471  11.561   2.106  14.209 -0.1219 -0.1499 -0.2245
25872W        W32472  11.771   5.269   9.417  0.0192 -0.0133 -0.1142
25873W        W32473  13.413   5.078  13.056 -0.1280  0.0691 -0.2556
25874W        W32474   8.777   0.871   9.730  0.2004 -0.0304  0.3730
25875W        W32475  19.692   2.085   2.560  0.0107 -0.1699 -0.0913
25876W        W32476  15.623   0.349  19.179  0.0035 -0.0836 -0.2190
25877W        W32477  19.001   0.616   9.416  0.0770 -0.0873  0.1122
25878W        W32478  12.263   1.551  34.519  0.2132  0.2887 -0.2868
25879W        W32479  13.751   4.687  14.149 -0.1460  0.0376 -0.3738
25880W        W32480  18.233   0.872  28.164 -0.0556 -0.0689 -0.4223
25881W        W32481  18.719   4.629  27.934 -0.1113  0.0676 -0.2444
25882W        W32482  16.206   0.871  42.724 -0.3803 -0.1186 -0.0815
25883W        W32483  13.834   2.541   5.465  0.0268  0.0267 -0.1783
25884W        W32484  18.896   2.271  10.061  0.3095 -0.0529 -0.1377
25885W        W32485  15.259   5.108   8.390  0.0512  0.0034  0.0669
25886W        W32486   3.111   0.672  33.703  0.0903 -0.1657 -0.2414
25887W        W32487  19.727   2.443  35.496 -0.0450  0.1328  0.1655
25888W        W32488  12.846   2.543  33.815  0.0044  0.1430  0.0136
25889W        W32489  19.233   0.266  45.029  0.3209 -0.1065 -0.1290
25890W        W32490  13.601   5.683  18.694 -0.0385 -0.2224  0.0764
25891W        W32491  13.225   6.602  15.434  0.1108  0.0748 -0.3000
25892W        W32492  14.137   5.761  42.367 -0.2702  0.0644 -0.1592
25893W        W32493   7.200   3.413  42.477  0.1626  0.3120 -0.0415
25894W        W32494   3.941   1.810  36.601  0.0903 -0.3738 -0.0988
25895W        W32495   3.455   5.229  44.502 -0.1919 -0.0439 -0.1211
25896W        W32496  14.995   0.241  44.339 -0.1054  0.0011 -0.0268
25897W        W32497  14.996   0.534  10.112  0.1904  0.1149 -0.2303
25898W        W32498   2.919   5.017   0.213 -0.5385  0.0058  0.0623
25899W        W32499  10.332   1.482  35.182 -0.1849 -0.2206  0.1314
25900W        W32500   3.099   4.494  27.234 -0.2679  0.0772  0.1255
25901W        W32501   0.018   2.493   6.142  0.0031 -0.0384 -0.0829
25902W        W32502   3.864   4.832  15.896  0.1069  0.1122 -0.0298
25903W        W32503   0.208   5.650  37.309 -0.0382 -0.0359 -0.2292
25904W        W32504   3.204   4.149   3.360 -0.0692  0.0292 -0.1090
25905W        W32505   4.409   3.477   8.725  0.1190 -0.1529  0.3079
25906W        W32506  13.362   3.300  32.137 -0.0451 -0.0933 -0.2408
25907W        W32507  16.304   5.838  39.924  0.2348  0.1711  0.1732
25908W        W32508  15.674   6.513  31.624 -0.0392  0.3809  0.0715
25909W        W32509  18.772   2.956  31.648  0.1849 -0.1395 -0.0306
25910W        W32510  18.640   1.482  43.593  0.2670 -0.0231  0.2300
25911W        W32511   9.594   5.946  16.283  0.1635  0.1138 -0.1717
25912W        W32512  15.671   5.251  43.920 -0.1536  0.0674 -0.2967
25913W        W32513   7.343   1.382  14.379 -0.2589 -0.0090 -0.1412
25914W        W32514  11.823   1.823  31.241  0.1071  0.2437  0.0170
25915W        W32515  20.781   1.101  27.562 -0.2816  0.0638 -0.0152
25916W        W32516  19.118   4.643  42.094  0.2308 -0.1335  0.1357
25917W        W32517  17.043   0.407   3.035 -0.1460  0.1114  0.3115
25918W        W32518   1.058   6.289  38.337 -0.2040  0.1931  0.2445
25919W        W32519  18.053   3.886  11.621 -0.1797 -0.1863  0.1330
25920W        W32520  20.095   4.100  44.600 -0.0403 -0.0090  0.0150
25921W        W32521   8.978   5.664  14.613  0.0859  0.0590  0.0031
25922W        W32522  10.779   2.152  34.381 -0.0581 -0.2653  0.3029
25923W        W32523   8.624   6.326  10.490  0.1634 -0.0260  0.3158
25924W        W32524  15.456   5.802   6.624  0.1051  0.1471 -0.0389
25925W        W32525   2.062   2.610   7.812  0.0529  0.1055 -0.0373
25926W        W32526  18.351   1.425  38.088 -0.0781 -0.1796 -0.2259
25927W        W32527  11.391   6.007   1.770  0.0484  0.2228 -0.1398
25928W        W32528  13.974   5.826  29.480  0.0771  0.1016  0.0020
25929W        W32529   3.299   6.524  14.683  0.3226  0.2448 -0.0748
25930W        W32530  14.510   6.186   9.925  0.2222  0.2330  0.1624
25931W        W32531  15.250   0.804  15.248 -0.0739  0.3447 -0.1741
25932W        W32532  20.507   4.693  35.420 -0.3039 -0.3140 -0.1409
25933W        W32533   4.606   3.241  32.493  0.0440 -0.0542 -0.1150
25934W        W32534  18.761   1.171  33.960 -0.2386  0.1790  0.1139
25935W        W32535  21.157   3.000  42.299 -0.0732 -0.1266 -0.1162
25936W        W32536   1.601   4.451   2.300 -0.2352  0.4591  0.1895
25937W        W32537  16.561   3.775  11.675 -0.0548  0.0923  0.4632
25938W        W32538   6.507   1.325  38.447  0.1231  0.1180  0.0230
25939W        W32539   4.390   2.139  10.863  0.0171 -0.2560  0.1008
25940W        W32540   3.109   3.171  11.028 -0.2376 -0.1424  0.1637
25941W        W32541   5.113   0.403   3.198  0.0932  0.1330  0.1465
25942W        W32542  18.396   2.414   5.831  0.2148  0.1554 -0.1401
25943W        W32543  16.760   0.038   5.606 -0.1182  0.2172 -0.0310
25944W        W32544  20.453   1.272  28.338 -0.1730 -0.2134 -0.2867
25945W        W32545   0.538   5.807   6.400 -0.1418 -0.0194  0.0873
25946W        W32546  11.455   4.229   6.973 -0.0261  0.2413 -0.0554
25947W        W32547   4.595   4.344  40.615  0.2885 -0.0365  0.1239
25948W        W32548   7.529   5.468  38.597  0.2212 -0.3861  0.2617
25949W        W32549  21.023   0.300   4.767  0.0527 -0.2258 -0.0304
25950W        W32550  12.354   1.921  18.373  0.2638 -0.3639 -0.0861
25951W        W32551  13.322   1.275   9.384 -0.0298 -0.0146 -0.0015
25952W        W32552   9.062   1.748  13.396 -0.2346  0.5290  0.2513
25953W        W32553  21.086   4.964  11.885 -0.3513 -0.0696 -0.1145
25954W        W32554  12.645   3.969  13.129 -0.0244 -0.5369  0.1055
25955W        W32555  18.209   6.442  41.234 -0.0976 -0.1747 -0.0936
25956W        W32556   3.497   0.330  21.661  0.1402  0.1936 -0.1493
25957W        W32557   0.135   5.877  35.561 -0.2580 -0.0433 -0.1289
25958W        W32558   4.009   2.933   9.024  0.1124  0.0469  0.1520
25959W        W32559   2.364   6.036  28.599  0.0072  0.2078 -0.1823
25960W        W32560  12.856   2.588  36.511 -0.2384  0.0750  0.1622
25961W        W32561  17.917   0.083  40.729 -0.0967  0.0436  0.0366
25962W        W32562   9.132   3.228   5.994 -0.0365  0.0602 -0.0376
25963W        W32563   1.778   4.176  16.009  0.0319 -0.1448 -0.0879
25964W        W32564   4.419   5.615  23.554 -0.5170  0.2445  0.0840
25965W        W32565  11.526   5.930  35.780  0.0847  0.2820 -0.0743
25966W        W32566  12.244   3.587  31.644  0.0196 -0.2773 -0.0282
25967W        W32567   9.416   5.965   8.247  0.0723  0.1510 -0.3036
25968W        W32568   4.810   1.929   0.707 -0.0268 -0.1095 -0.1870
25969W        W32569  17.878   3.148   0.660  0.1047 -0.2093  0.1123
25970W        W32570   2.836   4.447   2.813  0.1904  0.0391 -0.0722
25971W        W32571  14.472   2.917  14.009 -0.1750  0.1741 -0.1321
25972W        W32572  18.791   1.394  11.227 -0.0267  0.0275  0.3293
25973W        W32573   9.111   4.175  30.040  0.0540  0.0557  0.1901
25974W        W32574  19.860   3.737  17.442  0.0560  0.0630  0.6229
25975W        W32575  13.850   3.544  23.272 -0.0746  0.1180  0.0069
25976W        W32576   9.605   3.442  11.729 -0.2533 -0.0855  0.2684
25977W        W32577   9.787   6.256  30.746 -0.2171  0.1893  0.0266
25978W        W32578   9.307   2.541  44.109 -0.0138  0.0966 -0.1923
25979W        W32579  13.782   5.271  41.439  0.0681  0.1790  0.1603
25980W        W32580  18.411   3.283  29.203 -0.1527 -0.0545 -0.1320
25981W        W32581  14.212   0.291  14.338  0.1307  0.0509  0.3214
25982W        W32582  20.595   4.291  13.077 -0.0324 -0.3243 -0.3920
25983W        W32583   5.365   1.313   1.330  0.1449  0.1335  0.0243
25984W        W32584   3.464   1.624  32.220  0.0624  0.2216 -0.0698
25985W        W32585  17.616   0.224  36.497  0.1650  0.3809 -0.1899
25986W        W32586  18.109   4.767  10.569  0.2984 -0.1676 -0.1137
25987W        W32587   3.250   6.154   6.479  0.0715  0.0741 -0.0157
25988W        W32588   4.261   1.827  23.338 -0.0784  0.0844 -0.1520
25989W        W32589   2.186   3.828  22.951 -0.3772  0.1620  0.2756
25990W        W32590  18.989   0.624  34.739  0.1914  0.1194 -0.4592
25991W        W32591   7.829   3.827  32.507 -0.1245  0.1008 -0.0648
25992W        W32592   5.943   6.510  29.991 -0.0826 -0.1091  0.1103
25993W        W32593  20.603   0.761  35.352  0.3720 -0.0214 -0.1300
25994W        W32594  20.035   6.288   1.413  0.0856 -0.1929  0.0038
25995W        W32595   5.073   4.720  12.989 -0.0583 -0.0994 -0.0957
25996W        W32596   6.810   2.006  32.751  0.1009 -0.2140  0.3566
25997W        W32597   3.022   2.271   4.304 -0.2387 -0.0351 -0.3519
25998W        W32598   3.044   5.482  24.195 -0.0582 -0.1842  0.1322
25999W        W32599  18.464   2.585  34.611 -0.1655 -0.0521 -0.0322
26000W        W32600   6.718   4.365  29.257 -0.2542 -0.3800 -0.0054
26001W        W32601  11.943   5.825  37.668 -0.0854  0.1174  0.2011
26002W        W32602  12.725   2.976  29.925  0.1155  0.2638 -0.2528
26003W        W32603  14.790   3.672  38.105  0.4546  0.0084 -0.2084
26004W        W32604  10.554   4.367  10.484  0.2766  0.0259  0.1366
26005W        W32605   2.302   5.139  13.101  0.1941  0.0162 -0.0225
26006W        W32606   3.048   5.769   2.601  0.0483 -0.1745  0.2046
26007W        W32607   7.302   2.647  28.449 -0.1562 -0.0749 -0.1677
26008W        W32608   8.227   3.089  16.177  0.0253  0.1550  0.1549
26009W        W32609  20.747   1.787   1.770  0.1984  0.1237 -0.4798
26010W        W32610  15.359   0.850  41.891  0.1513 -0.0498 -0.2987
26011W        W32611   8.055   5.782  15.363 -0.1637 -0.5095  0.3511
26012W        W32612  18.553   4.560  33.534 -0.0050  0.0222  0.0174
26013W        W32613  11.935   4.991  16.140  0.1275  0.0830  0.0129
26014W        W32614  20.814   4.982   4.911 -0.0039 -0.2039  0.1378
26015W        W32615  12.608   1.930  14.415  0.1992 -0.0535  0.1013
26016W        W32616   9.261   1.406   3.086  0.0990  0.0776  0.2397
26017W        W32617   1.378   3.209  44.383  0.4266 -0.1874 -0.2215
26018W        W32618   4.698   1.054  42.550 -0.0037  0.2414 -0.4773
26019W        W32619   0.064   6.516  43.375  0.0356 -0.1381 -0.2953
26020W        W32620  11.131   2.203  28.609 -0.1314  0.0010 -0.2568
26021W        W32621   1.888   2.262   5.893 -0.0439  0.0344 -0.0427
26022W        W32622  21.091   0.939  32.800 -0.0315  0.0153 -0.0916
26023W        W32623   6.065   0.435  28.783  0.0841  0.2525  0.2079
26024W        W32624   5.357   3.571   0.555 -0.0663  0.1307  0.0038
26025W        W32625  12.564   4.904   1.616  0.0528  0.0384 -0.1969
26026W        W32626   8.793   2.933  42.513 -0.1510 -0.1863 -0.0110
26027W        W32627   9.774   6.587  11.590  0.1525  0.1308  0.1026
26028W        W32628  11.890   3.878   5.654 -0.0007 -0.1116  0.2830
26029W        W32629   1.426   1.244  30.129 -0.1169 -0.0376  0.0495
26030W        W32630  16.876   0.998  14.330 -0.4255  0.1796 -0.2188
26031W        W32631   0.672   6.482  44.561 -0.0336  0.0052 -0.1155
26032W        W32632  19.743   2.780  17.569 -0.0362 -0.0005 -0.0330
26033W        W32633  20.530   5.480  11.594  0.0397 -0.2568  0.2739
26034W        W32634  11.327   6.223  43.410  0.0579  0.0901  0.0685
26035W        W32635  19.955   3.229  36.766 -0.0338  0.1666 -0.0969
26036W        W32636  18.047   6.005  30.657 -0.0399  0.2256 -0.2025
26037W        W32637   6.075   3.968  24.527 -0.2618 -0.0094  0.0572
26038W        W32638   6.433   2.319   2.756 -0.3515  0.2072 -0.0635
26039W        W32639  16.662   4.326  37.454  0.2362  0.1433  0.1093
26040W        W32640  18.364   5.906  14.917 -0.1588 -0.0429 -0.2398
26041W        W32641   7.534   0.545  37.836 -0.0685 -0.2541  0.1953
26042W        W32642  14.313   2.923  14.521 -0.0529 -0.0953 -0.2295
26043W        W32643   2.188   3.064  11.262 -0.2646  0.0108 -0.3314
26044W        W32644   9.982   5.142  34.330  0.1955  0.0258  0.2150
26045W        W32645   1.450   2.079  35.605 -0.0377 -0.1174 -0.1010
26046W        W32646   2.917   1.410  12.437 -0.1573 -0.2374  0.1129
26047W        W32647   6.085   3.119  34.641 -0.0974  0.0876 -0.2732
26048W        W32648  13.947   6.455   8.168 -0.5972  0.2588 -0.2176
26049W        W32649  14.952   1.678  31.700 -0.1832 -0.1762 -0.1356
26050W        W32650  18.487   6.241  38.969  0.2284  0.1731  0.1684
26051W        W32651   2.124   1.618   9.006  0.2173  0.0555 -0.0109
26052W        W32652   9.281   5.155   6.013 -0.0330 -0.0473  0.1359
26053W        W32653  20.147   1.264   7.922  0.2054  0.1086 -0.3774
26054W        W32654  12.053   4.063   4.491 -0.0585 -0.1102 -0.0933
26055W        W32655   4.109   4.941   3.017  0.0517 -0.2650  0.2441
26056W        W32656   1.639   3.796   4.859  0.1141 -0.0858  0.2967
26057W        W32657  13.557   4.093   0.608  0.3119 -0.0881 -0.1372
26058W        W32658  12.733   0.892  18.832  0.2535 -0.1109 -0.3474
26059W        W32659   9.323   3.913   5.446 -0.0913 -0.0041  0.2684
26060W        W32660   9.245   2.634  14.323  0.2317  0.1600  0.0537
26061W        W32661   3.305   3.724  19.079  0.3707  0.1447  0.0829
26062W        W32662  10.970   1.296  13.445  0.1682  0.0628 -0.0091
26063W        W32663  17.111   0.311  19.162  0.1308  0.1139 -0.0745
26064W        W32664   8.730   1.166   1.880 -0.2193 -0.1969  0.1856
26065W        W32665   5.041   1.548  39.983 -0.0752  0.1922 -0.1018
26066W        W32666   2.945   1.790  11.556 -0.0474 -0.1622 -0.1532
26067W        W32667   1.151   0.554  37.320 -0.4227  0.0684  0.1792
26068W        W32668   9.052   0.861   5.293  0.1680 -0.0326  0.1296
26069W        W32669   9.591   3.287  12.205  0.0440  0.4356  0.2102
26070W        W32670  21.170   5.926  16.400  0.0201  0.0136  0.0277
26071W        W32671  13.737   5.461  42.373 -0.0890 -0.2351 -0.1722
26072W        W32672  14.079   2.273   2.363  0.2499  0.1423 -0.1254
26073W        W32673  18.497   4.898  36.493 -0.1497  0.1106 -0.0561
26074W        W32674  11.320   6.292  38.290 -0.2195 -0.0729  0.0469
26075W        W32675   9.099   2.125  37.182 -0.0079 -0.1034 -0.1186
26076W        W32676  19.946   3.677  32.389 -0.1921  0.0782  0.3397
26077W        W32677   5.277   0.502  15.490 -0.0376  0.2624 -0.2717
26078W        W32678   9.253   0.309  15.094  0.1238  0.2440 -0.0877
26079W        W32679   1.772   1.682  44.360  0.1358  0.2089  0.0830
26080W        W32680  14.137   4.996  40.638 -0.1397  0.0716  0.3981
26081W        W32681  21.101   1.811  15.718 -0.3947 -0.0635  0.1939
26082W        W32682  17.724   3.777  44.146 -0.0044  0.2536 -0.1761
26083W        W32683   8.593   2.613  36.697  0.4083  0.0898  0.4600
26084W        W32684  15.272   6.539  36.367  0.1280 -0.1934 -0.0188
26085W        W32685  12.026   4.140   1.150  0.0232 -0.2263  0.3779
26086W        W32686  18.701   2.321  27.708 -0.1453  0.0788  0.1331
26087W        W32687  12.346   4.169   2.873  0.0409 -0.1080  0.0653
26088W        W32688  12.518   0.239   6.941 -0.1226  0.4471  0.1155
26089W        W32689   0.808   1.298   5.689  0.0684 -0.0639 -0.0154
26090W        W32690   9.057   0.309  18.619  0.1729  0.1107  0.0324
26091W        W32691   1.907   4.640   8.763 -0.0691 -0.3035  0.1214
26092W        W32692  12.114   1.079  20.984 -0.0960 -0.0304  0.1333
26093W        W32693  10.689   1.317   4.758  0.2158  0.1155 -0.1283
26094W        W32694   6.174   1.570  39.080  0.0845 -0.0457 -0.0292
26095W        W32695   3.853   4.396   1.724  0.2481 -0.1252 -0.3306
26096W        W32696  10.011   3.528  18.638 -0.0045  0.0352 -0.1046
26097W        W32697   2.456   1.751  41.800  0.1377  0.0011  0.0779
26098W        W32698  20.423   4.239  18.540 -0.0633  0.1562 -0.0580
26099W        W32699   1.353   0.033   1.791 -0.2651  0.2132  0.0980
26100W        W32700  18.127   4.895   9.635 -0.2858  0.0763 -0.4524
26101W        W32701   3.974   4.605   2.596  0.1334 -0.4175  0.1909
26102W        W32702  16.254   6.256   4.008 -0.1083  0.0853  0.2302
26103W        W32703  13.444   4.870  37.711  0.1115  0.0215 -0.0052
26104W        W32704   7.797   0.803  27.273 -0.0410 -0.1225  0.0132
26105W        W32705  10.421   2.645  40.729  0.0112  0.0170  0.1047
26106W        W32706   4.190   3.172   6.660  0.0408 -0.0161 -0.0867
26107W        W32707   0.324   2.255  29.883 -0.0637  0.3222  0.0586
26108W        W32708  14.117   0.971  37.857 -0.0405  0.2166  0.0980
26109W        W32709  17.533   0.051  40.087 -0.2363  0.2523 -0.1371
26110W        W32710   4.922   0.509  11.690 -0.1492 -0.3154 -0.2410
26111W        W32711   2.023   5.772  40.095  0.0508 -0.0547 -0.1240
26112W        W32712   7.304   1.298   7.156  0.3231 -0.1061  0.1176
26113W        W32713   2.522   5.509  38.990  0.1558  0.0882 -0.0207
26114W        W32714   5.754   2.322  12.641 -0.1144  0.2096  0.1291
26115W        W32715   7.021   4.398  39.549 -0.2307  0.0563  0.0315
26116W        W32716  20.789   2.335  38.915  0.1435  0.2124 -0.0377
26117W        W32717   6.234   0.272   6.950 -0.1978 -0.2040 -0.1865
26118W        W32718  17.538   1.927   1.918 -0.2307 -0.1253 -0.2514
26119W        W32719  14.009   0.609  33.320  0.0666  0.0097 -0.0020
26120W        W32720  19.777   5.786  14.922  0.0802  0.1319  0.1759
26121W        W32721  11.512   3.558  42.483  0.0304 -0.1537  0.1618
26122W        W32722   0.266   1.735  10.872 -0.1704 -0.2367 -0.0188
26123W        W32723   2.342   6.002  34.780  0.2116  0.4972 -0.0486
26124W        W32724   7.617   1.107   1.077 -0.2583  0.0897  0.1716
26125W        W32725  10.535   4.852  12.860 -0.0966  0.0322  0.0835
26126W        W32726   8.023   5.162   3.526  0.2752 -0.1977  0.1241
26127W        W32727   7.976   1.768  15.888  0.1817  0.0811  0.3985
26128W        W32728   1.584   1.777  24.980 -0.0103 -0.1762  0.3061
26129W        W32729  16.152   3.765   2.755  0.4565  0.0918 -0.0906
26130W        W32730   6.325   3.181   9.838  0.0321  0.0921 -0.1874
26131W        W32731  19.999   5.153  44.745 -0.2685  0.0647 -0.1994
26132W        W32732   9.732   2.996  35.966  0.2110 -0.2182  0.0863
26133W        W32733   5.489   0.151  43.185 -0.2827  0.0903  0.4056
26134W        W32734   2.197   4.234  13.360 -0.0696 -0.0295  0.0667
26135W        W32735   3.312   3.621  41.101  0.4750  0.1811  0.2724
26136W        W32736  17.166   4.545  15.226  0.1644 -0.0582  0.0812
26137W        W32737   4.811   6.502  36.465 -0.2734  0.1463  0.0947
26138W        W32738  14.713   0.449   6.061 -0.1174 -0.3144  0.0631
26139W        W32739   3.585   2.393  32.054  0.0605 -0.1897  0.2875
26140W        W32740   9.017   0.320  32.965  0.0259  0.0599  0.2748
26141W        W32741   6.051   2.052  12.256  0.0423 -0.3104  0.1650
26142W        W32742   8.020   3.846  30.787 -0.2859  0.0522 -0.0436
26143W        W32743  16.161   5.728   4.623 -0.1338 -0.2363 -0.0491
26144W        W32744   1.090   4.514  39.566 -0.3299 -0.0567  0.2495
26145W        W32745  20.135   2.419   2.485  0.2188  0.1461 -0.1133
26146W        W32746  13.792   1.700  20.208  0.0468 -0.0637 -0.0660
26147W        W32747   3.153   3.274  21.547 -0.3001  0.0790 -0.3820
26148W        W32748  19.670   3.056  17.159 -0.1793 -0.3251  0.0228
26149W        W32749   7.355   6.408  13.507 -0.0093 -0.1024 -0.0218
26150W        W32750  18.733   0.880   2.057 -0.0423  0.1747  0.3135
26151W        W32751   9.444   4.275  12.028 -0.0951  0.3065 -0.2166
26152W        W32752  12.968   0.289  12.027 -0.2841  0.2734 -0.1253
26153W        W32753  14.567   4.552  21.044 -0.2079 -0.1524  0.0658
26154W        W32754  17.260   5.097  17.808 -0.2086  0.1827  0.0327
26155W        W32755  17.591   5.549  33.605  0.1319  0.0878  0.0425
26156W        W32756  13.213   4.658  36.901  0.1290  0.0332 -0.1359
26157W        W32757   0.505   6.477  24.635  0.2831  0.1286 -0.0744
26158W        W32758   2.608   3.016  44.752  0.2733 -0.0989 -0.0146
26159W        W32759  17.386   3.804   0.010  0.1832  0.0764 -0.0399
26160W        W32760   0.861   2.114   0.238  0.1078 -0.0239  0.0375
26161W        W32761   8.706   2.313  10.715  0.1901  0.1109 -0.0284
26162W        W32762  11.003   4.613  20.317 -0.2352  0.2189 -0.0771
26163W        W32763   0.238   2.624   9.292 -0.1328 -0.1069  0.0765
26164W        W32764   4.289   6.148  29.415 -0.0933  0.1382  0.1872
26165W        W32765   7.338   2.367  32.235 -0.2468 -0.0038  0.0251
26166W        W32766  11.150   5.794  30.816  0.0229  0.1389 -0.0362
26167W        W32767   2.747   4.833   9.753  0.2313 -0.1946 -0.0153
26168W        W32768   2.940   0.260  34.010  0.2962 -0.2359 -0.1158
26169W        W32769   6.961   4.222  36.714 -0.3280 -0.4475 -0.0698
26170W        W32770   7.889   4.586  26.766  0.1949 -0.1154 -0.2974
26171W        W32771   1.151   0.410  33.716 -0.0894 -0.1640 -0.1174
26172W        W32772   4.183   5.870  34.496  0.0077 -0.2459 -0.1401
26173W        W32773   9.904   3.459  10.527 -0.1139  0.2184 -0.0268
26174W        W32774  15.229   2.151  19.155  0.0302  0.0735  0.0068
26175W        W32775  13.126   2.823  28.511 -0.1814 -0.0518  0.0824
26176W        W32776   0.664   2.357  15.917  0.1187 -0.1380 -0.0897
26177W        W32777  18.744   0.750   1.561 -0.2277  0.6610  0.0103
26178W        W32778   1.810   5.744   1.315  0.3124  0.0307  0.2550
26179W        W32779  14.322   4.670  30.744 -0.1510 -0.0307 -0.2217
26180W        W32780  20.276   2.969  15.842 -0.1396  0.1251  0.0405
26181W        W32781   0.771   4.374  14.784  0.1287  0.0538 -0.4913
26182W        W32782  16.328   2.818  40.467 -0.1225 -0.1103 -0.0375
26183W        W32783   9.813   6.051  28.623 -0.0198 -0.0646 -0.0618
26184W        W32784   3.155   1.679  14.720  0.2050 -0.3159 -0.3246
26185W        W32785  19.506   4.412   2.198  0.1363 -0.1166  0.1630
26186W        W32786   3.508   3.662  28.560 -0.0486  0.2971 -0.2278
26187W        W32787   6.378   1.732   7.146 -0.1255  0.2471 -0.2544
26188W        W32788  18.282   6.561   1.427 -0.1379  0.1406  0.0644
26189W        W32789  20.399   2.898  27.633  0.0041 -0.2098  0.1908
26190W        W32790  18.097   1.950  38.539 -0.1498  0.1148  0.0503
26191W        W32791  16.770   5.580  41.640 -0.1948 -0.1168  0.1291
26192W        W32792   6.584   0.281  34.474  0.1681 -0.1971 -0.1530
26193W        W32793  10.163   0.545   8.658 -0.0562  0.1203  0.2498
26194W        W32794  14.797   0.225  23.411 -0.3233  0.0319 -0.1089
26195W        W32795  18.843   3.119  16.354 -0.2740 -0.0112  0.0635
26196W        W32796  13.866   3.131  39.637  0.0523  0.0369  0.0041
26197W        W32797   0.433   4.573   3.228  0.2448 -0.0494  0.0604
26198W        W32798   8.716   6.228   3.370  0.0296  0.1341  0.1454
26199W        W32799   7.398   1.085  31.859  0.3582  0.0849 -0.2239
26200W        W32800   7.867   0.006  39.072 -0.0310  0.1310 -0.2107
26201W        W32801   9.782   4.737  27.023 -0.1727 -0.1286 -0.1800
26202W        W32802  15.471   4.280   4.464  0.1292 -0.0445 -0.1032
26203W        W32803  11.552   0.788  42.044 -0.0527  0.0294 -0.2889
26204W        W32804  20.631   0.340   1.872 -0.1353 -0.0676 -0.0504
26205W        W32805   9.892   4.940   5.647 -0.0526 -0.2728 -0.0966
26206W        W32806   4.748   5.030   1.530  0.0790  0.1396  0.0282
26207W        W32807   5.756   4.788  35.475 -0.2317 -0.2587 -0.2333
26208W        W32808  17.780   0.312   6.589  0.1651 -0.1237  0.2829
26209W        W32809  16.193   4.491  18.979  0.0798 -0.2416  0.1048
26210W        W32810   7.071   6.414  32.303  0.0341  0.2045  0.0695
26211W        W32811   2.399   0.449  23.659  0.1869 -0.0690  0.0526
26212W        W32812   1.550   4.068  41.046 -0.0546  0.0228  0.3409
26213W        W32813  20.328   1.039   8.909  0.0620  0.1963 -0.1045
26214W        W32814   0.355   3.008   4.490  0.1972 -0.0274 -0.0732
26215W        W32815  13.385   2.736  41.326 -0.3156  0.0589 -0.0289
26216W        W32816   3.888   4.126  22.278 -0.0953  0.1372 -0.1312
26217W        W32817  19.217   4.163   8.757  0.0227 -0.3342  0.1393
26218W        W32818  15.876   2.641  18.875  0.0069 -0.0930 -0.2538
26219W        W32819   1.817   5.888  11.468 -0.1786 -0.0977  0.1930
26220W        W32820   0.882   5.446  24.912 -0.1622 -0.0227  0.1051
26221W        W32821  14.353   4.597  39.770  0.0529 -0.2008  0.1035
26222W        W32822  20.352   2.573  43.609  0.1509  0.1344  0.0677
26223W        W32823  14.756   4.581  24.377 -0.1962 -0.0711  0.1365
26224W        W32824  18.149   5.403   4.383 -0.2442  0.3150  0.0308
26225W        W32825   3.774   4.108  25.618  0.2743  0.1435 -0.2652
26226W        W32826   1.943   4.065   1.511  0.1982  0.0279  0.0238
26227W        W32827   8.003   2.455   5.512  0.1630  0.0793  0.2203
26228W        W32828  18.441   5.275  39.495 -0.2157  0.1973  0.1945
26229W        W32829   5.813   3.004   1.861  0.0392 -0.2503 -0.2129
26230W        W32830  21.121   5.711  11.386  0.0300 -0.0641  0.0892
26231W        W32831   6.024   2.477  33.189  0.3875 -0.2147  0.0342
26232W        W32832   2.713   4.884  23.529  0.0108 -0.2159  0.1546
26233W        W32833  11.812   0.093  12.763  0.1204  0.0884 -0.1805
26234W        W32834  11.879   2.644  39.560 -0.2880 -0.3451 -0.1439
26235W        W32835  18.982   0.850  44.876  0.0396  0.0385 -0.0359
26236W        W32836   1.978   2.519   6.300  0.0595 -0.0274  0.1204
26237W        W32837   8.867   4.884   0.186  0.0379 -0.1656 -0.2773
26238W        W32838   2.539   0.826   5.514  0.0042 -0.0775 -0.0081
26239W        W32839  16.447   4.624   2.213 -0.0730  0.0285  0.0151
26240W        W32840  13.515   3.605   2.549  0.0710  0.0632 -0.0124
26241W        W32841  19.575   4.626  29.586 -0.1521  0.0916  0.3408
26242W        W32842  12.011   2.267  14.073 -0.1178  0.2704  0.1754
26243W        W32843   4.016   6.189  16.130 -0.1451 -0.2753 -0.1246
26244W        W32844   0.982   0.727   4.742  0.0524 -0.0941 -0.1989
26245W        W32845  18.155   0.084  18.809  0.2497  0.1435  0.1394
26246W        W32846   2.274   2.371  40.448  0.1412  0.1802 -0.1555
26247W        W32847  17.242   3.087  35.316 -0.1901  0.2098 -0.1003
26248W        W32848   7.198   6.177  37.492 -0.1479  0.0076  0.0608
26249W        W32849  19.482   4.362  39.341 -0.0183  0.0731 -0.2682
26250W        W32850   7.237   0.394  16.822 -0.0358 -0.3002  0.2458
26251W        W32851  15.087   4.545  20.878 -0.1082 -0.0720 -0.2345
26252W        W32852  18.976   4.618   1.584  0.1282  0.0480 -0.1318
26253W        W32853   8.660   2.271   7.378  0.1202  0.1521 -0.0661
26254W        W32854  11.647   0.856  20.371 -0.0369 -0.1438 -0.1176
26255W        W32855  12.435   2.434   1.308 -0.0571  0.0430  0.3227
26256W        W32856   5.968   4.239   2.260 -0.0936  0.0321  0.2658
26257W        W32857  20.142   1.895   2.368  0.0212 -0.1431  0.3222
26258W        W32858  11.208   1.051   7.004  0.0884 -0.1093 -0.0408
26259W        W32859  14.339   5.562  31.486  0.1281 -0.1918  0.1637
26260W        W32860  13.832   0.734  12.568 -0.1758  0.0155  0.0895
26261W        W32861   1.264   0.464  38.974 -0.1836  0.1341 -0.1078
26262W        W32862   1.469   3.433  39.922 -0.0798  0.0658 -0.0662
26263W        W32863   8.008   3.012   1.025 -0.3022 -0.0842  0.3177
26264W        W32864   5.681   0.775  37.576 -0.0835  0.1604 -0.1703
26265W        W32865   9.639   0.758   5.306 -0.1703  0.1001  0.0829
26266W        W32866  21.012   1.827  36.231  0.2754 -0.5614 -0.1608
26267W        W32867  20.771   4.488  36.372 -0.2825  0.1407  0.2783
26268W        W32868  18.174   3.210  36.331  0.0622 -0.0739  0.0710
26269W        W32869   7.571   3.031  32.098  0.0308  0.0965 -0.1770
26270W        W32870  11.879   5.876  15.730 -0.1090 -0.3434  0.2493
26271W        W32871   1.663   3.602   7.026  0.0950  0.1396 -0.0308
26272W        W32872  18.486   0.014   7.738 -0.3608  0.0122  0.1829
26273W        W32873   9.655   2.769  16.145  0.1593  0.2275 -0.2684
26274W        W32874   2.025   4.786  22.490 -0.1144  0.3140  0.1431
26275W        W32875   8.765   2.152  41.423  0.0643 -0.1621  0.2113
26276W        W32876  12.663   3.929  30.218 -0.1487  0.0867 -0.0175
26277W        W32877  12.860   1.429   8.969 -0.2076  0.0226 -0.1417
26278W        W32878  16.644   3.536   6.153 -0.1622  0.0612  0.0540
26279W        W32879  19.271   6.286   6.659 -0.1181 -0.0126  0.0057
26280W        W32880  19.903   5.127  37.299 -0.1463 -0.2401  0.2054
26281W        W32881   1.562   1.016  42.546 -0.2074 -0.0920 -0.1504
26282W        W32882   9.330   3.460  45.068 -0.1698  0.0944 -0.0433
26283W        W32883  14.294   2.763  33.779 -0.1215 -0.0182 -0.2986
26284W        W32884   6.382   2.125  10.010 -0.0811  0.1473  0.1543
26285W        W32885   3.099   3.820   6.158 -0.1685  0.3114  0.1873
26286W        W32886   5.869   4.487  13.134  0.0505 -0.1223 -0.0678
26287W        W32887   8.229   1.890  10.671 -0.1429  0.0738 -0.0619
26288W        W32888   6.739   1.881   9.725  0.1225  0.2387  0.1415
26289W        W32889   6.415   0.262  14.509 -0.0379  0.1182 -0.1532
26290W        W32890  10.778   4.903  16.077  0.1846  0.2330  0.0092
26291W        W32891  18.039   3.595  20.390 -0.0109 -0.0981  0.1608
26292W        W32892   5.171   3.084   0.666  0.2192  0.0440  0.1137
26293W        W32893   2.975   1.596  24.068 -0.1218 -0.1839 -0.0393
26294W        W32894  13.267   2.463  38.962  0.3177  0.0328 -0.0614
26295W        W32895   1.191   3.847  35.458 -0.4100  0.1606  0.0379
26296W        W32896  13.963   5.532  19.732 -0.0483  0.0242  0.0915
26297W        W32897  18.236   6.001  32.932 -0.1359  0.2869 -0.0616
26298W        W32898  18.669   0.102  30.581  0.0616  0.1059 -0.1324
26299W        W32899   9.467   3.478  35.277 -0.0924  0.1183  0.3254
26300W        W32900  14.635   5.791  14.940 -0.2527 -0.1053  0.0581
26301W        W32901   2.517   0.478  21.575  0.2630  0.1022 -0.0019
26302W        W32902   7.458   4.879  40.976 -0.0326  0.1232 -0.0502
26303W        W32903  15.168   6.337   7.804 -0.1604 -0.2292  0.0479
26304W        W32904   6.958   3.635  16.077 -0.2962  0.0438 -0.1101
26305W        W32905   3.734   2.271  38.642  0.2289  0.0170  0.1728
26306W        W32906  13.479   0.347  17.815  0.0332  0.0297  0.0036
26307W        W32907   3.687   4.207  38.340  0.1711 -0.1529  0.2376
26308W        W32908   4.891   0.104   8.322 -0.0866 -0.0639 -0.1863
26309W        W32909   5.394   0.013   6.984  0.0687  0.2373 -0.0680
26310W        W32910   4.837   3.607  43.757 -0.0563 -0.1184 -0.2129
26311W        W32911   9.804   1.754  27.957 -0.0540  0.2219 -0.0454
26312W        W32912  19.179   2.366  28.554 -0.0783  0.1483 -0.0824
26313W        W32913   0.260   6.388  44.227  0.2388 -0.1009 -0.1851
26314W        W32914  17.526   2.464  40.750 -0.0163 -0.3001 -0.0610
26315W        W32915  15.752   6.566  18.588 -0.0190 -0.1392  0.1520
26316W        W32916   3.147   5.367  39.986 -0.1813  0.1840  0.1567
26317W        W32917   5.012   6.569   1.572  0.1557 -0.0642  0.0117
26318W        W32918   8.897   3.521  33.404  0.1383 -0.1740  0.1779
26319W        W32919   3.823   0.367   3.916 -0.1812 -0.1900 -0.2441
26320W        W32920   9.766   3.891  40.451  0.2071  0.1641 -0.3339
26321W        W32921   2.693   1.329  31.136  0.0077  0.1704  0.0478
26322W        W32922   3.973   3.136  21.066  0.0085 -0.2351  0.0238
26323W        W32923   8.210   2.285   6.491  0.0416 -0.3001 -0.2956
26324W        W32924  15.912   1.528  28.737 -0.2520 -0.0279  0.0259
26325W        W32925  15.795   0.954   3.854  0.0774 -0.1724 -0.0071
26326W        W32926  19.192   5.073   9.374 -0.0107  0.1415 -0.0173
26327W        W32927  13.111   3.923  39.001  0.0040 -0.0854  0.1123
26328W        W32928  18.490   5.360   0.041 -0.2202 -0.1207 -0.0232
26329W        W32929  18.094   4.026  33.003  0.0932 -0.3721 -0.1408
26330W        W32930   2.110   1.061  30.838  0.0836 -0.1954 -0.1427
26331W        W32931   9.288   5.976  18.061  0.3402  0.0089 -0.3059
26332W        W32932  17.934   2.907  11.709 -0.1788 -0.0361 -0.1843
26333W        W32933  20.066   4.353   9.819 -0.0475  0.0054 -0.3494
26334W        W32934   1.492   6.082  13.884  0.0395 -0.0171 -0.4636
26335W        W32935   1.015   5.237   6.932  0.1543  0.0293 -0.0423
26336W        W32936  13.648   3.639  38.192  0.2281  0.2006 -0.1250
26337W        W32937  13.436   0.725  43.375 -0.2171  0.0634  0.1966
26338W        W32938   9.986   6.588  43.977  0.0259  0.0773  0.2319
26339W        W32939   2.436   5.266  43.967  0.1262  0.1708 -0.2717
26340W        W32940   9.272   3.367   5.549 -0.1551  0.2595  0.1543
26341W        W32941   5.986   3.578   9.743  0.0254 -0.0429 -0.1772
26342W        W32942  13.330   5.117  11.572 -0.1843 -0.0170  0.2082
26343W        W32943   7.330   3.139   4.407  0.0193 -0.2475 -0.0421
26344W        W32944  18.711   0.171   7.199  0.2597 -0.4405 -0.0336
26345W        W32945  17.670   0.016   0.463  0.1458  0.0762 -0.2215
26346W        W32946  13.699   2.760  44.275 -0.1039 -0.3959  0.0370
26347W        W32947   0.130   0.289  12.972 -0.1827  0.1844  0.0101
26348W        W32948  11.686   0.844   5.646  0.0000  0.0114  0.2555
26349W        W32949  13.626   0.322  41.116  0.1639  0.0256  0.0481
26350W        W32950  19.826   2.919  33.356  0.2572  0.2759 -0.1721
26351W        W32951   4.536   1.488  27.571  0.1100  0.2584  0.4530
26352W        W32952  14.131   6.222  29.659  0.2386  0.0892 -0.1950
26353W        W32953  12.277   2.750   6.497  0.1926  0.0078 -0.3232
26354W        W32954   8.771   3.199  15.286 -0.1167  0.0013  0.2885
26355W        W32955   3.165   0.138  30.371  0.1398 -0.1289 -0.0989
26356W        W32956   5.524   1.659   0.867  0.2452  0.0350  0.0739
26357W        W32957   4.511   2.216  42.100  0.0612 -0.1352 -0.1966
26358W        W32958   5.804   4.679   5.229 -0.1071 -0.1841  0.1122
26359W        W32959  16.008   4.366  11.535  0.1309  0.0324  0.0125
26360W        W32960  12.263   6.109  11.546  0.0054  0.0938 -0.2365
26361W        W32961   2.033   1.833  23.606 -0.1639  0.0870  0.2251
26362W        W32962  15.324   1.427  11.320 -0.1650 -0.0902  0.0360
26363W        W32963   3.572   1.187  40.101  0.0982 -0.2266  0.1354
26364W        W32964  15.290   4.566   0.533 -0.3129 -0.2658  0.4229
26365W        W32965   2.699   1.971   6.380  0.0425 -0.1427 -0.4393
26366W        W32966  21.090   0.245  39.387  0.1262 -0.1216  0.0342
26367W        W32967   4.434   1.412   0.478  0.1234 -0.1250 -0.2797
26368W        W32968  10.540   0.432   9.422 -0.0575  0.1845 -0.1118
26369W        W32969  12.248   4.040  32.576  0.3055 -0.3861 -0.0881
26370W        W32970   3.137   5.443  34.133 -0.0775  0.1243 -0.1848
26371W        W32971   5.022   2.077  34.275  0.2371  0.0293  0.0766
26372W        W32972   6.929   0.402   8.442  0.2801  0.0101  0.0611
26373W        W32973  13.139   1.278  32.035 -0.2531  0.2781  0.4474
26374W        W32974  19.062   0.919   3.250 -0.1686 -0.4309 -0.0135
26375W        W32975   5.628   3.700  23.393 -0.2028  0.2680 -0.2138
26376W        W32976   6.309   4.621   2.346  0.0560  0.0430 -0.2240
26377W        W32977   8.851   6.353   0.238 -0.0333  0.1778 -0.0422
26378W        W32978   3.166   1.215  32.404 -0.1879  0.0018 -0.1382
26379W        W32979   1.200   4.900   4.349  0.0797  0.1521 -0.0506
26380W        W32980   4.528   3.524   1.173  0.1557  0.2230  0.1384
26381W        W32981   0.011   5.546  14.355  0.1744  0.1988 -0.2481
26382W        W32982   6.076   4.984   1.336 -0.0127 -0.2771  0.0463
26383W        W32983  14.173   6.507  17.070 -0.1069 -0.1802  0.0515
26384W        W32984   0.030   1.825  28.170 -0.2542 -0.2486 -0.1068
26385W        W32985  13.504   2.101  35.506 -0.0739  0.1234 -0.1862
26386W        W32986   4.978   6.486   4.468  0.3076 -0.1481  0.2658
26387W        W32987  12.521   1.967  43.712 -0.3861  0.1573 -0.2785
26388W        W32988  18.130   0.478  41.777  0.0566 -0.1356  0.1319
26389W        W32989  12.165   2.198  15.515  0.1063 -0.1576 -0.1957
26390W        W32990   6.188   3.638  34.847 -0.1085  0.1851  0.0375
26391W        W32991   2.664   3.730   5.032 -0.1236 -0.2109 -0.1033
26392W        W32992  18.256   6.117  11.569  0.1047  0.2124 -0.0415
26393W        W32993  15.633   0.425   0.318 -0.0008  0.1132  0.0553
26394W        W32994  14.733   5.429  32.708  0.2105  0.4075 -0.4943
26395W        W32995   8.879   4.064  11.538 -0.1760  0.0282 -0.1431
26396W        W32996   4.509   1.294  39.906 -0.4082 -0.0795  0.3503
26397W        W32997   4.113   3.627   6.366 -0.0681 -0.0010  0.1827
26398W        W32998   7.891   1.080  41.115 -0.0818 -0.1716 -0.1065
26399W        W32999  18.391   5.611  38.464 -0.1375  0.1376 -0.4286
26400W        W33000   1.527   3.912   7.418 -0.2592 -0.0436 -0.0171
26401W        W33001  18.968   4.176  30.585 -0.1109  0.0117  0.2827
26402W        W33002   0.716   3.364   2.356  0.0512 -0.3635  0.1430
26403W        W33003   8.136   0.709   4.456 -0.1035 -0.1796 -0.2251
26404W        W33004   7.638   0.330  13.519 -0.1236  0.0800  0.0455
26405W        W33005  16.456   3.595  40.237  0.0311 -0.1597  0.2562
26406W        W33006   4.560   6.143   7.278  0.2146  0.4540  0.1096
26407W        W33007  15.481   2.373   9.956 -0.1867  0.1058  0.1803
26408W        W33008  14.592   2.441   2.027  0.0926 -0.0407 -0.3119
26409W        W33009   7.052   1.568  25.857 -0.0523  0.1108  0.1065
26410W        W33010   8.354   3.705  33.445  0.0661  0.2658  0.1083
26411W        W33011   2.922   0.183   6.811 -0.2388  0.0868  0.0456
26412W        W33012   2.187   3.537  10.024  0.0921  0.2246  0.0597
26413W        W33013   7.981   0.737  13.455 -0.0570 -0.1010 -0.2555
26414W        W33014   8.669   3.975  31.954 -0.0627 -0.3988 -0.0328
26415W        W33015   3.608   0.989  31.745 -0.0099  0.0728  0.3634
26416W        W33016   4.082   1.137  13.957  0.1829  0.0207  0.1652
26417W        W33017  18.947   3.792   7.903 -0.1522 -0.1250  0.2661
26418W        W33018   3.429   6.133  42.712  0.2626  0.0865  0.0178
26419W        W33019   6.010   6.587  28.198 -0.2952 -0.0281 -0.0341
26420W        W33020   0.334   5.038   8.330 -0.2184 -0.1672 -0.1549
26421W        W33021  18.767   1.850  14.731  0.0551  0.0781  0.0732
26422W        W33022   7.002   5.115  26.739  0.0842 -0.0999  0.2411
26423W        W33023   3.797   3.066   9.907 -0.1270  0.2396 -0.2662
26424W        W33024   4.429   6.088  26.819 -0.4820 -0.2606  0.2946
26425W        W33025  17.752   0.600  37.857 -0.0497 -0.1413 -0.1992
26426W        W33026  10.350   1.176  31.542 -0.0823 -0.0695 -0.1378
26427W        W33027   7.510   3.682  15.370  0.1152 -0.0340 -0.2553
26428W        W33028  11.065   3.116  43.985 -0.3539  0.1091 -0.0484
26429W        W33029  20.991   0.600   5.146 -0.0553  0.0607  0.0979
26430W        W33030   6.342   2.467   4.538 -0.1803 -0.1120 -0.0704
26431W        W33031   2.701   3.394  30.619  0.3939 -0.4245 -0.0019
26432W        W33032   9.214   2.795   0.423 -0.3096 -0.0627 -0.0520
26433W        W33033  12.238   1.262  16.929  0.2909  0.0143  0.0435
26434W        W33034   9.124   6.219  41.631 -0.2009 -0.0321  0.1408
26435W        W33035  16.293   4.684   4.358 -0.1618  0.0530  0.0090
26436W        W33036  17.655   3.938  42.857 -0.1155  0.1222  0.1237
26437W        W33037   1.345   0.129  43.217  0.1395  0.0048  0.2285
26438W        W33038  17.211   1.393   8.580 -0.1978 -0.1369  0.1669
26439W        W33039   6.993   4.502  42.755 -0.1871 -0.1260 -0.0962
26440W        W33040   4.715   1.392  11.418 -0.1035 -0.0248  0.0426
26441W        W33041  15.247   2.566  40.606  0.1845  0.0778 -0.1220
26442W        W33042   2.887   5.420  29.671 -0.0408 -0.0578 -0.0557
26443W        W33043  20.324   3.824  17.200 -0.1011  0.1234  0.1267
26444W        W33044  13.182   1.979  20.707 -0.2215 -0.2583 -0.0711
26445W        W33045   8.271   4.271  14.080 -0.1501  0.1759  0.2105
26446W        W33046  13.138   0.716  33.600 -0.0343  0.0808 -0.2060
26447W        W33047   1.151   4.050  37.627  0.2430 -0.3955 -0.1757
26448W        W33048   5.421   3.724  27.371  0.0040  0.0214  0.5053
26449W        W33049   7.988   6.442  42.378 -0.2212  0.0466 -0.2891
26450W        W33050  19.569   6.209  33.366 -0.0105  0.1161  0.0387
26451W        W33051   5.748   0.725  28.506  0.2893  0.1278  0.1221
26452W        W33052   6.188   0.015  37.761 -0.1419 -0.2068  0.2224
26453W        W33053  14.982   2.541   7.161 -0.1551 -0.2198 -0.0740
26454W        W33054   3.217   3.320  40.725 -0.0065  0.1722 -0.0114
26455W        W33055  10.600   1.403  11.830 -0.0881 -0.0595  0.4681
26456W        W33056   2.436   5.173  34.865 -0.1213 -0.0158 -0.2677
26457W        W33057   8.312   4.528   1.288 -0.1766  0.0896  0.0823
26458W        W33058  11.036   4.937  20.637 -0.0149  0.2251  0.2911
26459W        W33059   4.539   1.018  34.598  0.2387 -0.1008  0.1748
26460W        W33060  15.712   4.936  19.762 -0.1160 -0.2023 -0.2756
26461W        W33061   7.503   5.645  13.192 -0.1357 -0.1314  0.0423
26462W        W33062   5.450   4.915  33.181 -0.1302  0.0743  0.2317
26463W        W33063  10.126   0.924  15.871  0.0659  0.0845  0.2195
26464W        W33064  10.060   0.173  13.962  0.0289  0.0568  0.0016
26465W        W33065   4.466   5.536  44.513 -0.0836 -0.2358  0.3483
26466W        W33066   6.408   5.357   0.102 -0.2367 -0.0406 -0.1841
26467W        W33067   2.858   4.850  14.907  0.0528 -0.0727  0.2118
26468W        W33068   0.586   0.017  11.501 -0.3164  0.0963 -0.1594
26469W        W33069   6.876   5.892  35.638 -0.0517  0.2101  0.1420
26470W        W33070   9.821   6.594   1.480  0.0974  0.2460  0.0353
26471W        W33071   4.889   3.252   1.332  0.0201  0.1282  0.4082
26472W        W33072   5.910   6.259  31.170  0.1783  0.0415  0.1771
26473W        W33073  10.991   5.001  34.396 -0.0842  0.1546  0.0672
26474W        W33074   8.501   5.409  11.799 -0.1404  0.0476  0.1428
26475W        W33075  18.414   4.979  14.910 -0.0198 -0.2212 -0.4565
26476W        W33076   3.380   0.719  38.866  0.0895 -0.1426 -0.0467
26477W        W33077  11.816   4.009   7.701  0.0998 -0.1584 -0.1244
26478W        W33078   1.818   0.287   4.633  0.0041 -0.1516  0.2966
26479W        W33079  20.771   0.030   7.604 -0.1055  0.1168 -0.0440
26480W        W33080  12.714   3.262   4.109  0.2671 -0.1020  0.1218
26481W        W33081  13.047   1.593  22.588 -0.2100 -0.0132 -0.3959
26482W        W33082  15.105   0.689  13.827 -0.2040  0.2508 -0.0572
26483W        W33083   1.549   3.372   9.308 -0.3177 -0.3143  0.1307
26484W        W33084  17.816   1.196  36.746 -0.0447 -0.2560  0.0655
26485W        W33085   7.040   1.685  39.886 -0.3371  0.3570 -0.2059
26486W        W33086   6.629   3.925  40.272 -0.1947 -0.1537  0.2504
26487W        W33087   5.392   3.650  42.919  0.1380 -0.1097  0.1897
26488W        W33088   5.990   0.121  41.625  0.4383 -0.0006 -0.1029
26489W        W33089   4.308   0.956  15.043 -0.0489  0.3440 -0.0499
26490W        W33090  19.692   4.635  15.789 -0.0247 -0.0549 -0.2137
26491W        W33091   6.314   0.761  43.122 -0.1394 -0.1071  0.1829
26492W        W33092  12.083   4.436  36.983  0.1515  0.1578  0.1354
26493W        W33093  15.923   5.367  42.303 -0.0502 -0.1623 -0.1406
26494W        W33094  20.235   5.829  15.580  0.0616 -0.1439 -0.1247
26495W        W33095  17.718   1.883  16.894  0.1992 -0.4859 -0.0025
26496W        W33096  15.279   0.861  45.127  0.1664  0.0467 -0.3414
26497W        W33097  10.601   2.831  13.783  0.0936  0.1334 -0.4333
26498W        W33098  13.167   2.847   4.318  0.0286 -0.2482  0.0016
26499W        W33099   9.879   5.936  37.774 -0.0300 -0.0138 -0.6315
26500W        W33100  13.606   4.477   4.396 -0.0187  0.2714 -0.3503
26501W        W33101   2.173   3.241  44.860 -0.1061 -0.2722 -0.3018
26502W        W33102   2.758   2.534   7.060  0.0941  0.1479  0.1354
26503W        W33103  15.098   5.004  18.600 -0.0471 -0.0745  0.2601
26504W        W33104  11.418   2.234  29.044 -0.1393 -0.0149  0.1366
26505W        W33105  12.487   0.868  30.833  0.0418 -0.3073 -0.0641
26506W        W33106  14.515   2.646  23.000  0.0664 -0.2697  0.2688
26507W        W33107   8.416   4.637  33.032 -0.0738 -0.0584  0.1704
26508W        W33108  18.508   1.323  44.132  0.2173  0.1418  0.1007
26509W        W33109   4.882   1.797  21.898  0.1139 -0.3881 -0.0495
26510W        W33110  20.299   1.993  45.010 -0.2825 -0.0840 -0.2143
26511W        W33111  19.350   2.792  13.715  0.2124  0.1596 -0.1703
26512W        W33112   5.028   0.722  32.428  0.0820 -0.3390 -0.2630
26513W        W33113  14.208   4.099  19.155  0.0232  0.0868  0.0895
26514W        W33114   8.799   6.455   2.103  0.0009 -0.2236  0.1145
26515W        W33115  20.274   4.260  45.136 -0.3768 -0.3223 -0.1180
26516W        W33116   5.213   1.213  27.939 -0.2276  0.3852 -0.0108
26517W        W33117  12.936   6.311   5.172  0.0760  0.1596  0.2907
26518W        W33118  17.772   3.012  37.766  0.2018 -0.0265 -0.1296
26519W        W33119   1.497   4.148   8.598  0.0105  0.2450 -0.1010
26520W        W33120  19.863   0.571  15.908 -0.0163 -0.0672  0.0582
26521W        W33121  17.707   4.359  35.409 -0.1954  0.1020  0.2419
26522W        W33122  14.496   2.700  29.497 -0.1234 -0.1887  0.0599
26523W        W33123   4.922   6.083  26.432  0.3104  0.2154 -0.2577
26524W        W33124  15.637   1.467  33.647 -0.0838  0.2204  0.2151
26525W        W33125  18.049   2.592  37.198  0.1173 -0.1502 -0.3236
26526W        W33126   2.414   6.234  13.736  0.1351 -0.1260 -0.1764
26527W        W33127  13.278   0.893  23.560 -0.0084  0.3037 -0.0102
26528W        W33128   1.440   3.147   2.556  0.0649  0.0241  0.1022
26529W        W33129  11.187   0.887  42.509 -0.0520  0.0631  0.2179
26530W        W33130  14.441   5.167  22.938 -0.1159  0.1762 -0.0877
26531W        W33131  19.089   3.674   4.927  0.0135  0.1558  0.1345
26532W        W33132   2.658   4.569  24.055  0.0816 -0.2074  0.1553
26533W        W33133   5.516   4.648   6.966  0.2813 -0.1441  0.2995
26534W        W33134  11.061   4.217   9.532 -0.0881  0.1995  0.2946
26535W        W33135  11.799   4.810  41.772 -0.2491 -0.3466  0.0523
26536W        W33136  20.748   6.079  28.641 -0.1329 -0.1803 -0.0595
26537W        W33137   9.801   4.432   9.086 -0.0541 -0.0752  0.0090
26538W        W33138   6.713   0.399   6.999 -0.0669 -0.0816 -0.2770
26539W        W33139   8.071   3.915  30.252 -0.3342  0.1642  0.2368
26540W        W33140  11.693   0.226  15.869 -0.0740 -0.0428 -0.2062
26541W        W33141  18.926   4.683   3.518  0.0974  0.5719 -0.0352
26542W        W33142   8.455   3.999  29.255 -0.0368  0.0111  0.1547
26543W        W33143   1.096   3.885  40.894 -0.1531 -0.1669 -0.1828
26544W        W33144   0.077   2.700  28.425  0.1107  0.0472 -0.1410
26545W        W33145  10.538   3.339   5.927 -0.1997 -0.0125 -0.1578
26546W        W33146  11.061   2.871  31.063  0.1761 -0.1602 -0.1803
26547W        W33147   3.002   1.423  10.040  0.0217  0.0323  0.0020
26548W        W33148  16.982   3.265   5.134 -0.1771  0.0776  0.2626
26549W        W33149  16.848   1.838  18.360  0.1417 -0.0546 -0.4579
26550W        W33150  16.042   4.943  21.349 -0.1052 -0.0867  0.1848
26551W        W33151  19.960   2.559  30.677  0.0630 -0.0525 -0.0396
26552W        W33152  16.141   2.561   7.467  0.1240  0.0039  0.2676
26553W        W33153   5.344   5.442  14.860 -0.1821 -0.1086  0.4123
26554W        W33154   7.626   4.148  39.157 -0.0903  0.0233  0.0606
26555W        W33155   4.619   6.166  36.905 -0.1466 -0.3341 -0.1615
26556W        W33156  12.490   4.985  10.991  0.2864 -0.2498  0.2027
26557W        W33157   7.050   5.817  43.470 -0.3793  0.0197  0.1318
26558W        W33158   1.469   5.747  26.188 -0.4029  0.0673  0.0231
26559W        W33159   4.334   2.791   4.731  0.0443 -0.0508  0.2749
26560W        W33160  19.780   5.846  16.617 -0.1087 -0.3534 -0.0540
26561W        W33161   3.548   2.273  42.388  0.0254 -0.0442  0.1564
26562W        W33162  16.533   4.010   3.022  0.0158 -0.1049  0.3072
26563W        W33163   9.384   1.224  36.365  0.2528  0.2004 -0.0386
26564W        W33164  16.469   5.912  31.430  0.0808 -0.1448  0.0796
26565W        W33165  12.623   5.976  19.980  0.0184 -0.1035  0.4897
26566W        W33166  15.545   3.513  14.513 -0.0488  0.0537  0.1154
26567W        W33167  19.787   5.046   3.739  0.0444 -0.1087 -0.1701
26568W        W33168  16.453   5.321   4.494  0.1248  0.2233 -0.0503
26569W        W33169   5.573   5.468  31.481 -0.0215  0.3584  0.1650
26570W        W33170   1.409   1.372  12.731  0.3625  0.2093 -0.3006
26571W        W33171  13.657   5.724  12.403 -0.1088  0.0329 -0.1251
26572W        W33172  16.679   6.220  35.397 -0.3080  0.0605 -0.2712
26573W        W33173   8.680   4.024  34.774  0.1902 -0.2313  0.0952
26574W        W33174   1.022   3.612   4.842  0.1148 -0.0862  0.1044
26575W        W33175  12.966   3.486  40.811 -0.0833  0.0220 -0.0175
26576W        W33176  17.774   4.650  40.881 -0.0904  0.0180  0.0302
26577W        W33177   6.203   4.803  41.501 -0.2750  0.0530 -0.0337
26578W        W33178   0.836   3.362  10.058  0.3860  0.2313  0.0811
26579W        W33179  16.417   3.914  28.860 -0.2675  0.2629 -0.0157
26580W        W33180   4.757   3.852  20.564  0.0651 -0.2763 -0.3982
26581W        W33181  19.607   0.228  13.065  0.0460  0.4850 -0.1365
26582W        W33182  16.608   5.041  32.578  0.0701  0.0045 -0.0181
26583W        W33183   9.871   4.109  44.756 -0.0658 -0.3830  0.1246
26584W        W33184  12.434   5.768  40.228 -0.1282  0.0119 -0.1171
26585W        W33185  11.123   2.883   8.388 -0.0672  0.1418 -0.1457
26586W        W33186  17.043   0.942   7.642 -0.1088  0.0994 -0.4564
26587W        W33187   3.140   5.927  15.874  0.1076  0.0226  0.1523
26588W        W33188  15.927   5.632   7.784 -0.2493  0.1798 -0.0988
26589W        W33189   1.970   2.531  40.784  0.0824 -0.0212 -0.1560
26590W        W33190   6.644   0.015   1.949  0.3976 -0.1205  0.1410
26591W        W33191  16.788   1.569  34.396  0.2535 -0.1094 -0.0765
26592W        W33192   1.758   0.065  44.445 -0.2829 -0.0616  0.0833
26593W        W33193  11.170   4.770  39.942  0.4590 -0.2258 -0.0403
26594W        W33194   9.547   2.858  18.545  0.2045  0.3327  0.1361
26595W        W33195   4.165   1.930  22.446 -0.0047 -0.2242 -0.0301
26596W        W33196   7.228   0.835  38.158 -0.0542 -0.2092 -0.0699
26597W        W33197   6.036   1.271  24.126  0.0100 -0.2746 -0.1114
26598W        W33198  12.066   3.850   8.849  0.4206  0.2525 -0.3117
26599W        W33199   6.533   4.065  25.065 -0.0919  0.1507 -0.3187
26600W        W33200   3.011   6.412  40.967 -0.0535  0.0261  0.2775
26601W        W33201   6.702   4.088  30.730  0.1577  0.0010 -0.0820
26602W        W33202   6.460   0.482   8.342  0.1854  0.1132 -0.0599
26603W        W33203   6.080   1.861  43.103 -0.3980 -0.0494  0.0221
26604W        W33204   2.903   1.602  32.233  0.0609  0.1502  0.2599
26605W        W33205  16.471   0.109   8.480  0.3076  0.2764  0.0658
26606W        W33206  10.192   4.806  19.756  0.2737 -0.0119 -0.3887
26607W        W33207  19.482   4.401  35.738  0.1677 -0.1321  0.1752
26608W        W33208   2.421   3.453  23.796  0.2738  0.0907  0.0175
26609W        W33209  20.181   4.107  37.367  0.3518  0.0601 -0.1511
26610W        W33210  17.797   1.280   2.927 -0.0089 -0.4061  0.1723
26611W        W33211  19.119   3.334  16.758  0.1911  0.1236 -0.0980
26612W        W33212   8.801   0.125  11.389 -0.0333  0.4039 -0.1333
26613W        W33213  16.345   5.843  44.523 -0.3262  0.2054  0.0025
26614W        W33214  19.114   3.624  18.103  0.2446 -0.1877 -0.0718
26615W        W33215  11.121   2.603  13.848  0.0783 -0.2392  0.1977
26616W        W33216  11.891   2.534   6.725 -0.0818  0.2286 -0.2981
26617W        W33217  15.589   1.931  14.471  0.0097 -0.0927  0.3233
26618W        W33218   0.604   5.971  40.881 -0.1410 -0.0943  0.0510
26619W        W33219  18.031   4.007   7.719  0.0750 -0.0137  0.1405
26620W        W33220  15.398   4.393   1.863  0.0160  0.0724 -0.2088
26621W        W33221  14.604   1.975  31.468 -0.3555 -0.3125 -0.1552
26622W        W33222   9.667   6.501  43.605 -0.0755  0.0576  0.2059
26623W        W33223  11.285   5.929  39.542  0.0481  0.4914 -0.0205
26624W        W33224  18.730   4.967   5.650  0.0994 -0.1039 -0.0617
26625W        W33225   0.673   6.132  43.864 -0.0956  0.1513  0.1910
26626W        W33226  20.796   1.684  44.684 -0.1899  0.0683 -0.0440
26627W        W33227  20.892   3.405  37.237 -0.3884  0.1213  0.1682
26628W        W33228   8.037   3.618  25.571 -0.1269 -0.0888  0.0410
26629W        W33229  19.135   1.867   1.216 -0.1395 -0.2513  0.1980
26630W        W33230  16.755   5.780  33.618 -0.0429 -0.0954  0.1482
26631W        W33231   9.356   3.725  14.954 -0.2492 -0.3774  0.2658
26632W        W33232   6.012   4.894  11.506  0.3097  0.0131 -0.0274
26633W        W33233   3.784   6.215   5.463 -0.0897  0.1966 -0.2205
26634W        W33234   0.549   2.934  12.127  0.0181  0.5986 -0.2121
26635W        W33235   0.764   1.291   2.953 -0.2543  0.3048 -0.1892
26636W        W33236  17.472   2.626  16.160 -0.0833  0.3311  0.0486
26637W        W33237  21.040   2.103   2.562 -0.3562 -0.0483  0.1270
26638W        W33238   1.602   4.673  37.048  0.0313  0.0779  0.1305
26639W        W33239  11.199   1.394  35.285 -0.0498  0.1407  0.2025
26640W        W33240   5.569   0.818   1.301 -0.3783 -0.0367  0.2852
26641W        W33241   6.333   6.354  35.000  0.0205  0.0155 -0.0665
26642W        W33242  17.637   0.598   6.921 -0.0574 -0.1925  0.1020
26643W        W33243  18.964   0.814  29.413 -0.2681  0.1771 -0.3804
26644W        W33244  20.717   1.335   2.941  0.0590 -0.1373  0.0132
26645W        W33245  10.891   2.952  34.352 -0.1299  0.0486 -0.0716
26646W        W33246  10.851   5.756  20.695 -0.0124 -0.0871  0.0195
26647W        W33247  15.323   6.102   6.200  0.1556 -0.1123  0.1155
26648W        W33248  18.304   4.935  18.495 -0.1235  0.1344 -0.2328
26649W        W33249   0.972   6.494  32.956  0.1541  0.0552 -0.0762
26650W        W33250   1.446   4.421  38.881  0.0827  0.1960 -0.1938
26651W        W33251  12.396   0.144  37.637 -0.2132  0.1507  0.0706
26652W        W33252   6.695   2.091  42.398 -0.1522  0.1814 -0.1148
26653W        W33253   6.246   4.018   9.547  0.1254 -0.2282 -0.2078
26654W        W33254   1.606   3.311  15.392 -0.0558 -0.0425  0.1008
26655W        W33255  15.604   6.033   1.544 -0.0467  0.1296 -0.0504
26656W        W33256   8.485   4.054   5.867 -0.1221 -0.1684  0.0335
26657W        W33257  14.896   2.906  13.181  0.2218  0.1920  0.0145
26658W        W33258  10.868   4.513  11.740 -0.1105  0.3083  0.1097
26659W        W33259   9.948   0.399  33.660 -0.3642 -0.1497  0.1255
26660W        W33260   3.612   3.789  22.562  0.0660  0.0463 -0.0743
26661W        W33261  20.101   5.951  29.363 -0.0643  0.3911  0.0103
26662W        W33262   1.639   2.883   3.021 -0.3637  0.3432  0.2379
26663W        W33263   5.131   1.308  38.194 -0.0730  0.0516 -0.1255
26664W        W33264  10.736   1.134  17.968  0.0526  0.2710  0.2132
26665W        W33265   4.102   0.766  40.024  0.1965  0.1595  0.1610
26666W        W33266  17.853   0.059   4.592  0.2096 -0.4168  0.1325
26667W        W33267   5.475   3.893  44.205  0.0005 -0.1866 -0.2493
26668W        W33268  10.306   4.694  31.586 -0.0843 -0.0594 -0.0542
26669W        W33269   5.706   6.089  10.186  0.1616  0.1147 -0.3663
26670W        W33270  20.192   5.569  39.636  0.0335 -0.0461  0.1525
26671W        W33271   6.916   2.971  40.280  0.1022 -0.1581  0.2677
26672W        W33272   3.411   2.516  41.115  0.1682 -0.1125  0.1549
26673W        W33273  19.204   1.333   6.450  0.1177  0.0242  0.0993
26674W        W33274   2.339   4.846  28.885 -0.0178  0.2570 -0.0718
26675W        W33275  10.904   3.616  39.178 -0.2094  0.0338  0.3052
26676W        W33276  13.473   5.788  29.334  0.0176 -0.1307 -0.0090
26677W        W33277   6.801   1.149  25.816  0.1898  0.1312 -0.3690
26678W        W33278  20.165   4.128  14.182  0.1896 -0.0213 -0.0361
26679W        W33279  20.796   6.324  10.388  0.1081 -0.0778  0.1886
26680W        W33280  13.478   2.773  17.055  0.1899  0.0471 -0.1451
26681W        W33281  21.053   0.694  39.103  0.3269 -0.2727 -0.0787
26682W        W33282  20.547   4.516  27.436  0.2252 -0.0750  0.1843
26683W        W33283  20.790   0.848  12.495  0.1144 -0.2706  0.0279
26684W        W33284   1.825   1.502  37.464  0.1793  0.2347  0.0289
26685W        W33285   4.000   4.759  39.447  0.2601 -0.1659 -0.1192
26686W        W33286  12.619   5.481   9.762  0.1783  0.5189 -0.0612
26687W        W33287  12.693   4.469  37.704  0.1607 -0.3355  0.0368
26688W        W33288  11.040   6.291  14.189  0.0802  0.0694  0.3471
26689W        W33289  12.389   4.357  36.307 -0.1108 -0.0366  0.1779
26690W        W33290  19.122   2.116  37.025 -0.0704  0.0906 -0.0589
26691W        W33291   1.286   5.099  27.972  0.0486  0.2829 -0.0514
26692W        W33292   4.425   1.634  38.811  0.0067  0.1136  0.0608
26693W        W33293   5.447   3.086  40.069 -0.1716  0.0341 -0.1850
26694W        W33294  13.185   5.280   9.936 -0.0820  0.0188  0.0032
26695W        W33295   1.589   5.344  28.364 -0.3656  0.2238 -0.2007
26696W        W33296  15.012   5.914  41.031  0.1512 -0.0109 -0.1739
26697W        W33297   9.130   6.101  28.336  0.0016 -0.4316  0.0496
26698W        W33298   5.820   2.290  16.175 -0.3697  0.0809  0.2288
26699W        W33299  10.285   5.136  17.591  0.1865  0.0269  0.0782
26700W        W33300  18.298   0.513  38.736 -0.0808 -0.0723 -0.0420
26701W        W33301  10.278   1.655  41.319 -0.2488  0.1463  0.0939
26702W        W33302  18.311   5.588  33.258 -0.1019 -0.2622  0.2178
26703W        W33303  13.216   1.972  29.606  0.1731  0.1302  0.1223
26704W        W33304  12.048   0.123  20.946  0.0951 -0.2792 -0.2743
26705W        W33305   0.823   3.448  38.348  0.2395  0.1971 -0.0429
26706W        W33306   0.096   3.030   0.714 -0.0208  0.0197  0.1529
26707W        W33307  20.008   2.921  32.083 -0.0611  0.1038  0.1933
26708W        W33308   3.340   0.562  32.702 -0.0631 -0.1382 -0.0584
26709W        W33309   5.154   0.672  14.537 -0.1196  0.1436 -0.1173
26710W        W33310  12.304   3.404   9.900 -0.0655  0.0984  0.4820
26711W        W33311  19.359   2.424  15.403 -0.1979 -0.1507  0.0055
26712W        W33312   3.827   4.845  29.865  0.2155 -0.1620 -0.0565
26713W        W33313   2.588   4.525   6.660 -0.1181  0.1245 -0.0410
26714W        W33314   1.792   3.158  38.954  0.2447  0.1365 -0.0504
26715W        W33315  10.633   5.285   8.586 -0.1731 -0.1252  0.3234
26716W        W33316  19.186   1.956  11.736  0.1342  0.2644 -0.1323
26717W        W33317   7.019   0.305  30.216 -0.0029 -0.0816  0.0637
26718W        W33318  12.542   3.946  20.401  0.2558 -0.1814 -0.1270
26719W        W33319   4.289   6.344  11.985 -0.3606  0.2183  0.1793
26720W        W33320   5.086   1.007   4.746 -0.0621 -0.0846  0.3175
26721W        W33321  16.070   5.676  37.320  0.2591 -0.1600  0.1488
26722W        W33322   3.225   3.687  44.906 -0.0218 -0.0643 -0.1677
26723W        W33323  16.122   0.507  17.875 -0.0236  0.0039 -0.0027
26724W        W33324  19.243   0.650  40.083 -0.2777  0.0036 -0.1344
26725W        W33325   9.022   6.443  34.252 -0.1233 -0.0692  0.0763
26726W        W33326   3.301   4.340   2.616 -0.1599 -0.0662  0.0528
26727W        W33327   0.188   5.338  11.822 -0.2556 -0.0511  0.1127
26728W        W33328  16.844   0.291  16.065  0.0665  0.0769  0.2475
26729W        W33329  13.107   3.057  18.801 -0.0277  0.0751 -0.2497
26730W        W33330  13.741   5.939  42.650 -0.0011 -0.1681  0.1409
26731W        W33331  16.936   1.749  28.951 -0.3737  0.0728  0.3160
26732W        W33332   8.026   4.315  16.137 -0.0687  0.0776 -0.1573
26733W        W33333   4.890   5.277   9.604  0.0334 -0.1429 -0.1368
26734W        W33334   1.437   4.494  10.469  0.0981 -0.1038 -0.1315
26735W        W33335   5.997   5.791  15.252  0.0528  0.0746  0.1839
26736W        W33336   7.183   3.421   7.625 -0.0341  0.0405  0.2956
26737W        W33337  17.680   4.142  19.739  0.0176 -0.2183  0.2299
26738W        W33338   7.385   0.631  40.716  0.1570 -0.2154  0.0945
26739W        W33339  13.595   3.138  30.482  0.2730  0.0161 -0.0001
26740W        W33340   8.937   0.863   6.080  0.0258 -0.3392 -0.1578
26741W        W33341   3.061   3.137  42.575 -0.2342  0.3068 -0.2818
26742W        W33342   1.808   2.081  29.982  0.2249  0.0355 -0.1357
26743W        W33343  16.934   1.787  44.925  0.0013 -0.3931 -0.0256
26744W        W33344   4.551   3.333  22.689 -0.1574 -0.0909  0.3432
26745W        W33345   0.534   3.112  44.581 -0.2663 -0.0188 -0.2340
26746W        W33346  14.906   5.997  13.686  0.1815  0.3372 -0.1279
26747W        W33347  20.698   3.770  36.189 -0.1543  0.0583  0.0803
26748W        W33348  17.395   5.855  43.412  0.4254  0.0325  0.0425
26749W        W33349  19.446   2.683  31.050  0.0553  0.2205  0.0782
26750W        W33350  15.646   4.875  39.979 -0.2176 -0.1578 -0.2460
26751W        W33351  15.138   1.252  38.920 -0.0638 -0.1222  0.0634
26752W        W33352  11.722   2.659  30.699  0.5180  0.1634  0.2148
26753W        W33353  14.143   3.725  32.300  0.0829 -0.3833  0.2063
26754W        W33354  14.433   6.431  42.322 -0.0679  0.1209  0.3802
26755W        W33355  12.615   3.473   1.630 -0.1341  0.0478 -0.1284
26756W        W33356   2.400   1.174  28.363  0.0066 -0.0683  0.1214
26757W        W33357   8.606   0.092  27.122 -0.0034 -0.0238 -0.0224
26758W        W33358   5.719   3.529   0.957  0.2542 -0.0837 -0.0663
26759W        W33359   7.993   2.757   6.424  0.0270  0.2178  0.0037
26760W        W33360   5.376   0.013   9.201 -0.1506 -0.1047 -0.1290
26761W        W33361  20.864   0.582  41.806  0.0481  0.0730  0.0741
26762W        W33362  15.609   1.881  12.541  0.2287 -0.1383 -0.2183
26763W        W33363  13.654   0.836  38.066 -0.1344  0.0319 -0.2576
26764W        W33364  11.852   2.486   0.874  0.1531  0.1227 -0.0386
26765W        W33365  19.904   1.204  41.997  0.1910  0.3191 -0.2287
26766W        W33366  12.635   4.961  36.142  0.0722  0.0569 -0.1272
26767W        W33367   0.734   2.510  34.879 -0.0444  0.0457  0.3581
26768W        W33368  17.742   0.710   6.166 -0.0780  0.0149  0.2141
26769W        W33369  15.803   6.244  15.390  0.0469  0.1652  0.1503
26770W        W33370   1.056   3.225  34.278 -0.1133 -0.2121  0.1196
26771W        W33371  19.687   3.158   4.992 -0.0806 -0.2261 -0.2269
26772W        W33372  15.216   2.465  44.170 -0.3197 -0.0938  0.0200
26773W        W33373  13.885   1.962  21.744  0.1996  0.0640 -0.0003
26774W        W33374   3.089   0.591  13.025 -0.3784 -0.0898 -0.4184
26775W        W33375   9.106   4.106  16.182  0.3147 -0.0720  0.0120
26776W        W33376  18.323   0.673   5.486 -0.2047  0.4040  0.0293
26777W        W33377   5.278   4.174  31.994 -0.0548 -0.2174 -0.0600
26778W        W33378  14.338   2.666  20.464  0.1271 -0.1172  0.1948
26779W        W33379   1.768   0.185  27.663  0.1451  0.1389 -0.2125
26780W        W33380  15.645   4.018  20.949 -0.1901 -0.1545  0.1901
26781W        W33381  17.317   1.191  43.762 -0.0566 -0.1143 -0.1077
26782W        W33382  14.213   0.042  43.786  0.0997  0.1340 -0.0257
26783W        W33383  20.447   4.994  43.700 -0.1122  0.0578  0.0881
26784W        W33384   8.287   4.025   9.235  0.0281 -0.1028 -0.3175
26785W        W33385   3.727   2.737  36.759 -0.0312  0.1074  0.1022
26786W        W33386   2.849   3.667  21.825  0.1001  0.2547  0.0776
26787W        W33387  17.665   0.385  41.610 -0.0475 -0.2091  0.0145
26788W        W33388  14.790   2.368   7.690  0.0412 -0.2040 -0.1451
26789W        W33389  15.569   3.596  44.284 -0.0676  0.3343  0.0147
26790W        W33390  11.184   3.298   7.228 -0.0287  0.1776  0.0756
26791W        W33391   9.204   2.197   8.244 -0.1179 -0.2546 -0.1825
26792W        W33392  13.236   1.928  34.507  0.1151 -0.2400 -0.0048
26793W        W33393  16.600   5.409  36.487 -0.0782  0.2954  0.1190
26794W        W33394   1.134   2.675  13.848 -0.1355 -0.3754 -0.0411
26795W        W33395   5.422   4.459   1.057 -0.1813  0.2033  0.1191
26796W        W33396  11.503   3.886  41.142 -0.0563 -0.2266  0.1845
26797W        W33397  10.288   1.157  10.063  0.0235 -0.1623  0.0811
26798W        W33398   0.195   5.985  25.113  0.1688 -0.3711  0.1642
26799W        W33399   6.451   6.439  31.060 -0.1303  0.2251 -0.0287
26800W        W33400  12.854   5.869   7.780 -0.2573 -0.0953  0.0132
26801W        W33401  12.414   0.554  11.136 -0.0156  0.1202 -0.0488
26802W        W33402  10.808   5.564   7.603  0.0876  0.0527  0.4922
26803W        W33403  20.352   1.654   5.978 -0.0730  0.0202 -0.1215
26804W        W33404  13.815   4.618  21.589  0.3132  0.3856 -0.0001
26805W        W33405   2.783   5.678   1.223 -0.3099  0.0045 -0.2256
26806W        W33406   4.956   2.894  27.723  0.3085  0.1368  0.1620
26807W        W33407  12.513   5.682  29.916 -0.2107  0.3763  0.0852
26808W        W33408  19.276   3.931   8.290 -0.0446  0.0859  0.0622
26809W        W33409  15.231   3.804   2.914 -0.0091  0.0448 -0.0220
26810W        W33410   6.067   2.188  25.646 -0.3659 -0.1194 -0.1942
26811W        W33411   9.146   2.451  26.428  0.0040  0.0840 -0.2455
26812W        W33412  14.731   1.572  22.387  0.1759  0.2642 -0.1927
26813W        W33413   1.352   1.356  31.046  0.1186 -0.0922 -0.0442
26814W        W33414   6.330   4.711  12.049  0.1073  0.1620 -0.2038
26815W        W33415   8.424   4.358   1.761  0.2014  0.1952  0.1502
26816W        W33416  14.789   0.947  12.981 -0.2598  0.0707  0.1128
26817W        W33417  12.997   3.097   8.036 -0.1164 -0.0429 -0.0496
26818W        W33418   0.454   4.158  13.409 -0.0873  0.0940 -0.3250
26819W        W33419  11.945   3.141  40.856 -0.2728 -0.0075  0.2129
26820W        W33420   9.530   2.023  11.998  0.1658 -0.0425  0.2794
26821W        W33421  16.721   4.396  35.672  0.0385 -0.1631 -0.0803
26822W        W33422  14.443   2.296   2.702 -0.1965 -0.0277 -0.2869
26823W        W33423  11.972   5.742  39.246 -0.2215  0.0642 -0.1711
26824W        W33424  17.861   5.811  41.723 -0.2003 -0.1275 -0.0358
26825W        W33425  12.346   3.613  28.696  0.0522 -0.0682 -0.2399
26826W        W33426   8.928   1.370  43.529  0.0025 -0.1219 -0.0066
26827W        W33427  12.942   5.967  10.453  0.2396 -0.3629 -0.1766
26828W        W33428   1.371   3.596  32.463 -0.2692 -0.1612 -0.2915
26829W        W33429  18.812   3.195  11.336 -0.0247 -0.0040 -0.2355
26830W        W33430  18.396   2.542  16.333  0.1060  0.0420  0.1227
26831W        W33431  16.778   6.220  34.741  0.1253  0.3342 -0.2186
26832W        W33432  16.562   1.944  31.791  0.0489  0.0005 -0.3265
26833W        W33433   0.138   5.584  12.304  0.1635  0.3633 -0.3202
26834W        W33434   0.528   1.538  34.489 -0.1350 -0.1520 -0.0803
26835W        W33435  17.296   1.211  20.790 -0.0446 -0.0993  0.0764
26836W        W33436   1.301   5.552   9.318 -0.0626 -0.1561  0.0271
26837W        W33437   4.479   1.406  31.482  0.0574  0.1200  0.3163
26838W        W33438   8.636   5.541  39.682 -0.2648 -0.1517  0.2927
26839W        W33439  18.104   4.468  41.868 -0.0511 -0.3823 -0.2309
26840W        W33440  14.345   5.243  33.897  0.3573  0.1256  0.0662
26841W        W33441   7.287   2.459  27.523 -0.1245 -0.0232 -0.0571
26842W        W33442  12.817   1.224  40.340  0.4070  0.2241  0.0330
26843W        W33443  13.367   0.537  20.239  0.0416  0.1676  0.1046
26844W        W33444   3.213   6.193  26.841 -0.1462  0.0872 -0.1084
26845W        W33445  18.683   5.342  36.741  0.0407 -0.1404  0.1844
26846W        W33446   3.456   1.169  24.731 -0.2298 -0.1176  0.1458
26847W        W33447   7.739   2.978   8.590 -0.1232  0.1012  0.0916
26848W        W33448  14.441   0.310  33.441 -0.0805  0.0279 -0.1976
26849W        W33449   2.110   5.612  26.229  0.0773 -0.1133 -0.0170
26850W        W33450  19.010   3.032  36.965  0.2220 -0.0829  0.0081
26851W        W33451  10.916   2.458  31.394  0.1137 -0.1244  0.0491
26852W        W33452  17.191   5.643   8.742  0.2170  0.1904 -0.0632
26853W        W33453  14.639   5.945  45.098 -0.0854 -0.0832  0.1836
26854W        W33454   3.330   0.852  29.743  0.1506  0.0923 -0.0736
26855W        W33455   0.299   4.096   9.914 -0.2267 -0.0380  0.0030
26856W        W33456   4.750   5.976  40.994 -0.0492 -0.0727 -0.1364
26857W        W33457  12.955   4.833  41.061  0.1004 -0.1855 -0.0300
26858W        W33458  10.186   5.229  28.825  0.0699 -0.0749  0.0715
26859W        W33459  14.184   2.745   5.757 -0.3818 -0.0169  0.0273
26860W        W33460  14.458   3.207  22.926 -0.0765  0.0235  0.2649
26861W        W33461  16.522   2.871   3.168  0.1055  0.0266  0.0964
26862W        W33462   3.391   1.928  43.640 -0.1242  0.0758 -0.3104
26863W        W33463   6.700   2.901   6.525 -0.1223 -0.1051  0.1353
26864W        W33464  10.005   4.214  15.072  0.0680  0.0249  0.2058
26865W        W33465  14.654   5.680  33.905  0.0926  0.3146 -0.0709
26866W        W33466  16.844   6.049  44.230  0.0771 -0.1116 -0.0779
26867W        W33467   5.135   2.124  33.145  0.0367 -0.0690  0.3010
26868W        W33468   8.308   1.946  13.915  0.1012 -0.1351 -0.0654
26869W        W33469   7.629   6.432  12.512 -0.4142  0.3353  0.1616
26870W        W33470  15.422   5.654  22.970  0.0476  0.0117  0.1278
26871W        W33471  13.731   4.794  17.287  0.2361 -0.1420 -0.4937
26872W        W33472  18.080   3.231  10.604  0.1974  0.2317  0.0403
26873W        W33473   8.150   2.164  44.722  0.1453 -0.0074 -0.0650
26874W        W33474   2.734   0.393  33.482 -0.0083  0.2931  0.0212
26875W        W33475  13.071   6.508  42.987 -0.1885  0.0364  0.1571
26876W        W33476   6.593   2.844  14.551  0.2338 -0.3353 -0.0557
26877W        W33477  11.017   2.382   1.302  0.5823  0.2091  0.1867
26878W        W33478  19.131   3.455   9.616 -0.0668 -0.0951  0.0987
26879W        W33479  15.021   6.575   6.198 -0.0015 -0.2090  0.0800
26880W        W33480  20.865   2.811  31.684 -0.1234 -0.3142  0.1444
26881W        W33481  12.299   6.270  32.239 -0.0587  0.1073 -0.0637
26882W        W33482   5.045   1.015  41.689 -0.1481  0.0417 -0.2541
26883W        W33483  20.812   5.256  38.415  0.2823  0.0725  0.1908
26884W        W33484   8.417   5.304   2.921  0.0949 -0.1690  0.1597
26885W        W33485  10.525   0.499  33.416  0.0518 -0.1960 -0.0178
26886W        W33486   2.328   6.152  21.053 -0.1676 -0.0228 -0.2710
26887W        W33487   7.605   6.177  14.950  0.0230 -0.2922  0.4006
26888W        W33488   5.297   0.606   6.428  0.0371 -0.1179  0.0991
26889W        W33489   4.146   3.182  20.196  0.0076 -0.3175  0.0723
26890W        W33490  12.719   3.198  14.979 -0.0998 -0.0673 -0.2124
26891W        W33491  14.802   4.968  22.443  0.2756 -0.1077 -0.0079
26892W        W33492  17.105   1.330  32.453 -0.1534 -0.0715  0.1272
26893W        W33493  18.389   0.582  31.496 -0.0584 -0.0257  0.1321
26894W        W33494   7.626   3.964  29.749 -0.1976  0.1463 -0.0346
26895W        W33495  15.601   5.541  16.019  0.0296  0.5482  0.1620
26896W        W33496  12.093   1.834   4.549  0.1463  0.0617 -0.0425
26897W        W33497   1.359   3.359   2.999  0.2592  0.1474  0.2089
26898W        W33498  21.133   5.596  16.053 -0.0348 -0.3852 -0.0316
26899W        W33499   7.997   5.324  15.651 -0.1094  0.1983 -0.1253
26900W        W33500   0.077   3.759  10.234  0.0510  0.2050  0.3314
26901W        W33501   1.087   2.679   5.309 -0.1743 -0.1418  0.0043
26902W        W33502   3.631   2.087  40.979  0.2439 -0.1737  0.0305
26903W        W33503  17.010   0.690  32.694 -0.0414 -0.0186 -0.2896
26904W        W33504  15.432   2.423   7.954 -0.1125 -0.0034  0.0745
26905W        W33505  20.095   5.059  36.664 -0.1175 -0.0638 -0.1006
26906W        W33506  14.159   5.376  16.550  0.1534  0.0940 -0.1018
26907W        W33507   9.770   4.822  43.265 -0.1552 -0.3310  0.1125
26908W        W33508   5.973   4.123  35.717  0.0191 -0.0347 -0.0589
26909W        W33509  17.958   1.074   1.151 -0.0336  0.0010  0.1056
26910W        W33510  12.551   1.026  42.334 -0.4387  0.3125  0.0263
26911W        W33511   4.768   2.985  38.878  0.0186 -0.1398  0.1704
26912W        W33512  20.740   4.138  40.815 -0.0645  0.0667  0.0850
26913W        W33513  15.132   0.407  22.228  0.0137 -0.1232  0.0007
26914W        W33514   7.592   1.428  28.520 -0.0669 -0.0452  0.1436
26915W        W33515  14.940   6.130  13.178 -0.2065  0.2624 -0.0851
26916W        W33516  15.207   3.164  41.064  0.1414  0.1111 -0.0312
26917W        W33517  17.998   1.371  11.790 -0.0638 -0.1254  0.1325
26918W        W33518   0.194   1.042  26.259 -0.0566 -0.0433  0.1641
26919W        W33519   2.683   1.949  21.171 -0.0590  0.0970  0.0500
26920W        W33520  12.257   1.505  11.487  0.3230 -0.0649 -0.1722
26921W        W33521  14.605   5.458  45.136 -0.0768 -0.0151  0.0480
26922W        W33522  17.355   1.733  15.855  0.0727  0.0875  0.1673
26923W        W33523  13.299   0.994  20.209 -0.1348  0.0819 -0.0995
26924W        W33524   7.282   1.548   2.156 -0.2400  0.2063 -0.3548
26925W        W33525   1.983   6.267  27.508 -0.1641  0.1857 -0.3852
26926W        W33526   4.744   3.604  42.794  0.0993 -0.0169 -0.1650
26927W        W33527   5.147   5.739   6.631 -0.1299 -0.1694  0.1567
26928W        W33528   9.130   2.749   6.327  0.2375 -0.0270 -0.1572
26929W        W33529  18.746   0.060   3.585 -0.1701  0.1089 -0.3801
26930W        W33530  17.054   5.622   0.873 -0.3640  0.0839 -0.1755
26931W        W33531  20.645   5.077  16.663 -0.0834  0.0625  0.2119
26932W        W33532   1.455   1.209  25.129  0.3739  0.1214 -0.1194
26933W        W33533   8.660   6.575  33.705  0.1657 -0.0421 -0.2298
26934W        W33534   0.587   6.534  37.050  0.1309 -0.2098  0.3754
26935W        W33535  16.269   4.388  12.735 -0.1710  0.1271  0.2259
26936W        W33536   8.230   6.241  35.756  0.1884  0.0172  0.4122
26937W        W33537   9.741   2.261  10.055  0.0297 -0.0885  0.1107
26938W        W33538  12.615   5.637  16.076 -0.0480 -0.0642 -0.0708
26939W        W33539  18.335   2.384  15.399  0.3369  0.0511  0.0587
26940W        W33540  12.160   3.218  12.489  0.0134 -0.1426 -0.1602
26941W        W33541  19.152   1.213   7.767 -0.2647  0.0502 -0.2018
26942W        W33542  13.232   0.172  22.998  0.1580 -0.0733 -0.1261
26943W        W33543   3.014   0.716   0.896 -0.0171  0.0806 -0.0467
26944W        W33544   1.507   2.598  11.933  0.2688  0.0073 -0.1148
26945W        W33545   6.202   3.523  23.885  0.2068  0.0386 -0.1031
26946W        W33546  20.747   1.817  35.124  0.2232  0.2303 -0.0568
26947W        W33547   5.949   6.192  22.725  0.0002 -0.0276  0.2371
26948W        W33548   1.684   0.208  36.664 -0.1220 -0.0525 -0.0731
26949W        W33549   1.110   0.085  14.954 -0.1561  0.0772  0.1282
26950W        W33550   4.850   2.414  22.559 -0.1385 -0.1674 -0.0289
26951W        W33551   5.497   2.622  28.473 -0.1837 -0.2451 -0.1071
26952W        W33552  12.753   4.853  42.110 -0.1731 -0.1059 -0.1793
26953W        W33553  18.995   5.767  10.093 -0.2167  0.2271 -0.0311
26954W        W33554  17.782   1.750   3.276 -0.0352  0.1398 -0.0780
26955W        W33555   1.745   0.158  33.728  0.1963  0.4202 -0.3130
26956W        W33556   1.109   0.369  36.617 -0.2587  0.0398  0.2178
26957W        W33557  18.331   4.124  12.436  0.3387  0.1484 -0.0006
26958W        W33558   9.652   0.214   5.358 -0.1688  0.1608  0.0313
26959W        W33559   6.456   3.563   6.591  0.1571  0.0769  0.2378
26960W        W33560   6.514   6.337  31.999  0.1246 -0.0975 -0.3730
26961W        W33561   7.506   2.678   3.538 -0.1489  0.2556 -0.1706
26962W        W33562  15.890   5.063   9.889  0.0552  0.0164  0.0353
26963W        W33563  12.143   2.142   0.553  0.0902 -0.3507 -0.1610
26964W        W33564  15.032   5.902  18.961  0.4323 -0.0639  0.0314
26965W        W33565  13.447   3.959  44.515  0.0328 -0.0830 -0.0554
26966W        W33566  14.728   5.872  18.093  0.2160  0.1928 -0.0126
26967W        W33567  19.796   1.084  17.240 -0.1588 -0.0592  0.0739
26968W        W33568  20.358   0.379  30.911 -0.1432  0.1437 -0.2741
26969W        W33569  17.582   2.168   6.362 -0.2586  0.1290  0.0780
26970W        W33570  19.338   5.032   8.355  0.0285 -0.3285  0.1719
26971W        W33571   5.581   0.992  36.411 -0.0236  0.1809  0.0986
26972W        W33572  16.460   0.257   7.115  0.2788 -0.0562  0.0159
26973W        W33573   6.609   0.779   0.453  0.4045 -0.3993  0.2025
26974W        W33574   7.414   6.341  10.363 -0.0732 -0.2549  0.3878
26975W        W33575   5.645   6.004  43.252  0.0791 -0.3729  0.2470
26976W        W33576   2.036   2.570   1.263 -0.3106  0.1991 -0.0589
26977W        W33577  15.591   6.284  13.988  0.2721  0.1938 -0.1510
26978W        W33578  19.620   1.398  14.767 -0.0392  0.4543 -0.0445
26979W        W33579  15.234   0.803  41.419 -0.2404 -0.3428 -0.2455
26980W        W33580  13.597   5.749  14.889  0.1797 -0.1382 -0.1482
26981W        W33581   8.693   2.181   1.718 -0.3845  0.0875 -0.1039
26982W        W33582   1.340   3.482  38.247  0.0213  0.0991 -0.0321
26983W        W33583   2.949   1.416  33.911  0.0651 -0.1443 -0.1142
26984W        W33584  19.525   2.443   4.379 -0.1389 -0.0062 -0.0454
26985W        W33585  20.229   1.242  38.317  0.2847  0.0774 -0.0033
26986W        W33586  12.302   2.492  44.487  0.0432 -0.2192  0.1395
26987W        W33587   7.306   5.108   1.223  0.3208 -0.1183  0.1961
26988W        W33588   7.403   2.922  30.135 -0.0809 -0.6563 -0.3846
26989W        W33589  13.865   0.613   6.067  0.2022 -0.0470  0.3203
26990W        W33590   9.598   3.164  34.017 -0.1863  0.0761 -0.0181
26991W        W33591  13.622   3.420  44.215 -0.2740  0.1806 -0.0517
26992W        W33592  20.092   5.356  43.505 -0.0419  0.0678 -0.0849
26993W        W33593   7.216   1.896  32.455 -0.1505  0.1122  0.0214
26994W        W33594   8.070   3.476  10.477  0.1852 -0.1531 -0.0872
26995W        W33595   8.728   3.683  14.384 -0.0706  0.0895  0.2286
26996W        W33596  16.067   4.710  42.754  0.0753  0.0458 -0.1357
26997W        W33597   1.672   3.324  14.862 -0.0018  0.0769  0.2825
26998W        W33598   9.264   4.986  13.923  0.0552 -0.1099  0.1931
26999W        W33599   2.047   4.242  35.591  0.1008  0.1192 -0.0672
27000W        W33600   2.230   3.467  34.939 -0.0305 -0.0745  0.3005
27001W        W33601  14.460   0.804  22.302 -0.0019  0.0670  0.1439
27002W        W33602   5.569   2.702  15.937  0.0020  0.1108  0.0389
27003W        W33603  12.206   4.854  43.689 -0.2434 -0.0443 -0.1201
27004W        W33604  17.343   6.074  42.823 -0.1275 -0.4059 -0.0856
27005W        W33605  19.615   6.143  42.003  0.0759 -0.2130 -0.2783
27006W        W33606  15.650   1.127  37.613 -0.1234 -0.2895  0.0606
27007W        W33607  19.477   3.152  36.299  0.0138 -0.0516  0.1039
27008W        W33608  20.252   3.402  44.974  0.1274  0.3183 -0.0137
27009W        W33609   2.718   0.345  15.730 -0.0397  0.0346 -0.1633
27010W        W33610  18.742   2.976  34.437  0.1341 -0.0665  0.2031
27011W        W33611  11.297   3.966  14.282  0.2514  0.1470 -0.0617
27012W        W33612  16.399   1.528  18.379 -0.0289  0.2926  0.1232
27013W        W33613  11.023   1.250  13.970  0.2270 -0.0458 -0.5009
27014W        W33614   9.453   5.009  30.468 -0.0475  0.2933 -0.2320
27015W        W33615   5.998   3.539  14.133 -0.0574 -0.1459 -0.3953
27016W        W33616   3.232   3.485  41.575 -0.0676 -0.1229  0.1094
27017W        W33617   3.140   5.768  14.527  0.1107 -0.0088 -0.1273
27018W        W33618   1.134   5.573  42.467 -0.1724 -0.0501  0.2509
27019W        W33619   1.892   3.625  29.281  0.0373 -0.0802  0.2350
27020W        W33620   5.065   2.648  10.151 -0.0855 -0.1152  0.0499
27021W        W33621   3.442   4.602  29.566 -0.2923  0.0880  0.0697
27022W        W33622  15.622   1.902  18.300  0.2701  0.1592  0.2095
27023W        W33623  10.874   6.062  43.571 -0.0834  0.1420 -0.0276
27024W        W33624   2.213   4.137  14.866  0.0447 -0.1258  0.1991
27025W        W33625  17.205   0.333  34.348  0.3001 -0.3004 -0.0151
27026W        W33626   3.769   5.940  22.274 -0.0921  0.0836 -0.0602
27027W        W33627   5.145   3.967   3.693  0.0628  0.1554  0.1732
27028W        W33628  17.731   5.563  44.229 -0.3052  0.1144 -0.0187
27029W        W33629   7.686   0.104   1.165 -0.1351  0.0312 -0.1161
27030W        W33630  10.107   4.510  14.130  0.0000 -0.0490 -0.0111
27031W        W33631   8.274   5.113  38.630  0.0241  0.1991  0.3070
27032W        W33632  18.244   4.361  29.924 -0.2014  0.0424  0.0957
27033W        W33633  15.777   4.900  31.178  0.1050 -0.0329 -0.1184
27034W        W33634  20.546   1.810  29.172 -0.1867 -0.1678  0.0353
27035W        W33635   6.991   4.344  11.506 -0.4626 -0.0593 -0.0019
27036W        W33636  19.945   0.538  12.510  0.0930 -0.0651 -0.2042
27037W        W33637  19.361   0.093   7.817 -0.1581  0.1020 -0.1038
27038W        W33638  20.478   5.963  26.020  0.0996  0.0947  0.1232
27039W        W33639   6.671   6.197  40.606 -0.0195 -0.0393  0.0735
27040W        W33640   4.233   6.029  22.122 -0.3713 -0.3723  0.0435
27041W        W33641   1.538   0.972   3.523  0.0708  0.1302 -0.0374
27042W        W33642  17.563   5.416  11.658 -0.0357  0.1197 -0.0447
27043W        W33643   3.594   4.689  25.787  0.0837 -0.0212  0.0270
27044W        W33644   1.210   1.934   4.183 -0.0304 -0.0734  0.1754
27045W        W33645   0.903   2.983  14.768 -0.1497  0.2684 -0.1148
27046W        W33646   2.579   4.470  21.814  0.0741 -0.0446  0.2241
27047W        W33647   1.175   5.116   3.821 -0.5721  0.0140 -0.1913
27048W        W33648  10.649   1.128  14.670 -0.1160  0.0572 -0.1887
27049W        W33649  14.343   5.349  32.339 -0.1057  0.4104  0.1630
27050W        W33650  18.557   2.094  44.733  0.0282 -0.3718 -0.1838
27051W        W33651   4.195   0.652  13.975 -0.2082  0.0546 -0.0041
27052W        W33652   1.362   2.867  33.212  0.1860 -0.2398 -0.1104
27053W        W33653   6.242   5.256  15.451  0.3134 -0.3103 -0.0529
27054W        W33654  13.647   1.789  38.511  0.0322 -0.0558  0.0727
27055W        W33655   9.411   4.310  39.715  0.0169 -0.1325 -0.0714
27056W        W33656  14.863   4.466  16.252 -0.0309  0.3161  0.1316
27057W        W33657   5.336   6.602  35.293  0.4319  0.2898 -0.2150
27058W        W33658  17.817   3.227  34.128  0.2357  0.0667  0.0919
27059W        W33659   3.494   4.404  35.096 -0.0870 -0.0911  0.0372
27060W        W33660   9.034   3.649  15.311  0.2332 -0.1523  0.1176
27061W        W33661  20.108   2.028  16.028 -0.2171  0.1319  0.0366
27062W        W33662  19.151   4.214  42.568  0.0180  0.1800  0.1558
27063W        W33663   8.969   0.274  33.450 -0.0505  0.1728  0.0631
27064W        W33664  18.565   3.393  17.556 -0.2325  0.1527  0.0654
27065W        W33665   2.623   3.201  24.777 -0.0277 -0.0937  0.1722
27066W        W33666  17.505   1.769  37.915  0.1217  0.2653 -0.0814
27067W        W33667   1.550   5.340  12.454 -0.2189  0.1336  0.0924
27068W        W33668  16.753   2.803   0.997  0.0873  0.1398 -0.2541
27069W        W33669  17.465   3.407   4.975 -0.1659  0.1147  0.2418
27070W        W33670  12.495   4.754  13.553 -0.2094 -0.0661  0.1014
27071W        W33671   5.313   1.688  25.557 -0.1702  0.0598 -0.0015
27072W        W33672  18.752   5.802  14.626 -0.1516 -0.0469 -0.2416
27073W        W33673  16.414   6.018  35.011  0.0031 -0.2181  0.1555
27074W        W33674   5.094   4.977  31.154 -0.1566  0.1414 -0.0743
27075W        W33675  19.701   1.474   6.507 -0.3286  0.1534  0.0035
27076W        W33676  15.153   6.439  42.835  0.0977 -0.1178  0.3381
27077W        W33677  12.958   1.491  36.712 -0.1459  0.0541 -0.3531
27078W        W33678  20.262   2.163  14.644 -0.1902  0.2084 -0.0214
27079W        W33679  15.531   4.153   9.326 -0.1479 -0.1294 -0.2235
27080W        W33680   5.601   4.215  42.732  0.2540  0.0116  0.2147
27081W        W33681   8.100   1.970  14.885 -0.0461 -0.1659  0.1069
27082W        W33682  10.719   4.581  43.192 -0.2570  0.0351 -0.0203
27083W        W33683  10.298   2.632  27.702  0.0714 -0.1322  0.0195
27084W        W33684  15.977   5.436   5.367  0.0783 -0.0756 -0.0619
27085W        W33685   9.564   4.982   4.227 -0.1322  0.1775  0.2180
27086W        W33686  20.514   0.155  34.719 -0.0400 -0.1446 -0.0381
27087W        W33687  18.232   0.464   6.991 -0.0389  0.0725 -0.1788
27088W        W33688   8.988   5.963   1.823 -0.0970 -0.0683 -0.0102
27089W        W33689   6.939   0.432  36.988 -0.0974  0.1628 -0.0371
27090W        W33690   8.185   6.198  32.002  0.1303  0.2781  0.0754
27091W        W33691  13.543   2.017  16.606  0.0918 -0.0384 -0.1212
27092W        W33692  20.949   2.233   0.757 -0.1427 -0.0043  0.1387
27093W        W33693  16.355   1.924  31.243 -0.0339 -0.1409 -0.0505
27094W        W33694   2.785   6.205  39.588 -0.0352  0.2693 -0.0076
27095W        W33695  20.810   5.939   0.271 -0.3035  0.0869  0.1248
27096W        W33696  14.560   3.657  12.220  0.1826 -0.1880 -0.3393
27097W        W33697   5.907   2.824  13.494 -0.1509  0.1240  0.2377
27098W        W33698  11.499   3.379  40.167 -0.0158  0.1957 -0.2144
27099W        W33699  11.277   5.813  10.827  0.0076 -0.1852  0.3153
27100W        W33700  11.375   1.974  17.097  0.1410  0.1528  0.4002
27101W        W33701  11.046   1.269   9.441  0.0883 -0.1000  0.3115
27102W        W33702  12.705   4.954  12.199  0.2160  0.1022 -0.1913
27103W        W33703   9.676   0.270   0.983 -0.1982  0.0190  0.1910
27104W        W33704  10.477   6.094  39.505 -0.0731 -0.0942  0.2677
27105W        W33705  16.712   3.147   1.412 -0.0512 -0.1847  0.1425
27106W        W33706   6.658   1.626  24.992  0.1202 -0.1901  0.2740
27107W        W33707  12.276   6.414  41.251 -0.1746 -0.0173  0.0365
27108W        W33708  10.648   0.735  36.248 -0.0526  0.0055 -0.1568
27109W        W33709  18.247   3.908  32.443 -0.1295 -0.1115 -0.0213
27110W        W33710  11.403   3.707  28.777 -0.1867 -0.0515 -0.4047
27111W        W33711  17.763   3.686  40.659 -0.2041 -0.1376  0.0165
27112W        W33712   5.854   2.835  34.156 -0.1207  0.0399 -0.0452
27113W        W33713  21.156   4.863  44.150 -0.2710 -0.0728  0.1883
27114W        W33714  11.971   6.271   9.749 -0.1757  0.1889  0.0512
27115W        W33715   9.767   6.114  38.219 -0.0755 -0.1079  0.0520
27116W        W33716   7.818   3.983  15.820  0.2721 -0.0729  0.1535
27117W        W33717  10.702   3.700  20.598 -0.0263  0.0770 -0.1484
27118W        W33718  17.866   4.552   4.872  0.3141 -0.3443  0.1547
27119W        W33719  20.675   2.957  38.094 -0.2126  0.1331  0.0019
27120W        W33720  19.182   2.514   3.285  0.0212  0.0764  0.0384
27121W        W33721   2.444   3.061  12.288  0.1334 -0.1119 -0.1331
27122W        W33722  17.490   6.311   4.239 -0.1637  0.1227  0.1770
27123W        W33723  15.439   4.061   5.637 -0.0917  0.0139  0.0571
27124W        W33724   8.095   3.440  41.392  0.0543  0.0598 -0.1788
27125W        W33725   4.687   5.104  44.759  0.0460  0.0591  0.0888
27126W        W33726  13.805   0.239  36.189 -0.2543 -0.2502  0.1958
27127W        W33727  10.379   4.042  18.239 -0.1169  0.0157  0.0493
27128W        W33728  18.222   0.578  38.205  0.0210 -0.1966  0.2854
27129W        W33729  11.381   3.795   0.590 -0.3335  0.5326 -0.0123
27130W        W33730   9.415   1.837  14.570 -0.2546  0.3114 -0.3397
27131W        W33731  13.921   1.276  10.451 -0.0551 -0.0925  0.0512
27132W        W33732  10.575   4.324  38.007  0.3633  0.4521  0.0065
27133W        W33733   7.962   4.302  29.914  0.2507  0.0179 -0.1422
27134W        W33734  15.041   4.674  38.437 -0.1381  0.1758  0.0424
27135W        W33735  14.295   3.929  22.211 -0.2025  0.0475 -0.0710
27136W        W33736  18.102   6.317  39.820  0.0027  0.1676  0.1677
27137W        W33737   6.712   1.345   5.833 -0.0963  0.0767 -0.0976
27138W        W33738   9.533   3.338  18.758 -0.1201  0.1527 -0.2144
27139W        W33739   4.069   4.956  33.433  0.3167  0.1745 -0.0969
27140W        W33740  18.838   1.825   2.153 -0.0193 -0.2603  0.1020
27141W        W33741   9.536   1.916  36.963  0.0443 -0.0282  0.1110
27142W        W33742  12.026   2.028   2.120  0.1604 -0.2739  0.0989
27143W        W33743  12.743   3.116   3.423 -0.4455  0.1736 -0.0703
27144W        W33744   0.426   3.239   4.989  0.2181 -0.0520  0.0849
27145W        W33745  12.811   2.609  44.654  0.3159 -0.1223  0.1404
27146W        W33746  11.196   0.354  17.225 -0.1377 -0.0445 -0.2981
27147W        W33747   0.037   0.758  12.709  0.0618  0.1014  0.2081
27148W        W33748  13.281   4.148  19.775  0.1309 -0.1882 -0.0317
27149W        W33749   5.388   0.153  26.934  0.0721 -0.1441 -0.1705
27150W        W33750   8.337   4.580  13.100 -0.1028 -0.0729 -0.2825
27151W        W33751   2.468   0.734  24.088 -0.1248 -0.1482  0.1366
27152W        W33752  21.024   3.875   2.010 -0.1862 -0.0987  0.3054
27153W        W33753   9.735   0.937   1.774 -0.1197  0.0326 -0.1916
27154W        W33754  18.817   4.686   4.518  0.3996 -0.1792  0.0524
27155W        W33755  12.778   2.108  40.772 -0.1014  0.2340 -0.2140
27156W        W33756   0.725   0.086   0.321  0.0211 -0.0648  0.3303
27157W        W33757   0.550   4.083   6.507 -0.3916  0.0335 -0.2421
27158W        W33758   1.627   5.537  14.204 -0.1820  0.1163 -0.0625
27159W        W33759  14.947   4.124   5.559  0.0746 -0.1503  0.0278
27160W        W33760  15.102   5.088   7.547  0.1221  0.0395  0.1496
27161W        W33761  16.767   6.255   9.356 -0.1334  0.0488 -0.1093
27162W        W33762  16.364   5.451   0.320 -0.2481 -0.2232  0.0228
27163W        W33763  17.106   4.255   6.755 -0.1425  0.0707 -0.0885
27164W        W33764  10.843   1.344  32.925 -0.0075  0.2435 -0.1984
27165W        W33765  11.412   1.888   6.318 -0.2055 -0.1237 -0.2729
27166W        W33766   2.051   0.988   1.975  0.2765  0.0042  0.2300
27167W        W33767   7.281   1.020  33.429  0.1842  0.0513  0.4104
27168W        W33768   4.750   4.761   2.314 -0.2160  0.2075  0.1183
27169W        W33769   3.038   0.700   0.389  0.1471 -0.1082  0.0165
27170W        W33770   6.470   6.098  33.867 -0.2645  0.1665  0.1438
27171W        W33771  20.916   3.040  10.591  0.1323 -0.2408 -0.0426
27172W        W33772   4.424   5.953  33.223  0.0783  0.0624 -0.1214
27173W        W33773  13.619   2.861  32.240 -0.1541  0.1466  0.1489
27174W        W33774  15.944   2.630  15.636  0.1033  0.1559  0.0753
27175W        W33775  17.700   1.518  38.836  0.0693  0.2056 -0.0960
27176W        W33776  10.735   2.885  29.083 -0.1221 -0.4546 -0.0220
27177W        W33777  14.568   0.245   4.911 -0.1380 -0.0849 -0.4287
27178W        W33778   5.622   5.219  41.669 -0.0674  0.3955  0.3478
27179W        W33779  15.681   1.698   4.654  0.0314  0.1544 -0.0417
27180W        W33780   9.903   0.590   0.186 -0.3258  0.1697  0.2352
27181W        W33781  17.042   1.745  42.957  0.3294 -0.0474 -0.1209
27182W        W33782   2.700   4.272  41.599 -0.0690 -0.0898  0.0153
27183W        W33783  21.027   4.566  41.325  0.0271 -0.0155 -0.2703
27184W        W33784   0.608   1.570  14.484  0.0490 -0.0782  0.1381
27185W        W33785   4.486   6.362  39.059  0.3027 -0.0258  0.0671
27186W        W33786   7.736   2.597   8.989 -0.1889  0.1312  0.1122
27187W        W33787   3.289   3.342  10.575  0.3842 -0.1891 -0.0654
27188W        W33788   6.116   5.573   7.099  0.0540 -0.0683  0.1999
27189W        W33789  18.825   4.625  32.215 -0.0311 -0.0752  0.1002
27190W        W33790   3.203   3.497  25.508  0.0433  0.3047 -0.2080
27191W        W33791  20.966   2.743   5.811 -0.1020  0.0121  0.4527
27192W        W33792   6.479   6.200  43.943 -0.0408 -0.1911 -0.1678
27193W        W33793  15.109   3.384  22.521  0.1723 -0.2449  0.1469
27194W        W33794  15.195   0.538   1.184 -0.1695 -0.0243  0.2415
27195W        W33795   8.899   1.418  27.155  0.3045  0.0944 -0.0615
27196W        W33796   1.450   1.875  40.119  0.0849 -0.1437  0.0987
27197W        W33797   9.548   4.332  18.463 -0.0490  0.2692 -0.2160
27198W        W33798   4.748   6.334  33.195  0.0507  0.1464 -0.0845
27199W        W33799  20.430   1.753  33.590  0.0564 -0.2311  0.0899
27200W        W33800   4.856   5.933  15.731 -0.0685  0.0397  0.4981
27201W        W33801  14.948   5.829   7.974  0.2533  0.2967 -0.0091
27202W        W33802   4.350   5.022  21.299 -0.1170 -0.0525 -0.3619
27203W        W33803  11.637   4.645  36.163 -0.1675 -0.1790  0.4466
27204W        W33804   2.541   0.360  40.236  0.2525  0.2251  0.0747
27205W        W33805  13.735   6.383  20.460  0.2416 -0.0302  0.0957
27206W        W33806  15.019   0.002  44.805 -0.0893  0.0033 -0.0767
27207W        W33807   1.202   5.847  29.535  0.2173 -0.0667  0.2276
27208W        W33808   1.578   5.195   0.761 -0.0330  0.1264  0.0488
27209W        W33809  13.305   0.333  39.281 -0.2385  0.0576  0.1044
27210W        W33810   0.716   3.818   2.081 -0.1387  0.2088  0.1322
27211W        W33811  16.847   0.653  15.039  0.0091 -0.1496  0.0211
27212W        W33812  16.731   4.552  39.950 -0.1643  0.0287 -0.0961
27213W        W33813   3.370   3.219  34.400  0.1448  0.0876  0.1805
27214W        W33814   4.554   2.793  13.839 -0.2457  0.1613  0.2100
27215W        W33815   7.329   5.449  24.811 -0.0032 -0.0237  0.1101
27216W        W33816   4.566   2.556  26.366  0.1436 -0.1811 -0.3529
27217W        W33817  18.357   0.015  41.665 -0.2728  0.2045  0.1492
27218W        W33818   6.136   6.331  36.819 -0.2067 -0.0981 -0.2853
27219W        W33819  18.391   0.711  34.714 -0.1365 -0.0092  0.0078
27220W        W33820   8.724   5.436  34.344 -0.3151 -0.1293  0.1799
27221W        W33821   9.773   5.272   8.802 -0.0172  0.1238 -0.0709
27222W        W33822  17.392   6.590  34.671  0.0870  0.1869  0.2292
27223W        W33823  18.279   1.773  18.947  0.0038  0.0477 -0.1024
27224W        W33824   2.962   5.472  40.967 -0.1546  0.0524  0.2403
27225W        W33825   0.022   5.216  40.608  0.2802  0.0570 -0.0099
27226W        W33826   4.777   4.133  25.559  0.0159  0.2725  0.2073
27227W        W33827   8.700   4.161   1.013  0.0644 -0.0879  0.0305
27228W        W33828  10.152   4.527   2.745 -0.2145  0.2495  0.0266
27229W        W33829   1.561   4.931   2.918 -0.1851  0.1817 -0.0544
27230W        W33830  17.040   4.147  19.001 -0.2040  0.1193 -0.1548
27231W        W33831  15.556   1.321  22.514  0.1773  0.3207  0.2039
27232W        W33832  12.186   0.160  19.989 -0.1743  0.1130  0.1460
27233W        W33833  18.125   5.285   6.349  0.0706 -0.2365 -0.2948
27234W        W33834  15.399   2.572  11.918  0.0519 -0.1232 -0.2764
27235W        W33835  12.852   4.518  17.056 -0.0507 -0.0359  0.0208
27236W        W33836  20.856   5.154   6.500 -0.4916  0.0291  0.1504
27237W        W33837  12.438   5.835  15.432  0.0506 -0.0530 -0.2588
27238W        W33838   0.917   2.427  35.805  0.0796 -0.1043 -0.1589
27239W        W33839  15.403   0.786  37.894  0.0937  0.1409 -0.2582
27240W        W33840   4.653   2.506   9.892  0.0653 -0.1178  0.1445
27241W        W33841  16.509   5.738   3.178 -0.0394  0.0264  0.3809
27242W        W33842  13.196   1.345   1.468 -0.1503 -0.2092 -0.1505
27243W        W33843  20.373   3.584  39.703 -0.2310  0.0956  0.0825
27244W        W33844   8.285   0.513   1.501  0.3063  0.0185 -0.0613
27245W        W33845  18.125   4.597   8.796 -0.2288  0.0262  0.0494
27246W        W33846  14.440   4.302  23.424  0.0476  0.1154  0.0625
27247W        W33847   5.456   5.814  11.729 -0.2230  0.2902 -0.2245
27248W        W33848  16.945   3.298  32.652  0.0719 -0.2657 -0.1663
27249W        W33849  11.054   5.964  43.052 -0.0308 -0.0914 -0.0343
27250W        W33850   6.217   1.662  44.676  0.2589 -0.2414 -0.3506
27251W        W33851  18.539   2.149   1.785  0.0490 -0.2430 -0.0436
27252W        W33852  18.342   6.246   9.918 -0.0894  0.2966  0.3226
27253W        W33853  18.755   1.580  34.633 -0.0161  0.0261  0.0460
27254W        W33854   9.980   3.360   7.080 -0.1852 -0.1054 -0.1731
27255W        W33855  14.735   0.619  31.351  0.0537  0.2405  0.0485
27256W        W33856  20.380   1.699  13.515  0.0007  0.1683 -0.1115
27257W        W33857   8.466   3.873   6.901 -0.3330 -0.2228  0.2100
27258W        W33858  10.865   3.336  43.577  0.1086 -0.2067  0.0532
27259W        W33859   7.119   5.877  10.503 -0.1405 -0.0260  0.1900
27260W        W33860  21.119   0.074  33.070  0.0623  0.1215  0.2457
27261W        W33861  16.600   3.452  15.656  0.3279 -0.2847 -0.2333
27262W        W33862  12.215   6.235  40.241 -0.1770 -0.0258  0.1709
27263W        W33863  17.980   5.298  19.345  0.0524  0.1913  0.1339
27264W        W33864  13.691   4.942  22.481 -0.1971  0.3190  0.2289
27265W        W33865  14.660   1.020   4.334 -0.0074  0.0094  0.2829
27266W        W33866   2.777   0.973  11.817  0.2893 -0.1705 -0.2447
27267W        W33867   2.790   4.374  43.556  0.0665  0.1083  0.1710
27268W        W33868   6.599   1.695  11.969 -0.1075 -0.1526 -0.1027
27269W        W33869   3.205   4.957  12.952  0.3507  0.1845 -0.1102
27270W        W33870  19.007   6.258  12.386 -0.0315 -0.4859  0.1495
27271W        W33871  17.897   1.870  35.641 -0.1002 -0.3191 -0.0542
27272W        W33872   0.648   4.456  30.321 -0.0239  0.0449  0.1375
27273W        W33873  12.429   2.920  10.699 -0.1569 -0.1134  0.1197
27274W        W33874   7.326   6.440  12.111  0.0900 -0.0242 -0.1355
27275W        W33875  10.562   6.364  19.380 -0.0681 -0.0049  0.0074
27276W        W33876  14.276   5.724  20.835  0.0458 -0.3739 -0.2110
27277W        W33877  14.940   6.135  36.229  0.2302  0.3032  0.1097
27278W        W33878   4.429   3.723  39.193 -0.2309  0.2744 -0.0992
27279W        W33879   1.727   1.690  33.593 -0.0739  0.1284 -0.1347
27280W        W33880  10.467   4.234  13.889  0.0730  0.0414  0.1821
27281W        W33881   0.385   0.620  42.926  0.1528  0.0998 -0.1484
27282W        W33882   7.775   2.338   3.953 -0.1813 -0.1333 -0.0963
27283W        W33883  15.052   1.200  17.322 -0.1047  0.0111 -0.2428
27284W        W33884   9.140   3.612  34.774  0.0070  0.0526 -0.1330
27285W        W33885  20.869   2.941   3.787 -0.0684  0.0329  0.0276
27286W        W33886   9.293   0.523  32.091 -0.1796 -0.0050 -0.0753
27287W        W33887   8.608   5.577   7.507  0.3534 -0.0981  0.0888
27288W        W33888   6.134   1.116  44.473  0.2398 -0.0535 -0.3447
27289W        W33889   8.320   1.842  41.468  0.0323 -0.4370  0.1114
27290W        W33890   9.107   6.422   3.081  0.3263 -0.0247 -0.2078
27291W        W33891   7.277   6.261   3.376 -0.1493  0.0563 -0.1702
27292W        W33892   1.622   2.994  23.307  0.2909  0.2127 -0.0160
27293W        W33893   4.947   6.587   6.771  0.0281 -0.0894 -0.0071
27294W        W33894  19.493   5.538  26.878 -0.1369 -0.0511 -0.0522
27295W        W33895   5.335   6.060  40.536 -0.1633  0.0975  0.0293
27296W        W33896   6.380   5.115  35.947 -0.0579 -0.1664  0.1047
27297W        W33897   3.785   0.851  10.527  0.0513  0.4918 -0.0327
27298W        W33898  20.382   1.051   8.362  0.1796 -0.0259  0.2640
27299W        W33899  16.441   2.153  30.253  0.1789 -0.0679 -0.0806
27300W        W33900   8.776   4.777   9.195  0.3193  0.1746  0.1579
27301W        W33901   9.418   2.866   5.758  0.2403  0.1958  0.0404
27302W        W33902  19.469   3.904  16.154  0.2104  0.1053  0.1339
27303W        W33903  13.537   2.057  14.943 -0.0994  0.1030  0.0886
27304W        W33904   8.931   4.064  40.345  0.3327  0.0180  0.0087
27305W        W33905   7.907   4.368  42.762  0.2249  0.1951  0.0478
27306W        W33906   4.788   2.831   0.496  0.0855  0.1827 -0.0646
27307W        W33907  10.444   0.734  43.693  0.0169  0.3948 -0.3714
27308W        W33908  20.599   4.641   2.038 -0.2013 -0.0887  0.0700
27309W        W33909   8.273   4.386   8.307  0.4090  0.3445 -0.1748
27310W        W33910  20.252   4.100   5.306  0.0588  0.2672  0.0416
27311W        W33911   8.928   3.460  37.706 -0.0551  0.0229  0.1722
27312W        W33912   4.488   2.254  42.986 -0.1408  0.1359  0.0556
27313W        W33913   3.881   5.952   4.644  0.2333  0.3427  0.0386
27314W        W33914   9.501   1.696   4.847  0.2942 -0.1535  0.0273
27315W        W33915  17.221   2.562  15.184  0.0052 -0.2350 -0.2541
27316W        W33916  12.721   4.535   6.713 -0.1219  0.1519 -0.1767
27317W        W33917  13.052   6.239  14.622 -0.2445  0.1209  0.2657
27318W        W33918   6.117   1.570  38.616 -0.0688 -0.3977  0.0974
27319W        W33919   2.551   2.932  29.282 -0.0676 -0.0398 -0.0910
27320W        W33920   2.122   3.827   7.154  0.0795  0.1281 -0.0588
27321W        W33921  17.386   6.410  21.747  0.2320  0.0834 -0.0028
27322W        W33922   5.835   3.872   1.385  0.0813  0.0854  0.2200
27323W        W33923   4.475   1.778  30.455 -0.0477 -0.1116 -0.1528
27324W        W33924   2.852   4.650   9.289 -0.0576  0.0826 -0.1487
27325W        W33925  20.756   0.717  42.268  0.2628 -0.1998  0.2873
27326W        W33926   2.780   3.065  37.401  0.0557 -0.1637 -0.5285
27327W        W33927  10.228   0.359   1.164  0.0807 -0.0346  0.1871
27328W        W33928   5.813   4.696  13.599 -0.2270 -0.0302  0.2010
27329W        W33929   0.376   3.000  10.694  0.0563  0.1351  0.3606
27330W        W33930   4.699   0.735  23.522  0.0532  0.0874 -0.0618
27331W        W33931  16.852   2.731  38.103 -0.3125  0.2978 -0.0734
27332W        W33932   8.594   6.574  35.497 -0.0888  0.0121  0.3793
27333W        W33933  13.607   5.462  40.512  0.0056  0.0102 -0.2058
27334W        W33934   8.767   4.348  31.122  0.1135  0.3990 -0.1796
27335W        W33935  13.354   3.227   8.838 -0.3270 -0.0269 -0.3243
27336W        W33936   7.499   5.560  25.827  0.2363 -0.0888 -0.1299
27337W        W33937  13.956   0.137  39.717  0.1763 -0.0509 -0.0173
27338W        W33938  18.597   6.133  39.478  0.3411 -0.0618  0.0689
27339W        W33939  18.400   0.908  41.488 -0.0656  0.0092  0.0580
27340W        W33940  13.892   3.046  36.555  0.2311 -0.0826  0.2238
27341W        W33941  12.701   5.505  11.279  0.0666 -0.1096  0.0296
27342W        W33942   6.232   0.498  38.027  0.1119 -0.1857 -0.1896
27343W        W33943  19.119   3.133  33.507 -0.0562  0.0480 -0.2414
27344W        W33944  18.848   4.994  11.314  0.0815 -0.1080 -0.0062
27345W        W33945  17.663   3.976   0.454  0.1432  0.0497 -0.0914
27346W        W33946  15.244   6.060  35.512 -0.0687 -0.0087  0.1192
27347W        W33947   5.028   4.342  40.936 -0.1316  0.1108 -0.3487
27348W        W33948   3.708   5.932  43.135 -0.1229  0.3900 -0.2035
27349W        W33949  13.970   4.216   0.848  0.1856 -0.2467  0.3252
27350W        W33950   8.683   4.244  37.769 -0.0198  0.1283  0.3191
27351W        W33951   3.705   3.641  26.083  0.2210  0.0749  0.2485
27352W        W33952  15.533   1.081  17.495  0.1340  0.0500  0.0557
27353W        W33953  14.609   1.637   6.200 -0.1458 -0.0918  0.0093
27354W        W33954   1.778   5.191  23.391  0.1018  0.1234 -0.0793
27355W        W33955   6.551   0.833  44.574  0.1060  0.1476  0.1771
27356W        W33956   4.338   4.085   4.415 -0.0536  0.0008  0.0606
27357W        W33957   4.830   4.212  41.403 -0.0724 -0.0664  0.0502
27358W        W33958   1.878   2.444  15.246 -0.0446 -0.2553 -0.1868
27359W        W33959  14.012   5.575   5.775 -0.1718 -0.2368  0.2290
27360W        W33960  10.024   1.053   2.761 -0.2355 -0.0845 -0.0104
27361W        W33961   9.849   3.632  45.049 -0.0430  0.3903 -0.3058
27362W        W33962  20.555   0.668  14.263  0.0791  0.0298  0.1254
27363W        W33963   7.359   5.783  42.685  0.1748  0.1660  0.0353
27364W        W33964  10.852   0.761   3.460 -0.0479 -0.2338 -0.0767
27365W        W33965  18.678   2.671  14.244 -0.2550  0.0780 -0.0217
27366W        W33966  18.215   5.520  30.571  0.0328 -0.0146  0.4847
27367W        W33967   8.760   5.674  33.907 -0.3472  0.0782 -0.0419
27368W        W33968   9.685   4.384   6.631  0.1613  0.1247  0.2218
27369W        W33969   6.541   4.152  44.890 -0.1919 -0.1117  0.1036
27370W        W33970  19.484   1.386  36.648  0.0500  0.0133 -0.2478
27371W        W33971  19.280   0.930  36.527 -0.1056 -0.1894  0.0642
27372W        W33972   1.725   1.413   8.560  0.3350  0.0508 -0.0451
27373W        W33973  19.834   0.323  34.018 -0.1937 -0.0809 -0.2091
27374W        W33974   2.989   4.337  13.927 -0.0454  0.1672  0.0149
27375W        W33975   2.111   2.621   9.489  0.2136 -0.1785 -0.0099
27376W        W33976  20.195   5.158  36.184  0.2251  0.1676  0.2543
27377W        W33977  14.627   6.425  15.797 -0.4008  0.0819 -0.2552
27378W        W33978  14.611   5.376  10.533  0.1412  0.1764 -0.0098
27379W        W33979   6.488   3.002  16.548 -0.2815 -0.1028 -0.1810
27380W        W33980  18.684   1.390   7.638 -0.0321 -0.1758  0.0360
27381W        W33981  14.080   0.063  22.895 -0.0246 -0.3194  0.0786
27382W        W33982  20.883   3.889  27.826 -0.0393 -0.0801  0.0402
27383W        W33983   2.888   5.416   0.551  0.1511 -0.2047  0.0243
27384W        W33984   9.304   1.627   5.565 -0.0640 -0.1487  0.3557
27385W        W33985   4.241   1.651  24.941 -0.2047  0.1364  0.3748
27386W        W33986   1.933   3.082   9.296 -0.1646  0.1029  0.1432
27387W        W33987   3.278   5.856  25.117 -0.3267 -0.2151  0.5798
27388W        W33988   0.503   3.072  38.338 -0.0162 -0.2188 -0.0776
27389W        W33989  10.958   2.164  32.600  0.0486 -0.1136  0.0109
27390W        W33990  13.359   6.534  11.158  0.2940 -0.0105  0.2972
27391W        W33991   3.443   0.198  15.576 -0.0298 -0.0039 -0.0801
27392W        W33992  19.833   6.530   2.750  0.0802 -0.0737 -0.3065
27393W        W33993  10.151   3.501  28.043 -0.0177 -0.1198  0.0057
27394W        W33994   2.888   2.250  13.973 -0.3062 -0.0152 -0.0930
27395W        W33995  11.232   4.347  36.176  0.1029  0.1613 -0.3304
27396W        W33996   8.197   4.069  27.301 -0.0497  0.1841  0.0232
27397W        W33997  12.766   2.873  15.855  0.2022  0.0725  0.0582
27398W        W33998  18.111   1.245   6.679  0.0286  0.0759  0.1219
27399W        W33999  15.019   4.041   6.968 -0.2026  0.1818  0.1235
27400W        W34000   0.575   4.703  26.109  0.1028  0.0428 -0.2084
27401W        W34001   5.722   1.439  38.848  0.1724  0.1077 -0.0284
27402W        W34002  13.837   0.730  37.506  0.3805 -0.3472  0.1523
27403W        W34003  17.563   0.961  19.786 -0.1265 -0.0903  0.1300
27404W        W34004   7.840   6.406  28.318 -0.1020  0.0435  0.0344
27405W        W34005  17.213   6.214  19.672 -0.2569  0.1713  0.0558
27406W        W34006   8.685   4.169   4.337 -0.3361 -0.1043  0.0117
27407W        W34007  11.211   5.212   7.832  0.0767 -0.1210 -0.2530
27408W        W34008   8.558   4.875   6.931 -0.0554  0.0709  0.0420
27409W        W34009  18.124   2.913  44.071  0.0920 -0.0376 -0.0041
27410W        W34010   5.206   5.917  27.394  0.1299  0.1512  0.1318
27411W        W34011  17.816   4.752  27.789 -0.1949 -0.0422  0.1199
27412W        W34012  14.107   1.683  34.785 -0.3883 -0.1573 -0.0162
27413W        W34013  15.842   0.146  10.501 -0.0061 -0.0564  0.1081
27414W        W34014   6.240   2.942   0.089  0.2628  0.0561 -0.2677
27415W        W34015   0.168   0.895  33.297 -0.4187 -0.1826 -0.0284
27416W        W34016  13.093   3.749  33.181 -0.2572 -0.0207 -0.0573
27417W        W34017   0.581   5.502  38.174  0.2422 -0.2516  0.1612
27418W        W34018  13.155   3.447   4.095  0.1026  0.0588  0.0892
27419W        W34019  19.409   3.270  33.931  0.1580 -0.1379 -0.1129
27420W        W34020   1.287   5.558  31.265  0.1354 -0.0761  0.0754
27421W        W34021   2.457   1.063   8.388 -0.1655  0.0473  0.0792
27422W        W34022  10.300   0.182  31.230  0.1941  0.0521 -0.1339
27423W        W34023  18.948   5.557  30.225  0.0333  0.1751  0.2560
27424W        W34024   1.698   0.410   0.568  0.0579 -0.2061  0.1592
27425W        W34025  13.356   2.798  30.265 -0.0041 -0.3103  0.0788
27426W        W34026  14.305   0.839  24.642  0.2851  0.3000  0.1377
27427W        W34027   6.953   2.833  38.833  0.1068  0.2609 -0.3390
27428W        W34028  12.840   2.002  32.077 -0.0542  0.4462 -0.1785
27429W        W34029  15.483   3.540  44.762 -0.2243 -0.1282  0.1575
27430W        W34030  13.981   5.930   7.418  0.0453 -0.2358  0.1076
27431W        W34031  17.544   3.706  33.145  0.1335  0.0683  0.0412
27432W        W34032   6.743   6.113  32.579 -0.1748  0.2682  0.3231
27433W        W34033   9.766   4.098   1.394  0.1104 -0.0105 -0.2445
27434W        W34034   4.798   3.970  45.092  0.1783  0.0012 -0.0797
27435W        W34035   6.382   0.256  32.249 -0.1058  0.0360  0.3173
27436W        W34036   0.922   3.393  39.217 -0.0295 -0.0743  0.3137
27437W        W34037  11.110   1.525  10.661  0.1531  0.0110 -0.1491
27438W        W34038  20.167   1.759  15.541 -0.1882 -0.0742  0.0778
27439W        W34039  21.163   6.288  29.265  0.1699 -0.1372  0.0200
27440W        W34040  12.107   1.509  15.549 -0.1237 -0.0712  0.1007
27441W        W34041  14.734   0.546  33.013  0.1064  0.2083  0.0456
27442W        W34042   4.084   5.631   6.201  0.3457  0.0916  0.1288
27443W        W34043   4.127   6.242  23.117 -0.0924  0.0161  0.5318
27444W        W34044  12.783   5.402  10.334  0.1977  0.1106  0.1187
27445W        W34045  11.660   0.942  18.424  0.1441 -0.1234  0.2391
27446W        W34046   5.307   1.731  38.938 -0.0519  0.1198  0.1548
27447W        W34047  13.506   4.277  32.423 -0.0583 -0.4331  0.2373
27448W        W34048  10.421   1.150  19.029  0.0728 -0.1497  0.1158
27449W        W34049  11.069   6.296   8.016 -0.0825  0.0112  0.1492
27450W        W34050  14.466   1.094  32.655  0.1280  0.1630  0.0497
27451W        W34051  17.603   4.116  32.320  0.2301 -0.2560 -0.4406
27452W        W34052  16.054   2.922  14.085  0.1945 -0.2389  0.1001
27453W        W34053  20.086   1.370   2.148 -0.3193  0.1188  0.0247
27454W        W34054   9.864   4.582  15.999 -0.0639  0.0089  0.0806
27455W        W34055  10.751   1.295  32.162 -0.0027 -0.0345  0.1149
27456W        W34056  18.643   2.489  13.454 -0.2283  0.2419  0.2210
27457W        W34057  15.632   1.382  18.957  0.1580 -0.1740  0.1406
27458W        W34058  16.026   2.119  15.373  0.3204  0.1086 -0.0964
27459W        W34059  20.330   2.768  33.337 -0.1061 -0.6406  0.0336
27460W        W34060  18.484   2.638  41.935 -0.2214 -0.0584 -0.0742
27461W        W34061  18.989   5.503   3.433 -0.0221 -0.2131 -0.1864
27462W        W34062   3.738   2.988  20.589  0.3834  0.2607 -0.1222
27463W        W34063  15.832   3.388  20.137  0.2134 -0.0539  0.0236
27464W        W34064   4.529   5.653   8.575 -0.1084 -0.0027 -0.3457
27465W        W34065  20.192   0.335  24.673 -0.2871 -0.3466 -0.0058
27466W        W34066   1.915   3.344   5.150 -0.0148  0.2342 -0.2673
27467W        W34067   2.394   3.596  43.373 -0.2449  0.2327 -0.2947
27468W        W34068   3.844   3.696   0.939 -0.1212  0.1744  0.1890
27469W        W34069  15.558   1.496  32.146  0.0341  0.2927  0.1533
27470W        W34070   0.009   1.404   3.198  0.4917  0.0836 -0.1283
27471W        W34071   1.462   5.902  13.362  0.0792 -0.2349 -0.1832
27472W        W34072   2.256   1.378  15.485 -0.1084  0.0257 -0.1561
27473W        W34073  13.208   5.094   2.833  0.2081 -0.1599  0.2519
27474W        W34074   3.132   3.547  34.725 -0.2439  0.0931 -0.2452
27475W        W34075   6.884   5.735  36.447  0.2557  0.0996  0.2477
27476W        W34076  14.740   3.691  10.778  0.2814 -0.1855 -0.2325
27477W        W34077  13.900   3.158  33.807  0.0170  0.1580  0.2121
27478W        W34078  11.613   2.548  32.081 -0.2216 -0.2042 -0.3013
27479W        W34079  14.942   0.619   5.085  0.2031  0.0321 -0.0560
27480W        W34080  14.061   2.953  15.206  0.1182  0.2687 -0.0117
27481W        W34081   7.385   6.104   1.944  0.0980 -0.0695 -0.0646
27482W        W34082  12.952   1.314  10.197  0.0835 -0.0216  0.4058
27483W        W34083   2.664   4.035  22.748  0.2212 -0.2752  0.1357
27484W        W34084  15.360   5.597  21.197  0.0421 -0.0372 -0.1387
27485W        W34085   3.991   5.654  21.823  0.1272  0.4077  0.1539
27486W        W34086  16.470   4.260  14.825  0.1520  0.2053 -0.1708
27487W        W34087  14.721   4.657  17.345 -0.1845 -0.2293 -0.0831
27488W        W34088   9.279   1.638  28.053 -0.0860 -0.0475  0.1985
27489W        W34089  17.678   1.287   0.751 -0.0065 -0.0152 -0.3109
27490W        W34090  16.165   2.502  22.561  0.1434  0.1847 -0.2180
27491W        W34091   6.728   2.027  39.615  0.1638 -0.1290  0.0081
27492W        W34092  18.315   3.359  33.575  0.3158 -0.1398  0.0426
27493W        W34093   0.303   1.202   2.819  0.0681 -0.3584 -0.2935
27494W        W34094  11.405   1.220  16.643  0.2046  0.1049 -0.1197
27495W        W34095   6.585   4.933  35.525  0.2100 -0.0862 -0.1264
27496W        W34096  16.203   2.223  12.106  0.0704  0.0645 -0.3981
27497W        W34097   8.000   0.882  11.037 -0.1277  0.1624  0.0023
27498W        W34098  13.742   5.935   6.496 -0.0730 -0.1180 -0.1556
27499W        W34099   7.960   1.728   7.648 -0.1060  0.1636  0.3287
27500W        W34100  10.739   4.771  10.892  0.0915  0.4719  0.0643
27501W        W34101  15.463   5.280  13.174 -0.2366  0.0732 -0.1510
27502W        W34102  10.839   1.823   1.291  0.1615 -0.1932 -0.1616
27503W        W34103   2.118   3.857  39.674 -0.1142 -0.2681  0.1999
27504W        W34104   7.052   4.376  12.072 -0.2867  0.1785  0.0097
27505W        W34105   9.282   1.703  41.847  0.0705  0.2112 -0.2129
27506W        W34106   0.759   4.131  38.465 -0.0201  0.0901 -0.0680
27507W        W34107  17.481   0.598  33.550 -0.0450 -0.0042  0.1801
27508W        W34108   8.937   6.167  30.083  0.0176  0.1730 -0.2849
27509W        W34109  14.224   0.281  40.151  0.2852  0.2751  0.0706
27510W        W34110   4.032   4.557  25.570 -0.1722 -0.1373 -0.1810
27511W        W34111   6.327   0.558  27.289  0.1946 -0.0416  0.1794
27512W        W34112  10.029   3.300  43.729  0.1004 -0.1612 -0.1632
27513W        W34113   0.675   3.288  24.022 -0.0245 -0.0344 -0.0833
27514W        W34114  11.444   0.202  34.266  0.0230 -0.0097  0.0130
27515W        W34115  11.109   1.994  34.707  0.1068  0.2287 -0.1094
27516W        W34116  13.818   6.476   0.375  0.0037  0.1183  0.4483
27517W        W34117  19.718   4.457  43.582 -0.1921  0.0181 -0.0166
27518W        W34118  15.206   1.447  16.766 -0.2494 -0.2815  0.1800
27519W        W34119  20.414   5.748  40.862  0.1018  0.0252  0.2289
27520W        W34120   2.162   4.337  29.030  0.0643  0.1427 -0.2336
27521W        W34121  19.549   4.928  31.736 -0.0196  0.3905  0.1660
27522W        W34122  17.463   1.415  19.953  0.0356  0.0232  0.0535
27523W        W34123   9.654   6.238  37.392  0.0514  0.0183  0.0677
27524W        W34124   7.175   0.682   9.532 -0.0606  0.0302  0.2222
27525W        W34125  19.168   0.165   6.563 -0.3284  0.3966 -0.3035
27526W        W34126  20.512   3.786  41.295  0.0735  0.1851 -0.1007
27527W        W34127  16.214   4.625   9.164 -0.1343  0.0101 -0.0641
27528W        W34128  16.899   2.735  20.921  0.0821  0.1075  0.3070
27529W        W34129  18.779   0.990  43.883  0.0251  0.0491 -0.0551
27530W        W34130  10.182   5.028   8.554 -0.1374 -0.1106 -0.0190
27531W        W34131   7.304   5.345  39.002  0.0621  0.2733 -0.0833
27532W        W34132   7.195   5.239   1.919  0.1898  0.0746 -0.0895
27533W        W34133  16.933   2.287   8.956  0.0121 -0.1773 -0.0232
27534W        W34134  17.857   3.672  32.229  0.0723 -0.0091 -0.2818
27535W        W34135   1.403   0.050  30.701  0.0237  0.0470 -0.3029
27536W        W34136   7.189   4.841  11.412  0.2743 -0.0969  0.1581
27537W        W34137  12.305   0.711   9.158 -0.0016  0.0885 -0.1892
27538W        W34138   0.446   5.345  12.605 -0.1259 -0.0522 -0.2952
27539W        W34139  12.245   5.327  15.399 -0.0346  0.5071 -0.0060
27540W        W34140  13.140   1.337   1.968  0.2905 -0.3159  0.1413
27541W        W34141  18.807   5.903   1.512 -0.1746  0.3784  0.2351
27542W        W34142  15.671   6.599   2.918  0.1534 -0.0746  0.3254
27543W        W34143  15.928   1.137  42.418  0.3325  0.3144 -0.2716
27544W        W34144  14.794   6.336  17.596 -0.1846  0.0029  0.0079
27545W        W34145  15.704   3.931   2.502 -0.2212 -0.0231 -0.3294
27546W        W34146  11.222   4.786   1.274  0.1182  0.2341  0.1552
27547W        W34147  14.546   1.579  16.160  0.1735  0.1387 -0.0764
27548W        W34148  21.018   4.814  13.656  0.0407  0.0992  0.0318
27549W        W34149   1.363   0.855  23.966 -0.1006 -0.2672  0.0163
27550W        W34150  18.990   3.230  42.175 -0.2004  0.1146  0.2377
27551W        W34151  13.652   2.933   4.187  0.0748  0.1803  0.0370
27552W        W34152   7.902   1.901   9.708 -0.1253  0.0695  0.1058
27553W        W34153   0.131   6.216  30.868  0.2216 -0.0963 -0.0885
27554W        W34154   2.731   4.820   0.795 -0.1181  0.0386 -0.1221
27555W        W34155   6.543   0.670  37.686 -0.1892  0.4865  0.2080
27556W        W34156   9.083   6.361  27.096  0.1799 -0.0730 -0.1362
27557W        W34157  11.545   3.161  44.564 -0.0026  0.2069  0.1209
27558W        W34158   4.221   2.938   5.699  0.0043  0.0116 -0.2914
27559W        W34159   6.230   2.876  25.474  0.2985 -0.0798 -0.0163
27560W        W34160   4.781   3.205  30.527  0.0602 -0.2491 -0.2184
27561W        W34161   5.411   0.765  13.054  0.2032  0.1914  0.0189
27562W        W34162  13.163   4.954   4.802  0.0203  0.0343  0.1435
27563W        W34163   6.871   5.457  41.232 -0.0680 -0.1559  0.2796
27564W        W34164  15.292   6.404  41.903  0.0827 -0.3253 -0.3336
27565W        W34165   6.056   2.246   8.368  0.2091 -0.0217  0.1540
27566W        W34166  14.194   6.000  19.349  0.2438 -0.0393  0.2168
27567W        W34167  11.977   4.649  35.583  0.2206  0.0431 -0.2365
27568W        W34168   5.976   1.490  42.464 -0.3932  0.2844  0.2246
27569W        W34169  11.902   3.093   5.381 -0.0636  0.0597  0.3861
27570W        W34170  13.076   4.257  35.495 -0.0275 -0.4252 -0.0805
27571W        W34171   6.114   4.786   4.246 -0.1805  0.1184 -0.0690
27572W        W34172  14.212   0.728  18.877 -0.0792  0.0708  0.2143
27573W        W34173   2.212   5.831   5.834 -0.1523 -0.2277 -0.1445
27574W        W34174  19.403   1.718  37.132 -0.1016  0.2301  0.1059
27575W        W34175  19.908   0.849   9.113  0.1634 -0.0795 -0.3806
27576W        W34176  16.310   1.707  22.050  0.3522  0.1104  0.2102
27577W        W34177   5.266   0.381  42.739 -0.1435 -0.2103 -0.1854
27578W        W34178   7.471   0.143  28.080  0.2081  0.0258  0.0811
27579W        W34179  10.102   2.926   2.638  0.0530 -0.1099 -0.0143
27580W        W34180   9.356   1.665  28.973 -0.2575 -0.0542 -0.2082
27581W        W34181   7.723   4.173   9.141 -0.1009 -0.0022 -0.0752
27582W        W34182   7.581   2.685  25.134 -0.1879  0.2819  0.1245
27583W        W34183   8.856   2.028  15.433  0.0206  0.1721 -0.1053
27584W        W34184  15.325   3.031  31.108 -0.2239 -0.0617 -0.3529
27585W        W34185   0.003   3.903  37.234 -0.2024  0.0341 -0.0323
27586W        W34186  15.385   1.268  12.614  0.0272  0.1631 -0.0208
27587W        W34187  12.973   6.001   0.120  0.2922 -0.4013  0.2653
27588W        W34188  21.138   4.190  40.503 -0.4163  0.0805 -0.1502
27589W        W34189   9.290   1.271  29.377 -0.1078 -0.1566 -0.1067
27590W        W34190   5.416   0.173   2.600  0.0255 -0.1708 -0.0589
27591W        W34191  17.651   1.285  35.871 -0.0002  0.0123 -0.0323
27592W        W34192   3.241   3.148  29.324 -0.3542 -0.0304 -0.1868
27593W        W34193   5.637   0.558  31.337 -0.1355 -0.1339  0.1105
27594W        W34194   2.852   1.792  37.163  0.0227  0.0420  0.2593
27595W        W34195  13.090   3.283   5.959 -0.0292  0.3517 -0.0463
27596W        W34196  16.360   2.808  13.114 -0.2659  0.2674  0.0002
27597W        W34197  14.997   5.299  34.007  0.0340  0.0982  0.0886
27598W        W34198  11.574   0.346  32.480  0.4401 -0.0189 -0.0583
27599W        W34199  19.739   0.264  31.636 -0.0274 -0.1981 -0.0463
27600W        W34200   5.235   3.081  26.237 -0.0435 -0.1018 -0.1158
27601W        W34201   4.183   5.692   8.128  0.0525 -0.1517  0.0065
27602W        W34202   1.651   0.153   6.272 -0.1098  0.1344  0.0948
27603W        W34203  15.806   2.976  17.148  0.0312 -0.1446 -0.1316
27604W        W34204   4.990   2.419  29.130  0.1272 -0.3472  0.0352
27605W        W34205  11.703   2.317  12.515  0.3302 -0.1698  0.3078
27606W        W34206   2.250   5.778  29.469 -0.0030  0.1593 -0.3392
27607W        W34207   6.440   3.453  25.382 -0.0575  0.0885  0.0516
27608W        W34208  20.394   3.672  15.668  0.1638 -0.0895 -0.0760
27609W        W34209  16.201   2.424  34.931  0.0312 -0.0412  0.0058
27610W        W34210  12.462   5.042  16.574 -0.0058 -0.0052 -0.1957
27611W        W34211   8.115   3.125  39.948  0.0099 -0.3545  0.2250
27612W        W34212  18.996   0.453  38.922  0.2150 -0.3082  0.0412
27613W        W34213  19.933   3.774   7.183  0.1103  0.3264 -0.0763
27614W        W34214  14.984   5.440  39.328 -0.0063  0.0343  0.1901
27615W        W34215   4.934   2.305   0.360 -0.0823  0.0169  0.0225
27616W        W34216   8.047   0.543  32.483  0.1902  0.1966  0.2610
27617W        W34217   4.429   2.848  35.809 -0.0658 -0.0982 -0.2126
27618W        W34218  14.356   0.340   1.729  0.1154  0.2417  0.0200
27619W        W34219   6.448   3.899   4.776  0.0106 -0.0997  0.0879
27620W        W34220  13.017   0.899   2.151 -0.1313  0.3030 -0.1183
27621W        W34221  17.947   1.514   1.876  0.1561 -0.1543 -0.1305
27622W        W34222  20.499   5.070  30.841 -0.2339  0.0213  0.0406
27623W        W34223   4.731   2.395  15.919 -0.6214 -0.1454  0.2511
27624W        W34224  10.230   3.372  34.899  0.0688 -0.0121  0.0021
27625W        W34225  15.437   2.607   5.009  0.3494  0.0527  0.0533
27626W        W34226   0.251   1.235  32.534  0.0784  0.1492  0.1143
27627W        W34227   5.077   3.569  35.910  0.1682  0.0470  0.4067
27628W        W34228  19.926   6.209  12.759  0.3671  0.0199 -0.0133
27629W        W34229   1.450   0.485   3.359 -0.0537 -0.1057  0.0180
27630W        W34230   6.068   1.372  42.959  0.0216  0.0717  0.0039
27631W        W34231  15.386   0.194  29.186  0.1225 -0.0447 -0.2197
27632W        W34232   0.317   2.574  26.225 -0.3624 -0.1544  0.3114
27633W        W34233  17.415   2.467  12.360 -0.4277  0.0208 -0.0526
27634W        W34234  18.184   1.659  43.863 -0.1868  0.0516 -0.2181
27635W        W34235   5.917   3.246  23.552 -0.2337  0.0472  0.1364
27636W        W34236  19.949   0.668   3.009 -0.0294 -0.0899  0.1218
27637W        W34237  12.003   5.633  12.108  0.2063 -0.1071 -0.3684
27638W        W34238   5.267   2.590   0.620 -0.1658 -0.1177 -0.2631
27639W        W34239  15.973   3.539  14.991  0.3397  0.2152 -0.0560
27640W        W34240   7.639   6.315   0.717 -0.1386 -0.1109  0.3028
27641W        W34241   3.607   5.735  30.077 -0.3782  0.2391 -0.2107
27642W        W34242  16.317   5.943   0.217 -0.0525 -0.0531  0.0181
27643W        W34243   6.868   0.710   5.280  0.2395 -0.1136 -0.0195
27644W        W34244  20.274   3.494  32.008  0.5076  0.1406 -0.0625
27645W        W34245  16.843   0.063   0.047  0.0975  0.1542  0.0915
27646W        W34246  14.178   3.573  18.229  0.1834 -0.1450  0.2745
27647W        W34247  13.876   3.631  39.860 -0.1703 -0.0464  0.1857
27648W        W34248  14.294   4.328   7.633  0.0776 -0.1073 -0.2395
27649W        W34249   5.002   3.659  30.588  0.1949 -0.0351  0.1117
27650W        W34250  16.216   2.205   6.694  0.0066  0.0203  0.1822
27651W        W34251  14.148   0.199  43.214  0.2731 -0.0065 -0.3377
27652W        W34252   4.610   6.197  12.677 -0.2467 -0.0377 -0.0258
27653W        W34253  20.544   2.173  30.871  0.0325  0.0094  0.0627
27654W        W34254  17.156   1.906  40.526 -0.2990 -0.0968 -0.0777
27655W        W34255  10.251   6.584  35.295 -0.2240 -0.0568  0.1200
27656W        W34256   6.544   4.977  32.642 -0.1144 -0.0124 -0.0172
27657W        W34257  11.090   6.143  30.394  0.1401  0.1295 -0.0220
27658W        W34258  17.233   2.180  38.715  0.0126 -0.0779 -0.0462
27659W        W34259   9.176   2.132   5.061 -0.1930  0.3774  0.0331
27660W        W34260   6.322   3.104  23.119  0.0729  0.1318 -0.0990
27661W        W34261   5.417   2.425   5.424 -0.0754  0.1669  0.1846
27662W        W34262   0.656   3.844  29.124 -0.3269  0.3747  0.0357
27663W        W34263  21.105   4.800  36.511  0.0531 -0.1393 -0.3043
27664W        W34264   9.291   0.639   0.163 -0.2703  0.0105 -0.0529
27665W        W34265  11.297   6.491   5.340 -0.0666  0.1309 -0.3030
27666W        W34266  17.867   3.638   9.423 -0.1049  0.1223  0.0545
27667W        W34267  16.153   3.361  10.742  0.2285  0.2973  0.0430
27668W        W34268   3.825   2.674  24.065 -0.2143  0.0095 -0.2308
27669W        W34269   9.174   4.487  40.139  0.1815 -0.0759  0.2766
27670W        W34270   4.080   4.940  27.620  0.0295 -0.0659  0.3154
27671W        W34271   9.397   6.376   5.221  0.1861  0.1525  0.1882
27672W        W34272  11.532   1.992   1.988 -0.1891  0.0102  0.0767
27673W        W34273  21.152   5.151  27.239 -0.0356 -0.0735 -0.1230
27674W        W34274  20.246   2.438  15.037  0.0500  0.3073  0.0668
27675W        W34275  10.260   6.387   2.545  0.1703 -0.3360 -0.0000
27676W        W34276  19.374   3.834   1.907  0.1771  0.0793 -0.0982
27677W        W34277   3.834   2.251  29.822  0.2440  0.4409  0.2418
27678W        W34278  11.644   4.558   1.012  0.2541  0.2118  0.1342
27679W        W34279  19.941   5.816  10.985  0.1350 -0.1076  0.0500
27680W        W34280   1.118   4.358   3.494 -0.2240  0.1140  0.2124
27681W        W34281  20.840   5.834  37.600  0.1489  0.1287  0.1047
27682W        W34282  18.321   5.068  38.391  0.1564  0.1509 -0.1157
27683W        W34283   4.983   5.643  20.434 -0.2204 -0.3676 -0.1265
27684W        W34284  10.100   1.265  38.026 -0.1615  0.0803  0.0755
27685W        W34285   2.799   2.141  35.698  0.0236  0.0742  0.1944
27686W        W34286  16.806   5.586   8.161  0.1200 -0.1199  0.2039
27687W        W34287  18.051   1.055  38.027 -0.2472  0.3138 -0.1194
27688W        W34288  13.930   2.390  43.348  0.0554  0.1585 -0.1108
27689W        W34289   1.080   3.091   1.143 -0.2461 -0.2002 -0.0630
27690W        W34290  18.824   2.694  16.592 -0.2522 -0.1038 -0.1719
27691W        W34291   5.408   5.717   7.063  0.2969  0.2031 -0.1172
27692W        W34292   6.902   5.177   4.490  0.2927 -0.1751  0.2013
27693W        W34293  16.054   5.274  16.065 -0.0907  0.3107 -0.0855
27694W        W34294   2.662   3.832  43.721  0.0623 -0.0717  0.0039
27695W        W34295  12.768   2.686  35.727  0.3469 -0.0276  0.0889
27696W        W34296   5.243   3.590  21.356 -0.1709 -0.1983  0.0729
27697W        W34297   6.810   0.908  33.922 -0.1755  0.3137 -0.1781
27698W        W34298   7.735   3.747  13.474 -0.0382  0.0630  0.0075
27699W        W34299   4.709   4.843  38.697  0.3049 -0.2272  0.0436
27700W        W34300   0.000   5.902  13.120  0.1807 -0.0465 -0.1937
27701W        W34301  13.923   6.321  42.320 -0.0305 -0.0273  0.1496
27702W        W34302  15.342   1.290  16.217  0.1983  0.3014 -0.1683
27703W        W34303   8.539   2.850  43.780  0.2090 -0.1828  0.0623
27704W        W34304   8.215   2.967  44.370  0.0815  0.2711  0.1376
27705W        W34305   2.099   0.965   6.289 -0.1013 -0.4211  0.0632
27706W        W34306  18.020   1.657  16.576 -0.0754 -0.0109  0.2717
27707W        W34307  15.608   1.029   1.500  0.0503  0.0626  0.3003
27708W        W34308   5.710   2.712  16.470 -0.1815 -0.2588  0.4045
27709W        W34309  19.827   2.380  39.442 -0.0972  0.3267  0.0884
27710W        W34310  17.754   2.188  33.963  0.0332 -0.2026  0.2378
27711W        W34311  10.780   4.518  36.369  0.0181  0.4500  0.2885
27712W        W34312  20.463   0.680  37.057 -0.2539  0.2801  0.0921
27713W        W34313  12.823   1.623  15.778 -0.1080  0.2146  0.0606
27714W        W34314   3.616   4.652  27.395 -0.0063  0.0587 -0.0654
27715W        W34315   6.617   6.201  37.369 -0.2518  0.1582  0.1160
27716W        W34316   7.577   4.580   2.109  0.1352 -0.0074  0.1429
27717W        W34317   6.918   1.488  31.791  0.1741 -0.2161 -0.3682
27718W        W34318  13.795   3.578  36.429  0.0322  0.1561 -0.0130
27719W        W34319   4.203   5.917  12.544 -0.0099 -0.0939 -0.0199
27720W        W34320   6.154   6.138   6.088 -0.0415 -0.0679  0.1610
27721W        W34321  15.882   5.068   8.413  0.0415  0.0127  0.3705
27722W        W34322   4.158   4.698  20.859 -0.1258  0.3663  0.2862
27723W        W34323   3.408   4.858  20.214 -0.0940  0.1033 -0.0844
27724W        W34324  18.903   1.073   8.170  0.2295  0.0466  0.3228
27725W        W34325  18.706   4.990  35.979 -0.0804 -0.1393  0.2684
27726W        W34326   0.211   2.511   0.753 -0.0230  0.1278  0.0603
27727W        W34327   2.323   0.508  30.616 -0.0020 -0.1755 -0.0767
27728W        W34328  20.273   6.119   6.819  0.0138 -0.1290  0.3055
27729W        W34329  17.515   6.171  10.852  0.1097  0.0576  0.0305
27730W        W34330  10.368   1.448   6.774  0.0854 -0.2531  0.1125
27731W        W34331  10.375   4.095   3.469  0.0196 -0.2206 -0.0438
27732W        W34332  13.644   6.223   3.394  0.0822 -0.1774  0.2477
27733W        W34333   4.361   6.037  34.076 -0.3569 -0.2881 -0.2619
27734W        W34334  14.149   5.764  14.823 -0.2984  0.0625  0.0203
27735W        W34335   0.710   3.091  35.015 -0.2133  0.0122  0.3174
27736W        W34336  20.612   2.394  44.086 -0.1431 -0.1612  0.2075
27737W        W34337   3.484   5.619  22.493 -0.1146  0.2174 -0.0253
27738W        W34338  15.750   0.416  34.093  0.1447 -0.1756 -0.1301
27739W        W34339   9.645   0.706   1.372  0.0804 -0.2120  0.2415
27740W        W34340   7.486   0.235  42.967 -0.0724  0.0098  0.2579
27741W        W34341   8.886   4.529   7.070  0.1431  0.6369  0.2106
27742W        W34342   9.217   5.286  41.047 -0.0163 -0.0628  0.3166
27743W        W34343  12.761   4.916   0.299  0.2205  0.0513 -0.1811
27744W        W34344  15.864   6.405   5.585  0.0832 -0.1081  0.0346
27745W        W34345   5.381   1.760  32.888 -0.4536 -0.3276 -0.2963
27746W        W34346  11.442   1.785  37.969 -0.3095 -0.0079 -0.0229
27747W        W34347   8.803   1.955  27.151 -0.1711 -0.0310  0.3009
27748W        W34348  15.315   2.472  18.507  0.0519  0.1589 -0.1456
27749W        W34349   4.551   3.363  16.413 -0.1251 -0.0098 -0.1422
27750W        W34350   0.491   3.898  35.154  0.0801  0.2174  0.2899
27751W        W34351   2.142   6.238  35.785 -0.0478  0.0005  0.1304
27752W        W34352  17.093   1.489  28.455 -0.2675  0.2090 -0.0678
27753W        W34353   5.629   2.225  30.269  0.2520 -0.1301  0.3017
27754W        W34354  15.414   3.022  13.085  0.1176  0.0826 -0.2733
27755W        W34355  19.055   6.517  31.445  0.0698 -0.0387 -0.1557
27756W        W34356  11.231   2.781  28.959  0.1758  0.1575 -0.0270
27757W        W34357   9.078   5.441  33.513 -0.3442  0.1019  0.0443
27758W        W34358   3.524   4.082  39.932 -0.1314 -0.0514  0.1506
27759W        W34359   1.070   1.443  26.804 -0.0130 -0.1187  0.2951
27760W        W34360   4.993   3.297  27.417  0.2602 -0.3703 -0.2752
27761W        W34361  13.779   5.711   5.164 -0.0025 -0.4038  0.0828
27762W        W34362  14.327   4.723  42.595  0.2135 -0.0828  0.2778
27763W        W34363   7.287   0.605  43.306 -0.0940 -0.0924 -0.0022
27764W        W34364   2.433   0.451  34.909 -0.1338 -0.1512 -0.3347
27765W        W34365  10.658   1.026  40.223  0.0605  0.1179 -0.3229
27766W        W34366  10.264   3.006  29.126 -0.1021  0.2501 -0.0731
27767W        W34367  18.022   0.759  10.717  0.1139  0.1187  0.1932
27768W        W34368  17.396   5.085   6.849  0.0401 -0.1336  0.0150
27769W        W34369   4.045   4.085   4.881 -0.1876  0.3821  0.0430
27770W        W34370   8.910   4.044  12.979 -0.0144 -0.0419 -0.0311
27771W        W34371  19.115   4.808   8.758 -0.1379 -0.1760  0.1164
27772W        W34372  20.150   1.512  24.741  0.0313  0.2251 -0.0869
27773W        W34373  15.441   3.724  29.825  0.1625 -0.2716  0.1569
27774W        W34374  19.128   3.437  36.009  0.0627 -0.0884 -0.0887
27775W        W34375   8.301   3.118   6.698 -0.0057  0.1293  0.0673
27776W        W34376  19.693   2.358  13.870  0.0022 -0.0153 -0.2964
27777W        W34377   2.681   2.243  31.405  0.1780  0.0555 -0.0527
27778W        W34378  15.177   0.809   4.233 -0.0980 -0.0039  0.0704
27779W        W34379   9.567   1.043  19.346  0.1075  0.0274  0.0924
27780W        W34380  17.127   4.046  43.256 -0.0240  0.1359  0.0651
27781W        W34381  11.029   3.258   9.841  0.1137  0.1787  0.0197
27782W        W34382  13.656   2.308   7.865 -0.1682  0.1186  0.0355
27783W        W34383  11.374   2.993  14.738  0.2530 -0.1800  0.0522
27784W        W34384  20.873   2.571  12.083 -0.0495  0.1393 -0.0367
27785W        W34385   9.334   3.876  15.632  0.1826 -0.1110  0.0169
27786W        W34386  14.039   3.716   6.712 -0.2065  0.2100  0.1127
27787W        W34387   7.302   1.920   0.676 -0.1820 -0.0979 -0.0193
27788W        W34388  18.276   6.529   5.963  0.0285  0.0647 -0.3640
27789W        W34389   2.022   2.702  22.201  0.1113 -0.2758  0.0119
27790W        W34390  19.643   2.295  43.385  0.0966  0.1285 -0.0473
27791W        W34391   9.565   4.473  19.029 -0.1186 -0.1711  0.4429
27792W        W34392  19.101   0.989   6.115  0.0465 -0.2227 -0.1071
27793W        W34393  14.178   6.309  25.377  0.2099 -0.2286 -0.1431
27794W        W34394   6.341   6.412   9.347 -0.1783  0.3412  0.2809
27795W        W34395   4.337   6.527  28.607  0.0261  0.0563  0.1922
27796W        W34396  14.261   3.399  31.451 -0.0418 -0.0326  0.1177
27797W        W34397   7.476   5.938   6.647  0.0473  0.0175 -0.0253
27798W        W34398  14.902   0.362  43.718 -0.1781  0.3101 -0.0411
27799W        W34399   9.019   3.445   3.564  0.2871  0.1304 -0.2144
27800W        W34400   3.008   4.659   1.634 -0.2425 -0.0637 -0.1728
27801W        W34401   1.722   1.899  42.774 -0.2447 -0.3468 -0.0738
27802W        W34402   7.015   4.077   2.619  0.2301  0.2297 -0.3938
27803W        W34403   8.632   3.348   5.000 -0.0100 -0.0045 -0.0676
27804W        W34404  17.557   5.854  20.624 -0.3152 -0.1477 -0.0713
27805W        W34405   8.928   4.937   4.522  0.1185  0.0334 -0.0850
27806W        W34406   5.785   1.123  32.054 -0.1165 -0.0930  0.1629
27807W        W34407   6.869   3.810   9.288 -0.1014  0.1340  0.1286
27808W        W34408   6.291   0.675  44.068 -0.0226 -0.1426 -0.0230
27809W        W34409  13.229   0.276   9.236 -0.1144 -0.1308 -0.0250
27810W        W34410  15.960   0.194  11.061  0.1549  0.2517 -0.0102
27811W        W34411  20.697   1.008  13.970 -0.3886 -0.1696  0.1133
27812W        W34412  18.409   0.893  35.870 -0.0631  0.2460  0.2596
27813W        W34413   6.450   5.006  12.531  0.1310 -0.0894  0.1889
27814W        W34414  10.148   0.614  36.345  0.4927  0.1859 -0.2028
27815W        W34415  11.957   1.864  16.027 -0.2366  0.0571  0.2249
27816W        W34416  14.123   6.313  10.303  0.0343  0.0607 -0.0891
27817W        W34417  18.856   4.202   9.086  0.0202  0.0345  0.0555
27818W        W34418  10.870   2.783  11.301  0.1589 -0.1572  0.2193
27819W        W34419  15.901   4.904  42.030  0.1576  0.0144  0.1900
27820W        W34420  20.613   5.498   6.684 -0.3198 -0.2616  0.0683
27821W        W34421  13.150   6.058   1.941 -0.0687 -0.0791 -0.1657
27822W        W34422  18.591   3.985  10.935  0.1900 -0.1135 -0.1130
27823W        W34423   6.838   0.842  42.673  0.0093 -0.0850 -0.1970
27824W        W34424   0.464   0.062  36.010 -0.0485 -0.0124  0.1765
27825W        W34425  15.284   5.037   9.473  0.0121  0.3216 -0.0446
27826W        W34426  16.940   2.113  14.836  0.1120 -0.1780 -0.0530
27827W        W34427  18.398   0.964   0.416 -0.0609  0.0709  0.2474
27828W        W34428   9.710   3.524   8.712  0.1505  0.0046  0.1813
27829W        W34429   9.255   5.569   0.635  0.3249 -0.2472 -0.2217
27830W        W34430   8.070   5.083  31.084 -0.0457 -0.1398 -0.0937
27831W        W34431  12.237   5.792   1.939  0.1099  0.1935  0.2997
27832W        W34432  10.941   1.542  38.322  0.0049  0.0836  0.1825
27833W        W34433  13.107   6.081   3.442  0.0088 -0.0036  0.2263
27834W        W34434   4.493   4.108   0.371 -0.0642  0.1340  0.0715
27835W        W34435  15.853   2.549  32.269  0.1390  0.0171 -0.2571
27836W        W34436  15.257   0.208  41.527 -0.1504 -0.1383  0.3864
27837W        W34437   2.486   3.462  23.204 -0.1582  0.1347 -0.0058
27838W        W34438  12.216   0.141  32.243  0.0093 -0.1871  0.1516
27839W        W34439  15.788   0.449   2.714 -0.0831  0.0647 -0.1428
27840W        W34440  14.509   3.780  11.209 -0.0598  0.3452 -0.1550
27841W        W34441  15.863   3.357   3.969  0.2245  0.0389  0.2455
27842W        W34442   4.472   2.642   5.402 -0.0430 -0.1567  0.1502
27843W        W34443  12.245   4.536  12.313  0.2354  0.2317  0.3425
27844W        W34444  17.010   4.380  36.543 -0.1354 -0.2811  0.0245
27845W        W34445   0.745   6.033  15.366 -0.0229 -0.0526 -0.0258
27846W        W34446  17.577   3.266  19.427  0.3172 -0.1302  0.0045
27847W        W34447  16.139   1.950  33.346  0.0606 -0.0315 -0.0912
27848W        W34448  20.278   1.116   3.000  0.3362 -0.0190 -0.2452
27849W        W34449  13.975   6.435  35.958 -0.1667  0.1054 -0.0663
27850W        W34450   1.350   6.423  25.405  0.2133  0.2457  0.1126
27851W        W34451  13.603   4.157  40.943 -0.0072 -0.2668 -0.1134
27852W        W34452   5.141   0.202  24.891 -0.1109  0.0800  0.0615
27853W        W34453   4.944   4.006  26.573  0.0142 -0.1576  0.0374
27854W        W34454   0.174   5.678  39.099 -0.1417 -0.0193  0.0823
27855W        W34455   5.485   1.797  41.717  0.0377  0.1467 -0.0367
27856W        W34456  21.077   2.262  36.509  0.2071 -0.1485 -0.4369
27857W        W34457  14.269   3.598  13.202  0.2519  0.0107  0.0580
27858W        W34458   4.655   3.426   1.723  0.3117 -0.0402 -0.0948
27859W        W34459   9.696   0.837  36.152  0.0268 -0.0015 -0.3133
27860W        W34460  12.085   1.121  19.656  0.2219  0.1611  0.1294
27861W        W34461   9.837   2.900  40.048 -0.0548 -0.0401  0.1325
27862W        W34462  12.957   0.262  20.252 -0.2151  0.1317 -0.1145
27863W        W34463   2.895   1.670  10.480  0.1221 -0.2125 -0.1997
27864W        W34464  15.757   6.046  22.868  0.1984 -0.1740 -0.0111
27865W        W34465  11.920   3.410  31.324 -0.0251 -0.3065 -0.1247
27866W        W34466   7.079   4.199  24.780 -0.1322  0.2792  0.0834
27867W        W34467   7.450   2.641  15.976  0.0259  0.1296  0.0013
27868W        W34468  10.506   1.673   0.539 -0.2548 -0.0293 -0.0808
27869W        W34469   5.990   0.048  15.482  0.2329  0.2327  0.1519
27870W        W34470  10.002   0.555  10.827 -0.0431 -0.1020  0.0116
27871W        W34471  10.622   2.599  34.665  0.1147  0.0401 -0.1852
27872W        W34472  15.297   5.184  39.017  0.2508 -0.1545 -0.2339
27873W        W34473  13.131   2.784   5.443  0.1958  0.2153 -0.0045
27874W        W34474   2.264   6.193   0.482  0.1859 -0.1993 -0.0297
27875W        W34475  12.740   5.811  40.648 -0.0124  0.0856 -0.1548
27876W        W34476   5.021   4.799  28.098  0.2174 -0.1370  0.0742
27877W        W34477   5.716   0.110  42.736  0.1578 -0.0989  0.1351
27878W        W34478   4.596   3.429  35.111 -0.1193  0.1621  0.0253
27879W        W34479  10.260   4.408   8.595 -0.1868  0.2171  0.2216
27880W        W34480  13.910   0.831  10.701  0.1281  0.0654 -0.0560
27881W        W34481   5.031   6.254   7.174  0.0776 -0.0209  0.0318
27882W        W34482   0.777   5.502  40.806 -0.0284 -0.0375 -0.2723
27883W        W34483   1.668   2.941   4.711 -0.3379  0.0859 -0.0776
27884W        W34484   8.248   0.035  34.695 -0.1218 -0.1149  0.1436
27885W        W34485   9.190   3.594  12.747  0.1149 -0.1328 -0.0370
27886W        W34486  10.991   5.791   5.435 -0.0922 -0.0730 -0.2381
27887W        W34487  16.973   1.289  12.847  0.2069 -0.0346  0.3192
27888W        W34488   4.504   2.008  44.058  0.0290 -0.0305  0.0362
27889W        W34489   5.260   3.961  41.348 -0.0624  0.1268  0.0873
27890W        W34490   2.011   5.184  22.928  0.1181 -0.1272 -0.1738
27891W        W34491  17.578   1.253  28.462 -0.2168 -0.0538  0.0042
27892W        W34492   2.541   6.530  12.503 -0.0832 -0.2174 -0.2175
27893W        W34493  13.730   4.417  38.597 -0.2459  0.2896  0.1034
27894W        W34494   8.528   1.386  37.799  0.1412 -0.4584 -0.1091
27895W        W34495  18.137   2.404  44.648  0.1733  0.0530 -0.1035
27896W        W34496  12.936   4.538  15.470 -0.0722  0.0569 -0.0864
27897W        W34497   5.687   2.025  41.255  0.0246 -0.3857  0.0428
27898W        W34498   8.234   5.792   2.323  0.2551 -0.0306  0.0261
27899W        W34499   2.771   3.850  36.614 -0.0965  0.1685 -0.0125
27900W        W34500  16.671   6.283  31.835  0.0343 -0.2165  0.2003
27901W        W34501  16.970   3.875   8.039  0.0682 -0.0956  0.3296
27902W        W34502  13.022   2.607   9.652  0.1552  0.5954  0.2701
27903W        W34503  13.677   5.373  15.748 -0.0101 -0.0260 -0.0634
27904W        W34504  11.732   1.675  40.873 -0.2168 -0.1278 -0.1141
27905W        W34505  12.710   0.082  38.736  0.2085 -0.1288  0.1396
27906W        W34506  13.763   1.234   5.541  0.2415 -0.0390 -0.0731
27907W        W34507   7.209   4.727  28.795 -0.0281  0.2554  0.1704
27908W        W34508  12.606   6.362   5.560  0.1561 -0.1932 -0.1390
27909W        W34509  10.869   3.423  17.035  0.0877 -0.1531  0.1101
27910W        W34510   1.354   2.560   1.689 -0.2033  0.0203 -0.0290
27911W        W34511  18.392   5.230  12.220  0.0021 -0.3416 -0.1553
27912W        W34512  13.162   1.729  16.800  0.1401  0.0481 -0.0238
27913W        W34513  21.014   2.068  34.732  0.1854 -0.0590  0.0754
27914W        W34514   9.488   0.586  40.828 -0.1138  0.1910  0.2944
27915W        W34515  10.115   4.015  18.662 -0.2084  0.1694 -0.0124
27916W        W34516  17.355   1.934  39.691  0.0432 -0.2774 -0.2137
27917W        W34517   5.547   5.464   5.719  0.2477  0.0614 -0.2097
27918W        W34518   2.303   1.197   9.917  0.4103 -0.0035 -0.1621
27919W        W34519  11.273   2.192   5.142  0.1822 -0.0810 -0.1746
27920W        W34520   4.538   6.022  28.413  0.1828  0.1223 -0.0259
27921W        W34521  16.999   3.319  43.723  0.0549 -0.1617  0.0369
27922W        W34522   4.885   0.111  15.481 -0.0941  0.1585 -0.0496
27923W        W34523  13.786   0.781  40.927  0.4034  0.0989  0.0553
27924W        W34524   3.851   4.731  28.825  0.1115 -0.4452  0.0268
27925W        W34525  18.967   3.133  18.455  0.0859  0.0989  0.2636
27926W        W34526  10.892   0.676  44.565 -0.0247  0.0632  0.0901
27927W        W34527  19.641   3.859   1.475  0.1355  0.2473 -0.1092
27928W        W34528  12.023   4.456  32.452 -0.2374 -0.1305  0.3683
27929W        W34529  16.941   5.812  13.353 -0.1116  0.0364 -0.2356
27930W        W34530  15.334   6.102  11.418 -0.1518 -0.3220 -0.0468
27931W        W34531  12.879   6.468  42.370  0.1482 -0.0630  0.1963
27932W        W34532  12.869   3.493  19.500 -0.0915 -0.4174 -0.2345
27933W        W34533  16.094   1.495  15.920 -0.0284 -0.1191 -0.1942
27934W        W34534   7.899   3.039   8.057 -0.3154 -0.2010  0.1911
27935W        W34535   6.124   3.512  22.597  0.2438  0.2230 -0.3340
27936W        W34536  20.281   3.553  10.103  0.0852  0.0434 -0.4200
27937W        W34537  15.517   2.188   3.176 -0.2437 -0.1591  0.1602
27938W        W34538   9.711   0.409  12.648  0.0452  0.1630 -0.0477
27939W        W34539   4.580   2.749  30.444 -0.0397  0.2499  0.0992
27940W        W34540  17.630   1.415  28.915 -0.1013  0.0904  0.3156
27941W        W34541   3.836   0.601   5.320  0.0184 -0.2410  0.0102
27942W        W34542  12.848   5.098  16.984  0.2566 -0.0547 -0.0485
27943W        W34543  10.484   6.239  15.129  0.0449 -0.0361  0.1382
27944W        W34544  19.646   0.094  39.546 -0.0502  0.2792 -0.2449
27945W        W34545   2.185   0.238  34.545  0.2086  0.1065  0.2623
27946W        W34546  10.271   3.707   5.399 -0.1260  0.0827 -0.1381
27947W        W34547  18.282   2.085   9.622  0.2982 -0.0735  0.2700
27948W        W34548   5.515   4.043  43.174  0.1457 -0.4998 -0.4847
27949W        W34549  20.902   4.237  25.345 -0.1426 -0.0671  0.0450
27950W        W34550   5.743   2.623  14.079  0.4646  0.1872  0.1220
27951W        W34551  16.225   4.085  32.909  0.0347 -0.1770  0.1317
27952W        W34552   6.896   2.764   9.423  0.1474  0.1084 -0.3374
27953W        W34553   8.692   1.925   2.652  0.0560 -0.2117 -0.3881
27954W        W34554   4.230   1.496  41.509  0.1070  0.0744  0.0246
27955W        W34555   5.285   5.626  34.359 -0.4365 -0.0572  0.1102
27956W        W34556   3.392   3.194  44.977  0.1359  0.0643 -0.2343
27957W        W34557  10.801   3.459  11.697 -0.3137 -0.0681 -0.0207
27958W        W34558   7.524   6.438   1.604 -0.1244 -0.0501  0.0987
27959W        W34559   2.564   1.292  24.072  0.0140 -0.1358 -0.3925
27960W        W34560   7.464   4.016  35.225  0.1767 -0.2806 -0.2705
27961W        W34561  15.022   3.978  36.970  0.0297  0.0953  0.4185
27962W        W34562   9.381   2.386  14.792 -0.1268  0.0963  0.0942
27963W        W34563   7.765   0.876  15.763 -0.0251  0.1870  0.0437
27964W        W34564  15.298   5.429  36.122 -0.0224  0.1257  0.0195
27965W        W34565  17.468   2.208  19.236 -0.0849  0.1306 -0.0152
27966W        W34566   2.124   6.421  43.594  0.1707  0.0228  0.0444
27967W        W34567   2.901   2.084   2.490 -0.1706  0.3488  0.1212
27968W        W34568  18.764   3.582   4.551  0.1320  0.1526  0.1118
27969W        W34569  18.301   1.595   9.564  0.0991  0.0595 -0.5433
27970W        W34570  13.988   1.575   5.909 -0.1774 -0.3201 -0.0319
27971W        W34571   7.089   2.732   2.818  0.2253  0.0734 -0.0098
27972W        W34572  10.911   2.915  19.974 -0.4276  0.3754  0.2134
27973W        W34573  13.552   1.045  22.180  0.1962  0.0600  0.0377
27974W        W34574   1.082   6.155  44.829 -0.0534 -0.0958  0.0291
27975W        W34575  11.941   5.727   3.777 -0.1791  0.1963 -0.0450
27976W        W34576  17.225   0.542  35.371  0.1406  0.2410 -0.2520
27977W        W34577  12.520   3.703  11.897 -0.0780  0.0992  0.1885
27978W        W34578  11.688   5.422  10.919  0.2875 -0.2938  0.1287
27979W        W34579   7.364   2.044  13.577  0.0889 -0.0727  0.1675
27980W        W34580   7.196   0.295  33.252  0.2054  0.1040 -0.0109
27981W        W34581   2.338   0.986  39.366 -0.0683  0.0926 -0.0344
27982W        W34582   9.673   4.624  33.547  0.0644 -0.4071 -0.1603
27983W        W34583  11.667   5.648  41.419 -0.3945  0.0432  0.0105
27984W        W34584   7.274   3.072  23.921 -0.4449 -0.4756 -0.0980
27985W        W34585  12.486   4.183  12.606 -0.0639 -0.1192  0.1406
27986W        W34586   5.081   6.117  36.570  0.0852 -0.0073  0.0756
27987W        W34587   9.257   1.117  15.378 -0.0139  0.0911 -0.2889
27988W        W34588   8.360   5.156  26.452 -0.1847  0.1138 -0.3653
27989W        W34589  20.356   1.016  42.374 -0.3122 -0.0060  0.2300
27990W        W34590   8.659   5.921  12.513 -0.0993 -0.1284  0.1529
27991W        W34591   5.266   5.691  15.569  0.2349 -0.0007 -0.0896
27992W        W34592  19.346   6.195   2.311  0.1255  0.0143  0.0187
27993W        W34593   3.936   4.918  13.922  0.1910  0.1027 -0.1791
27994W        W34594  20.590   4.740  44.083 -0.1848  0.0271 -0.2387
27995W        W34595  16.802   2.993   9.651 -0.2199 -0.1068 -0.0743
27996W        W34596  21.044   0.368  15.513  0.2633 -0.2122  0.0941
27997W        W34597   9.566   0.513   0.555  0.1267 -0.3162 -0.0234
27998W        W34598  12.190   3.267  38.008  0.1867  0.0646 -0.0773
27999W        W34599  17.045   4.472  29.098 -0.2151 -0.1478  0.0636
28000W        W34600   5.359   0.834  42.560 -0.0846 -0.0881  0.0250
28001W        W34601   7.802   3.916  37.104 -0.1137 -0.0136  0.3505
28002W        W34602  14.795   2.114  29.980 -0.2281  0.1866 -0.0796
28003W        W34603  19.364   1.873  28.587 -0.0713  0.1709  0.2751
28004W        W34604  17.563   2.921  34.400  0.1053 -0.0485  0.0908
28005W        W34605  15.548   2.703  33.480 -0.4686  0.0926 -0.0195
28006W        W34606  11.843   2.952  34.312 -0.1810  0.1761 -0.1156
28007W        W34607  16.094   0.690  37.405  0.3134 -0.1699 -0.2033
28008W        W34608   3.644   0.519   1.133  0.1476 -0.1227  0.0647
28009W        W34609  18.579   2.143  42.940 -0.4059 -0.2494 -0.1619
28010W        W34610  11.499   1.583  14.328 -0.1408  0.2660  0.2671
28011W        W34611   0.003   5.182   2.136 -0.2343  0.0601  0.0831
28012W        W34612   5.736   2.897  39.169 -0.0275 -0.0725  0.0490
28013W        W34613   5.990   1.261  25.647  0.0771 -0.1991  0.1255
28014W        W34614  13.521   5.369   2.528  0.0324 -0.1361 -0.1838
28015W        W34615   5.107   3.512  27.837 -0.2151 -0.3033 -0.0313
28016W        W34616  12.831   2.429   2.467 -0.2845  0.1408 -0.3089
28017W        W34617  20.817   3.652   8.370 -0.1468 -0.0589  0.4419
28018W        W34618   1.749   4.114  15.028  0.3025 -0.1140  0.1721
28019W        W34619   0.640   2.040   6.563 -0.0444 -0.1682 -0.1107
28020W        W34620   8.062   1.524  37.104 -0.1907  0.0539  0.1334
28021W        W34621   3.379   2.442  44.613  0.0447  0.0006 -0.0475
28022W        W34622   3.050   2.699  31.304 -0.2169  0.0620 -0.1934
28023W        W34623   2.560   0.553  12.711  0.2353 -0.1593 -0.1981
28024W        W34624  20.264   0.762  39.473 -0.0909  0.1001 -0.0147
28025W        W34625  13.207   3.654   6.922  0.0332 -0.1574 -0.0739
28026W        W34626  16.085   1.412  42.873  0.1999  0.1652 -0.3044
28027W        W34627  13.237   3.729  28.890  0.1806 -0.1266  0.1210
28028W        W34628  10.280   5.564  37.696  0.1026 -0.0336 -0.3058
28029W        W34629   5.153   5.972  23.781 -0.1437  0.1667  0.0928
28030W        W34630   8.450   3.695  44.746  0.0745  0.0996 -0.1216
28031W        W34631  13.982   1.857  38.903 -0.0531 -0.1743 -0.1366
28032W        W34632  17.744   3.179   9.603  0.1143  0.3292 -0.1876
28033W        W34633   2.932   6.322  29.267 -0.1870  0.0899  0.1329
28034W        W34634  16.994   0.430  19.664 -0.3516  0.1514 -0.0048
28035W        W34635  11.563   3.359  34.156  0.1490 -0.0593 -0.0602
28036W        W34636  13.155   5.484   7.873 -0.0877  0.0624  0.2388
28037W        W34637  11.695   6.302  42.010  0.1674  0.0861  0.2127
28038W        W34638   3.023   0.896  37.735  0.0175  0.0850 -0.1009
28039W        W34639  20.278   0.568   4.433  0.0975  0.0051 -0.2472
28040W        W34640  20.677   2.545   7.870  0.2562 -0.0431  0.1859
28041W        W34641   1.925   1.918  41.362  0.0349 -0.0765 -0.0093
28042W        W34642  18.477   6.603  16.194 -0.1817  0.0258 -0.0760
28043W        W34643  20.061   5.297   1.320  0.1342  0.1305  0.1306
28044W        W34644  17.890   4.000   2.974  0.3663  0.0290  0.1874
28045W        W34645   3.324   3.529  36.681  0.0747  0.3530 -0.0955
28046W        W34646  14.061   2.844  25.452 -0.0393 -0.0705 -0.0233
28047W        W34647  20.087   3.773  42.655 -0.0232  0.1035 -0.1434
28048W        W34648  13.057   1.800  42.848  0.0752  0.0897 -0.0027
28049W        W34649  12.675   1.246  37.709 -0.0166  0.1672  0.3553
28050W        W34650  10.676   4.733   5.509  0.1635 -0.1084  0.4822
28051W        W34651   1.320   5.496  30.364 -0.2653  0.1179 -0.0808
28052W        W34652  12.937   5.125   8.465 -0.0410  0.1918 -0.0949
28053W        W34653  18.178   1.924   8.157 -0.3077 -0.0693 -0.0294
28054W        W34654  18.607   3.645   3.582  0.1855  0.2393  0.1234
28055W        W34655   6.680   5.361  44.497  0.1105 -0.0862 -0.0085
28056W        W34656  12.396   3.932  15.144 -0.0589 -0.3926 -0.0886
28057W        W34657  18.506   4.343  44.323 -0.0103 -0.0434 -0.2365
28058W        W34658   1.584   0.447  42.306 -0.0411 -0.0418  0.1203
28059W        W34659  12.186   0.765   4.730  0.1488 -0.0145 -0.2860
28060W        W34660  12.339   0.164  40.881  0.0416 -0.1923  0.2915
28061W        W34661  16.988   2.519  30.325  0.2461 -0.2540 -0.1313
28062W        W34662  20.087   4.637  27.677 -0.4086  0.0944  0.1520
28063W        W34663   4.685   5.801   9.846 -0.3220 -0.1370 -0.2473
28064W        W34664   7.427   1.478  32.773  0.0065  0.0083  0.1390
28065W        W34665   5.711   5.181  11.206  0.1544 -0.2215 -0.0538
28066W        W34666  17.017   1.117   0.867 -0.1476  0.0092 -0.2254
28067W        W34667   2.593   4.058  10.176  0.1142 -0.2547  0.2361
28068W        W34668  12.129   4.085  11.063 -0.2191  0.0259  0.3499
28069W        W34669  10.103   6.525   7.030  0.0510  0.2393 -0.3238
28070W        W34670   9.766   0.657  16.130 -0.0794  0.3204  0.1968
28071W        W34671  12.967   6.035   2.791  0.0453  0.1609  0.0036
28072W        W34672   2.451   5.644  37.899 -0.0324 -0.0663  0.1203
28073W        W34673   0.423   3.238  33.383  0.1172 -0.1310 -0.3181
28074W        W34674   5.102   2.931   3.264  0.1648 -0.1939  0.0628
28075W        W34675  10.096   3.388  15.398  0.0091  0.0186 -0.0616
28076W        W34676  19.558   0.218  35.590 -0.1310 -0.0459 -0.1478
28077W        W34677  17.619   0.480  41.000 -0.3097  0.2266  0.1485
28078W        W34678   4.510   0.272   6.886  0.0846  0.0340 -0.0272
28079W        W34679   2.767   1.742  37.788 -0.0911  0.2350  0.0849
28080W        W34680  14.133   1.327  33.669 -0.0219  0.0852  0.0964
28081W        W34681  12.678   5.315  29.325 -0.2843 -0.0697  0.1001
28082W        W34682  11.281   4.275  40.975 -0.1351 -0.1868 -0.2314
28083W        W34683  14.129   4.251  30.295  0.0554 -0.1544 -0.0051
28084W        W34684   7.083   2.379  14.095  0.1539 -0.1995 -0.0286
28085W        W34685   8.278   5.168   6.609 -0.0934 -0.0724 -0.2438
28086W        W34686   5.308   1.776  43.865 -0.1645  0.0861  0.0413
28087W        W34687   2.092   1.655   0.801 -0.1497  0.0197 -0.1539
28088W        W34688  10.158   5.196   7.268  0.0618 -0.0921  0.3379
28089W        W34689   3.140   6.122   1.168 -0.0688  0.2661  0.3456
28090W        W34690  20.998   4.959  42.245  0.1516 -0.0481 -0.1196
28091W        W34691   3.835   4.967   4.443  0.5394 -0.1266  0.1826
28092W        W34692   3.103   0.645  14.598  0.0334  0.0808 -0.0050
28093W        W34693  16.349   2.880   4.392  0.2057 -0.0512 -0.1498
28094W        W34694   7.162   0.196  29.415  0.0592  0.0055 -0.2936
28095W        W34695   5.918   1.233  35.563  0.1312 -0.0743  0.3194
28096W        W34696  15.404   6.384  22.963  0.1319 -0.2099  0.1680
28097W        W34697   3.708   3.240  43.230  0.0577 -0.1366  0.5032
28098W        W34698  12.185   0.886  19.212 -0.2886 -0.2424 -0.1442
28099W        W34699  18.443   6.031  41.609  0.2803 -0.0243  0.2095
28100W        W34700  18.398   1.066   7.348 -0.0679  0.0462  0.0997
28101W        W34701   5.667   0.648  26.083  0.0183  0.1533  0.0759
28102W        W34702  15.321   5.531  30.483 -0.1945  0.2181  0.0557
28103W        W34703  16.661   1.170   8.343 -0.0769  0.0630  0.2327
28104W        W34704  11.686   6.082  40.461  0.0063  0.2089  0.1211
28105W        W34705   1.712   1.724   1.330 -0.2688 -0.0073  0.1696
28106W        W34706   7.154   1.767  43.556 -0.0778  0.2238  0.0090
28107W        W34707  20.502   4.096  15.331 -0.2541  0.0321 -0.2133
28108W        W34708  20.006   2.601  12.381 -0.0381 -0.2571  0.2366
28109W        W34709   6.495   5.711   4.738  0.3832 -0.1216  0.1052
28110W        W34710   1.585   3.340  14.378 -0.1112  0.2780 -0.0526
28111W        W34711   1.038   3.245  13.698  0.1206 -0.1678 -0.2941
28112W        W34712  14.968   2.941   8.958 -0.0890  0.0265 -0.1034
28113W        W34713  18.805   3.909  37.944 -0.0929 -0.0447 -0.2630
28114W        W34714   7.903   1.259  40.236  0.2943 -0.1248  0.0852
28115W        W34715  13.713   1.010  43.024  0.0945  0.1527  0.0661
28116W        W34716  19.828   3.677  16.374  0.1658  0.0865  0.1302
28117W        W34717  18.328   6.293  30.946 -0.1586 -0.2130  0.0238
28118W        W34718  14.636   0.981   3.317  0.0708 -0.1057 -0.2123
28119W        W34719  13.416   5.552  12.014 -0.0528 -0.2630 -0.2432
28120W        W34720  10.845   3.939   8.456 -0.3278  0.0491  0.4835
28121W        W34721   8.463   3.423   5.898 -0.0409  0.1370  0.1490
28122W        W34722  18.888   4.292  44.684 -0.3240  0.0458 -0.1165
28123W        W34723  13.276   6.313   0.419  0.3170  0.2298  0.0056
28124W        W34724  11.741   6.004  35.007 -0.2267  0.1201  0.4685
28125W        W34725  13.707   2.592  11.593 -0.0575 -0.2088  0.4052
28126W        W34726   7.431   3.272  42.056 -0.2607 -0.0224  0.0805
28127W        W34727   1.338   6.264  16.557  0.1640 -0.2620 -0.0053
28128W        W34728  14.290   5.220  37.984 -0.0537 -0.0147  0.0205
28129W        W34729  17.476   2.304   0.525 -0.0532  0.1551  0.1392
28130W        W34730  14.045   5.064  21.649 -0.1497 -0.1154 -0.1380
28131W        W34731  18.823   5.278   8.419 -0.3075 -0.0570  0.0280
28132W        W34732   7.301   2.032   5.561  0.1510 -0.0290 -0.1826
28133W        W34733   7.708   3.277  11.388  0.0908 -0.2046 -0.0542
28134W        W34734   7.904   5.019  14.208  0.2873 -0.1281 -0.0435
28135W        W34735  17.356   5.248  38.576  0.1913 -0.2980 -0.1285
28136W        W34736  11.081   3.786  36.242 -0.2331 -0.3314 -0.2615
28137W        W34737   2.112   0.088  22.285 -0.2176  0.3410 -0.2532
28138W        W34738   1.759   0.905  33.333  0.1126 -0.1822 -0.1370
28139W        W34739   5.006   1.839  28.778  0.0764  0.1613 -0.1824
28140W        W34740   6.020   2.223   3.012  0.1828  0.0563  0.2721
28141W        W34741   9.564   2.798  10.445  0.0315 -0.0051 -0.2084
28142W        W34742   8.204   0.045   8.790 -0.1869  0.2522 -0.0877
28143W        W34743   9.788   6.576  12.987 -0.2154  0.1733  0.2711
28144W        W34744   7.795   1.171  14.425 -0.0954 -0.0627 -0.2046
28145W        W34745   0.115   3.598  32.710 -0.0681 -0.0234 -0.0419
28146W        W34746  10.814   4.506   9.203  0.0719 -0.0679  0.2860
28147W        W34747  16.038   5.944  20.573 -0.0764 -0.2018 -0.0165
28148W        W34748   1.343   0.844  37.661  0.1313 -0.2502  0.0058
28149W        W34749   3.241   4.394  38.242  0.2510 -0.0483 -0.0703
28150W        W34750   3.519   1.167   0.565  0.0682 -0.1978 -0.1030
28151W        W34751  19.891   1.378   1.604  0.1099  0.3120  0.2501
28152W        W34752   8.878   6.031  18.519  0.0598 -0.1243 -0.2492
28153W        W34753   8.903   3.174  31.635 -0.0091 -0.0992 -0.0616
28154W        W34754   4.774   2.030  42.658  0.2979  0.2318 -0.2636
28155W        W34755  14.245   5.279  41.281  0.2710  0.0416 -0.0385
28156W        W34756  12.831   1.506   0.317 -0.0229 -0.0992  0.0157
28157W        W34757  12.645   4.429  43.036  0.0824 -0.0532  0.1426
28158W        W34758   4.166   4.463   3.003 -0.1554 -0.0771 -0.0353
28159W        W34759   7.044   1.984  15.761  0.1435  0.0836  0.0768
28160W        W34760  12.098   3.032   0.722 -0.3197 -0.0384  0.1258
28161W        W34761   3.902   0.498  26.146  0.2460  0.3526 -0.0404
28162W        W34762   4.701   2.438   0.792 -0.2552  0.1511 -0.0776
28163W        W34763   2.666   3.507  42.451  0.0212  0.2858 -0.0594
28164W        W34764   4.164   2.710  15.219  0.0254 -0.0483  0.0045
28165W        W34765  19.265   2.990   7.877 -0.3132 -0.1523 -0.2313
28166W        W34766  16.425   3.990   3.564 -0.0053  0.2381 -0.2214
28167W        W34767   3.068   2.645  26.031 -0.1632  0.2112 -0.1097
28168W        W34768  20.524   1.275  10.816  0.0421  0.2160 -0.2410
28169W        W34769   1.193   6.142   2.430  0.0463  0.2053  0.1163
28170W        W34770  14.669   6.265  22.163  0.1054  0.4490  0.1298
28171W        W34771  11.437   2.013  11.286  0.0029  0.0872  0.0247
28172W        W34772  16.526   6.141   6.243 -0.1773 -0.1392  0.3161
28173W        W34773  17.472   1.303  30.377  0.0646 -0.2180  0.0375
28174W        W34774  15.750   6.011  16.210  0.0285  0.1937  0.0370
28175W        W34775   6.208   6.526  29.042 -0.1298 -0.0509  0.0541
28176W        W34776   4.566   0.047  12.370  0.2242  0.1591  0.3248
28177W        W34777  17.699   3.780   5.224  0.1487  0.2431 -0.2046
28178W        W34778  11.136   0.564   0.626 -0.0126 -0.1213 -0.0124
28179W        W34779   2.584   5.736  14.451 -0.0733  0.2416  0.0195
28180W        W34780   4.183   0.410   6.487 -0.0069  0.2121  0.1430
28181W        W34781  15.446   4.819  23.241  0.0881  0.2100 -0.0765
28182W        W34782  20.184   4.124  40.939  0.0086 -0.1397 -0.0577
28183W        W34783   7.581   5.552  15.807  0.3313 -0.3010 -0.1453
28184W        W34784   9.146   4.893  39.137  0.0920 -0.1639 -0.0077
28185W        W34785   1.161   2.586  33.722 -0.2902 -0.0597 -0.1117
28186W        W34786   2.228   0.744  16.361  0.2232 -0.2614 -0.0133
28187W        W34787  17.307   5.455  35.842 -0.1755 -0.2040  0.2105
28188W        W34788  14.187   5.223  35.426  0.1006  0.3072 -0.1003
28189W        W34789  19.175   1.681  12.443  0.3040  0.0631 -0.1732
28190W        W34790   6.895   5.448  42.028  0.2943  0.0501 -0.1068
28191W        W34791  15.988   3.811  35.561  0.0639 -0.0937 -0.1173
28192W        W34792  12.228   5.786  31.624  0.3055 -0.1824 -0.4419
28193W        W34793   3.124   6.156  13.609 -0.0931 -0.0870 -0.3301
28194W        W34794  14.814   0.071  13.773  0.1184 -0.0423  0.1163
28195W        W34795   8.476   3.051  25.907 -0.2333 -0.2265  0.3904
28196W        W34796   8.511   6.473  29.233  0.0323 -0.0530  0.3111
28197W        W34797   2.341   5.172  11.549  0.0751 -0.2571 -0.1207
28198W        W34798   5.039   5.220  34.319 -0.0927 -0.2495  0.2884
28199W        W34799   8.639   2.257   4.741  0.2016  0.0783  0.1837
28200W        W34800   4.897   0.752  35.235 -0.1850 -0.0463  0.0615
28201W        W34801  13.595   3.184   1.175  0.0251  0.1032 -0.1460
28202W        W34802   6.254   5.113  26.721  0.0722  0.3430 -0.2841
28203W        W34803   4.243   1.886  33.333  0.1056  0.1748 -0.1254
28204W        W34804  18.504   0.996  29.323  0.2610 -0.5665 -0.0232
28205W        W34805   5.075   4.796  44.853 -0.4068 -0.0619 -0.1099
28206W        W34806   0.531   6.093  26.984  0.2338 -0.0054 -0.1715
28207W        W34807   6.921   2.518  25.892  0.3341  0.0289 -0.2902
28208W        W34808   5.925   5.632   0.001  0.0814  0.0569 -0.0421
28209W        W34809   0.547   6.225  41.790 -0.1695  0.0638 -0.3572
28210W        W34810  20.789   4.581  12.023 -0.0492 -0.1392 -0.0299
28211W        W34811   0.710   3.476  42.632  0.1178 -0.0080  0.0309
28212W        W34812   4.018   3.539  35.386 -0.0473  0.0763 -0.2131
28213W        W34813  17.498   5.648   5.098 -0.1894  0.0913  0.0039
28214W        W34814  12.431   5.354  43.622 -0.0766  0.1128  0.1149
28215W        W34815   0.359   4.681  29.938  0.1339  0.0346 -0.0371
28216W        W34816  18.428   0.641  42.884  0.0013 -0.1296 -0.1519
28217W        W34817   0.893   3.428  28.791 -0.1442 -0.0485 -0.1414
28218W        W34818   5.015   3.477   6.571  0.1502 -0.1582 -0.0879
28219W        W34819  16.831   4.781  20.285  0.0215 -0.0439 -0.1626
28220W        W34820   4.458   2.929   8.860  0.0900 -0.0624 -0.1153
28221W        W34821  11.359   3.652  10.116 -0.0160 -0.2208 -0.1045
28222W        W34822  19.225   3.400  28.830  0.2278 -0.1125 -0.0520
28223W        W34823   7.161   3.955  15.627 -0.1847  0.1354 -0.1995
28224W        W34824  14.375   4.163  37.868  0.0655 -0.0152  0.3596
28225W        W34825   6.598   2.102  29.432 -0.2261 -0.3418 -0.2611
28226W        W34826  15.105   5.045  19.968  0.0882 -0.0072 -0.0432
28227W        W34827   8.557   6.003   7.822 -0.2473 -0.0400 -0.0534
28228W        W34828  17.216   0.125   9.963  0.2815 -0.1466  0.2124
28229W        W34829  18.960   6.039  12.810 -0.3190  0.3315 -0.6024
28230W        W34830   1.838   6.516  15.608 -0.1217 -0.2610 -0.0027
28231W        W34831  20.318   5.274  30.007 -0.2230  0.0821  0.1998
28232W        W34832  20.061   4.795  12.077  0.0552 -0.1467 -0.2128
28233W        W34833  12.055   6.128   9.265  0.2853  0.0438  0.1844
28234W        W34834  11.785   0.451  15.142  0.0424 -0.3073  0.1878
28235W        W34835  19.541   5.257  39.199 -0.0679  0.0312 -0.0329
28236W        W34836   2.829   6.411  34.209 -0.1328 -0.4640 -0.0908
28237W        W34837  13.971   2.793  42.552 -0.0027 -0.0700 -0.2460
28238W        W34838  18.566   1.935  29.157  0.1463  0.0875  0.1130
28239W        W34839   8.942   2.298  17.203  0.1959  0.1839  0.0792
28240W        W34840  19.709   4.276  34.577 -0.2453  0.1486 -0.1479
28241W        W34841   5.962   2.455  42.724 -0.1651  0.3147 -0.1001
28242W        W34842   4.301   4.550  13.789  0.1743  0.0023  0.1033
28243W        W34843  13.602   2.386  40.854  0.1181 -0.0908 -0.2396
28244W        W34844  18.674   2.351   5.039  0.3174  0.0231 -0.1136
28245W        W34845   5.088   3.239  29.743 -0.1980 -0.2152  0.0777
28246W        W34846  14.584   5.965   8.931 -0.0587  0.0882  0.1829
28247W        W34847  17.863   5.192  12.671  0.0191  0.1954 -0.0571
28248W        W34848  10.573   1.377  34.033 -0.0726 -0.1085  0.0926
28249W        W34849  13.902   6.086   5.469 -0.2244 -0.1428  0.1536
28250W        W34850  10.467   2.064  17.148  0.0777  0.1588 -0.0991
28251W        W34851  14.562   4.193  13.932  0.2464  0.2365  0.0248
28252W        W34852   7.865   2.115  15.441  0.1512 -0.1962  0.3090
28253W        W34853   1.805   5.010  29.416 -0.0225 -0.0448  0.2267
28254W        W34854  12.921   3.679  30.592  0.2051 -0.0206 -0.0128
28255W        W34855   8.085   3.172  38.307  0.0855  0.0879 -0.0593
28256W        W34856  14.905   0.383  24.221 -0.1607 -0.5133  0.0498
28257W        W34857   2.270   4.287  25.681  0.0062 -0.1028 -0.0405
28258W        W34858   2.962   0.079  37.306 -0.1671  0.0892 -0.1725
28259W        W34859  14.515   6.414   5.535  0.0160  0.0818 -0.2256
28260W        W34860  18.415   1.819  43.303  0.0802 -0.0086  0.2955
28261W        W34861   3.762   4.413  21.300  0.1013  0.5039 -0.0652
28262W        W34862   3.091   3.518  38.394 -0.1165  0.1136  0.1029
28263W        W34863  11.660   1.267   3.401  0.3052 -0.1908  0.1297
28264W        W34864   4.702   5.083  20.985  0.1325  0.2221 -0.2068
28265W        W34865   6.376   5.126  31.082  0.0922  0.0496 -0.0247
28266W        W34866  16.132   1.176  13.059 -0.1019  0.2733 -0.1721
28267W        W34867   9.388   3.067  43.215  0.0052 -0.3731  0.3323
28268W        W34868  10.894   5.582   4.998 -0.0727 -0.1644  0.0391
28269W        W34869  11.778   4.757  31.638 -0.1563  0.0742 -0.1721
28270W        W34870  11.426   2.617  14.449 -0.1789 -0.1421  0.3511
28271W        W34871   6.343   2.255  28.503  0.1617 -0.0205 -0.3092
28272W        W34872   6.449   0.245  31.636 -0.1752  0.0091 -0.1847
28273W        W34873  12.489   5.438   4.525  0.0260  0.2200 -0.2041
28274W        W34874  16.932   1.357   1.351 -0.2246 -0.1147 -0.1359
28275W        W34875   2.153   2.214  12.236 -0.2367 -0.1683 -0.1104
28276W        W34876   1.939   4.142  30.478 -0.0998  0.0999  0.0726
28277W        W34877  20.036   2.903  35.619 -0.0404 -0.0082 -0.1109
28278W        W34878  19.862   4.845   2.614 -0.0783  0.0209  0.2679
28279W        W34879  11.038   4.371   5.439  0.0308 -0.0644  0.4064
28280W        W34880   3.967   5.868  41.127 -0.0419  0.1809 -0.1260
28281W        W34881  17.268   5.930  42.333  0.0759 -0.2722  0.4783
28282W        W34882  10.392   6.026  33.292 -0.0100 -0.0295  0.1329
28283W        W34883   9.066   4.966   1.439 -0.3113 -0.0697 -0.1408
28284W        W34884   9.114   1.228   0.803  0.3593  0.1864 -0.2496
28285W        W34885   7.640   5.344   6.280 -0.0208 -0.1488 -0.2694
28286W        W34886   0.564   2.469  40.978  0.1980  0.0097 -0.1707
28287W        W34887  10.452   2.364  31.706  0.1333 -0.0060  0.2373
28288W        W34888   5.071   5.433   5.935 -0.0095 -0.0323 -0.0007
28289W        W34889  13.809   0.465   0.118  0.2187  0.1599 -0.1847
28290W        W34890   3.021   1.433  36.846  0.1356  0.4643  0.0534
28291W        W34891   7.202   1.057   6.322  0.1624  0.1557 -0.1289
28292W        W34892  20.845   0.637  15.094  0.0063 -0.0061 -0.0158
28293W        W34893  16.053   3.090  20.998 -0.2303  0.1303 -0.2030
28294W        W34894  14.293   4.670   8.428 -0.1961  0.2611  0.0234
28295W        W34895  19.021   0.452  15.718  0.0667  0.1350 -0.1180
28296W        W34896  19.494   5.152  44.860 -0.1452 -0.0118  0.1930
28297W        W34897  12.913   4.604   5.804 -0.0605 -0.1901 -0.0258
28298W        W34898  14.738   2.144   8.795  0.1467 -0.0867  0.1671
28299W        W34899  19.851   3.016   2.482 -0.1955  0.0501  0.0862
28300W        W34900  10.926   0.238  42.675  0.0424 -0.0125 -0.1200
28301W        W34901  10.240   3.943  29.492  0.0814 -0.0135  0.2923
28302W        W34902   1.915   2.666  23.691 -0.1392 -0.1068  0.0009
28303W        W34903   4.042   6.449  20.535 -0.0035  0.1451  0.5328
28304W        W34904  11.847   3.083   3.641  0.0590  0.0094  0.3030
28305W        W34905   8.191   0.071   2.825 -0.0352  0.5939  0.1630
28306W        W34906   8.308   2.499   4.132 -0.1806  0.0285 -0.0130
28307W        W34907  18.702   0.807  16.017  0.2657 -0.1834 -0.0559
28308W        W34908   7.167   1.726   4.734  0.0384 -0.1772 -0.2107
28309W        W34909   7.412   3.484   1.547  0.0785 -0.3673 -0.0058
28310W        W34910  14.662   4.775  20.118 -0.0530  0.1675 -0.0275
28311W        W34911  21.097   0.514  35.291  0.1923  0.0250  0.0438
28312W        W34912   0.125   3.885  43.188  0.0834 -0.1990 -0.0496
28313W        W34913   4.653   2.180   2.243 -0.3498 -0.3458 -0.2031
28314W        W34914  12.935   0.855  37.488 -0.0828 -0.1103  0.2563
28315W        W34915  19.763   2.098  34.035  0.0912  0.1063 -0.1094
28316W        W34916  20.170   3.716  11.078 -0.1620  0.3044  0.0569
28317W        W34917   1.438   3.018  38.034 -0.0576  0.0294 -0.1052
28318W        W34918  14.054   3.816  40.825 -0.1809 -0.0574 -0.0277
28319W        W34919  20.114   6.477  35.097 -0.0180  0.0494  0.0299
28320W        W34920  18.411   4.980   8.600  0.0455  0.2450 -0.0896
28321W        W34921   8.142   3.391  36.895  0.0830  0.1080  0.1478
28322W        W34922  12.515   1.607  44.681 -0.0173 -0.1169 -0.0083
28323W        W34923  18.496   3.593  11.284  0.0560 -0.2119 -0.3206
28324W        W34924  15.913   6.520   6.093 -0.1966 -0.1807 -0.0053
28325W        W34925  14.929   3.441  41.694  0.0140 -0.2656  0.0283
28326W        W34926  15.660   0.257  33.126  0.0193  0.2275  0.2125
28327W        W34927   9.266   1.664   0.429  0.4470  0.0360 -0.1113
28328W        W34928  12.422   4.533  16.644  0.0353 -0.0463  0.4431
28329W        W34929  16.008   4.281  44.928 -0.0681  0.2141  0.3425
28330W        W34930  20.328   6.241  17.389  0.2000 -0.0936 -0.1511
28331W        W34931   3.046   2.201  44.869  0.0148 -0.0431 -0.0820
28332W        W34932  13.663   0.542   1.553  0.2107 -0.2278  0.2885
28333W        W34933  12.858   0.426  17.035 -0.1695  0.3027  0.2532
28334W        W34934  15.921   2.792   1.587 -0.1699  0.1362 -0.0494
28335W        W34935  12.759   3.685  31.440 -0.1002 -0.0448 -0.4287
28336W        W34936  15.469   2.357  23.185 -0.0569 -0.0474 -0.0048
28337W        W34937  14.745   6.317  18.777 -0.0223  0.3863  0.0352
28338W        W34938   6.122   3.683  43.819 -0.0614 -0.1129  0.2775
28339W        W34939   8.842   2.428  40.347  0.2252 -0.0245 -0.1457
28340W        W34940   3.774   3.937  11.044 -0.0275  0.1401 -0.0825
28341W        W34941  12.864   2.716  34.299 -0.1598  0.2415  0.1540
28342W        W34942  12.219   1.659  18.846  0.0685 -0.0861 -0.1504
28343W        W34943   5.077   6.252  43.405 -0.1866  0.0833  0.2347
28344W        W34944  14.089   4.131   2.369 -0.0024 -0.1463  0.4188
28345W        W34945  17.654   4.292  34.887  0.1407 -0.3216  0.2026
28346W        W34946  17.115   2.143  32.812  0.0959  0.1225 -0.0200
28347W        W34947  18.736   6.037  37.636 -0.0183 -0.2602 -0.0595
28348W        W34948  15.386   4.961   7.052 -0.0924 -0.1919  0.1354
28349W        W34949  18.150   5.361  29.693 -0.0889  0.0204 -0.0008
28350W        W34950   9.367   2.432   3.766  0.2576  0.1839 -0.2008
28351W        W34951  12.757   5.255   6.167  0.0382  0.1088  0.1125
28352W        W34952  19.443   0.920  34.531  0.1701 -0.1185 -0.0179
28353W        W34953   1.516   3.213  29.731  0.2320 -0.1417 -0.0807
28354W        W34954  13.695   6.462  10.072 -0.0487  0.2808  0.0760
28355W        W34955   2.192   1.895  21.992 -0.4327  0.1266  0.3800
28356W        W34956  15.813   2.423   9.290  0.0417  0.2244  0.2876
28357W        W34957  17.573   0.466   5.204  0.0070  0.2699  0.3064
28358W        W34958  12.933   1.104  38.922 -0.0281  0.5313 -0.0984
28359W        W34959   7.963   4.945  42.730 -0.1036 -0.1946  0.1320
28360W        W34960  19.803   6.309  10.400  0.1619  0.2332  0.1889
28361W        W34961  10.742   0.096  37.054  0.2182  0.1454 -0.0408
28362W        W34962  18.763   4.117  28.485 -0.0911  0.2523  0.0641
28363W        W34963  18.830   6.485  45.072  0.0959 -0.3139  0.1788
28364W        W34964   3.674   3.651  30.023 -0.0935  0.0658 -0.2482
28365W        W34965  17.702   1.440  20.625  0.1313  0.0616  0.0043
28366W        W34966  20.811   3.938  34.720 -0.0106  0.2475 -0.2236
28367W        W34967   9.043   1.509  10.968  0.0728 -0.0519 -0.0275
28368W        W34968   9.537   0.733  15.133 -0.0032  0.0525  0.0230
28369W        W34969   3.988   2.198  34.511 -0.1876  0.0212  0.0116
28370W        W34970  20.264   6.567   7.141  0.1586 -0.1699 -0.0257
28371W        W34971   0.844   4.381  44.188  0.2788 -0.0396 -0.1142
28372W        W34972   1.456   2.186  35.095  0.0189 -0.1380 -0.0400
28373W        W34973  19.831   2.198  39.004  0.0807  0.2418 -0.0573
28374W        W34974  18.332   3.776  12.868 -0.0411  0.0890  0.0656
28375W        W34975  17.280   5.397  10.963  0.1794 -0.1421 -0.0303
28376W        W34976  11.507   6.097   9.817  0.1121  0.1198  0.1290
28377W        W34977  14.573   4.250  32.526 -0.1220  0.0164 -0.1153
28378W        W34978  11.835   2.888  28.872 -0.2219 -0.0369  0.0293
28379W        W34979   8.094   0.562  41.055 -0.0891 -0.0064 -0.0411
28380W        W34980  10.989   6.031  40.383 -0.3291  0.1372 -0.1479
28381W        W34981   2.492   5.143   2.850  0.1460  0.1283 -0.1779
28382W        W34982   4.089   4.600  33.922 -0.2124  0.2194 -0.2553
28383W        W34983   1.328   2.662  38.831 -0.3995 -0.0775  0.0774
28384W        W34984   9.864   3.566  33.926  0.1910 -0.2847 -0.0237
28385W        W34985   8.688   5.581  43.165  0.0518  0.1385 -0.0139
28386W        W34986   2.189   2.180  25.425  0.3010 -0.0876 -0.1358
28387W        W34987  20.908   5.849  33.107 -0.0090  0.1573 -0.0139
28388W        W34988   1.271   3.292   8.827  0.0432  0.2505  0.2355
28389W        W34989   0.602   1.285  28.080  0.4796  0.2099  0.0343
28390W        W34990   6.008   3.146  29.194 -0.1315  0.2323  0.1267
28391W        W34991  20.258   3.743  43.477 -0.0143  0.0472  0.1933
28392W        W34992   5.453   1.326  43.696  0.0243 -0.0131 -0.1243
28393W        W34993   3.697   2.421  10.172 -0.0483  0.1220  0.3203
28394W        W34994  17.545   3.932   6.687  0.0802 -0.0010  0.0250
28395W        W34995   9.135   3.920  38.470  0.3569  0.0189 -0.0566
28396W        W34996  11.352   0.135  28.608  0.0481 -0.2472  0.1615
28397W        W34997   3.427   5.021  35.120  0.2002  0.2273 -0.0361
28398W        W34998  10.828   0.829  35.807  0.1090  0.0833 -0.1516
28399W        W34999   2.015   5.353   5.865  0.2831 -0.0950 -0.0685
28400W        W35000   3.032   3.080   2.488 -0.1742 -0.0077  0.0712
28401W        W35001   6.364   0.400   0.287  0.4225 -0.0185  0.1860
28402W        W35002  17.583   5.715   7.463  0.0245 -0.1249  0.1673
28403W        W35003  16.900   1.365  13.656 -0.1051 -0.0080  0.1894
28404W        W35004  11.699   5.187   5.873 -0.0527  0.0422 -0.0176
28405W        W35005  10.374   5.860   1.251  0.0251 -0.1994 -0.0837
28406W        W35006   0.537   5.293  36.159  0.0020 -0.1520 -0.1302
28407W        W35007  12.341   0.992  14.695  0.1372  0.1439  0.0284
28408W        W35008  13.102   0.835  40.409 -0.0815 -0.0650  0.0004
28409W        W35009   2.568   4.030  32.814  0.3284  0.0280  0.3353
28410W        W35010   9.380   1.551  17.840  0.2491 -0.4658 -0.0600
28411W        W35011   6.219   2.487  27.541  0.3496 -0.1320 -0.0756
28412W        W35012  16.190   4.179   4.490 -0.1744  0.1288 -0.0863
28413W        W35013   0.040   4.788  28.098  0.1997 -0.3918 -0.1328
28414W        W35014   4.974   2.757  28.242 -0.2018  0.0478  0.0907
28415W        W35015  14.121   6.437  44.634  0.1267  0.0428  0.0380
28416W        W35016  16.043   3.130  18.071  0.1168  0.1670 -0.1138
28417W        W35017  20.051   1.943  27.489  0.0053 -0.2145  0.0230
28418W        W35018   0.816   4.901   5.359 -0.1346 -0.0474 -0.0813
28419W        W35019  16.324   0.791   9.478  0.1198 -0.0515  0.0029
28420W        W35020  16.124   0.156   1.749  0.1881  0.1262 -0.2093
28421W        W35021   8.482   5.403  12.571  0.2959  0.0718  0.0063
28422W        W35022   9.660   1.535  26.266 -0.1342 -0.0594  0.1295
28423W        W35023   9.816   6.350   2.321  0.4296  0.2050 -0.2041
28424W        W35024  11.430   2.560  14.969  0.2487  0.0231 -0.2454
28425W        W35025  16.906   3.683  31.333 -0.4399 -0.0831 -0.0874
28426W        W35026  14.175   5.495  12.346  0.2966  0.1036  0.0955
28427W        W35027  15.893   3.157  44.034 -0.0693  0.0328  0.2564
28428W        W35028  16.626   5.169  45.069  0.0803 -0.0036 -0.3433
28429W        W35029  14.456   6.319  11.862  0.1778  0.2224  0.2972
28430W        W35030  12.235   3.922  42.441 -0.2093 -0.1050 -0.1097
28431W        W35031   5.504   4.322  35.452 -0.1033  0.1390  0.2351
28432W        W35032  11.090   4.736   0.395 -0.1894  0.0478 -0.1396
28433W        W35033  15.867   0.357   4.578  0.0337  0.3003 -0.0651
28434W        W35034  19.201   3.565   6.421  0.0877  0.2070 -0.0923
28435W        W35035   1.934   5.480  11.252 -0.2041 -0.0146 -0.0644
28436W        W35036   7.382   2.416  11.044  0.1335  0.0202 -0.2418
28437W        W35037  17.309   4.281  41.071  0.4627 -0.0852 -0.0624
28438W        W35038  21.077   1.216  37.337  0.4497  0.0656  0.1821
28439W        W35039  10.356   5.862  32.381 -0.0658 -0.0430 -0.1496
28440W        W35040  18.594   0.187  14.402 -0.2715 -0.2270 -0.0835
28441W        W35041  20.344   2.751  31.621  0.1875  0.0804 -0.1631
28442W        W35042   1.007   6.258  33.461  0.1850 -0.0106  0.1237
28443W        W35043   6.357   1.695  29.588  0.0913  0.0263 -0.1698
28444W        W35044  11.037   0.971  36.986 -0.1131 -0.1692  0.4161
28445W        W35045  18.550   4.376  10.543  0.1066 -0.0929 -0.1170
28446W        W35046   6.448   2.005   1.101  0.1132 -0.0487  0.0842
28447W        W35047   8.045   0.061   9.781  0.2679  0.3246  0.3958
28448W        W35048   4.684   2.577  39.891  0.0017  0.1190 -0.1107
28449W        W35049   0.448   0.563   9.804 -0.0849  0.0077 -0.0360
28450W        W35050  17.005   5.188  31.153 -0.0594  0.0418 -0.4218
28451W        W35051  16.505   1.458  16.772  0.1595 -0.0538 -0.0939
28452W        W35052   1.263   4.636   8.758 -0.1185  0.3420 -0.3954
28453W        W35053   4.125   0.363  34.938 -0.2253  0.1140  0.0053
28454W        W35054   3.547   4.220  21.825 -0.2978  0.1503 -0.0301
28455W        W35055   1.318   5.672   0.113  0.1068  0.1509 -0.0177
28456W        W35056  17.280   1.748  15.143  0.0278 -0.0023  0.1072
28457W        W35057  17.653   4.386   4.054 -0.1550 -0.1189 -0.1396
28458W        W35058   1.833   6.217  33.801 -0.0968  0.0569  0.3032
28459W        W35059   4.689   5.328  24.853  0.3243 -0.0621 -0.0774
28460W        W35060   9.457   3.240  40.067 -0.1390  0.0720  0.1218
28461W        W35061  15.633   0.310  36.532  0.2318  0.0584  0.1142
28462W        W35062   4.336   6.066  38.631  0.2005  0.1291  0.0118
28463W        W35063  17.572   5.648   0.864 -0.0919 -0.0911  0.1907
28464W        W35064  15.024   6.427  30.832  0.2648 -0.0079  0.1338
28465W        W35065  18.451   0.150  40.919 -0.4806 -0.0454 -0.0636
28466W        W35066   3.060   4.573  32.610  0.0876 -0.1014 -0.2887
28467W        W35067  19.830   5.087  16.089 -0.0201 -0.0840 -0.1083
28468W        W35068  13.301   5.646  18.278 -0.1117  0.0762 -0.0088
28469W        W35069  12.401   2.281   6.342 -0.0532 -0.1013  0.4719
28470W        W35070  10.283   1.650  40.829  0.0652 -0.0198 -0.2084
28471W        W35071  14.403   5.386  40.375  0.3572 -0.0804 -0.1343
28472W        W35072   8.305   5.951  39.767  0.2501  0.1621  0.0620
28473W        W35073  16.791   0.736  35.533 -0.2080  0.3189  0.1012
28474W        W35074  20.213   5.381  27.421  0.1177 -0.0382 -0.0371
28475W        W35075  19.691   3.575  36.504  0.1797  0.0691  0.1486
28476W        W35076  16.873   1.232  42.916 -0.1094  0.1404  0.1138
28477W        W35077   5.277   6.156  37.939  0.0472  0.3482  0.0551
28478W        W35078   4.865   0.169  10.907 -0.1350  0.3226  0.4354
28479W        W35079  20.386   5.627  26.766 -0.0106  0.2953 -0.0346
28480W        W35080   0.877   1.926  29.058 -0.1041 -0.2160 -0.1581
28481W        W35081   5.298   2.275  10.730  0.2938  0.1328  0.0353
28482W        W35082   2.840   1.646  35.804  0.0679 -0.0182 -0.0701
28483W        W35083  11.318   5.671  14.972 -0.0089  0.0748  0.2449
28484W        W35084  16.252   0.137  15.983  0.0489  0.0342  0.2874
28485W        W35085  19.416   4.325   1.698  0.0802  0.1062 -0.0793
28486W        W35086  14.545   3.086   0.407 -0.4311  0.0748 -0.0127
28487W        W35087  20.163   3.464  44.013  0.1977 -0.1699  0.5570
28488W        W35088  16.997   3.664   8.952  0.1396 -0.3247 -0.0838
28489W        W35089   8.261   2.144  15.758  0.4856 -0.0131 -0.3974
28490W        W35090   9.142   5.737  36.617 -0.1495 -0.0949 -0.1277
28491W        W35091   4.902   5.979  24.587  0.0177 -0.0954 -0.2204
28492W        W35092  15.783   1.679  35.500  0.1511  0.0494  0.1779
28493W        W35093   4.086   1.115  27.363 -0.1912  0.0553 -0.0308
28494W        W35094   6.757   0.073   1.419 -0.0197 -0.2096 -0.2241
28495W        W35095  15.899   0.481  23.472  0.2772 -0.0281 -0.1919
28496W        W35096  19.166   4.221   3.735  0.4177 -0.1288 -0.1613
28497W        W35097  18.535   2.172  14.318 -0.0503 -0.1910 -0.3028
28498W        W35098   7.578   5.210  33.825  0.1750 -0.0038 -0.2094
28499W        W35099   9.359   0.535  34.849  0.0191 -0.4023  0.0686
28500W        W35100   7.345   3.754   0.279 -0.1107  0.0274  0.1315
28501W        W35101  13.609   2.231  20.879 -0.1680  0.0792 -0.4572
28502W        W35102   0.982   5.770  37.123 -0.1367  0.0276 -0.1900
28503W        W35103   2.091   3.016  44.076  0.0357  0.3412  0.2116
28504W        W35104  17.923   1.055  13.012 -0.0436 -0.1563  0.1242
28505W        W35105   8.301   5.027  30.441  0.0783  0.0373 -0.0321
28506W        W35106   4.545   1.192  38.393 -0.0252 -0.0477 -0.1875
28507W        W35107   0.055   2.545   1.221  0.0837 -0.0813 -0.1356
28508W        W35108  13.834   1.976   1.653 -0.0040 -0.2273 -0.1504
28509W        W35109  11.362   4.319  32.288  0.2667  0.1416  0.2304
28510W        W35110  15.737   0.811  31.245 -0.0100  0.0059 -0.0331
28511W        W35111   6.019   0.592   5.528  0.0320 -0.0520 -0.0672
28512W        W35112  20.080   6.216   9.727  0.2447  0.0465 -0.1986
28513W        W35113   6.742   4.109   8.321  0.1900 -0.0166 -0.4013
28514W        W35114  14.525   5.982  30.358 -0.0669  0.1586  0.1278
28515W        W35115  14.788   2.744  14.694  0.0692 -0.4028 -0.2262
28516W        W35116  12.947   0.079   0.482 -0.0787 -0.0758 -0.2023
28517W        W35117   3.270   3.807   1.570 -0.0520  0.0620 -0.0636
28518W        W35118   9.156   2.967  31.243 -0.0039  0.2366  0.0042
28519W        W35119  11.417   0.851  30.817 -0.0275 -0.0111  0.0284
28520W        W35120   2.947   5.067  32.499 -0.2380 -0.3797 -0.0895
28521W        W35121  15.826   1.177  44.862 -0.0963  0.4715  0.0396
28522W        W35122   9.962   1.354   1.563  0.2179  0.1551  0.3563
28523W        W35123   4.953   2.626   2.041 -0.2727  0.0259  0.1380
28524W        W35124  16.135   2.855  41.263  0.1885  0.1308  0.0798
28525W        W35125  17.693   3.775  19.338 -0.5228 -0.3266  0.1214
28526W        W35126   3.221   3.971  27.291 -0.0166  0.0259 -0.0700
28527W        W35127  11.575   4.947  38.840  0.3953  0.0810 -0.0976
28528W        W35128   3.878   0.810   4.320 -0.2828  0.1129 -0.1090
28529W        W35129  14.519   5.641   1.411  0.1096 -0.2906 -0.0953
28530W        W35130  20.756   2.633  39.699 -0.2229  0.0389 -0.1069
28531W        W35131  13.674   5.051   0.647 -0.1508 -0.0494  0.0973
28532W        W35132   1.014   0.496  28.008 -0.0205 -0.0826  0.0265
28533W        W35133   4.135   5.542   9.007  0.0293  0.3383 -0.0965
28534W        W35134  13.957   3.398  22.653  0.0319 -0.0720 -0.0077
28535W        W35135  11.954   1.393  13.359  0.1839 -0.1040 -0.0842
28536W        W35136   9.183   0.212   0.949  0.0814  0.0455  0.2314
28537W        W35137   4.625   4.975  30.922  0.2156  0.4036  0.2910
28538W        W35138   4.800   6.208  35.101  0.1605  0.2969  0.0449
28539W        W35139  10.057   0.924   6.923 -0.0544  0.2620  0.0403
28540W        W35140  17.602   0.576   9.172  0.1150 -0.0546  0.0895
28541W        W35141  12.062   3.611  43.904  0.1740  0.0573 -0.1256
28542W        W35142  10.489   6.537   9.498  0.4304  0.0145 -0.2885
28543W        W35143   7.102   1.307  13.112  0.1463 -0.3430  0.2753
28544W        W35144  10.078   5.348   2.573 -0.0359 -0.1945 -0.0678
28545W        W35145  16.987   1.656  13.254 -0.0566 -0.2540 -0.1746
28546W        W35146  16.964   0.188  20.585 -0.0125  0.1124 -0.3874
28547W        W35147   9.765   2.430   8.798 -0.1695 -0.2580  0.3058
28548W        W35148  10.994   2.057   4.457 -0.1198  0.2175  0.0259
28549W        W35149  19.155   3.763  36.426 -0.3612  0.0074  0.0381
28550W        W35150  17.340   1.481  17.008  0.0602  0.2156 -0.0621
28551W        W35151   4.710   5.522  26.442 -0.1158  0.3806  0.0403
28552W        W35152   1.062   6.107   3.430  0.1311  0.0818 -0.1399
28553W        W35153  10.221   2.936   4.582  0.0232  0.1651 -0.0299
28554W        W35154   3.397   5.158   4.261 -0.2020  0.0719  0.1313
28555W        W35155  12.308   6.501  21.441 -0.0589 -0.1432  0.0955
28556W        W35156   2.308   3.709  38.269  0.1213  0.4952  0.0079
28557W        W35157   3.733   0.600  32.350 -0.1505  0.1207 -0.1595
28558W        W35158  10.324   4.417  12.656  0.0657 -0.0632  0.1349
28559W        W35159  15.180   3.700  14.251  0.1789 -0.0634  0.1374
28560W        W35160  17.167   2.132  43.184  0.2747  0.0724 -0.1899
28561W        W35161  19.464   3.630  33.005  0.1952 -0.1828  0.0444
28562W        W35162   4.528   3.997   9.631  0.1929  0.3979  0.3383
28563W        W35163   7.412   4.856  44.441  0.0487  0.1924  0.0218
28564W        W35164  15.198   5.832  44.313  0.1576 -0.2285 -0.0187
28565W        W35165  11.602   5.261  44.944  0.0040  0.1494  0.0689
28566W        W35166  18.205   1.002  40.506 -0.0151  0.0877  0.2039
28567W        W35167   8.706   4.412   3.839  0.0649  0.0852 -0.3301
28568W        W35168   3.428   5.299  39.009  0.1918  0.0959  0.2287
28569W        W35169  20.528   0.033  29.367 -0.0822  0.2671 -0.0831
28570W        W35170  11.425   4.734  14.037 -0.0916 -0.1087 -0.5831
28571W        W35171  15.846   5.240  38.605  0.2573 -0.1516  0.2839
28572W        W35172  14.635   2.523   9.118  0.0929 -0.1422  0.3176
28573W        W35173  20.433   4.342  34.699 -0.0447 -0.0914 -0.2604
28574W        W35174   0.694   2.720  35.401  0.1412  0.1780  0.1106
28575W        W35175  21.090   1.858  28.622  0.0968  0.0185  0.0177
28576W        W35176  20.759   3.674  16.976 -0.2644 -0.2392  0.0824
28577W        W35177  10.515   3.760  37.928  0.2198 -0.0874  0.0447
28578W        W35178   9.582   2.226   0.354 -0.0852  0.1192  0.0429
28579W        W35179   6.379   3.427  10.805  0.0437 -0.1431 -0.2272
28580W        W35180  17.617   2.019  32.685  0.1946 -0.0211 -0.0013
28581W        W35181  10.406   3.031  41.113 -0.1709  0.1236  0.1139
28582W        W35182   3.866   0.803   6.741  0.0117 -0.0359 -0.1402
28583W        W35183   5.180   5.311   0.688 -0.1211 -0.2264  0.1929
28584W        W35184  10.741   4.127  28.476 -0.0124  0.1045  0.0915
28585W        W35185   2.741   1.283   0.102  0.2759  0.4765  0.0871
28586W        W35186   3.701   4.173  27.323 -0.0557 -0.1950 -0.0943
28587W        W35187  12.111   1.982   2.746 -0.0434  0.2528 -0.0304
28588W        W35188   5.049   0.759  27.964 -0.1402 -0.1061  0.0256
28589W        W35189  12.972   3.273   8.578 -0.1492  0.1053 -0.0670
28590W        W35190  14.226   6.580   8.769 -0.0553 -0.0322  0.0660
28591W        W35191  11.783   4.538  11.922 -0.0675  0.1894  0.1907
28592W        W35192  17.375   3.817  41.045  0.0072  0.1597 -0.1008
28593W        W35193   1.054   5.753   6.440 -0.0901 -0.0541  0.1763
28594W        W35194  19.290   4.254   6.901  0.3006 -0.0432 -0.0837
28595W        W35195  14.959   0.222  18.307  0.1732  0.2130  0.1880
28596W        W35196  11.965   2.478  11.794 -0.2157  0.0385 -0.1509
28597W        W35197   5.940   2.062  44.056  0.2958  0.0239 -0.1933
28598W        W35198  13.456   1.583   5.741  0.0662  0.1041 -0.1557
28599W        W35199   8.548   2.487  12.311 -0.3860 -0.1380  0.2556
28600W        W35200   7.812   5.455  39.315 -0.0015 -0.2914  0.3368
28601W        W35201   2.107   0.808   9.095 -0.0112 -0.0933  0.1326
28602W        W35202   9.662   0.288   9.124  0.1747 -0.0134 -0.0791
28603W        W35203  10.957   3.644  33.581  0.0348  0.1167 -0.1895
28604W        W35204   3.941   0.306   1.447 -0.2253 -0.0466  0.2211
28605W        W35205   6.920   2.830  28.821 -0.1233  0.0190  0.0983
28606W        W35206   9.814   6.352  44.898 -0.2229 -0.0515 -0.0821
28607W        W35207  11.509   3.590   7.405  0.2141  0.0933 -0.1668
28608W        W35208   5.220   6.539  23.119 -0.0162  0.0059 -0.1596
28609W        W35209  18.737   6.232  43.895  0.2536 -0.0112  0.0456
28610W        W35210   3.178   3.687  10.949 -0.2356  0.0941 -0.1138
28611W        W35211  20.764   3.387  11.626  0.2614  0.3185 -0.0507
28612W        W35212   5.557   2.219  28.116 -0.2828 -0.3499 -0.2365
28613W        W35213  12.447   5.175  41.786  0.1989  0.2855  0.0078
28614W        W35214   1.622   3.019  35.305  0.0709  0.0394  0.1474
28615W        W35215   1.780   4.776  31.139  0.0695 -0.0744  0.3253
28616W        W35216  11.555   6.522  11.891 -0.0107  0.2896  0.1257
28617W        W35217   7.869   2.983  37.380 -0.1167  0.3383  0.0893
28618W        W35218  16.343   1.827  32.270  0.3973 -0.0325 -0.3511
28619W        W35219  19.469   0.319   7.384  0.0350 -0.0375 -0.0476
28620W        W35220  13.013   2.325   6.212  0.3539  0.3368  0.1175
28621W        W35221   4.602   1.975  15.268 -0.0235 -0.1962 -0.2686
28622W        W35222  12.013   2.628  30.274  0.1914  0.2574 -0.1314
28623W        W35223  18.632   4.408  13.650  0.3317  0.0584  0.0089
28624W        W35224   0.582   4.269   4.637 -0.1068  0.0951 -0.0497
28625W        W35225  12.679   1.626  35.448  0.1342  0.0824  0.2258
28626W        W35226  15.299   2.404   6.254  0.1594 -0.1771  0.0720
28627W        W35227  18.468   1.660  33.127  0.4162  0.3552  0.0374
28628W        W35228   1.170   4.511  25.479  0.0864 -0.1401 -0.2218
28629W        W35229  19.896   4.507  11.299  0.0859  0.1333  0.0105
28630W        W35230   2.018   6.555   2.698  0.3314 -0.1164 -0.1958
28631W        W35231  19.125   1.840  11.223 -0.2888  0.1046  0.0085
28632W        W35232   3.599   4.052  34.613 -0.4426 -0.0600  0.0364
28633W        W35233   8.079   4.520  37.791 -0.0812  0.1286  0.0820
28634W        W35234   1.011   5.720  39.416 -0.1328 -0.0119 -0.1483
28635W        W35235  19.999   1.348  32.358 -0.0705 -0.0742 -0.0256
28636W        W35236  17.141   3.008  16.514 -0.1306  0.1961  0.0437
28637W        W35237   3.238   2.232  29.139  0.2538 -0.2466 -0.0077
28638W        W35238  13.611   5.423  41.853 -0.0273  0.1570 -0.1246
28639W        W35239  18.237   1.471   1.419 -0.1876 -0.0165 -0.1018
28640W        W35240  16.524   5.305  31.131  0.2499 -0.2551 -0.0660
28641W        W35241   9.901   5.497  39.833 -0.2388  0.0171 -0.1790
28642W        W35242  11.179   0.682  15.214 -0.2028 -0.0793 -0.1315
28643W        W35243  16.618   6.589  36.664 -0.1351 -0.5053 -0.1960
28644W        W35244   6.879   2.906  30.446  0.0419 -0.0785  0.0591
28645W        W35245  13.795   4.345  34.728  0.2190  0.1446 -0.1417
28646W        W35246  13.770   2.377  12.889 -0.1653 -0.1027 -0.3467
28647W        W35247   1.631   5.621   0.451 -0.1026  0.0482  0.1167
28648W        W35248  13.779   6.500  44.168  0.0114 -0.0464  0.0180
28649W        W35249   7.810   2.078   5.814 -0.0606 -0.0474 -0.1741
28650W        W35250   6.972   1.095  14.500  0.0057 -0.1345  0.0914
28651W        W35251  15.585   5.076  20.217  0.3131 -0.0102 -0.2014
28652W        W35252   6.752   1.717  27.913  0.0010 -0.0634 -0.0756
28653W        W35253  20.572   2.586  29.573  0.0843  0.3495  0.1731
28654W        W35254   6.818   5.244  32.979 -0.1038  0.2220  0.1684
28655W        W35255   0.418   0.617  39.130  0.2750  0.2228 -0.2099
28656W        W35256  11.523   3.371  43.885  0.0350 -0.0191 -0.1600
28657W        W35257   4.072   1.062  32.659 -0.0011 -0.0328  0.0922
28658W        W35258   8.076   4.393   4.267  0.0471 -0.0871  0.2552
28659W        W35259  17.836   3.599  36.522  0.1282  0.0089 -0.0839
28660W        W35260  19.518   1.206   2.481  0.0004 -0.1088 -0.0039
28661W        W35261  18.897   3.141  44.619 -0.1272 -0.0112  0.2162
28662W        W35262  12.979   3.482   9.068  0.1576  0.2269  0.0852
28663W        W35263  19.108   0.833  34.105 -0.0827  0.0073 -0.0051
28664W        W35264   2.798   5.029  12.305  0.0879  0.1160  0.0026
28665W        W35265   1.527   3.258  39.426 -0.0843 -0.1509  0.1258
28666W        W35266   8.480   3.098  30.774 -0.0291  0.3378 -0.3519
28667W        W35267   3.456   4.045  28.069 -0.1079 -0.0035 -0.2050
28668W        W35268  16.226   6.599  43.727  0.0776  0.1780  0.1371
28669W        W35269   5.026   3.579  40.435  0.1839 -0.0468 -0.1636
28670W        W35270  11.445   1.894  35.370  0.3357 -0.3091 -0.1695
28671W        W35271   2.564   5.931  34.278 -0.1202 -0.0702  0.0139
28672W        W35272   8.410   1.994  26.009  0.0451  0.0605 -0.3343
28673W        W35273   2.384   5.890  11.698 -0.0452  0.0259 -0.0419
28674W        W35274   9.831   3.975  39.862  0.1924  0.1337  0.0865
28675W        W35275   4.342   3.625  40.980 -0.3587 -0.1651  0.1391
28676W        W35276  17.532   1.068  29.258 -0.0696 -0.0606  0.2012
28677W        W35277   2.247   4.277   7.960  0.3666  0.0985  0.2404
28678W        W35278   0.640   3.864  43.369  0.0123 -0.0720 -0.1065
28679W        W35279   2.453   5.462  25.880  0.0711  0.0617 -0.0472
28680W        W35280  17.538   0.358  40.487  0.0199 -0.2437  0.0263
28681W        W35281  15.007   5.580  38.281  0.3595  0.1225  0.2972
28682W        W35282  15.418   3.311  20.517  0.0953 -0.1828  0.1331
28683W        W35283   0.824   1.524  39.507  0.1625  0.3415 -0.1311
28684W        W35284  11.494   1.562  41.558  0.6574  0.1253  0.0344
28685W        W35285   2.755   4.872  32.954 -0.0833  0.0543  0.1247
28686W        W35286   4.855   5.000  11.981  0.0606 -0.1883  0.0877
28687W        W35287  17.959   2.412   6.119  0.3032  0.1672  0.0458
28688W        W35288  17.447   3.168  13.187  0.0007  0.0136 -0.2181
28689W        W35289  18.878   5.191  32.445  0.1408  0.1147  0.2365
28690W        W35290   4.695   5.297  30.394 -0.1160 -0.0347  0.1720
28691W        W35291   4.089   6.228  36.880 -0.0737 -0.4268  0.1786
28692W        W35292  18.294   1.710  17.125 -0.2397 -0.2345 -0.1968
28693W        W35293  10.767   5.376   8.037 -0.0684 -0.2689  0.2227
28694W        W35294  14.673   0.187  24.604  0.0990  0.1373 -0.0373
28695W        W35295  17.039   6.427  32.175 -0.1511  0.0993  0.2026
28696W        W35296  11.426   0.078  36.381 -0.2074  0.0928  0.2347
28697W        W35297  14.298   1.612   2.662 -0.1192 -0.2002  0.1503
28698W        W35298   8.397   4.143  11.766  0.0982 -0.1918 -0.2246
28699W        W35299  11.546   1.990  38.819  0.3563 -0.1227  0.0564
28700W        W35300   7.305   2.863  29.073 -0.2156 -0.1185  0.0504
28701W        W35301  12.180   4.178   2.079  0.2354  0.0344  0.0058
28702W        W35302  13.364   3.006   2.475 -0.2340 -0.1671 -0.0308
28703W        W35303   8.583   3.128  41.052 -0.0911 -0.0433 -0.0335
28704W        W35304  21.163   2.568  25.082  0.1852 -0.2207 -0.1117
28705W        W35305   5.876   3.920  36.186 -0.2169  0.3576 -0.0830
28706W        W35306   9.528   3.580   4.503  0.0572 -0.2852  0.2225
28707W        W35307  11.803   6.365  21.297  0.1159  0.1442  0.3453
28708W        W35308   6.763   5.244   0.426 -0.0544  0.2528  0.1961
28709W        W35309  14.137   6.127  30.669 -0.0460 -0.2057 -0.1810
28710W        W35310   9.828   4.739  29.581 -0.0098  0.3421  0.0007
28711W        W35311   9.519   0.801  29.357 -0.0573  0.0414 -0.1329
28712W        W35312  14.643   4.296  18.922  0.0639  0.0765  0.1778
28713W        W35313  12.062   0.960   2.710 -0.1350  0.4884 -0.0042
28714W        W35314  16.203   3.822   9.616  0.1473 -0.1334  0.1050
28715W        W35315   8.855   6.583  26.709 -0.1094 -0.0946 -0.0481
28716W        W35316  11.937   3.746  15.214 -0.3104 -0.0124  0.0587
28717W        W35317  14.918   6.588  39.552  0.2295  0.1780 -0.2184
28718W        W35318   0.000   2.631  44.008  0.0161  0.0729 -0.0449
28719W        W35319  15.153   1.415  19.616  0.3372 -0.3841  0.1103
28720W        W35320   2.305   4.937  33.201  0.1442 -0.1483 -0.2067
28721W        W35321   3.917   4.994  37.695 -0.2191 -0.1733  0.1622
28722W        W35322   0.951   4.308   8.386  0.1337 -0.0477  0.0215
28723W        W35323  10.994   4.592  41.306  0.0189  0.0530  0.0195
28724W        W35324  21.127   1.995  27.199 -0.0903  0.0142  0.1138
28725W        W35325   2.962   6.224  28.720 -0.1457  0.1024 -0.1664
28726W        W35326  18.283   5.145  29.155  0.1651  0.0058  0.0146
28727W        W35327   1.976   6.196   3.594  0.3276  0.4301 -0.0504
28728W        W35328   3.591   6.433  31.136  0.2142 -0.0092  0.0015
28729W        W35329  11.667   5.929  43.736 -0.3017 -0.2907  0.1349
28730W        W35330   4.189   4.050  21.278 -0.0275 -0.0229  0.3941
28731W        W35331  15.244   3.922  31.629 -0.0266 -0.0618  0.0271
28732W        W35332   1.705   4.671  14.148 -0.2083 -0.1427  0.1482
28733W        W35333   9.734   1.430  44.693 -0.0714  0.1002 -0.1008
28734W        W35334   3.473   1.493  34.791 -0.0239  0.0506 -0.1274
28735W        W35335  16.149   3.431  21.400  0.0494  0.2900  0.2284
28736W        W35336   0.336   2.979   8.608 -0.1460  0.0208  0.4468
28737W        W35337  10.621   6.334   8.274  0.5185 -0.1374  0.2515
28738W        W35338  19.786   2.151  17.491  0.2616 -0.1246  0.0395
28739W        W35339  10.700   5.347   1.068 -0.1788  0.1305 -0.0287
28740W        W35340  14.686   6.326  34.934  0.1243 -0.4118 -0.2859
28741W        W35341   1.384   2.222  11.273  0.0716 -0.1335  0.2096
28742W        W35342  17.202   1.539   0.940  0.1463 -0.5123  0.1968
28743W        W35343  13.950   1.020  15.317 -0.0580 -0.0567 -0.0920
28744W        W35344   4.407   6.559  15.642 -0.1048  0.0900  0.1227
28745W        W35345  18.298   0.893  14.955  0.0782 -0.0760 -0.1696
28746W        W35346  17.946   4.461  32.672 -0.3343  0.2162  0.0939
28747W        W35347  16.789   1.011  32.208 -0.0324 -0.0340 -0.3098
28748W        W35348  14.999   3.872  18.066  0.0737 -0.0465 -0.2321
28749W        W35349  13.409   3.727  18.038 -0.1623 -0.0981  0.0088
28750W        W35350  16.806   5.794  35.682  0.2119  0.0137  0.1512
28751W        W35351   9.624   3.247   7.829 -0.3168  0.0252  0.3064
28752W        W35352  13.326   5.771  44.073  0.0179  0.1404 -0.1348
28753W        W35353   2.015   5.184   3.083  0.2668 -0.0057 -0.1084
28754W        W35354  18.710   6.343  41.909 -0.3099  0.0584  0.1859
28755W        W35355   7.778   0.026  37.531 -0.0022 -0.3120 -0.0157
28756W        W35356  16.884   4.528  13.598  0.0529  0.0428 -0.0108
28757W        W35357   3.595   1.233   4.137 -0.0245  0.0258  0.0894
28758W        W35358  13.882   4.552  36.468 -0.1747 -0.0029  0.1738
28759W        W35359   6.578   4.738  37.455 -0.1114 -0.1183  0.0191
28760W        W35360   5.971   4.549   6.710 -0.3445 -0.4165  0.1532
28761W        W35361  15.839   4.738  18.721  0.2329  0.1357 -0.2507
28762W        W35362   1.894   0.180  30.617 -0.2122 -0.4050  0.0055
28763W        W35363   6.103   0.817   2.875  0.0291 -0.2244  0.0085
28764W        W35364   4.206   0.794  39.144 -0.3682 -0.2775 -0.2325
28765W        W35365  18.687   0.575  29.762 -0.0242  0.1302 -0.1431
28766W        W35366   8.070   3.895  28.676  0.1460 -0.2835  0.1994
28767W        W35367  15.177   2.659  14.985  0.3079 -0.2259 -0.1707
28768W        W35368  20.359   6.590   8.044 -0.3212 -0.1653  0.0050
28769W        W35369   0.032   1.780  44.378 -0.2659  0.0575 -0.0334
28770W        W35370  13.484   2.605   1.108  0.0133 -0.1026 -0.0390
28771W        W35371   5.790   0.901  42.381 -0.1884  0.1833  0.1848
28772W        W35372   8.515   1.336  44.256 -0.0195  0.0352  0.2446
28773W        W35373  17.967   2.890   1.113 -0.1467  0.1323  0.1344
28774W        W35374   9.776   6.303  13.824  0.2230  0.2570 -0.1405
28775W        W35375  10.521   5.065   3.933  0.0350  0.1880 -0.1067
28776W        W35376  19.931   2.668  34.614  0.0050  0.0372  0.1526
28777W        W35377  10.287   4.914  16.233  0.2560 -0.1862 -0.1473
28778W        W35378   2.468   3.752  31.173 -0.1350 -0.3306 -0.1272
28779W        W35379   1.614   2.544  14.266  0.1721 -0.0156  0.3173
28780W        W35380   2.667   1.414  31.746 -0.1803 -0.1677  0.5604
28781W        W35381  17.729   5.389  18.910 -0.1509  0.0446  0.3599
28782W        W35382  14.130   5.559  23.138  0.1036  0.1016 -0.1744
28783W        W35383  14.251   5.690   5.349  0.2889 -0.0322 -0.1499
28784W        W35384  17.947   4.013   1.561  0.0752  0.0662 -0.1693
28785W        W35385  11.665   4.792  12.308  0.0812  0.0753  0.3073
28786W        W35386   4.762   2.298  41.514  0.2218 -0.0847 -0.0497
28787W        W35387  12.916   5.408  40.990 -0.1768  0.0150 -0.2234
28788W        W35388  17.534   4.357  14.894  0.3127  0.0464 -0.2286
28789W        W35389   8.955   5.932   0.976 -0.2184 -0.0595  0.4026
28790W        W35390  17.062   2.578   0.541  0.0054 -0.1591  0.0615
28791W        W35391  10.351   5.138   5.323  0.0206  0.1782  0.0136
28792W        W35392  13.861   5.028  32.596  0.0327  0.1703 -0.2980
28793W        W35393   2.789   3.298  12.482 -0.0908 -0.1974  0.2190
28794W        W35394  11.836   5.953  10.703 -0.1061 -0.1082 -0.3641
28795W        W35395  14.145   3.229  24.700 -0.2398 -0.1849 -0.0002
28796W        W35396   1.994   1.862  32.185 -0.0052 -0.1677 -0.2619
28797W        W35397  11.474   0.026  37.949 -0.1795 -0.2720 -0.1933
28798W        W35398   5.659   1.340   9.835 -0.0325 -0.1536  0.2051
28799W        W35399  19.757   1.993   4.296 -0.0939  0.1944  0.2632
28800W        W35400   9.203   1.501  32.470  0.0244  0.0797 -0.1592
28801W        W35401   1.918   1.879  35.528  0.1279 -0.1627  0.0347
28802W        W35402  12.962   6.309  10.880 -0.0042 -0.4093  0.2953
28803W        W35403  17.185   3.933  10.012  0.0862  0.2793 -0.1984
28804W        W35404   3.322   0.438   0.077  0.3122 -0.1167 -0.1465
28805W        W35405   5.375   1.417   0.210 -0.0948 -0.1079  0.2938
28806W        W35406  11.284   6.048  15.802 -0.0785 -0.1068 -0.1682
28807W        W35407   8.376   2.886  37.159 -0.1430 -0.0491 -0.0183
28808W        W35408   6.879   1.685  29.555  0.2231  0.0659  0.1256
28809W        W35409   7.856   2.790  16.548  0.0799  0.1142  0.0748
28810W        W35410   5.960   5.251  31.315 -0.0947  0.1137 -0.1871
28811W        W35411  11.882   1.940  28.946 -0.4236 -0.0824  0.2318
28812W        W35412  10.340   3.348  30.623 -0.1636 -0.1950  0.3025
28813W        W35413  17.788   1.847  41.184  0.0563 -0.1368 -0.1371
28814W        W35414   7.730   0.641  35.558  0.0716  0.1993 -0.0792
28815W        W35415  11.267   1.723  40.303 -0.1090  0.1030  0.0627
28816W        W35416  20.095   5.938   5.360 -0.0691 -0.1834 -0.0056
28817W        W35417   2.181   0.518  42.346  0.4643  0.1787 -0.2492
28818W        W35418  15.553   5.273  10.334  0.2279 -0.0075 -0.0508
28819W        W35419  14.193   5.447  26.280 -0.0142  0.0714  0.4149
28820W        W35420  18.807   1.821  19.379 -0.0044 -0.3228 -0.0893
28821W        W35421  12.567   0.628  36.360  0.3037 -0.1038 -0.1870
28822W        W35422  20.042   6.168  41.559 -0.0587 -0.1215 -0.1610
28823W        W35423  19.583   4.580   4.940 -0.1579  0.0974  0.1088
28824W        W35424  21.105   2.499  40.080 -0.1046 -0.1799 -0.0494
28825W        W35425   3.016   6.034  31.046  0.0294 -0.1110  0.2163
28826W        W35426  19.946   2.436   1.609 -0.2113 -0.3144 -0.1657
28827W        W35427  11.579   0.166   2.608 -0.2307  0.2478  0.1359
28828W        W35428   6.610   4.657  36.052 -0.3499  0.3696 -0.0689
28829W        W35429  13.406   5.510  29.787 -0.1416  0.1705 -0.0402
28830W        W35430   9.073   2.810   2.265  0.1965 -0.0860  0.1053
28831W        W35431   1.055   5.128  29.876 -0.0626 -0.2331 -0.0805
28832W        W35432   6.516   4.526  30.546  0.2444  0.0002  0.0189
28833W        W35433  12.751   3.581   3.758  0.0585  0.0154 -0.0897
28834W        W35434  13.350   1.496   4.464  0.0468  0.1624  0.2123
28835W        W35435   5.427   6.261   1.676 -0.0601 -0.0754  0.2795
28836W        W35436   9.656   1.660  18.714 -0.1236  0.2874  0.2277
28837W        W35437  16.803   4.349  42.632  0.1730 -0.0294  0.0241
28838W        W35438  17.374   1.199  43.232  0.0099  0.1322  0.0099
28839W        W35439   7.484   4.036   2.150  0.3852 -0.1601 -0.0006
28840W        W35440   0.289   1.120   6.390 -0.1088 -0.0495  0.0445
28841W        W35441  12.857   3.907   3.379  0.0582 -0.4427 -0.0498
28842W        W35442  11.849   4.824   9.648 -0.0237 -0.3041  0.0225
28843W        W35443   7.143   6.601   8.686  0.0650  0.0604 -0.1946
28844W        W35444   7.395   6.400  35.865  0.0303  0.1166  0.0059
28845W        W35445   6.522   4.431   8.779 -0.0700  0.0303 -0.0340
28846W        W35446   2.673   3.312  34.785 -0.2931 -0.3541  0.0396
28847W        W35447   1.833   6.340   3.131  0.1496  0.1901 -0.1878
28848W        W35448  12.469   4.754  33.147  0.2236 -0.1212 -0.0658
28849W        W35449   7.183   3.841   5.161 -0.0860 -0.1951  0.1518
28850W        W35450  18.642   3.136  31.203  0.0664 -0.0831  0.2049
28851W        W35451   5.158   4.810  37.736 -0.2215 -0.1216 -0.1014
28852W        W35452  16.794   3.214  21.889 -0.3772 -0.0472 -0.2838
28853W        W35453  12.828   0.117   8.190  0.0771 -0.0162 -0.0377
28854W        W35454   8.917   1.257  36.052 -0.1706 -0.0193  0.2345
28855W        W35455  10.073   2.850  15.305 -0.0350 -0.4236 -0.2721
28856W        W35456   8.426   3.206  32.624  0.0333 -0.1518  0.0695
28857W        W35457   4.464   5.360  12.658  0.0074  0.1654 -0.3557
28858W        W35458  13.386   0.289   3.013  0.2445  0.0470  0.2325
28859W        W35459  10.918   0.188  39.005  0.3333  0.0530  0.3274
28860W        W35460   4.163   1.147  29.218 -0.1166  0.0180 -0.0092
28861W        W35461   1.457   5.011  27.454  0.1277 -0.0833 -0.2630
28862W        W35462   4.961   3.961   4.572 -0.4705 -0.1160 -0.1576
28863W        W35463  19.374   0.444  43.089 -0.0600 -0.1931 -0.0890
28864W        W35464   5.760   2.430  40.922 -0.1443 -0.0690 -0.1802
28865W        W35465   7.325   4.580  40.546 -0.0893  0.0841 -0.0304
28866W        W35466  17.765   5.164   3.534  0.1101  0.0941  0.1286
28867W        W35467  18.726   0.685  28.931 -0.0210 -0.0766 -0.1410
28868W        W35468  19.449   1.057   5.281 -0.0313 -0.2400  0.0126
28869W        W35469  20.256   5.109  35.241 -0.1054  0.0640  0.1308
28870W        W35470   6.209   1.681  14.627 -0.1787 -0.1736  0.2656
28871W        W35471   6.438   6.606  35.461  0.0400 -0.3138 -0.1236
28872W        W35472   7.042   1.422   6.721  0.0144 -0.1337 -0.0213
28873W        W35473  21.127   3.274   1.924  0.0618 -0.1321  0.0510
28874W        W35474  20.504   4.269   9.527  0.0024  0.0148 -0.1144
28875W        W35475   4.337   3.184  44.647 -0.2206  0.0497  0.0652
28876W        W35476   7.744   3.837  36.154  0.4307 -0.0494 -0.2167
28877W        W35477   9.030   0.659  32.524 -0.0085  0.1074 -0.0819
28878W        W35478   6.966   3.743  39.478  0.1301  0.0324  0.1684
28879W        W35479  17.896   2.106   0.353  0.2350  0.3813 -0.1849
28880W        W35480   6.624   5.509  11.440  0.4831 -0.1305  0.1382
28881W        W35481  11.690   1.955  36.008 -0.0760 -0.0990 -0.2083
28882W        W35482   9.583   1.030   7.210  0.0145  0.6990 -0.1830
28883W        W35483   1.565   3.149  23.835  0.1541 -0.1472 -0.1452
28884W        W35484   6.262   5.794   3.290 -0.2480  0.2502 -0.2785
28885W        W35485  11.861   2.885   7.619 -0.1222 -0.3820  0.0713
28886W        W35486  18.141   5.803  42.108 -0.0364 -0.0065 -0.1034
28887W        W35487   9.086   3.437  12.194 -0.0624  0.0231 -0.2935
28888W        W35488  20.290   2.243  27.183  0.3275 -0.0074 -0.1515
28889W        W35489   9.527   2.632  42.149  0.5338  0.0559 -0.1499
28890W        W35490  14.487   1.338  37.228 -0.2286 -0.0173 -0.0079
28891W        W35491  19.569   4.870  16.567 -0.2849  0.0509  0.0661
28892W        W35492   3.050   6.548  22.625 -0.1561  0.0998  0.1508
28893W        W35493  15.826   1.050  13.397  0.0319 -0.2486  0.0838
28894W        W35494  10.798   3.309  13.878  0.1792 -0.0739 -0.4678
28895W        W35495   0.711   2.235  11.201 -0.1548  0.1498 -0.1701
28896W        W35496  14.269   3.249  23.358 -0.1617  0.0009 -0.1118
28897W        W35497   1.921   2.998  31.300  0.1044 -0.1989  0.0486
28898W        W35498   5.555   3.375  14.291 -0.2542  0.0872 -0.0441
28899W        W35499   9.298   2.425  27.147 -0.3303 -0.0284 -0.0121
28900W        W35500  11.842   4.303   9.014 -0.3615 -0.0210  0.2477
28901W        W35501   0.220   1.700   3.691 -0.1523 -0.1374  0.0460
28902W        W35502  18.469   5.843  35.987 -0.0296  0.2642 -0.0019
28903W        W35503   8.065   0.942   2.809 -0.1186 -0.2258  0.0042
28904W        W35504   8.924   3.035  33.528  0.2202 -0.1081  0.1914
28905W        W35505   8.787   2.947   4.772 -0.2903  0.1163 -0.0589
28906W        W35506  15.614   2.335  35.330  0.0027  0.0769 -0.1523
28907W        W35507  14.968   2.301  37.155 -0.3369  0.1523  0.1482
28908W        W35508   2.746   6.117   2.838  0.0337  0.2233 -0.1043
28909W        W35509  11.202   3.146  16.764  0.2719 -0.1349 -0.2814
28910W        W35510  10.121   0.851   1.273  0.0279 -0.2168 -0.0448
28911W        W35511   9.096   2.921   5.224 -0.1825 -0.0313  0.1412
28912W        W35512   6.954   3.620  13.391 -0.0249 -0.2150  0.0155
28913W        W35513  17.569   5.430  29.654  0.0021 -0.2746 -0.0886
28914W        W35514   2.428   0.347  44.971 -0.2625 -0.1961  0.0344
28915W        W35515  17.731   5.169  30.633 -0.2886  0.0564 -0.0059
28916W        W35516   4.447   3.999  38.022 -0.1626 -0.0089  0.1912
28917W        W35517   9.119   2.510  15.958  0.1255  0.0596  0.0044
28918W        W35518   0.568   4.260  12.943 -0.0278  0.0476  0.0167
28919W        W35519  12.294   4.362  41.086 -0.2422 -0.1264 -0.2332
28920W        W35520   4.342   0.902  28.733 -0.1051  0.0804  0.1608
28921W        W35521  14.854   1.023  21.394  0.0772  0.2125  0.0101
28922W        W35522  15.719   2.284  17.530 -0.0536  0.2134  0.2606
28923W        W35523  16.020   5.801  39.513  0.1853  0.3074 -0.1362
28924W        W35524  12.531   0.559  12.730 -0.1204 -0.1322 -0.1947
28925W        W35525   4.959   3.207  24.149  0.0299 -0.0276  0.1790
28926W        W35526   4.213   1.271  12.248 -0.0755  0.0698 -0.1395
28927W        W35527   8.655   3.386   2.607  0.0390  0.1988 -0.3667
28928W        W35528   2.766   2.970  39.916 -0.4049  0.0056 -0.1210
28929W        W35529   3.477   5.627  40.921  0.2067 -0.0768 -0.0296
28930W        W35530  12.157   5.405  35.386  0.2218  0.2636  0.1611
28931W        W35531   7.266   1.496  33.349  0.0482 -0.0295  0.2143
28932W        W35532  10.462   1.279   2.338 -0.0140 -0.1141 -0.0063
28933W        W35533  15.827   3.294   1.456  0.0615 -0.0939 -0.0802
28934W        W35534   2.394   2.416  24.106  0.0225 -0.0963 -0.1704
28935W        W35535  15.543   4.310  18.845  0.2254 -0.1990  0.0708
28936W        W35536  14.668   3.901   3.218 -0.0766  0.2950 -0.0792
28937W        W35537  18.495   2.634  32.914 -0.2536  0.0412 -0.2716
28938W        W35538   6.397   0.663   5.075  0.1878  0.1674  0.0329
28939W        W35539  12.512   3.807  19.882  0.0188 -0.1132  0.1247
28940W        W35540  16.361   1.287  21.009 -0.1214  0.0371 -0.2340
28941W        W35541   5.025   1.255  10.965  0.0137  0.1570 -0.1474
28942W        W35542  17.826   1.310  39.827  0.3152 -0.0411  0.0015
28943W        W35543   9.582   5.529  36.909 -0.1462 -0.1316  0.1096
28944W        W35544  16.777   0.290  35.160  0.2114 -0.0315 -0.2299
28945W        W35545   9.208   4.118  11.036 -0.1001 -0.1777  0.0806
28946W        W35546  17.721   4.601  15.268 -0.2844 -0.1103 -0.0356
28947W        W35547   5.558   2.248   2.829 -0.3612 -0.1947  0.1180
28948W        W35548  20.709   0.015   0.140 -0.0207 -0.0435  0.2201
28949W        W35549   9.843   5.363  27.622  0.0060 -0.0795  0.0739
28950W        W35550  20.619   1.550  36.177 -0.0712  0.0086 -0.0528
28951W        W35551  13.760   0.797  23.429 -0.2562 -0.1926  0.0543
28952W        W35552   2.340   1.816  33.564  0.0058  0.1516 -0.3560
28953W        W35553  14.563   5.852  34.754  0.0667 -0.3239  0.2082
28954W        W35554  20.021   5.163  14.867 -0.1044 -0.0402  0.0650
28955W        W35555   4.512   1.220  28.407 -0.2252  0.0113 -0.1840
28956W        W35556   3.728   0.915  21.253 -0.2025 -0.0728  0.2340
28957W        W35557   2.243   4.922  24.898 -0.2746 -0.1269  0.2448
28958W        W35558  19.857   2.727  31.440  0.0335  0.0385  0.2105
28959W        W35559   8.051   2.404  13.857  0.0328 -0.0990  0.0344
28960W        W35560  13.657   5.886   2.066  0.2304 -0.0553  0.0569
28961W        W35561   9.155   3.066  29.931 -0.3946  0.1359 -0.0008
28962W        W35562   3.087   2.256  28.170  0.2355 -0.1823 -0.1724
28963W        W35563  17.096   3.205  41.114  0.0133  0.3009  0.4229
28964W        W35564  12.167   5.221  28.066 -0.1352  0.0182 -0.1537
28965W        W35565   4.621   3.314  15.459  0.0199 -0.1240 -0.1758
28966W        W35566  14.199   5.359  15.542  0.0711  0.1538 -0.1903
28967W        W35567  11.993   6.010  17.572 -0.1540  0.0061 -0.2053
28968W        W35568   9.583   2.757  41.009  0.2696 -0.0854 -0.0210
28969W        W35569  13.097   1.437  12.080  0.2028  0.1931 -0.0441
28970W        W35570  19.856   2.958   8.958  0.1177 -0.2656  0.2384
28971W        W35571   0.406   0.852   3.633  0.1642 -0.0477  0.0201
28972W        W35572  10.181   1.225   7.470  0.2855 -0.3855  0.0711
28973W        W35573   2.771   2.494  35.238 -0.0520 -0.0940 -0.1152
28974W        W35574  18.245   5.957  14.414 -0.0143 -0.0547  0.4381
28975W        W35575  14.312   2.223  42.914  0.2444  0.2057 -0.0266
28976W        W35576   0.820   1.577  26.367  0.3517  0.0674  0.0954
28977W        W35577  15.309   2.094  29.217  0.2645  0.2502 -0.1296
28978W        W35578  17.074   2.837   8.953  0.2023 -0.0194 -0.0568
28979W        W35579  11.395   1.148  15.035  0.0804 -0.1479  0.1035
28980W        W35580   4.812   1.980  12.855 -0.1515  0.1114 -0.1472
28981W        W35581   3.741   4.022   2.487 -0.2082 -0.1634 -0.0341
28982W        W35582  20.776   0.864  11.978  0.1260 -0.1295  0.2601
28983W        W35583   9.499   4.086  32.233 -0.1129  0.1402  0.1954
28984W        W35584  12.602   2.569  28.563 -0.1125 -0.3586 -0.0424
28985W        W35585  16.546   4.315  20.768  0.2519  0.1109 -0.0989
28986W        W35586   4.430   4.233   7.586  0.1068  0.0158  0.1199
28987W        W35587  13.567   4.633  19.666 -0.1319  0.2819  0.1183
28988W        W35588   6.785   1.054  30.827  0.0740  0.1104 -0.1476
28989W        W35589   5.579   3.501  22.699  0.1662 -0.4317  0.0916
28990W        W35590  17.867   2.319  31.635  0.2677 -0.0452 -0.3823
28991W        W35591  17.437   3.805  11.642 -0.1112 -0.1342  0.1363
28992W        W35592   8.145   3.517   2.720 -0.1021 -0.4400  0.1246
28993W        W35593  18.624   2.900  35.827  0.2115  0.0094 -0.1782
28994W        W35594  21.018   2.020  27.699 -0.1237 -0.1191  0.0346
28995W        W35595   9.312   3.456  28.316  0.1646  0.0166 -0.0829
28996W        W35596  20.602   5.954  35.530  0.0681  0.2760  0.0991
28997W        W35597   7.926   1.573  42.038  0.0599  0.1606  0.1469
28998W        W35598   2.380   3.257   1.483  0.1674 -0.1333  0.3544
28999W        W35599   7.175   1.787  37.679  0.3777 -0.1484  0.2310
29000W        W35600   1.445   4.827  43.866  0.3596  0.2514  0.3396
29001W        W35601   7.431   1.151  27.542  0.0150  0.1723 -0.0040
29002W        W35602   5.838   0.376  22.656 -0.1409  0.0310 -0.3631
29003W        W35603   2.617   4.229  13.076  0.1418 -0.0572  0.2596
29004W        W35604   9.944   0.523  40.601 -0.0490  0.3194  0.0036
29005W        W35605  14.621   3.851   1.590  0.2486  0.0269  0.0235
29006W        W35606  20.050   3.871   9.740  0.0180 -0.0148  0.0682
29007W        W35607   3.573   5.402  24.075 -0.0756 -0.1360  0.1180
29008W        W35608   6.287   0.491  29.304  0.0268 -0.2109 -0.0274
29009W        W35609  18.486   4.318  41.535 -0.1219  0.0982 -0.4948
29010W        W35610  14.880   3.260  33.349  0.3773 -0.1746  0.0565
29011W        W35611   9.665   6.305  40.484  0.1996  0.0258  0.0366
29012W        W35612  13.343   4.008  14.237  0.0732 -0.1039 -0.2998
29013W        W35613  17.123   3.132  34.239 -0.1090  0.1349  0.3045
29014W        W35614  17.151   6.074   2.113 -0.1255  0.1042  0.0291
29015W        W35615   9.608   4.698  35.683  0.4396  0.0795  0.1381
29016W        W35616  19.907   0.629  32.543 -0.3598 -0.0713 -0.0892
29017W        W35617  19.746   2.010  31.886 -0.2782  0.1709 -0.1022
29018W        W35618   2.537   5.167  32.126  0.0988  0.1331  0.3523
29019W        W35619  14.975   2.243  10.025 -0.1053  0.0743 -0.0072
29020W        W35620   5.634   3.578   3.688 -0.2005 -0.2802  0.0815
29021W        W35621   8.839   6.533   7.382 -0.1598 -0.1009  0.0185
29022W        W35622   4.977   3.913  33.309 -0.1051  0.3470  0.2215
29023W        W35623   4.335   3.894  35.198 -0.0708 -0.2936 -0.1741
29024W        W35624  18.581   2.291  43.413  0.1416  0.0253 -0.0096
29025W        W35625  16.568   2.621  28.961  0.3913 -0.1142 -0.0520
29026W        W35626  19.718   5.443  30.530  0.1684 -0.0507  0.1235
29027W        W35627  15.270   1.360  41.935 -0.0122  0.1499  0.4076
29028W        W35628  10.293   3.224  13.899  0.2437  0.1034 -0.0747
29029W        W35629   0.264   2.184  42.888 -0.3951  0.1559  0.2870
29030W        W35630  13.369   4.370  18.772 -0.0035  0.1558 -0.0443
29031W        W35631  13.160   1.924   4.124 -0.2764 -0.0293 -0.2192
29032W        W35632  18.414   4.350  19.627  0.0842 -0.1498  0.0190
29033W        W35633  19.571   5.731  12.218 -0.0373 -0.0352  0.2946
29034W        W35634   9.238   2.040  39.909 -0.2511 -0.0249 -0.2699
29035W        W35635  10.925   2.788   9.619  0.0158 -0.0967  0.1150
29036W        W35636  16.063   4.499  13.233 -0.1135  0.0322 -0.0669
29037W        W35637  17.491   3.465  42.803 -0.2196  0.1463  0.0965
29038W        W35638   8.016   0.209  25.671 -0.2038  0.0146  0.2297
29039W        W35639   6.673   6.463   0.969  0.2521 -0.1455 -0.4807
29040W        W35640   1.825   4.140  33.897 -0.0036 -0.1812 -0.1407
29041W        W35641  19.238   0.017   9.552  0.0708  0.1351 -0.2239
29042W        W35642   7.845   3.691  33.400 -0.0635 -0.1060  0.1277
29043W        W35643   2.287   6.515  44.820  0.1958  0.1716  0.2066
29044W        W35644  18.985   0.560  27.658  0.0589  0.2469 -0.0895
29045W        W35645   3.741   1.572  20.444  0.0483 -0.0167 -0.1343
29046W        W35646   4.598   3.488  38.761 -0.2202  0.2060 -0.3771
29047W        W35647   1.434   5.988  38.117 -0.1634 -0.1083  0.4089
29048W        W35648   7.704   1.134   8.154  0.1116 -0.4183  0.3088
29049W        W35649   4.073   6.338  29.931 -0.1937 -0.0578  0.3114
29050W        W35650  13.208   2.854  23.616 -0.0406  0.1477 -0.0614
29051W        W35651   3.332   1.551  23.372  0.1050 -0.0071  0.0076
29052W        W35652  13.574   3.345  38.970  0.0386  0.0507  0.0280
29053W        W35653  19.863   3.765   8.341 -0.0447 -0.0630 -0.1412
29054W        W35654  12.839   6.127  44.382  0.1034 -0.0616  0.3730
29055W        W35655   3.458   5.335   8.850  0.0507 -0.1524 -0.0164
29056W        W35656   0.081   1.665  14.479  0.2198  0.0202  0.0897
29057W        W35657   6.644   5.493  31.894  0.0404  0.0135 -0.0475
29058W        W35658  10.428   1.136  37.083  0.0766 -0.1130  0.2902
29059W        W35659   2.583   0.803  11.314 -0.1324 -0.0466 -0.1239
29060W        W35660  17.079   1.804  31.958  0.1874 -0.1315  0.1551
29061W        W35661   1.482   6.114  29.126 -0.1937  0.0525 -0.0984
29062W        W35662  15.254   3.223   6.845  0.0432 -0.0472  0.3774
29063W        W35663   1.702   0.320  29.115  0.0189  0.2576 -0.1393
29064W        W35664  12.870   6.383  30.421  0.0184 -0.0552 -0.1385
29065W        W35665  17.268   4.581  10.043 -0.2136 -0.1690 -0.0377
29066W        W35666  18.661   2.799  43.759  0.0882  0.1670  0.0712
29067W        W35667  15.375   4.065  36.460  0.0740 -0.2512  0.0307
29068W        W35668   0.017   3.843  14.675  0.2268 -0.2672 -0.0543
29069W        W35669   9.073   3.727   9.120  0.2261 -0.0649 -0.2926
29070W        W35670   3.791   3.419  19.846 -0.1527 -0.0391  0.0137
29071W        W35671  16.326   5.806  44.034 -0.0845  0.0676  0.0794
29072W        W35672   5.054   0.415  40.606 -0.1411 -0.0197  0.1355
29073W        W35673  21.082   5.111   5.769  0.1716  0.1289  0.1577
29074W        W35674   2.360   1.750  39.024 -0.0919  0.2598  0.0202
29075W        W35675  18.079   5.454  40.341  0.0036 -0.2756 -0.0989
29076W        W35676   1.514   5.147  37.065  0.1662 -0.1014  0.2880
29077W        W35677  20.828   3.494  28.101 -0.1704  0.2276 -0.0499
29078W        W35678  10.274   1.358  42.370  0.3475  0.2917  0.0894
29079W        W35679   0.672   4.115  37.157 -0.2585  0.1904  0.1369
29080W        W35680  20.423   0.758  10.068  0.0074  0.1251  0.1885
29081W        W35681   2.611   2.797  24.475 -0.0924 -0.2215 -0.1283
29082W        W35682  16.862   0.339  36.896 -0.1246  0.1842  0.0089
29083W        W35683   2.165   5.980  13.104  0.1166  0.0164 -0.0217
29084W        W35684   4.666   3.216  25.258  0.2499  0.0053 -0.0892
29085W        W35685  15.727   1.805  22.354  0.7354 -0.1579  0.2458
29086W        W35686   1.692   4.280  14.451 -0.1925  0.2312  0.0036
29087W        W35687  11.072   1.203  41.431 -0.1996  0.1438 -0.0051
29088W        W35688  19.955   3.096  10.000 -0.1743  0.3238  0.2585
29089W        W35689  14.096   1.177  36.310  0.0774 -0.0867  0.1797
29090W        W35690   0.992   6.118   0.878  0.0779  0.4917  0.0543
29091W        W35691  11.585   3.629  35.490 -0.1819  0.2343  0.2102
29092W        W35692   1.489   4.032  23.282  0.1906 -0.0331  0.1761
29093W        W35693  14.344   5.477  43.675  0.0885 -0.0113 -0.0452
29094W        W35694  10.656   6.370  39.054  0.1800  0.3286 -0.0565
29095W        W35695  11.219   2.533  19.838  0.0613  0.0285 -0.2466
29096W        W35696  10.800   0.280  10.200 -0.1189 -0.0169 -0.3777
29097W        W35697  12.983   2.751  42.097 -0.1231  0.0960  0.1177
29098W        W35698  18.471   4.304  37.979 -0.1912 -0.0373  0.0116
29099W        W35699  17.088   1.767  36.397 -0.0073 -0.3720 -0.1611
29100W        W35700  15.525   0.812  17.008 -0.0529  0.0787 -0.2970
29101W        W35701   1.838   0.537  10.130  0.0146  0.4207  0.0568
29102W        W35702   2.604   2.398  25.735 -0.0953 -0.0500 -0.2653
29103W        W35703   1.682   2.640   9.207  0.0033  0.0426 -0.2614
29104W        W35704   9.650   5.594  31.680  0.0930  0.3465 -0.2904
29105W        W35705  19.979   5.473  11.450  0.0845  0.0674 -0.3030
29106W        W35706  15.973   3.796  30.088  0.1522 -0.3691  0.0177
29107W        W35707  13.469   3.643   0.285  0.0509  0.0487 -0.1351
29108W        W35708  17.251   3.176  13.939 -0.1072  0.1315 -0.0838
29109W        W35709   9.283   1.529  34.076  0.1283 -0.0516  0.1773
29110W        W35710  20.662   0.872  30.594  0.1653 -0.0591  0.1843
29111W        W35711  14.928   3.835  38.872 -0.1433  0.1469 -0.1935
29112W        W35712   3.578   1.180  19.213 -0.3109 -0.0294 -0.1575
29113W        W35713   7.873   6.409  33.331 -0.3907 -0.0476  0.1698
29114W        W35714  14.409   0.509  37.107 -0.1715 -0.2174 -0.0836
29115W        W35715   7.686   1.279   7.656  0.3199 -0.0671 -0.0805
29116W        W35716  20.954   3.651  39.787 -0.0344 -0.3391 -0.5672
29117W        W35717   8.075   6.274  13.239 -0.1281 -0.0399  0.0492
29118W        W35718  17.321   4.072  35.235  0.0316 -0.3915 -0.1135
29119W        W35719   2.739   3.877  44.224 -0.0707 -0.1574  0.2830
29120W        W35720   0.463   5.977   5.553  0.1990  0.3004 -0.1661
29121W        W35721  11.251   5.524  13.948 -0.0688  0.1007  0.2356
29122W        W35722   2.901   5.827   7.946 -0.1026  0.0929 -0.0405
29123W        W35723   0.231   0.341   5.087 -0.1126  0.0536  0.2684
29124W        W35724  12.956   4.394  42.316 -0.2597 -0.4718 -0.1371
29125W        W35725  17.547   6.056   7.876  0.0751 -0.0464  0.1820
29126W        W35726   9.270   0.221  35.248 -0.1365 -0.0106 -0.1299
29127W        W35727  19.729   2.022  14.210 -0.2461  0.2407  0.1645
29128W        W35728  16.640   1.305  11.181  0.1805 -0.2157  0.1929
29129W        W35729   4.270   4.926   9.368 -0.0768  0.0536 -0.1016
29130W        W35730  16.986   3.410   6.984 -0.0347  0.0959 -0.2699
29131W        W35731   0.328   3.831  10.679  0.1309 -0.0622 -0.1302
29132W        W35732   0.090   0.183   5.919  0.1668  0.0478  0.2378
29133W        W35733  12.398   0.885  33.785  0.1537 -0.2562  0.0038
29134W        W35734  10.815   6.340   4.106 -0.1343 -0.0230  0.1027
29135W        W35735  13.947   2.296   3.536  0.0064  0.0405  0.1253
29136W        W35736  12.065   6.449   8.796  0.1761  0.1160 -0.1300
29137W        W35737   0.100   1.156  38.360  0.0611 -0.0404 -0.1941
29138W        W35738  18.226   2.127  45.141  0.0765 -0.0319 -0.0187
29139W        W35739  10.932   3.628  29.797 -0.0794  0.1531 -0.2485
29140W        W35740  18.840   3.639   0.274 -0.0359  0.0138  0.0901
29141W        W35741  12.621   1.786   7.520 -0.1588 -0.1656  0.0386
29142W        W35742   9.520   1.954   7.065 -0.2126  0.1183  0.4940
29143W        W35743  19.924   3.485  33.135 -0.1814 -0.0085  0.0549
29144W        W35744  17.907   3.512  39.283  0.1232 -0.2111 -0.0029
29145W        W35745  19.428   0.064  10.298  0.1349  0.3560  0.0112
29146W        W35746   5.229   3.548  35.233  0.1519 -0.0782  0.0798
29147W        W35747  10.606   2.390  43.090  0.0987  0.0283 -0.1758
29148W        W35748   4.833   5.281  32.199  0.3532 -0.2574  0.2266
29149W        W35749  18.136   3.966  27.930 -0.1588 -0.1533  0.0610
29150W        W35750  14.240   5.246  13.615  0.2374  0.0962 -0.1856
29151W        W35751  19.050   3.197  39.982 -0.0986 -0.0682  0.0503
29152W        W35752   3.410   2.518   4.027  0.1336 -0.0343 -0.1555
29153W        W35753  16.539   1.523  40.814  0.1543 -0.3594  0.0683
29154W        W35754  16.611   6.334  22.232 -0.1039 -0.1741 -0.2063
29155W        W35755   3.439   5.135  29.566  0.1225  0.2707  0.0218
29156W        W35756  11.450   5.291   6.273  0.1398  0.1408 -0.1533
29157W        W35757  10.077   1.413  13.614  0.2322 -0.3322 -0.0374
29158W        W35758   4.863   1.834  11.547  0.0781 -0.1127 -0.2947
29159W        W35759   3.955   1.199  39.750 -0.2204  0.0435 -0.0811
29160W        W35760  19.444   5.658  28.426 -0.0471  0.2953 -0.0931
29161W        W35761  12.498   5.986  14.159  0.3562  0.0159  0.0200
29162W        W35762   0.335   2.949  44.985  0.3237  0.0588  0.0409
29163W        W35763   2.617   6.228   0.978 -0.0463 -0.3401  0.0353
29164W        W35764   0.486   4.701  41.154  0.1872 -0.0320  0.1767
29165W        W35765  11.452   0.751  17.467  0.0076  0.0341  0.1088
29166W        W35766  11.536   2.430  39.985 -0.2326 -0.1117  0.0686
29167W        W35767   3.244   2.419  14.842 -0.0160 -0.1346  0.0118
29168W        W35768   7.759   4.405  17.347  0.1177  0.1445  0.2907
29169W        W35769  17.836   5.316   0.601  0.3421 -0.1359 -0.3412
29170W        W35770  11.441   5.895  34.017 -0.0216 -0.2135 -0.1101
29171W        W35771  20.987   3.733  40.893  0.0299 -0.3981 -0.0151
29172W        W35772  17.599   3.386   8.347 -0.1771  0.0695  0.0523
29173W        W35773   7.946   1.056  33.557 -0.0692  0.2320  0.4485
29174W        W35774   1.404   2.988  40.749  0.0044  0.3237 -0.1146
29175W        W35775  17.170   4.192  29.577 -0.1638  0.1544  0.1595
29176W        W35776   4.119   3.478   3.417 -0.2014  0.3724 -0.2241
29177W        W35777  18.006   2.791  34.140  0.1996 -0.0526 -0.0044
29178W        W35778  13.948   5.136  22.928 -0.0678 -0.0365 -0.1316
29179W        W35779   4.250   5.043   2.460 -0.3081 -0.3069 -0.2780
29180W        W35780  15.535   4.410  20.633 -0.1843  0.2829 -0.2529
29181W        W35781   4.874   1.953  35.328 -0.1640  0.0949 -0.3232
29182W        W35782   4.315   1.070  23.225 -0.1001 -0.2421  0.2398
29183W        W35783  20.277   5.946  37.550 -0.1022 -0.1191  0.0640
29184W        W35784  15.019   2.330  22.180 -0.1086  0.2291 -0.0823
29185W        W35785   0.832   5.734  31.539 -0.1644 -0.1837 -0.0532
29186W        W35786  18.784   4.230  12.699 -0.2848  0.0781  0.0591
29187W        W35787   6.994   0.324  37.803 -0.1225  0.2383 -0.0298
29188W        W35788  20.981   2.431   8.743 -0.2631 -0.1003  0.3324
29189W        W35789   1.348   5.824  11.330  0.0146 -0.0650  0.1449
29190W        W35790   3.540   2.139  11.811 -0.0498  0.0930  0.1162
29191W        W35791  14.743   5.073  32.092 -0.2656  0.1488  0.2190
29192W        W35792  19.130   5.974  32.046 -0.0428 -0.2642  0.1136
29193W        W35793  13.919   6.587  10.985  0.1088  0.1909 -0.1747
29194W        W35794  13.218   2.139  37.354 -0.1729 -0.2537  0.0994
29195W        W35795   8.601   3.229  41.937  0.1354 -0.1382 -0.0204
29196W        W35796   5.133   0.575   8.518 -0.1284 -0.0723 -0.1447
29197W        W35797  15.766   5.196  30.605  0.1204 -0.1200 -0.2221
29198W        W35798   5.602   6.498  13.198 -0.0711  0.0827 -0.1882
29199W        W35799   3.126   2.099  32.136  0.1348 -0.0347 -0.1376
29200W        W35800  18.848   6.153  35.156 -0.1271 -0.3273 -0.0818
29201W        W35801  19.929   0.915  17.695  0.1430 -0.0677 -0.1627
29202W        W35802  11.028   6.159  19.636 -0.2599 -0.2513 -0.1118
29203W        W35803   5.588   0.016  30.977 -0.2415 -0.0845 -0.1817
29204W        W35804  13.385   3.102  10.580 -0.0337  0.1595  0.0532
29205W        W35805  17.867   0.628  18.806 -0.4645  0.2077  0.2458
29206W        W35806   3.922   3.968  37.945 -0.0428 -0.3754 -0.0371
29207W        W35807  14.450   4.239  16.448  0.1403 -0.1539 -0.2610
29208W        W35808  11.006   1.029   6.569  0.2363 -0.1537 -0.4816
29209W        W35809   3.413   6.208  36.438 -0.1318 -0.1856 -0.0950
29210W        W35810   7.309   2.099   2.122 -0.0186  0.0448  0.0297
29211W        W35811  15.623   4.963   5.732  0.2154 -0.3133  0.0311
29212W        W35812  14.219   2.373  29.798  0.1765  0.0533 -0.2258
29213W        W35813  13.834   3.167  25.100 -0.1041  0.0130 -0.1298
29214W        W35814   2.950   2.036  35.217  0.0371  0.3296  0.0230
29215W        W35815   6.654   3.999   3.662  0.1358  0.1549 -0.0170
29216W        W35816   6.080   5.625  41.821 -0.2228 -0.2681  0.1258
29217W        W35817   2.870   5.920  43.171  0.0661  0.4736  0.0243
29218W        W35818  12.243   6.131  16.262  0.0872 -0.0929  0.3562
29219W        W35819  10.353   2.687   6.493  0.0977 -0.1678  0.0116
29220W        W35820   7.848   2.623  14.277 -0.1575 -0.4724 -0.1771
29221W        W35821   4.296   4.278   1.645  0.1160 -0.1887  0.0515
29222W        W35822   6.277   0.755  10.922  0.2244 -0.0677 -0.2271
29223W        W35823  17.254   2.551   5.384  0.1947 -0.2047  0.0886
29224W        W35824   5.305   5.960  24.901  0.2675 -0.0104  0.4396
29225W        W35825   0.887   0.991  16.064  0.1581 -0.0127  0.2504
29226W        W35826  11.071   5.949  33.058  0.0670  0.1859  0.1395
29227W        W35827   2.838   5.834  11.881  0.0557  0.2623 -0.1300
29228W        W35828   9.917   2.201  37.688  0.0183 -0.2950 -0.1040
29229W        W35829  16.890   5.643  16.521  0.1601 -0.0722 -0.1004
29230W        W35830   7.969   0.026  27.886  0.1647  0.0701 -0.1149
29231W        W35831  10.170   4.701  38.945 -0.1208  0.0216  0.0044
29232W        W35832  18.669   3.142  43.084 -0.0226 -0.0136  0.2788
29233W        W35833   1.678   4.057   6.230  0.0866  0.0465  0.2399
29234W        W35834  17.380   1.893  17.249 -0.1596 -0.0429 -0.3195
29235W        W35835  11.560   2.408  10.944 -0.0999 -0.0805  0.2347
29236W        W35836   8.263   5.008  27.439  0.2385  0.0914  0.0064
29237W        W35837  13.911   4.300  21.985 -0.0106  0.0716 -0.0879
29238W        W35838   5.100   4.680   5.196  0.1699  0.1892  0.0108
29239W        W35839  14.984   4.713   5.744 -0.0775  0.1714 -0.1646
29240W        W35840  20.937   3.539  38.783  0.0736 -0.1003 -0.1110
29241W        W35841  20.599   5.561  34.051  0.1471 -0.2849  0.2069
29242W        W35842  11.218   0.955  17.909  0.1596  0.0519 -0.0132
29243W        W35843   9.938   1.177  42.000  0.0695  0.0558 -0.0582
29244W        W35844  12.480   5.494  13.226  0.1287  0.0099 -0.3206
29245W        W35845   5.762   6.371  11.843 -0.0242  0.1495  0.0653
29246W        W35846  13.529   4.624   1.930  0.2741  0.0340  0.2228
29247W        W35847   8.462   3.555  30.529 -0.2396 -0.1669 -0.1032
29248W        W35848   0.334   6.167  35.068 -0.2060 -0.0958  0.0960
29249W        W35849   9.347   2.983   9.410 -0.1927  0.1613 -0.0436
29250W        W35850  19.890   2.347  41.666 -0.3213  0.0193  0.1271
29251W        W35851   9.495   3.925  36.081 -0.1250 -0.1321  0.0440
29252W        W35852   4.993   5.884  11.503 -0.1506  0.0379  0.2117
29253W        W35853  18.648   0.151   1.055  0.0595 -0.2584 -0.3560
29254W        W35854   7.574   1.658  34.181 -0.0097 -0.0147 -0.1072
29255W        W35855  15.670   3.234   8.403 -0.2484 -0.0580  0.1579
29256W        W35856   7.437   5.423  41.240  0.1534  0.0483 -0.0909
29257W        W35857  13.143   5.546  17.023  0.2190  0.2551  0.0897
29258W        W35858  18.915   3.230   2.829  0.2447 -0.2840  0.0090
29259W        W35859  16.385   2.023  15.927 -0.1013  0.2613  0.0853
29260W        W35860  18.786   3.140  28.754 -0.1552  0.1404  0.0997
29261W        W35861  10.835   2.034  43.313  0.2398 -0.1344 -0.0756
29262W        W35862  12.724   1.924   6.213 -0.2070  0.1057 -0.0973
29263W        W35863  13.834   0.455  11.892 -0.0312  0.1384 -0.1204
29264W        W35864   5.160   6.373  14.485  0.0153  0.0336 -0.0209
29265W        W35865   8.279   1.570  11.716 -0.2093  0.3086  0.2666
29266W        W35866  16.236   2.083   9.478 -0.1298  0.0310 -0.0398
29267W        W35867   2.430   3.408  30.016 -0.1693 -0.2400  0.0699
29268W        W35868   4.757   3.723  34.310 -0.1751  0.3955  0.1438
29269W        W35869  15.276   4.530  39.755 -0.0589  0.0514  0.1030
29270W        W35870   6.374   6.116   5.079  0.0916 -0.2805  0.3097
29271W        W35871   9.764   5.825  27.871  0.2598  0.0534 -0.2707
29272W        W35872   6.828   1.268   0.599 -0.0546 -0.3129  0.1054
29273W        W35873   5.411   2.547   2.401  0.0034  0.2093  0.2085
29274W        W35874  15.644   3.137  21.952 -0.2497  0.2362  0.0467
29275W        W35875   8.416   0.706  36.570 -0.2160 -0.0357  0.0771
29276W        W35876  17.780   0.889  29.855 -0.0701 -0.1109  0.4291
29277W        W35877   7.473   0.483   2.157 -0.1923 -0.1875 -0.1155
29278W        W35878  16.370   3.321   9.737  0.1008  0.1338 -0.3270
29279W        W35879  20.977   0.843   3.993 -0.3009 -0.1148 -0.1554
29280W        W35880  14.388   5.808  25.447 -0.1041  0.0390  0.0732
29281W        W35881  16.062   3.488  13.394  0.5542  0.0862  0.0419
29282W        W35882   7.902   5.999  32.457  0.1546 -0.3106  0.1104
29283W        W35883  11.012   5.498  43.161  0.2478 -0.1890 -0.1417
29284W        W35884  14.423   3.186   5.597  0.0556 -0.2474  0.0374
29285W        W35885  10.989   3.863  30.506 -0.3489  0.2951 -0.0802
29286W        W35886  13.129   0.095  18.512 -0.3429  0.1523 -0.0166
29287W        W35887   6.840   5.034  43.276  0.1235 -0.4367 -0.0290
29288W        W35888  19.044   0.524   5.935  0.3505  0.3091  0.1231
29289W        W35889   7.852   4.865  11.950  0.2518 -0.0063  0.2169
29290W        W35890  17.533   0.348  20.743 -0.0784  0.0911 -0.0502
29291W        W35891  15.641   5.124  19.283 -0.0720  0.0688  0.0798
29292W        W35892  21.028   0.620  39.972  0.0516 -0.0466 -0.0032
29293W        W35893   4.634   6.561  39.503 -0.0614  0.0413  0.2209
29294W        W35894  10.769   6.126  42.144  0.1508  0.0236  0.2592
29295W        W35895  15.682   4.222   4.928 -0.2800 -0.1220 -0.1777
29296W        W35896   2.397   0.595  39.805  0.3010 -0.2375  0.2462
29297W        W35897   1.614   5.448  27.654  0.1973  0.0456  0.1566
29298W        W35898   1.740   1.132   9.167 -0.1405  0.0343  0.1288
29299W        W35899  12.127   4.099  19.258 -0.2115  0.0960 -0.2752
29300W        W35900   4.094   1.397  11.786 -0.2861 -0.0892  0.1488
29301W        W35901  19.103   6.484   1.468  0.0620  0.0063 -0.1524
29302W        W35902   9.469   2.048   3.430  0.1288  0.0801 -0.3073
29303W        W35903  18.281   3.393   6.812  0.0022 -0.0193  0.0069
29304W        W35904   9.076   3.283   7.616 -0.3088 -0.3055 -0.1657
29305W        W35905  11.858   2.412   1.836 -0.1386 -0.0082 -0.1382
29306W        W35906   4.179   1.595   1.861 -0.1203 -0.1516  0.2298
29307W        W35907  20.193   6.170  43.296  0.0895 -0.1208 -0.2359
29308W        W35908  11.053   3.812  40.944 -0.0522  0.1238 -0.2486
29309W        W35909   6.235   0.382   1.837  0.4698  0.1124  0.0019
29310W        W35910   8.968   0.254  33.919 -0.0806  0.0241 -0.3031
29311W        W35911  21.093   4.231  28.582 -0.3376 -0.2044  0.2636
29312W        W35912   9.980   1.830  15.544 -0.1645 -0.0543  0.1742
29313W        W35913   9.711   0.448  39.121 -0.0787  0.1681  0.1611
29314W        W35914   9.483   4.396  43.423  0.0926 -0.1511 -0.2390
29315W        W35915  11.314   2.291  43.090 -0.1355  0.0686 -0.1572
29316W        W35916   9.696   0.177  32.890 -0.3323 -0.1545  0.2305
29317W        W35917   2.044   3.029  34.985 -0.0408 -0.0138  0.0596
29318W        W35918   8.844   1.362   6.447  0.3422  0.2032 -0.2198
29319W        W35919  12.492   1.620  36.488  0.0732 -0.0216 -0.2298
29320W        W35920   5.741   0.836  15.561 -0.1019  0.1812  0.0326
29321W        W35921  13.175   1.870  11.456 -0.0857 -0.2269 -0.1318
29322W        W35922  14.368   5.174  23.867  0.0925 -0.2258  0.3349
29323W        W35923  20.314   4.626  11.665 -0.0530 -0.0265  0.1081
29324W        W35924  16.773   3.473  13.755 -0.4390  0.0282  0.0863
29325W        W35925   3.098   2.097  30.629  0.0890 -0.2014 -0.1755
29326W        W35926  12.992   0.450   1.922 -0.2588 -0.1206 -0.1282
29327W        W35927   9.475   2.136  14.189 -0.0153  0.0949  0.0358
29328W        W35928   1.475   3.750   8.897  0.0343  0.2158 -0.1396
29329W        W35929   9.394   0.079  34.445 -0.0114  0.0895 -0.0873
29330W        W35930   7.820   5.726  42.735 -0.2534  0.2035  0.1782
29331W        W35931  15.448   1.268   3.021  0.2592 -0.0338 -0.3429
29332W        W35932  16.839   0.286  10.862  0.1938  0.0086 -0.1680
29333W        W35933  13.055   6.115  43.799 -0.1944 -0.2030  0.0605
29334W        W35934   1.754   5.574  28.848  0.2720  0.1328 -0.1146
29335W        W35935  12.481   5.190  14.482 -0.0422 -0.2789 -0.0652
29336W        W35936   5.306   4.195  27.272 -0.3117  0.2355 -0.1029
29337W        W35937   7.932   0.590  40.248  0.1457  0.0440  0.1071
29338W        W35938  18.963   3.571   1.798  0.0354  0.2914 -0.0101
29339W        W35939  18.860   0.698  30.807 -0.1124 -0.0010 -0.0479
29340W        W35940  20.343   2.324  36.267 -0.2999 -0.3365 -0.0583
29341W        W35941  13.915   0.279  17.619 -0.1936 -0.1228 -0.1031
29342W        W35942   4.169   4.589   7.958 -0.0698 -0.3819  0.2090
29343W        W35943  12.807   2.428  31.021  0.3714  0.0913 -0.0946
29344W        W35944  16.643   3.706  34.197  0.1955  0.0103  0.0730
29345W        W35945   6.950   2.515  15.723 -0.0268 -0.1321  0.1325
29346W        W35946   0.386   5.757  16.127  0.2975  0.1516 -0.1061
29347W        W35947   9.231   5.707  28.059  0.2416 -0.0313 -0.2969
29348W        W35948  15.822   0.458  13.529 -0.1532 -0.1410  0.4089
29349W        W35949  10.081   2.057   8.576 -0.0595  0.1233 -0.0384
29350W        W35950   7.354   2.557  36.505 -0.1300  0.1316 -0.1564
29351W        W35951   7.547   1.578  12.952 -0.3447  0.0113  0.0219
29352W        W35952  19.824   5.846  34.216  0.1403  0.2933  0.1235
29353W        W35953   0.744   3.839  10.353  0.0814  0.0410  0.0433
29354W        W35954  14.159   3.369   8.210  0.1161  0.0873  0.1162
29355W        W35955  21.114   4.162  33.912  0.2281  0.0350 -0.1183
29356W        W35956  15.308   5.189  38.513  0.1462 -0.0144  0.1601
29357W        W35957  19.991   1.094  15.956 -0.4078  0.2586  0.1229
29358W        W35958  11.389   5.440  17.133  0.1435 -0.3075  0.2183
29359W        W35959   6.837   0.328  35.816 -0.0694  0.2506  0.1136
29360W        W35960   6.245   2.581  40.768  0.1212  0.2436  0.0268
29361W        W35961  16.786   5.677  12.879 -0.0898  0.3596  0.1939
29362W        W35962  13.962   0.734  42.419 -0.1766  0.1874  0.2668
29363W        W35963  18.588   1.784   8.690  0.0326  0.0109 -0.0262
29364W        W35964   2.018   2.675   5.566  0.0031  0.4093 -0.0305
29365W        W35965   1.213   2.466  14.689 -0.0886 -0.1565  0.0552
29366W        W35966   7.701   5.049  27.327  0.3670  0.0551  0.4598
29367W        W35967   2.316   1.030  10.801  0.2071  0.1441 -0.1847
29368W        W35968   3.538   2.341  22.305  0.1996 -0.0460  0.2690
29369W        W35969   1.596   6.195  15.321 -0.0860  0.3625 -0.2556
29370W        W35970   9.812   3.955  43.406 -0.1469  0.1951  0.1062
29371W        W35971  11.845   4.728   0.522  0.2987  0.0799  0.0540
29372W        W35972   1.341   0.800   0.200 -0.1497 -0.1686 -0.0319
29373W        W35973  11.329   0.941  28.348 -0.2377 -0.1339  0.2359
29374W        W35974  15.883   4.789  43.243 -0.0459 -0.1349 -0.0320
29375W        W35975   8.542   0.710   7.132 -0.0221 -0.0964  0.0250
29376W        W35976  14.743   3.508  22.160 -0.0922  0.1267  0.0965
29377W        W35977  19.045   2.400   4.681 -0.1566 -0.1469 -0.0215
29378W        W35978   2.636   5.471   1.634  0.0152 -0.1369 -0.1069
29379W        W35979  10.578   5.257  41.072 -0.0660 -0.2335  0.2724
29380W        W35980   3.196   3.305   1.507  0.4031 -0.0131 -0.0099
29381W        W35981   7.058   4.529  41.754  0.0532  0.0678  0.3551
29382W        W35982   0.546   0.028  27.008  0.0538  0.2222  0.1115
29383W        W35983  10.524   1.947   1.694 -0.2225  0.1692  0.2690
29384W        W35984  12.562   1.804   9.893 -0.1082 -0.0269  0.1457
29385W        W35985   0.437   1.866  12.825 -0.2870  0.2873  0.1866
29386W        W35986   0.324   3.213  36.093 -0.1442  0.2794 -0.0338
29387W        W35987   5.467   6.279  42.866 -0.4745 -0.0355  0.2840
29388W        W35988  15.647   2.429   7.454 -0.1840  0.0835 -0.0298
29389W        W35989  11.829   4.040   8.289 -0.2714  0.1478 -0.0457
29390W        W35990   7.118   0.119  15.755  0.1266  0.4075  0.0964
29391W        W35991   0.799   4.770   7.255  0.0754 -0.0019  0.1632
29392W        W35992   9.169   5.546  44.838 -0.1405  0.0970  0.0464
29393W        W35993   8.253   3.167   8.481  0.1851 -0.2079 -0.2549
29394W        W35994  19.085   1.958   5.068  0.0062 -0.2551 -0.0184
29395W        W35995   3.061   4.051  32.969  0.1270 -0.0026 -0.0272
29396W        W35996   8.494   5.559  40.172  0.1993 -0.1988 -0.0280
29397W        W35997   3.018   4.523  41.238  0.1531 -0.0109  0.1551
29398W        W35998  13.790   3.490  16.771 -0.2404  0.2143  0.0461
29399W        W35999   2.874   5.013   1.959 -0.1210  0.1054  0.0317
29400W        W36000  20.569   4.614   7.027 -0.1363  0.0198  0.3654
29401W        W36001   6.092   6.297  33.380 -0.2536  0.1240 -0.2930
29402W        W36002   0.974   0.550  12.673  0.0916  0.0341 -0.1576
29403W        W36003  17.889   2.309   0.870  0.1846  0.1375 -0.1685
29404W        W36004   0.982   4.656   1.299  0.2448  0.2573  0.2683
29405W        W36005  18.791   2.747  28.474  0.1082  0.2095 -0.3041
29406W        W36006  13.295   3.209  29.954  0.0808 -0.0371  0.0041
29407W        W36007  11.042   3.985  31.000  0.2372 -0.1717 -0.0150
29408W        W36008   9.017   1.048   1.270  0.3762 -0.0276  0.1706
29409W        W36009   8.018   5.539  38.884 -0.1006 -0.1086  0.1826
29410W        W36010  19.825   3.426  41.727 -0.2023 -0.3008  0.0054
29411W        W36011   6.092   4.655  26.766  0.2222  0.2258 -0.2484
29412W        W36012  18.364   2.530  13.884  0.3535 -0.1263 -0.1256
29413W        W36013   6.915   0.130  24.892 -0.2026 -0.0071  0.3522
29414W        W36014  12.823   3.843  13.552 -0.1296  0.0742 -0.3774
29415W        W36015  16.067   4.304  38.861 -0.2199 -0.2145  0.0773
29416W        W36016  17.422   6.579  44.425  0.0131 -0.2791  0.0255
29417W        W36017   1.015   2.133  10.739 -0.0941 -0.0478  0.2103
29418W        W36018   1.346   2.122   9.938 -0.1508 -0.1786  0.2453
29419W        W36019  12.537   6.480  33.902 -0.0643  0.0789 -0.2105
29420W        W36020  19.301   0.366  42.600  0.4910 -0.0602  0.1066
29421W        W36021  10.214   2.719  14.162  0.2042 -0.0761 -0.0358
29422W        W36022   3.856   1.644  24.566  0.1163  0.1522  0.0376
29423W        W36023   5.970   6.036  30.105 -0.0309 -0.1398  0.1774
29424W        W36024   3.079   3.720   8.479  0.2409 -0.0650 -0.1274
29425W        W36025  20.781   3.958   4.532  0.2077 -0.0699  0.1320
29426W        W36026  15.924   4.520  22.620 -0.0351 -0.1027  0.0282
29427W        W36027  18.131   4.465   7.932 -0.0855  0.1606  0.2330
29428W        W36028   8.023   0.233   4.419  0.0768  0.0863 -0.1498
29429W        W36029   5.513   5.454   2.896  0.2023  0.1308 -0.0405
29430W        W36030   6.418   3.666   8.004  0.0426  0.0427 -0.1332
29431W        W36031  17.078   3.437   2.350  0.0780 -0.0622  0.0509
29432W        W36032   7.989   0.295   8.390  0.3387 -0.1796 -0.2597
29433W        W36033   1.124   5.121   8.743  0.2165  0.0581 -0.1464
29434W        W36034  16.893   4.322   2.118 -0.2504  0.0426  0.2222
29435W        W36035  12.133   1.350  15.063 -0.2633 -0.1774 -0.4088
29436W        W36036  16.350   1.649  15.523 -0.0272 -0.0536 -0.1661
29437W        W36037   1.704   1.980  23.198  0.2495  0.2194  0.0118
29438W        W36038   5.364   6.219  10.519 -0.1296  0.1107 -0.4821
29439W        W36039  20.986   1.426  28.352 -0.0048  0.0509 -0.0793
29440W        W36040   8.937   2.537  35.727  0.1303 -0.0338  0.3663
29441W        W36041   0.570   2.156   1.998  0.1621  0.0566  0.4777
29442W        W36042   0.041   2.995  40.395  0.2773  0.2562 -0.1753
29443W        W36043  19.916   1.210   8.553  0.1516 -0.1306 -0.1107
29444W        W36044  20.371   5.743  28.335  0.1132 -0.0157 -0.0078
29445W        W36045   0.095   1.545   1.149  0.1087 -0.3538  0.1375
29446W        W36046   5.780   0.900  14.798 -0.0910  0.0171 -0.0800
29447W        W36047  19.061   1.954  37.512 -0.2415 -0.0144  0.2961
29448W        W36048  20.681   1.339  30.305 -0.2831  0.0975  0.0416
29449W        W36049   2.223   5.671  28.950  0.1467  0.1969 -0.1440
29450W        W36050  17.880   6.017  34.834  0.0324  0.1613 -0.2239
29451W        W36051  12.917   0.217  22.175 -0.0236  0.1391 -0.1099
29452W        W36052   2.949   6.270  32.891 -0.1151  0.1152  0.0138
29453W        W36053  11.257   5.487   1.810  0.0466  0.1141 -0.0306
29454W        W36054   9.095   6.247   1.403 -0.0646  0.0809  0.1030
29455W        W36055   8.585   4.664  44.907  0.0078 -0.0277 -0.2126
29456W        W36056   0.434   3.779  11.158 -0.0935 -0.2386 -0.0489
29457W        W36057  12.864   1.430  31.423  0.1191  0.2426 -0.1954
29458W        W36058  13.847   1.804  22.270 -0.0612 -0.1435 -0.0304
29459W        W36059  17.236   4.887  14.032  0.3628 -0.0066  0.0426
29460W        W36060   4.633   1.647  25.837 -0.0185  0.1670  0.1441
29461W        W36061  17.950   1.382  12.659 -0.1861 -0.1128 -0.1156
29462W        W36062  12.947   2.094   1.433 -0.1543  0.2997  0.2372
29463W        W36063   1.316   1.655  29.726  0.0438 -0.2070  0.0999
29464W        W36064  20.428   4.609   9.132  0.0210 -0.1081 -0.2260
29465W        W36065  13.592   2.282   2.751  0.0882 -0.1418  0.0469
29466W        W36066  18.063   4.593   1.588 -0.0135 -0.0529  0.0197
29467W        W36067  12.915   2.808  31.428  0.2856  0.0729 -0.1583
29468W        W36068  12.643   2.386  30.452  0.0335 -0.0401  0.0775
29469W        W36069   4.346   3.306  35.699 -0.0948 -0.3249  0.1345
29470W        W36070  11.516   3.362  42.972  0.1252 -0.1876 -0.2149
29471W        W36071  19.663   4.759  36.372  0.1162  0.0405 -0.0421
29472W        W36072  12.334   4.555   9.784 -0.1409  0.1499 -0.1281
29473W        W36073  19.157   3.211  11.692 -0.2329  0.0101  0.1149
29474W        W36074  13.084   6.179  11.862 -0.2747  0.1033  0.1419
29475W        W36075   3.202   1.798  39.424 -0.0416 -0.2069 -0.1813
29476W        W36076   5.308   3.988   8.922 -0.0052  0.2819  0.0820
29477W        W36077  13.331   0.510  37.487  0.3524  0.0075 -0.0955
29478W        W36078  20.535   5.492  41.333  0.1864 -0.0757  0.0819
29479W        W36079   9.975   4.969   3.927 -0.0470 -0.0421 -0.4770
29480W        W36080   8.092   4.338  15.566  0.4650  0.1162  0.3766
29481W        W36081   1.900   5.954   0.763  0.1340  0.0014  0.1150
29482W        W36082   4.686   6.312  25.495 -0.2432 -0.0135  0.0515
29483W        W36083  18.532   1.112  36.305 -0.0682 -0.0001  0.1258
29484W        W36084  14.709   0.285   8.767 -0.0698  0.0911 -0.0921
29485W        W36085  14.393   0.969   7.681  0.1393 -0.1264  0.0631
29486W        W36086   8.586   3.551   0.460 -0.1820  0.1837  0.0895
29487W        W36087   2.797   4.118   1.533 -0.1318  0.2046  0.0609
29488W        W36088  20.578   5.386   1.432  0.0434  0.0576 -0.1671
29489W        W36089  20.553   3.878  33.265  0.2676  0.0081 -0.1732
29490W        W36090   1.154   1.556   6.054 -0.0537  0.0052 -0.0047
29491W        W36091   1.034   2.433  42.548  0.1265  0.0723 -0.0222
29492W        W36092  11.350   1.969  30.016  0.0861 -0.0165  0.0443
29493W        W36093   6.423   0.360  41.715  0.2228 -0.2180  0.3115
29494W        W36094  11.102   6.564  20.760 -0.2347  0.1061 -0.1892
29495W        W36095   2.921   0.345  32.442 -0.1393 -0.1050  0.1141
29496W        W36096  14.251   0.923  16.680  0.0052  0.3028 -0.0411
29497W        W36097   5.775   2.503  42.245  0.1216 -0.1435  0.1478
29498W        W36098   8.761   3.324  25.030 -0.1556  0.0315 -0.1674
29499W        W36099  19.629   6.232  39.419 -0.0954 -0.2948  0.0719
29500W        W36100  15.534   5.074  15.829  0.0269  0.1155 -0.2697
29501W        W36101  18.314   5.198  37.059  0.1065 -0.1517 -0.0887
29502W        W36102   9.577   5.618  41.101 -0.3213  0.1173  0.0757
29503W        W36103   5.792   4.122   9.704 -0.0336  0.0142 -0.1687
29504W        W36104  17.809   4.346  28.089 -0.0690  0.0587 -0.1695
29505W        W36105   0.846   5.232  31.293  0.3853  0.1323  0.1660
29506W        W36106  20.391   0.515  18.177  0.0780  0.3808 -0.2345
29507W        W36107   3.935   3.067  11.183  0.0622  0.3149  0.0219
29508W        W36108  13.405   6.099   8.618  0.1046  0.2543 -0.1364
29509W        W36109  12.543   0.722   2.049 -0.0400  0.2179 -0.0529
29510W        W36110  19.012   4.706  35.696 -0.0697  0.0392 -0.3381
29511W        W36111  17.218   2.554  44.957 -0.2368 -0.0034 -0.1541
29512W        W36112  11.362   1.645  29.115  0.3673  0.1803  0.4438
29513W        W36113   5.443   2.603  26.282 -0.2724 -0.1558  0.2141
29514W        W36114  13.477   4.220  42.971 -0.0699 -0.0641 -0.0564
29515W        W36115  11.524   3.164  12.155 -0.0450  0.0333 -0.3496
29516W        W36116   0.663   3.921  44.206 -0.0907  0.1841 -0.1066
29517W        W36117   4.571   6.197  37.747  0.0166  0.0159  0.0328
29518W        W36118   9.151   4.291   2.850  0.3711  0.0544  0.0452
29519W        W36119   5.860   0.977  11.762  0.1270  0.3923 -0.0349
29520W        W36120  12.760   1.591  20.038  0.0299 -0.0338 -0.0774
29521W        W36121   2.902   5.006  15.513  0.0918 -0.2103 -0.0025
29522W        W36122  20.030   3.410  31.117  0.0174  0.0454  0.1720
29523W        W36123   3.227   0.147  25.086 -0.1723 -0.0840  0.3549
29524W        W36124   0.133   2.762  36.279  0.0006  0.2718  0.0940
29525W        W36125   9.980   2.029  32.655 -0.0696 -0.0652  0.1799
29526W        W36126  10.943   1.635  31.353 -0.2711  0.1091  0.3237
29527W        W36127   2.764   1.747  21.653  0.0092 -0.2758  0.2096
29528W        W36128  14.224   1.160   2.860 -0.0020 -0.2420  0.0213
29529W        W36129   2.558   5.448  25.144  0.0200  0.2831 -0.2072
29530W        W36130   0.534   4.203  40.285  0.2172 -0.0981 -0.0321
29531W        W36131  10.891   5.350  18.153  0.0292  0.1498  0.0039
29532W        W36132   4.952   1.600  15.440 -0.4743 -0.1496  0.1166
29533W        W36133   5.997   4.570  10.509  0.0034 -0.2918 -0.2188
29534W        W36134  14.145   5.977   2.212  0.2690  0.2476 -0.0668
29535W        W36135   8.952   5.446  40.129 -0.3106  0.0224  0.1262
29536W        W36136  12.249   0.404  12.035  0.1772 -0.0885  0.2255
29537W        W36137  12.468   0.179  44.256 -0.1091 -0.2612 -0.0287
29538W        W36138   8.336   0.506   3.060 -0.0241  0.0418  0.1147
29539W        W36139   8.090   4.600  28.742 -0.1014  0.0982  0.3770
29540W        W36140  17.865   0.505  42.251  0.1055 -0.0724 -0.0442
29541W        W36141  20.119   0.705   7.748 -0.1707  0.2346  0.0830
29542W        W36142   7.221   5.932  45.073 -0.1634 -0.0440  0.0131
29543W        W36143   8.128   3.305   0.545  0.3957  0.1476 -0.0807
29544W        W36144   2.977   4.177  13.457 -0.2210 -0.3486 -0.1157
29545W        W36145  10.934   4.410  30.371 -0.1937 -0.0510 -0.0847
29546W        W36146  12.743   1.732  10.343 -0.1476 -0.1446  0.0486
29547W        W36147   1.293   0.249   4.458  0.1764 -0.0247  0.1293
29548W        W36148   7.113   2.738  34.587 -0.0659  0.3711 -0.0475
29549W        W36149   0.960   5.598  35.566  0.3399  0.1073 -0.1035
29550W        W36150  15.042   1.375   1.587 -0.1513  0.2803  0.1897
29551W        W36151   6.694   2.867  35.759  0.1010 -0.1125  0.1333
29552W        W36152   3.872   1.796  34.952 -0.1957  0.1807  0.1013
29553W        W36153  12.949   0.689  12.440 -0.2605 -0.2193 -0.0394
29554W        W36154  12.134   0.833  36.474 -0.2813 -0.2410 -0.5108
29555W        W36155   7.706   0.728  43.076  0.0353  0.1377 -0.0445
29556W        W36156  15.954   2.146  34.482  0.2935 -0.0431  0.3506
29557W        W36157   3.144   0.297  40.918  0.0808 -0.2199 -0.0223
29558W        W36158   7.105   5.766  15.792 -0.0091 -0.1109  0.1047
29559W        W36159  12.201   1.517   1.182  0.0341  0.1543 -0.0403
29560W        W36160  14.035   3.887  22.654  0.3432 -0.3264 -0.0102
29561W        W36161  19.401   3.520  37.610  0.2331  0.0502 -0.0330
29562W        W36162  14.294   0.199  12.163 -0.0277 -0.0025  0.2307
29563W        W36163   5.791   1.797  30.446 -0.0045  0.1269 -0.0503
29564W        W36164  10.059   6.422  17.661  0.0314 -0.2095  0.0014
29565W        W36165   9.748   3.327  14.986  0.0446 -0.0773  0.1634
29566W        W36166  18.844   0.701  33.722 -0.1998 -0.3555  0.1009
29567W        W36167  10.956   0.909  19.637 -0.2283 -0.1143 -0.5507
29568W        W36168  13.642   5.919  29.792  0.0605  0.2549  0.1005
29569W        W36169   1.660   0.972  13.676  0.1321  0.0581 -0.1117
29570W        W36170   1.835   2.268   1.583  0.1393 -0.1723  0.1055
29571W        W36171   7.324   4.775   8.510 -0.2781  0.0413  0.1185
29572W        W36172   9.001   2.706  12.857  0.0965  0.2256  0.1755
29573W        W36173   8.208   4.009  37.916 -0.1611  0.3054  0.0583
29574W        W36174  18.963   5.622  41.807 -0.1624 -0.1511  0.1672
29575W        W36175   4.379   2.342   4.471 -0.2935 -0.4340 -0.2072
29576W        W36176  13.267   0.956  29.658  0.2709  0.0683  0.1341
29577W        W36177   8.253   6.291  14.104  0.0001 -0.0422  0.1495
29578W        W36178   8.205   3.496  37.826 -0.2324 -0.1043  0.0075
29579W        W36179   1.697   1.481  34.510  0.0538  0.1557  0.0114
29580W        W36180   6.170   1.889  37.724  0.0052 -0.0139 -0.0661
29581W        W36181   9.281   3.891  12.394 -0.1723 -0.1632  0.3234
29582W        W36182  13.480   6.184  16.518 -0.0385 -0.0043 -0.1168
29583W        W36183   1.853   6.047  28.775  0.2329 -0.1151 -0.2169
29584W        W36184   7.300   2.327   0.400  0.0198  0.0668  0.0946
29585W        W36185  15.008   0.029  36.759 -0.2835  0.2355 -0.1173
29586W        W36186   3.523   3.830  35.596  0.0700 -0.2220  0.2473
29587W        W36187   4.218   2.588  11.868  0.1021 -0.3057 -0.0992
29588W        W36188   5.284   2.544   7.130  0.0011  0.0911  0.0147
29589W        W36189  14.359   1.249  22.208 -0.0302  0.2278  0.2333
29590W        W36190  14.010   5.008   3.762 -0.2471  0.2766  0.0383
29591W        W36191  13.627   0.354  23.284 -0.3662  0.0564  0.0438
29592W        W36192   2.570   2.172  42.784 -0.0949 -0.0218 -0.2262
29593W        W36193  18.041   3.927  42.417 -0.0769  0.0060 -0.2256
29594W        W36194  11.144   6.205  44.366 -0.0423 -0.0960  0.0174
29595W        W36195   5.532   1.407  39.776 -0.1132  0.1377 -0.2145
29596W        W36196   4.414   5.182   3.738 -0.2982 -0.0543 -0.3900
29597W        W36197   2.013   5.347  37.745  0.0799  0.1291 -0.0283
29598W        W36198  14.187   6.297  14.601  0.2030 -0.2465 -0.1687
29599W        W36199   1.585   2.995   9.697 -0.1085 -0.0096  0.1054
29600W        W36200  12.815   1.963  31.207 -0.2116  0.0847  0.3065
29601W        W36201  11.568   5.167  11.360  0.1758 -0.3257 -0.0377
29602W        W36202  19.157   1.695  12.985  0.1730  0.1161  0.1637
29603W        W36203  16.839   2.251  18.073 -0.0651  0.1187 -0.0784
29604W        W36204  15.811   0.756  42.125  0.0528  0.1427  0.1731
29605W        W36205  18.475   2.065   2.749 -0.2270  0.2272 -0.2978
29606W        W36206   2.832   1.054  14.203 -0.4529  0.1472  0.3402
29607W        W36207   4.362   2.122  32.016  0.0352  0.0613 -0.1532
29608W        W36208   4.861   2.596  32.933  0.2693  0.1705  0.0628
29609W        W36209  12.702   0.566   9.484  0.0184 -0.0281 -0.2606
29610W        W36210   3.682   3.296  41.843  0.1272  0.3070  0.0455
29611W        W36211  15.132   1.639   7.931  0.2472 -0.1154  0.0057
29612W        W36212  12.952   2.331   5.585 -0.0286 -0.0779 -0.2125
29613W        W36213  21.055   5.853   7.877  0.1187  0.1521 -0.0369
29614W        W36214  11.148   4.564   7.255  0.1243  0.0456 -0.0683
29615W        W36215  13.782   0.362  32.922 -0.0038 -0.0395 -0.1313
29616W        W36216  12.651   4.583   4.099  0.1473 -0.1041  0.0024
29617W        W36217   2.354   4.740   3.414 -0.0881 -0.0791 -0.2210
29618W        W36218   6.046   4.227  38.044 -0.0931  0.0272  0.0527
29619W        W36219   3.345   0.281  22.462 -0.1237  0.1102  0.0685
29620W        W36220   2.595   3.094  20.936 -0.2955 -0.1050  0.2109
29621W        W36221  15.475   6.028  38.009  0.2042 -0.1464 -0.3279
29622W        W36222   8.563   0.590  28.406  0.2074  0.0150 -0.0470
29623W        W36223   1.270   2.094  15.060  0.0407  0.0706 -0.0192
29624W        W36224  11.806   3.201  36.058 -0.1838  0.0103  0.0409
29625W        W36225  11.841   4.451  19.436  0.0310 -0.0549 -0.2021
29626W        W36226   9.467   4.206   6.041  0.0506  0.0531 -0.2704
29627W        W36227   6.439   6.371  34.450  0.0873 -0.1821 -0.3185
29628W        W36228   5.348   6.127  43.839 -0.1523 -0.0016 -0.0536
29629W        W36229   4.200   1.202  11.329 -0.1867  0.0525  0.2338
29630W        W36230   1.975   3.655  43.177  0.1127  0.2856  0.2552
29631W        W36231   2.083   1.553  37.944  0.0351  0.0273 -0.0869
29632W        W36232   2.001   5.501   0.897  0.1481  0.2578 -0.1829
29633W        W36233   0.259   3.242  42.610  0.0292  0.1015  0.0768
29634W        W36234  10.669   4.934  33.968  0.1347 -0.0645 -0.2717
29635W        W36235  12.688   6.368  43.462  0.4343 -0.1387  0.2972
29636W        W36236   1.773   3.655  12.905  0.0387  0.2141 -0.1349
29637W        W36237   5.689   3.812  44.644 -0.0739 -0.1526 -0.1042
29638W        W36238   9.218   4.237  13.454 -0.0047  0.4245  0.0059
29639W        W36239  20.826   1.881  32.737  0.0974 -0.3110 -0.2790
29640W        W36240   5.705   0.984  44.688 -0.2388  0.0318 -0.1128
29641W        W36241  12.763   4.454  38.797  0.3505 -0.2415 -0.1470
29642W        W36242  14.702   3.007   2.706  0.1921  0.2698  0.1973
29643W        W36243   6.722   0.273  29.698  0.0126 -0.0928 -0.0362
29644W        W36244  15.023   2.269   0.977 -0.1087  0.1129 -0.1504
29645W        W36245   6.033   1.348  34.984 -0.2514 -0.0100  0.1292
29646W        W36246  10.158   2.597  43.207 -0.1034  0.3430 -0.2528
29647W        W36247   6.048   6.493  35.719  0.1070 -0.1141 -0.2179
29648W        W36248   2.865   3.426  41.110  0.1150  0.1774 -0.2102
29649W        W36249   7.219   6.018  10.032 -0.2194 -0.1262 -0.0226
29650W        W36250   2.439   3.732  37.081 -0.1083 -0.3346  0.1606
29651W        W36251  13.167   2.168   0.223  0.1154  0.0275 -0.1129
29652W        W36252   4.746   5.940  32.821 -0.1053 -0.1617 -0.3140
29653W        W36253  13.532   4.639  33.323 -0.0568 -0.0960  0.1640
29654W        W36254  11.599   0.991   6.631 -0.0105  0.0579  0.2922
29655W        W36255  11.749   4.140   2.370  0.1915  0.0931  0.2413
29656W        W36256   2.803   5.366  11.477  0.0661  0.0665  0.0473
29657W        W36257   4.151   2.917  24.511  0.2736  0.0107  0.0902
29658W        W36258  16.993   4.741   6.839 -0.1752 -0.0843 -0.2111
29659W        W36259   4.726   2.929   5.771  0.1385  0.1455 -0.0251
29660W        W36260   7.036   4.713  37.679 -0.1169  0.0537 -0.2449
29661W        W36261  12.375   2.759  34.420  0.0411 -0.2651  0.0966
29662W        W36262   6.064   5.056  24.378 -0.0653  0.3197  0.1774
29663W        W36263   8.741   3.056  16.296 -0.0475 -0.2407  0.1075
29664W        W36264   4.880   2.719   8.812 -0.5176 -0.2641 -0.0824
29665W        W36265  20.298   5.003   7.846 -0.2186  0.1949 -0.1772
29666W        W36266  10.799   4.248   6.325 -0.0792  0.1254  0.2449
29667W        W36267  11.795   2.773   5.787 -0.0340  0.4459  0.1285
29668W        W36268  12.453   5.788  29.390 -0.1510  0.1088  0.2471
29669W        W36269   8.561   5.976  42.856 -0.3579  0.0439 -0.0902
29670W        W36270   5.631   4.022   0.695  0.2399 -0.0793  0.2107
29671W        W36271  11.500   2.298  20.934 -0.0027 -0.0876  0.0278
29672W        W36272  13.106   0.310  13.431 -0.2116 -0.1488  0.2391
29673W        W36273  14.858   4.611  22.137  0.1249 -0.0395 -0.1077
29674W        W36274  11.940   2.834  41.499 -0.1351  0.1134  0.3154
29675W        W36275  17.877   4.456   5.424  0.0083 -0.1695 -0.1147
29676W        W36276  14.181   5.199   6.106 -0.1385 -0.0820 -0.3094
29677W        W36277  17.149   4.818  44.251 -0.0707 -0.2795 -0.2288
29678W        W36278   0.361   4.771  11.715  0.2903  0.3217  0.0052
29679W        W36279   1.210   5.660   9.813  0.0201  0.2144 -0.0634
29680W        W36280  19.331   6.452  28.050  0.0465 -0.2563 -0.0941
29681W        W36281  13.587   3.566  37.391  0.0256 -0.0419 -0.0065
29682W        W36282  14.251   6.187   6.312  0.1102  0.1974  0.3105
29683W        W36283   4.236   5.498  43.996  0.1128  0.3016 -0.2198
29684W        W36284   3.599   3.305  33.933 -0.3054 -0.1123  0.1585
29685W        W36285  11.813   6.114  11.871  0.0540  0.0337  0.2633
29686W        W36286   3.676   1.342   6.561  0.1966  0.1630 -0.2718
29687W        W36287   3.436   1.526  33.704 -0.0087  0.0045 -0.2929
29688W        W36288  12.180   5.228  30.143  0.1544  0.3740  0.1907
29689W        W36289  10.112   1.514  15.088 -0.0634  0.1467 -0.2858
29690W        W36290   2.183   4.111  37.369 -0.1201  0.1233  0.1343
29691W        W36291  10.267   5.240  41.459 -0.0393  0.0034  0.2027
29692W        W36292   4.925   3.202   8.957 -0.0413  0.2237 -0.3638
29693W        W36293   3.650   4.376  12.592 -0.0365 -0.0195  0.0734
29694W        W36294   4.879   6.061   7.640  0.2206  0.1916 -0.1518
29695W        W36295   0.328   1.499  28.522  0.0300 -0.0359 -0.0072
29696W        W36296  11.227   5.602   0.121  0.2112  0.2416 -0.0454
29697W        W36297   7.938   2.948   2.234  0.0978 -0.1848  0.1224
29698W        W36298  14.711   2.538  23.603  0.1570  0.1957 -0.1230
29699W        W36299   0.224   6.470  34.697 -0.1689 -0.1620 -0.0981
29700W        W36300   5.408   5.698  22.102  0.0302  0.1879  0.0919
29701W        W36301   1.496   4.489  42.200 -0.2598 -0.0368 -0.0274
29702W        W36302  19.502   3.565  12.575 -0.2130  0.1624 -0.1312
29703W        W36303   2.854   2.669  42.758  0.1444 -0.0683  0.1444
29704W        W36304   6.332   4.008  27.416 -0.1743  0.2997 -0.4473
29705W        W36305  14.718   1.449  21.639  0.3403  0.1423  0.1883
29706W        W36306  17.039   3.415  43.228  0.0061  0.1128  0.2113
29707W        W36307  11.112   4.535   7.733 -0.4315 -0.3892 -0.0554
29708W        W36308  11.104   0.464  32.616  0.2691  0.1941 -0.1192
29709W        W36309  11.907   2.725  40.085 -0.1190  0.1616 -0.0743
29710W        W36310   9.373   0.230   8.500  0.2677 -0.1992 -0.2370
29711W        W36311  15.920   1.667  31.381 -0.0478  0.2333 -0.1762
29712W        W36312  14.504   3.835   7.383  0.1376  0.3868  0.1464
29713W        W36313   7.183   1.600  41.731  0.1582 -0.1707 -0.2500
29714W        W36314  18.192   2.293  27.870 -0.2455 -0.1362 -0.1225
29715W        W36315   7.770   4.707   1.259 -0.2190  0.2886  0.0345
29716W        W36316  16.085   3.238   6.084  0.1834 -0.1306 -0.0989
29717W        W36317   0.317   1.769  24.960 -0.2351  0.1902  0.0041
29718W        W36318   0.806   1.458  42.254  0.2166  0.1528  0.4557
29719W        W36319   3.125   3.650  28.123 -0.2322  0.1438 -0.1506
29720W        W36320  19.454   0.452  42.106 -0.1119 -0.0524 -0.4088
29721W        W36321  16.958   3.980  40.844 -0.1464 -0.2770 -0.2345
29722W        W36322   2.962   4.565  24.609  0.0355  0.1042  0.0849
29723W        W36323   6.412   5.018  32.168 -0.0695  0.0792 -0.4117
29724W        W36324  17.743   5.436  35.475 -0.1030 -0.1071  0.0722
29725W        W36325  15.009   0.814   9.608 -0.0742 -0.0795 -0.1085
29726W        W36326  10.687   5.437  11.669  0.2289  0.1141 -0.1169
29727W        W36327  15.982   4.775   2.046  0.0461  0.0263  0.2364
29728W        W36328  16.504   6.166  33.373 -0.1343  0.2661 -0.2205
29729W        W36329   5.198   1.201  38.870  0.2358  0.2759  0.1685
29730W        W36330  16.551   6.031  42.520  0.0536  0.2031  0.2820
29731W        W36331   1.247   4.160  25.057  0.2263  0.2079  0.0075
29732W        W36332  19.276   1.096   0.666 -0.2398 -0.0647  0.0939
29733W        W36333  14.520   4.706  34.778  0.0924 -0.0639  0.0606
29734W        W36334  19.389   1.301  30.222  0.3600  0.2874 -0.3522
29735W        W36335   9.979   5.962  15.943 -0.2408  0.1918  0.2449
29736W        W36336  13.819   4.283  35.802  0.5393  0.1697 -0.0617
29737W        W36337   7.832   0.644   1.846 -0.2676 -0.0692  0.1547
29738W        W36338   0.709   5.468  23.479  0.0198 -0.1321 -0.2225
29739W        W36339   2.508   0.021  27.886 -0.4570  0.3319  0.1974
29740W        W36340   2.466   1.629  36.834  0.1135  0.0326 -0.0030
29741W        W36341  12.260   3.544  20.217 -0.2109 -0.3109  0.0876
29742W        W36342  14.398   4.080  12.403  0.1555  0.0450 -0.1761
29743W        W36343   0.746   1.598  23.932  0.0758 -0.3275 -0.1096
29744W        W36344   2.829   0.460   5.629 -0.0535 -0.1937 -0.1920
29745W        W36345   5.074   2.556   2.794 -0.0369  0.0817 -0.1073
29746W        W36346   7.590   6.169  37.885  0.0857 -0.1994 -0.1447
29747W        W36347  19.251   1.506  39.637  0.0688  0.1964  0.0425
29748W        W36348  12.697   5.793  34.231  0.1020 -0.0011 -0.1500
29749W        W36349   7.113   6.244   7.495 -0.1090 -0.1614 -0.1796
29750W        W36350   7.057   4.753  32.284  0.1970  0.4850  0.0788
29751W        W36351   8.345   6.293  33.358  0.0217  0.3683  0.0231
29752W        W36352  13.329   2.356  10.025  0.0314 -0.2747 -0.2473
29753W        W36353  11.433   2.633  13.500 -0.0204 -0.0409  0.1065
29754W        W36354   3.628   4.903  23.916  0.1186 -0.1370  0.1983
29755W        W36355   0.055   2.559  30.307  0.0858  0.1069  0.0271
29756W        W36356   2.565   4.158  28.310  0.2651 -0.1429 -0.1027
29757W        W36357  12.773   0.836  38.052  0.0967 -0.0450  0.0600
29758W        W36358  15.800   5.861  20.099 -0.2579  0.0363 -0.2635
29759W        W36359  10.943   2.414  38.201  0.0876 -0.3060  0.0430
29760W        W36360   3.105   4.857  30.006  0.2120  0.0004 -0.2082
29761W        W36361  17.689   5.621  34.577 -0.0318  0.0475 -0.6006
29762W        W36362   2.378   1.457  21.776  0.2139  0.3961  0.0821
29763W        W36363   2.528   3.858  26.101 -0.1471  0.1619  0.2332
29764W        W36364  13.461   3.124  16.699 -0.1034  0.0515 -0.2376
29765W        W36365  16.230   4.427  15.856  0.1717  0.2722  0.1199
29766W        W36366  14.528   4.847  17.878  0.1003  0.1128 -0.0596
29767W        W36367  11.743   5.815  33.061  0.1015  0.2472 -0.0163
29768W        W36368  14.106   2.154  41.954  0.0002  0.2324 -0.1468
29769W        W36369   9.880   2.979  38.699 -0.0884  0.0302 -0.0907
29770W        W36370  18.844   1.299  31.945 -0.1609  0.0464 -0.1036
29771W        W36371   4.513   0.979  35.662 -0.1877 -0.1281 -0.0596
29772W        W36372  12.105   0.954  45.087  0.0868  0.0145 -0.0267
29773W        W36373   7.039   2.281  27.080 -0.0233 -0.2269  0.1562
29774W        W36374   0.735   4.942  30.213  0.2920 -0.0168  0.0479
29775W        W36375   0.136   4.718   1.976 -0.0452 -0.1400 -0.0869
29776W        W36376   5.223   6.163  21.855  0.1906  0.1365 -0.3421
29777W        W36377  21.092   0.870  40.914  0.0544 -0.1337 -0.1811
29778W        W36378  16.090   2.792  33.499 -0.1465  0.1789 -0.2576
29779W        W36379  13.802   1.133  23.837  0.1803  0.1140  0.1725
29780W        W36380   3.863   2.409  14.612  0.1221 -0.0148 -0.1429
29781W        W36381   1.941   0.768  23.950 -0.0535 -0.1357  0.0669
29782W        W36382  12.835   4.395  22.728  0.4097  0.3330  0.0733
29783W        W36383   8.892   5.879  31.993 -0.5415  0.0587 -0.1104
29784W        W36384   6.160   4.093  32.445  0.1474  0.1422  0.1823
29785W        W36385  20.563   2.554  25.711 -0.1109 -0.2275 -0.0660
29786W        W36386   6.844   5.729  11.825 -0.3307 -0.0113 -0.2124
29787W        W36387  10.865   2.454  20.235 -0.0070  0.2884 -0.1000
29788W        W36388   9.995   6.163   4.472  0.0854 -0.0750  0.0873
29789W        W36389  15.984   6.211   2.599 -0.1075  0.3028 -0.0241
29790W        W36390  10.052   2.199  40.476 -0.3274  0.0906  0.1490
29791W        W36391  13.289   0.556  17.401 -0.0878 -0.1470 -0.0682
29792W        W36392   8.681   4.924  15.172 -0.0363 -0.0535 -0.1982
29793W        W36393  19.708   5.944  14.428  0.0650 -0.0979  0.1263
29794W        W36394   5.264   5.804  16.070  0.2397 -0.0390  0.1362
29795W        W36395  16.335   0.064  10.564 -0.0684 -0.4336  0.0105
29796W        W36396  12.693   2.092   0.398 -0.1319 -0.0556  0.1189
29797W        W36397  12.902   1.879  12.307  0.0999  0.3430  0.1302
29798W        W36398   2.587   0.644  37.943 -0.0589 -0.1156 -0.4545
29799W        W36399   7.039   6.189  42.456 -0.2288  0.0644  0.1597
29800W        W36400   1.571   6.293  41.044  0.0124  0.2058  0.1577
29801W        W36401  10.469   4.956  13.338  0.2197  0.0878 -0.0043
29802W        W36402   5.732   4.914  36.902 -0.0596 -0.0316  0.3837
29803W        W36403  20.720   4.020  38.883  0.0303  0.1242 -0.1999
29804W        W36404  12.669   2.969  33.306  0.1222  0.1059 -0.0873
29805W        W36405   5.496   3.273  32.628 -0.2608 -0.3581 -0.0903
29806W        W36406   7.180   3.987  15.105  0.1107 -0.0235  0.1836
29807W        W36407   9.821   5.144  32.873  0.0218  0.1942  0.0009
29808W        W36408  15.575   6.093   2.984 -0.3905  0.0393 -0.0182
29809W        W36409  11.258   0.705  18.645  0.0593 -0.2190  0.0235
29810W        W36410   3.348   2.601  42.779  0.2223 -0.0971  0.2929
29811W        W36411  19.409   6.449  38.597 -0.1080 -0.0589 -0.3038
29812W        W36412   3.190   6.455   4.766  0.0110 -0.4361 -0.0695
29813W        W36413   4.976   2.297  38.143 -0.0099 -0.0630 -0.0298
29814W        W36414   6.148   6.571   8.388 -0.0907  0.2325  0.1419
29815W        W36415   1.121   3.853  11.179  0.1165  0.1680 -0.1205
29816W        W36416  11.953   0.530  34.449  0.3160  0.0071 -0.1100
29817W        W36417   2.558   1.160  32.777 -0.1037  0.1536 -0.0589
29818W        W36418   6.952   6.154  14.906  0.0794  0.1972 -0.0604
29819W        W36419  14.117   6.396  23.869  0.1058 -0.1691 -0.1382
29820W        W36420  10.275   1.923  39.626 -0.0088  0.0870  0.1130
29821W        W36421   3.137   0.492  12.487 -0.0886  0.3066 -0.1337
29822W        W36422   2.346   6.432  25.038  0.2588  0.2273 -0.1879
29823W        W36423  17.532   3.478  16.052  0.1543 -0.0623  0.2250
29824W        W36424  10.835   1.690  13.777  0.0140  0.1585 -0.1541
29825W        W36425   9.675   5.435  30.207 -0.1685  0.1071 -0.0696
29826W        W36426  11.273   0.534  20.365  0.3292 -0.3279 -0.1949
29827W        W36427  14.452   3.669   5.838  0.1981  0.1522 -0.2226
29828W        W36428   9.250   4.479  32.413  0.2822  0.0388  0.1229
29829W        W36429  20.494   2.012  34.621 -0.1509 -0.3015 -0.1296
29830W        W36430   2.858   1.536   7.222  0.0553  0.0206 -0.0715
29831W        W36431   5.365   6.018   2.125 -0.0958  0.0585  0.2202
29832W        W36432   4.624   6.476  26.525  0.1637  0.1174 -0.1172
29833W        W36433  10.644   0.807  16.986  0.1533  0.0819 -0.1263
29834W        W36434   8.186   4.973  42.226  0.1334 -0.0400 -0.1855
29835W        W36435  11.321   4.867  29.465  0.1198  0.0017  0.0270
29836W        W36436  16.710   3.116  16.158 -0.3310 -0.0537  0.3088
29837W        W36437  21.002   3.955  44.064  0.1744  0.2612  0.0562
29838W        W36438  20.220   4.774  13.092  0.0767  0.0676 -0.0752
29839W        W36439  16.025   3.726   7.411  0.1780  0.0696 -0.1047
29840W        W36440  10.770   6.349   6.074 -0.0573  0.0357 -0.0666
29841W        W36441  11.021   4.139  29.611  0.1552  0.1446  0.2932
29842W        W36442   4.913   3.598   7.010 -0.1016  0.0177 -0.0515
29843W        W36443   2.292   3.826   3.272 -0.0736  0.0062  0.0673
29844W        W36444   3.512   1.749  36.170  0.0130  0.0172  0.2208
29845W        W36445   7.024   3.792   0.640 -0.0605  0.3326  0.3165
29846W        W36446   2.762   5.232  23.848 -0.0360  0.0584  0.0768
29847W        W36447  17.203   2.883  18.527 -0.2842  0.1820 -0.0883
29848W        W36448   3.507   6.414  10.414  0.2529 -0.0068  0.1876
29849W        W36449   9.506   3.776   0.908 -0.1480 -0.0278 -0.1965
29850W        W36450  16.432   2.389  39.675  0.2843  0.2922  0.1423
29851W        W36451   0.595   5.143  11.554  0.0583  0.1215 -0.1307
29852W        W36452   3.310   0.244  32.143 -0.2324 -0.0199 -0.0722
29853W        W36453  18.032   5.836  10.052  0.0539 -0.1884  0.0789
29854W        W36454  17.693   0.015  41.195 -0.0827 -0.2610  0.0308
29855W        W36455   2.886   3.464  34.207 -0.0722 -0.0045  0.1624
29856W        W36456  12.014   2.128   3.881  0.1754 -0.1482  0.2376
29857W        W36457  10.674   2.393  39.640 -0.0452  0.1553 -0.1490
29858W        W36458  12.351   0.837  16.181 -0.0496 -0.2731  0.0023
29859W        W36459  14.798   4.465   9.171  0.0401 -0.2567 -0.1743
29860W        W36460  17.047   0.941  29.158  0.0875 -0.1225  0.0419
29861W        W36461  21.027   3.832   8.759 -0.0013 -0.2095 -0.1115
29862W        W36462  12.318   4.967  35.600 -0.2939  0.4742 -0.0934
29863W        W36463   4.964   2.141  13.428  0.1561  0.1082 -0.1039
29864W        W36464   7.663   6.559  32.912  0.0046  0.1111  0.0115
29865W        W36465  14.874   1.767  41.176 -0.0559 -0.1259  0.1238
29866W        W36466  14.706   2.443  43.870  0.1873 -0.2595 -0.0694
29867W        W36467  21.049   1.241  43.054 -0.2409  0.0894 -0.0587
29868W        W36468   9.439   2.108  27.955  0.0261 -0.0256  0.1347
29869W        W36469  13.726   2.477  13.845  0.0720  0.0727 -0.1056
29870W        W36470   1.647   1.154   6.129 -0.0461 -0.2673 -0.2020
29871W        W36471  15.773   3.877  16.751  0.2156  0.0144  0.1002
29872W        W36472   3.594   3.795  20.079  0.2628 -0.0170  0.0967
29873W        W36473   3.534   5.612   9.699  0.1564 -0.2264 -0.2079
29874W        W36474  19.611   0.564   5.386 -0.1694  0.1407 -0.1014
29875W        W36475   8.602   1.213   7.955 -0.0193 -0.0263 -0.3585
29876W        W36476   7.223   1.328  29.276 -0.1380 -0.0416  0.0060
29877W        W36477   1.376   6.186  43.016 -0.1548 -0.0171  0.0362
29878W        W36478  15.816   3.846   5.286 -0.0552  0.0222  0.3781
29879W        W36479   4.831   3.523  24.884 -0.0053  0.2899 -0.2807
29880W        W36480  12.997   2.731  42.605  0.1742  0.1856 -0.0929
29881W        W36481   8.609   3.385  39.944  0.1199  0.2320 -0.2879
29882W        W36482   4.026   2.036   4.308  0.1333 -0.2003 -0.4941
29883W        W36483   0.251   1.069  38.859 -0.0323 -0.1747  0.1569
29884W        W36484   5.050   5.094   5.001  0.0285  0.3492 -0.0563
29885W        W36485  11.058   4.146  18.191  0.1782 -0.0052  0.0818
29886W        W36486   7.578   1.882  42.746 -0.0696 -0.2735  0.0773
29887W        W36487   4.316   2.379  29.830 -0.0886 -0.1158 -0.0917
29888W        W36488  12.172   2.281  31.823 -0.1074 -0.0961 -0.0084
29889W        W36489   7.668   4.110  16.442 -0.0407  0.2870 -0.0693
29890W        W36490  17.549   1.823  36.028 -0.2648  0.0420 -0.0679
29891W        W36491  19.908   2.313  36.947  0.0287  0.0821 -0.3534
29892W        W36492  15.230   0.697  10.520 -0.2347  0.0779  0.0749
29893W        W36493  16.042   5.096   4.440 -0.2921  0.0309  0.1002
29894W        W36494   5.881   6.009  41.128  0.0441 -0.0616  0.0004
29895W        W36495  18.451   5.452  35.612 -0.3232  0.1345  0.0757
29896W        W36496   0.434   6.402   5.841 -0.0418 -0.3180  0.1570
29897W        W36497  11.233   2.416  41.069 -0.1743 -0.2882 -0.2254
29898W        W36498  19.823   5.424  31.342 -0.2237  0.1413  0.1750
29899W        W36499   3.908   3.627  15.775  0.0465  0.1715 -0.0609
29900W        W36500   4.679   2.785  41.575 -0.4237  0.0668  0.0085
29901W        W36501   5.592   3.833  10.056  0.1906 -0.4229 -0.0979
29902W        W36502  11.210   3.345   3.784  0.0035 -0.0785 -0.2781
29903W        W36503  20.683   4.264  37.944  0.1142 -0.0064  0.1988
29904W        W36504  18.037   6.331  32.508 -0.0976 -0.1047 -0.1082
29905W        W36505   4.691   3.354  14.539 -0.0049 -0.1763 -0.1106
29906W        W36506   2.885   0.851  29.423  0.0873 -0.1046  0.1149
29907W        W36507  16.961   1.722   9.295 -0.0585 -0.1360 -0.1156
29908W        W36508   1.063   6.113  14.609 -0.0078  0.0487  0.0019
29909W        W36509  10.419   5.632  15.338  0.0039  0.3126  0.1831
29910W        W36510   5.416   0.671  15.961 -0.1155 -0.2783 -0.0883
29911W        W36511  11.249   1.903  36.275  0.0953 -0.0882 -0.1986
29912W        W36512  18.385   3.970  21.256 -0.0419  0.1969  0.1266
29913W        W36513   4.588   3.905  14.691 -0.1437  0.0068 -0.0612
29914W        W36514  10.955   1.625  33.978  0.0905  0.1739  0.2772
29915W        W36515  10.159   5.815  31.524  0.4341  0.1451  0.0400
29916W        W36516   4.235   4.843   1.538 -0.0929  0.1323  0.3359
29917W        W36517  17.350   5.541   7.893 -0.4100  0.2460 -0.2788
29918W        W36518   2.418   1.550  39.778  0.0252 -0.0481  0.1828
29919W        W36519   6.481   4.345  12.970  0.0687 -0.0925 -0.0200
29920W        W36520   0.070   3.940  39.139  0.1231 -0.3046 -0.1463
29921W        W36521  15.654   5.521  17.750 -0.1437 -0.0490  0.2566
29922W        W36522  11.695   0.652   0.199  0.0153 -0.3965  0.1629
29923W        W36523  18.489   5.729  37.938  0.0926 -0.0625 -0.0382
29924W        W36524   0.018   0.177   2.677 -0.2097  0.0029 -0.3421
29925W        W36525  19.321   4.380   3.251  0.2135 -0.1065  0.1156
29926W        W36526   3.662   5.831  18.538 -0.0322  0.3066  0.1625
29927W        W36527  19.484   2.161  36.135  0.3558  0.0302 -0.2663
29928W        W36528   4.127   4.299  29.030  0.1914  0.0333  0.0532
29929W        W36529  12.035   4.601   2.506 -0.0736  0.0415 -0.1596
29930W        W36530  18.318   2.032  13.911  0.0652  0.2288 -0.1272
29931W        W36531  20.649   0.462   1.352 -0.1466  0.1949  0.0885
29932W        W36532   9.907   3.830  11.014 -0.1621 -0.1677 -0.1105
29933W        W36533  20.826   2.784  25.369  0.0104  0.2523  0.1805
29934W        W36534  11.670   0.211  35.521  0.0272  0.1139 -0.0171
29935W        W36535  15.222   3.236  12.509  0.0206 -0.1494  0.2609
29936W        W36536   1.370   4.614  27.126  0.1591 -0.0329  0.4543
29937W        W36537  13.662   3.164  21.913  0.2004  0.3307  0.0326
29938W        W36538   2.920   5.095  42.481 -0.0566  0.0163  0.0643
29939W        W36539  14.312   6.215   8.475 -0.1171  0.1090 -0.0680
29940W        W36540   6.094   3.933   2.726  0.0033  0.2435  0.0572
29941W        W36541   3.742   1.707  40.084 -0.1248  0.1562 -0.1326
29942W        W36542   2.107   2.393  11.146  0.0361 -0.2354 -0.0788
29943W        W36543   6.614   2.987  32.218  0.0014  0.0523  0.0638
29944W        W36544  13.079   6.462  16.679  0.2068 -0.1213  0.1296
29945W        W36545  17.792   5.843  42.932 -0.1160  0.0873  0.2284
29946W        W36546   0.900   0.877  11.161  0.1879 -0.0795 -0.0926
29947W        W36547  20.364   2.044   9.714  0.1304 -0.0549  0.1056
29948W        W36548  11.887   0.035  39.400  0.2012 -0.1933 -0.4000
29949W        W36549   2.327   2.916  40.256 -0.2455  0.2920  0.1677
29950W        W36550  18.091   5.265  11.425  0.1253 -0.0406  0.2420
29951W        W36551   9.258   1.601  39.554  0.0835 -0.1613  0.0530
29952W        W36552   9.346   0.102   2.273  0.2158 -0.2949 -0.3811
29953W        W36553  16.437   2.314   9.022  0.4220 -0.0460  0.2489
29954W        W36554   4.938   6.475  14.004 -0.0178  0.0743  0.1374
29955W        W36555  20.601   5.955  16.918  0.0475 -0.1403  0.0342
29956W        W36556   8.818   5.828  18.078  0.1270 -0.1630 -0.0606
29957W        W36557  15.258   1.249  13.943  0.1599 -0.2017 -0.0338
29958W        W36558  19.143   3.537  30.077 -0.1315  0.0455 -0.0470
29959W        W36559   3.090   0.971  25.944  0.1946 -0.3643  0.0158
29960W        W36560   2.648   3.888  10.939 -0.2036  0.1811  0.0640
29961W        W36561  11.125   6.072  31.655 -0.1209 -0.0291 -0.0610
29962W        W36562  17.205   0.660   2.049 -0.3543  0.0770 -0.0718
29963W        W36563  11.120   0.947  36.456 -0.0027  0.2918  0.1499
29964W        W36564   0.819   2.638  14.322 -0.2701 -0.2327 -0.2142
29965W        W36565  18.181   4.397  11.488 -0.0884  0.1320 -0.0640
29966W        W36566   9.998   6.540  15.317 -0.0640 -0.0646 -0.0964
29967W        W36567   0.887   6.252   6.593  0.2274 -0.1927  0.1050
29968W        W36568   6.366   5.839   0.219  0.0005 -0.0676  0.3030
29969W        W36569  15.094   4.306  35.458  0.0102 -0.0459  0.2535
29970W        W36570   4.722   6.279   5.983 -0.1935  0.2181  0.0017
29971W        W36571   6.013   5.536  29.512  0.1632 -0.1147 -0.1361
29972W        W36572  15.624   3.516   6.796 -0.1597 -0.3831 -0.1808
29973W        W36573   4.596   3.629  15.131 -0.1696 -0.2339  0.4603
29974W        W36574   5.507   2.115  28.671  0.2515 -0.1028 -0.0009
29975W        W36575  11.305   3.268  38.985  0.1066  0.0902  0.1098
29976W        W36576   4.515   6.342  23.586 -0.1057  0.0474  0.0076
29977W        W36577  14.146   4.324  31.944 -0.1915 -0.0694  0.0827
29978W        W36578   6.639   5.552  38.082  0.0598 -0.2853  0.0167
29979W        W36579   4.263   5.487  33.462  0.3076  0.1938 -0.0116
29980W        W36580   4.030   1.823  30.028  0.0077 -0.1240  0.0074
29981W        W36581  12.756   0.207  39.506 -0.3344  0.1729 -0.0872
29982W        W36582  20.440   5.399  44.721  0.0924  0.0279 -0.0713
29983W        W36583   6.724   3.370  26.730 -0.3347  0.3288  0.0984
29984W        W36584   2.295   4.851   0.554  0.2070 -0.1619  0.1619
29985W        W36585   2.279   1.979  38.021 -0.0538  0.2463 -0.2154
29986W        W36586   2.662   6.249   8.038  0.0222 -0.0036 -0.0739
29987W        W36587  17.204   3.699  44.101 -0.0685  0.0726  0.0221
29988W        W36588   1.479   4.156  39.346 -0.0680  0.0084  0.1314
29989W        W36589  14.941   2.042  13.324  0.0181  0.0296  0.2784
29990W        W36590  11.377   2.181  29.563  0.1113 -0.4064  0.0415
29991W        W36591  13.048   2.244  20.204 -0.1570  0.1350  0.0410
29992W        W36592  14.145   4.549  38.151  0.1251 -0.0014 -0.1087
29993W        W36593  18.770   1.651  35.129  0.2264 -0.0411  0.0853
29994W        W36594   8.805   3.947  29.717 -0.0006  0.0758 -0.0617
29995W        W36595  16.939   3.449  13.124 -0.2133  0.1165  0.1917
29996W        W36596   3.163   4.920  39.545  0.0428 -0.1415 -0.0255
29997W        W36597   0.354   6.029  40.439 -0.2879  0.1175  0.3170
29998W        W36598   7.502   2.832  40.274  0.1840 -0.1200  0.0555
29999W        W36599  20.896   0.795  38.166  0.0067 -0.4620 -0.0939
30000W        W36600   9.805   3.013  39.544  0.1164 -0.1204  0.0159
30001W        W36601   1.617   0.613   9.147  0.0368 -0.1149  0.0641
30002W        W36602   6.558   3.419  13.166  0.0803  0.1599  0.0693
30003W        W36603  19.821   1.382  36.990 -0.2739 -0.1739 -0.0204
30004W        W36604   1.671   4.309  23.688 -0.1507  0.1253  0.1488
30005W        W36605   1.365   5.426  27.108  0.1815 -0.0695 -0.2536
30006W        W36606  16.555   1.896  11.074 -0.1555 -0.1003 -0.1380
30007W        W36607  17.421   1.999   7.431  0.0185 -0.0857  0.2288
30008W        W36608   0.267   4.537  15.315  0.0536  0.1719 -0.1159
30009W        W36609   1.309   3.122  40.275  0.0541  0.2421 -0.1767
30010W        W36610  13.114   6.342  21.093  0.0114 -0.2118 -0.0897
30011W        W36611   0.881   6.266  15.817 -0.0400  0.1259 -0.1386
30012W        W36612   0.333   3.939  24.587 -0.1554 -0.0939  0.1326
30013W        W36613   7.097   3.704   2.983 -0.0339  0.3188 -0.1505
30014W        W36614  19.859   2.774  36.446  0.1432 -0.2472  0.2841
30015W        W36615   3.129   1.919  41.043  0.2118  0.0496 -0.4493
30016W        W36616  13.416   3.624  39.915 -0.0331 -0.2050  0.0588
30017W        W36617   6.925   2.069  26.194 -0.1945 -0.2590 -0.4000
30018W        W36618  18.690   3.622  33.730 -0.1780 -0.0143 -0.3482
30019W        W36619  18.859   5.164  41.924 -0.0179  0.1585 -0.3799
30020W        W36620   1.621   0.295  35.519 -0.0265 -0.0155  0.3076
30021W        W36621  14.794   1.757  19.642  0.1039 -0.0632 -0.1774
30022W        W36622   8.008   1.560  29.580  0.1188 -0.2394  0.2666
30023W        W36623   4.551   5.091  34.560 -0.2024  0.1938 -0.1134
30024W        W36624  12.359   0.348   3.949  0.2255  0.0322  0.0496
30025W        W36625  19.750   4.424  13.968  0.1667 -0.0667 -0.4537
30026W        W36626   2.538   2.995  23.470  0.0084 -0.1818 -0.2726
30027W        W36627  15.504   3.996  11.740  0.0138  0.1957 -0.0085
30028W        W36628   4.843   1.405  28.950  0.1471 -0.1280  0.0246
30029W        W36629   7.392   2.568  29.465  0.3399 -0.2011 -0.3511
30030W        W36630  18.980   1.078  34.622  0.2283 -0.1894 -0.0052
30031W        W36631  15.579   4.456  16.558 -0.0528  0.0343 -0.1272
30032W        W36632   5.873   6.204  30.623  0.0477  0.1453  0.2250
30033W        W36633  15.032   2.807  21.925 -0.1567 -0.0410 -0.2255
30034W        W36634  11.355   4.589  29.006 -0.1032 -0.0522  0.2610
30035W        W36635  11.826   0.952  13.141 -0.0116 -0.3134 -0.0214
30036W        W36636  11.121   0.787  31.609  0.0669 -0.0730 -0.1092
30037W        W36637  10.225   0.801  16.608 -0.2184  0.0974 -0.1291
30038W        W36638   0.861   6.282  13.167  0.1838 -0.3030 -0.3391
30039W        W36639   2.091   5.575  44.653  0.0306 -0.2006 -0.1754
30040W        W36640  14.609   6.034   3.403  0.0065 -0.0642 -0.1723
30041W        W36641   1.727   0.838  16.360 -0.0522 -0.2552  0.0362
30042W        W36642  13.992   1.166  34.542  0.0801  0.2751  0.0724
30043W        W36643  10.653   5.872  35.523  0.4566  0.0722  0.2994
30044W        W36644   1.612   2.876  15.110  0.0723 -0.2189 -0.1495
30045W        W36645   6.952   4.169  41.421  0.2847 -0.3975 -0.0613
30046W        W36646  12.055   6.484  36.865  0.2142  0.1537 -0.2762
30047W        W36647   5.579   0.770  32.346  0.0416  0.1690 -0.0224
30048W        W36648   9.561   0.859  26.677  0.1720 -0.0021 -0.1845
30049W        W36649  20.957   4.080  40.041 -0.1228 -0.1205 -0.0904
30050W        W36650   5.775   2.720   6.249 -0.1680  0.3715 -0.1164
30051W        W36651  20.711   6.485  37.632  0.0195  0.2763  0.0742
30052W        W36652   3.949   0.601  35.445 -0.1969  0.0786 -0.1515
30053W        W36653  12.184   2.147  28.523 -0.1381  0.1372 -0.1452
30054W        W36654   5.760   4.664   3.605  0.1175 -0.0753 -0.1817
30055W        W36655   7.174   1.184  31.250 -0.0306 -0.0502  0.1049
30056W        W36656   3.813   3.478   6.744  0.2070  0.1968 -0.0624
30057W        W36657  12.778   3.756   8.275 -0.1625 -0.1465  0.0038
30058W        W36658  17.721   2.495  18.485  0.0231 -0.0138  0.0990
30059W        W36659   4.841   5.255  44.292  0.1192 -0.2050  0.1616
30060W        W36660  10.501   3.848   6.074 -0.2277  0.1967  0.0483
30061W        W36661   3.705   6.308  42.004 -0.0749 -0.0796  0.2355
30062W        W36662  13.431   1.256   8.734  0.2987 -0.1893  0.0425
30063W        W36663   2.802   1.375  24.529  0.2688  0.0422  0.1787
30064W        W36664  17.380   0.257  13.351  0.0176  0.1462  0.0419
30065W        W36665  13.570   0.760  20.624  0.2415 -0.0626 -0.1496
30066W        W36666  14.260   1.860  43.408  0.0286  0.1504  0.2145
30067W        W36667  10.832   0.142  31.117 -0.2990  0.1655  0.0610
30068W        W36668   1.992   3.368  41.941 -0.1341  0.2834  0.0384
30069W        W36669   9.792   3.781  35.711 -0.0366 -0.1204 -0.1457
30070W        W36670  12.483   2.329   7.343  0.3741 -0.0082  0.1541
30071W        W36671   3.309   4.462  28.362  0.3453 -0.1224  0.0815
30072W        W36672   1.907   3.584   1.234 -0.3901 -0.0283 -0.0074
30073W        W36673   3.843   3.632  31.917  0.0746  0.0267 -0.0982
30074W        W36674   4.196   3.967  20.578 -0.0024  0.2795  0.0648
30075W        W36675  14.598   6.427  45.039  0.1565 -0.0352 -0.1800
30076W        W36676  12.935   4.775  32.924 -0.1171 -0.2159 -0.1955
30077W        W36677   4.742   5.385  15.685 -0.0610 -0.1173  0.0818
30078W        W36678   0.345   2.836  34.775 -0.2954 -0.1827  0.1978
30079W        W36679  15.983   1.739  12.201 -0.2140 -0.1502  0.1759
30080W        W36680  19.587   1.996  42.482  0.2995  0.0326 -0.0693
30081W        W36681   6.839   3.415   4.366 -0.1203 -0.1911 -0.3487
30082W        W36682   3.539   6.546  13.777  0.0658  0.1101 -0.1453
30083W        W36683   7.950   4.722  41.407  0.2609 -0.1756  0.1636
30084W        W36684   9.620   1.340  34.429  0.0939 -0.0909 -0.4302
30085W        W36685  21.107   0.697   2.380 -0.0635 -0.0013 -0.0648
30086W        W36686   8.447   6.539  43.161  0.1809 -0.0626 -0.1083
30087W        W36687   7.176   4.651  35.262 -0.1133 -0.1479  0.0675
30088W        W36688   4.242   3.520   9.697 -0.2729  0.0401  0.2598
30089W        W36689  12.934   2.820  13.303  0.1874  0.1586 -0.2454
30090W        W36690   1.883   5.942  24.137 -0.0991 -0.0350  0.1613
30091W        W36691   3.327   0.438  39.644 -0.0075 -0.2941 -0.2407
30092W        W36692  12.803   2.821  21.834 -0.1503  0.1789  0.0345
30093W        W36693  13.971   5.165   5.013 -0.0415 -0.1437  0.1827
30094W        W36694  17.157   6.520  41.976  0.1857 -0.1902 -0.0099
30095W        W36695   1.256   1.114   4.444  0.2340 -0.0881 -0.3100
30096W        W36696  20.127   1.468  28.720  0.0669  0.0233  0.0992
30097W        W36697   5.119   0.627   7.391  0.0239  0.0301 -0.3087
30098W        W36698   4.554   0.443   2.693  0.1425  0.1163  0.1769
30099W        W36699  21.130   5.490  13.578 -0.0275  0.0521  0.1623
30100W        W36700   2.002   0.648  10.622 -0.0060  0.0450 -0.1746
30101W        W36701   3.137   4.542  33.866  0.1206  0.1027 -0.1545
30102W        W36702  13.496   1.281  44.099 -0.1251 -0.1954 -0.1898
30103W        W36703   8.014   0.768  29.053  0.0694 -0.2363 -0.2389
30104W        W36704  18.305   3.768   4.444  0.1813  0.0799  0.2692
30105W        W36705  12.427   5.626  13.694 -0.1104 -0.2546 -0.1217
30106W        W36706   7.314   4.015  31.065 -0.2390 -0.1150  0.2616
30107W        W36707  12.878   5.280  31.993 -0.4213  0.1069 -0.1017
30108W        W36708   1.211   0.154  24.864 -0.1154  0.4761 -0.2385
30109W        W36709   5.038   2.569  44.795  0.0116  0.5229  0.1671
30110W        W36710   6.038   0.711  26.486 -0.1077  0.0080 -0.0694
30111W        W36711   1.804   6.519   1.420 -0.1115 -0.1363  0.0016
30112W        W36712   1.697   3.290  30.982  0.2350  0.1588  0.1492
30113W        W36713   5.445   5.357  23.058 -0.0826  0.0467 -0.1495
30114W        W36714   1.066   0.603   5.538 -0.1853  0.0596  0.2446
30115W        W36715   0.435   4.781  36.298  0.2084  0.0043 -0.1911
30116W        W36716   0.534   0.659  28.085 -0.1248  0.2808  0.3802
30117W        W36717  19.928   1.660   8.263 -0.0287  0.0295 -0.1773
30118W        W36718  16.806   0.096  18.366  0.0294 -0.1237  0.2255
30119W        W36719  15.567   2.950  40.739  0.1339 -0.1600 -0.2831
30120W        W36720  12.743   3.345   6.331 -0.0581  0.2851  0.0297
30121W        W36721  16.010   2.845   2.120 -0.1100 -0.1520 -0.0659
30122W        W36722   4.722   1.448  25.186 -0.0151 -0.1877  0.1070
30123W        W36723  19.271   5.127  18.242  0.1361 -0.0487  0.2807
30124W        W36724   2.487   2.995   7.192 -0.3389 -0.0351 -0.0028
30125W        W36725  19.684   3.531  42.858  0.2534 -0.0711 -0.2238
30126W        W36726   6.767   3.209  39.777 -0.0086  0.2559  0.3383
30127W        W36727   5.559   3.977  23.789 -0.0735 -0.2699 -0.0518
30128W        W36728   0.634   1.008  37.692 -0.1835  0.0222 -0.1682
30129W        W36729   4.089   0.315  44.440 -0.0102 -0.1063  0.1643
30130W        W36730   5.435   4.824  26.048  0.0950 -0.0506 -0.0411
30131W        W36731   3.116   6.273  20.627 -0.2976 -0.0901  0.0585
30132W        W36732   3.285   4.933  11.998 -0.5943  0.2624 -0.1368
30133W        W36733   2.833   0.973  21.030  0.2728 -0.1128  0.1091
30134W        W36734   3.759   1.753   4.026  0.3715  0.0337  0.0987
30135W        W36735   1.433   6.297  12.495  0.3360  0.0467 -0.0564
30136W        W36736   6.928   3.483  13.976  0.1319  0.0969  0.0138
30137W        W36737  18.466   1.147  35.448  0.1270 -0.1498  0.1385
30138W        W36738   9.402   1.375  11.354  0.0895  0.2429 -0.0262
30139W        W36739  14.132   1.153   9.187 -0.0176  0.2129 -0.0013
30140W        W36740  19.409   5.448  17.293 -0.0954 -0.1531  0.0585
30141W        W36741  15.194   5.755  43.737  0.2352 -0.1738 -0.1692
30142W        W36742  19.987   0.840  35.322  0.3131  0.0343  0.2840
30143W        W36743   5.468   6.137   9.586  0.1625 -0.2079  0.0313
30144W        W36744   7.589   0.232  39.914  0.0748 -0.2670  0.2668
30145W        W36745   8.832   6.308  18.014 -0.1978  0.0147 -0.1718
30146W        W36746  16.254   2.304   0.388  0.0304  0.0299 -0.1526
30147W        W36747   1.093   2.544  26.765  0.1951 -0.1551 -0.2124
30148W        W36748   2.353   5.350   5.002  0.2017  0.1147 -0.2858
30149W        W36749   2.787   3.260   9.759 -0.2429  0.0020 -0.0412
30150W        W36750   0.851   0.299  39.241  0.0568  0.0567  0.0222
30151W        W36751  15.827   1.112  29.667  0.1633  0.1267 -0.1188
30152W        W36752   4.024   1.582   3.054 -0.1498  0.0721 -0.2134
30153W        W36753   7.413   2.865   2.356  0.1354  0.1152  0.2490
30154W        W36754  10.150   1.588   2.000 -0.0359  0.3693 -0.3853
30155W        W36755  14.329   3.556  23.820 -0.0120  0.0904 -0.0364
30156W        W36756  13.353   3.975  31.748 -0.3540  0.1086 -0.2274
30157W        W36757  17.769   0.511  40.033 -0.1181 -0.0856  0.0309
30158W        W36758   5.824   4.759   7.818 -0.1505 -0.2258 -0.3917
30159W        W36759   4.356   0.502  29.278  0.0011  0.1978 -0.1691
30160W        W36760  14.627   4.914   0.044  0.2354  0.1791  0.0142
30161W        W36761  19.524   0.699  35.371 -0.0281 -0.1391  0.1232
30162W        W36762   8.387   2.804  11.908  0.4201  0.0493 -0.2455
30163W        W36763  11.437   4.760  19.304  0.2104 -0.3253  0.0766
30164W        W36764   1.340   1.648  42.977  0.0654  0.0127  0.1486
30165W        W36765  20.053   3.326  18.738 -0.0649 -0.3246  0.0701
30166W        W36766  14.399   4.316   6.671 -0.0297 -0.0724  0.0349
30167W        W36767  20.146   0.937  41.153 -0.1189  0.3596 -0.0670
30168W        W36768  15.128   4.809   7.982 -0.0695 -0.2971 -0.2188
30169W        W36769  18.482   0.841   6.745 -0.1670  0.0880  0.0699
30170W        W36770  16.985   0.577   4.536  0.5280  0.3705 -0.1666
30171W        W36771  20.942   4.461   9.248 -0.0429  0.0276  0.2134
30172W        W36772   7.789   0.960  24.997  0.2968 -0.1559 -0.0347
30173W        W36773   7.438   6.046  43.106 -0.2616 -0.2505 -0.0010
30174W        W36774   4.945   1.501  32.824  0.0918  0.0568 -0.0853
30175W        W36775   0.096   1.901   6.679  0.0912  0.1243  0.0700
30176W        W36776   8.451   5.363   3.971  0.0995  0.1389 -0.4127
30177W        W36777  17.922   0.520  30.143  0.2390 -0.2828  0.2181
30178W        W36778   1.848   6.179  22.521  0.2807  0.2181  0.2579
30179W        W36779  16.053   5.280   8.854 -0.0274 -0.0687 -0.1358
30180W        W36780  15.630   1.886   8.650  0.0687  0.1279 -0.3074
30181W        W36781   0.393   0.745  32.785 -0.1818 -0.1101 -0.0059
30182W        W36782  19.397   6.021  15.163  0.3107  0.0425 -0.0304
30183W        W36783  12.312   4.015  40.660 -0.1537  0.0332  0.1626
30184W        W36784   0.418   2.135   6.133 -0.1004  0.0725  0.0543
30185W        W36785  14.789   6.560  32.082 -0.2630 -0.0551 -0.2960
30186W        W36786  14.323   2.782   2.448  0.1044  0.0401  0.0117
30187W        W36787   1.133   1.560  25.389  0.3842  0.1002  0.3448
30188W        W36788   8.569   5.887  15.301  0.0817 -0.0779  0.0603
30189W        W36789  15.862   6.050  40.103 -0.0247 -0.1443 -0.1410
30190W        W36790   1.066   0.900  30.028  0.0810 -0.1486 -0.0841
30191W        W36791   7.419   0.394  36.898  0.0048 -0.0773 -0.1094
30192W        W36792   1.140   2.393  12.193  0.2000 -0.0129 -0.0492
30193W        W36793   6.944   6.375  16.295 -0.1855  0.3947 -0.0516
30194W        W36794  18.199   2.689  14.955 -0.3485  0.0351 -0.1269
30195W        W36795   3.241   1.901  21.501 -0.1158 -0.1975  0.0611
30196W        W36796   4.469   3.280   7.096 -0.1471 -0.1692 -0.0118
30197W        W36797  15.447   5.268  17.385 -0.0151  0.0898  0.0649
30198W        W36798  12.386   1.149  34.859 -0.1701  0.0077  0.0787
30199W        W36799  11.339   3.375  35.060  0.2091 -0.2247 -0.0461
30200W        W36800   3.194   3.890  37.076  0.2447  0.1558  0.5560
30201W        W36801  11.706   4.274  15.334  0.0140  0.1027 -0.1702
30202W        W36802  20.260   6.573  16.070 -0.2470  0.0151  0.1222
30203W        W36803  20.694   4.447  26.691  0.2230 -0.1143 -0.0530
30204W        W36804   6.059   3.630  28.254 -0.1080 -0.0021 -0.1312
30205W        W36805  20.123   1.249   7.451  0.2715 -0.2655  0.2250
30206W        W36806  13.251   4.354  29.438  0.1681  0.2523 -0.2105
30207W        W36807  11.093   5.719  31.952 -0.0125  0.2000  0.1312
30208W        W36808  16.814   4.225  34.270 -0.2551  0.3315 -0.2231
30209W        W36809   4.060   2.849  44.422  0.3379 -0.0198  0.0122
30210W        W36810  13.379   0.059  37.717 -0.2788 -0.1059  0.0254
30211W        W36811  20.028   3.739  28.783 -0.0568  0.0342  0.0610
30212W        W36812  16.681   2.585  14.837 -0.1529 -0.0973  0.0116
30213W        W36813  14.318   4.599  24.136  0.0455 -0.4603 -0.0930
30214W        W36814  10.257   4.651  30.754 -0.0288 -0.2008  0.1403
30215W        W36815  11.027   2.839   5.252 -0.0555  0.1960  0.0555
30216W        W36816   6.611   5.207  27.960 -0.2348 -0.0012  0.3248
30217W        W36817   7.612   0.352  17.350 -0.1376  0.4370 -0.0288
30218W        W36818  17.609   5.242  41.734 -0.1336 -0.0047  0.1567
30219W        W36819   1.195   0.225  31.103  0.1635 -0.0169  0.0363
30220W        W36820   4.743   5.934  25.963 -0.0652  0.0162 -0.0165
30221W        W36821  20.560   0.317  15.352 -0.0242  0.0775  0.0003
30222W        W36822   8.629   3.062  28.756  0.0710  0.0527  0.2072
30223W        W36823   6.975   4.654   8.974  0.0149  0.0618  0.2433
30224W        W36824  11.636   1.818  13.332  0.1314  0.1022 -0.2369
30225W        W36825   1.628   6.013  14.343 -0.0078  0.0005  0.0886
30226W        W36826   0.976   1.381   7.111 -0.2576  0.3556 -0.0610
30227W        W36827  20.251   4.275  33.446  0.0550  0.0954  0.3059
30228W        W36828  11.720   0.086  38.521  0.0868 -0.0590 -0.0343
30229W        W36829  10.081   0.460   7.176  0.0627 -0.3441  0.1699
30230W        W36830   0.467   6.388  28.465 -0.1595 -0.0764 -0.0719
30231W        W36831  11.783   5.299  37.732  0.2021 -0.0277  0.1122
30232W        W36832   7.033   2.760  27.131  0.1013  0.0084  0.1548
30233W        W36833  13.645   2.781  38.863  0.0572  0.1274  0.2652
30234W        W36834  14.061   5.142  34.316  0.0259  0.3423 -0.0657
30235W        W36835   7.946   5.857  38.442 -0.1145  0.0107 -0.0444
30236W        W36836  18.126   1.527   4.294  0.2576  0.1682 -0.2352
30237W        W36837  14.598   6.510  34.464 -0.1963  0.0377 -0.1897
30238W        W36838  20.045   4.750   8.913 -0.3482 -0.4370 -0.3227
30239W        W36839   3.871   1.027  31.294  0.1771  0.4077 -0.0731
30240W        W36840  19.505   6.593  10.803 -0.1050 -0.1223 -0.0514
30241W        W36841  16.163   3.164  42.526  0.1731  0.3184 -0.0414
30242W        W36842   6.350   3.539  11.446  0.3066  0.1163  0.0413
30243W        W36843   7.317   1.634   7.541  0.0023  0.1231 -0.2239
30244W        W36844   3.821   6.472  22.445 -0.1034  0.2033  0.1949
30245W        W36845   3.829   0.398  36.838  0.0510  0.1667  0.0595
30246W        W36846  12.347   5.794  28.811 -0.0945 -0.1681 -0.1572
30247W        W36847   1.936   5.251  34.988 -0.0045 -0.0557 -0.1978
30248W        W36848   6.834   0.440   4.837  0.1430  0.1580  0.1562
30249W        W36849  11.248   6.600  37.386  0.0679 -0.2461  0.0619
30250W        W36850  19.303   0.957  16.628  0.1758 -0.3136 -0.1800
30251W        W36851  16.547   0.419  21.523 -0.1564 -0.1620  0.0263
30252W        W36852  16.906   0.918  10.425  0.0326 -0.0234  0.0858
30253W        W36853   7.324   4.163  43.458 -0.1543 -0.2431  0.0510
30254W        W36854  12.636   1.123   7.451 -0.1359 -0.0070  0.0547
30255W        W36855   8.800   3.906  10.113  0.3088 -0.4042  0.1876
30256W        W36856  10.144   2.444   4.614  0.3096  0.0603 -0.4117
30257W        W36857  14.870   6.542  10.683 -0.2496 -0.0345 -0.0914
30258W        W36858   7.296   2.471  26.244  0.2998 -0.2523 -0.0487
30259W        W36859   4.376   2.632   6.815  0.1957  0.1461  0.2029
30260W        W36860  14.253   5.629  21.718 -0.1516  0.0173 -0.0558
30261W        W36861  20.168   0.110   4.709  0.3168  0.2430 -0.1299
30262W        W36862  19.430   4.398   5.844 -0.0785 -0.2348 -0.1078
30263W        W36863  15.864   1.084   6.170 -0.2538  0.4012 -0.0885
30264W        W36864  10.076   4.328  40.421 -0.0126  0.1975 -0.1902
30265W        W36865   7.154   5.681  40.894 -0.1181  0.0123 -0.0937
30266W        W36866   1.520   4.913  44.367  0.1573  0.1935 -0.1988
30267W        W36867  12.865   0.857  30.508 -0.3361 -0.3935 -0.1285
30268W        W36868   8.335   2.821   9.135 -0.3608  0.0547 -0.0497
30269W        W36869  10.835   5.830  14.151  0.3654  0.0832 -0.2006
30270W        W36870   6.371   1.595  33.941  0.1084 -0.1666  0.3947
30271W        W36871  20.365   4.542  30.588 -0.0506 -0.0197  0.2975
30272W        W36872   6.194   3.457  30.373  0.0129 -0.0902 -0.0498
30273W        W36873  18.956   3.206   3.526 -0.1496 -0.0169 -0.1786
30274W        W36874   5.162   6.111  41.723  0.2090 -0.0803 -0.3922
30275W        W36875  12.082   2.670  32.234 -0.1101  0.1901 -0.1899
30276W        W36876  16.733   1.155  36.561 -0.0481 -0.3395  0.2350
30277W        W36877  19.826   5.919  30.541  0.2144 -0.0127 -0.2092
30278W        W36878  16.394   5.224  30.623  0.1699 -0.0390  0.0585
30279W        W36879   3.495   3.064  42.802  0.2289  0.0059 -0.0210
30280W        W36880  14.759   2.471  35.010  0.2523 -0.0715 -0.2590
30281W        W36881   1.787   4.508  35.253  0.0370  0.0576  0.1190
30282W        W36882  16.543   1.587   7.270  0.4251  0.2077 -0.1922
30283W        W36883  14.233   4.525  35.984 -0.1740  0.0460  0.1146
30284W        W36884   2.513   4.646  38.118  0.0999 -0.3973  0.0899
30285W        W36885  15.712   3.818  17.276  0.0911 -0.1374  0.0626
30286W        W36886  14.402   4.918  32.725  0.1350 -0.1094  0.0504
30287W        W36887  13.911   1.543   3.000 -0.0070 -0.2029  0.3270
30288W        W36888  13.273   0.664  40.852 -0.1504  0.0752 -0.0240
30289W        W36889  12.845   0.873  31.311  0.2626 -0.1327  0.0979
30290W        W36890   4.763   2.746  30.945 -0.0894 -0.2026 -0.0741
30291W        W36891  19.552   4.563  34.978 -0.2341 -0.2241 -0.1076
30292W        W36892  17.022   0.902   8.621 -0.1115 -0.0810 -0.1555
30293W        W36893   4.319   1.437  30.034 -0.1662 -0.0128 -0.1760
30294W        W36894   3.270   4.319  32.113 -0.0631  0.0449  0.0277
30295W        W36895  14.227   3.675   4.372  0.3090 -0.1785 -0.2835
30296W        W36896  11.145   2.943  29.425  0.1930  0.1470  0.0849
30297W        W36897  20.155   3.687  36.083 -0.1133 -0.0656  0.3589
30298W        W36898  20.822   1.404   1.456  0.2380 -0.0494 -0.0532
30299W        W36899  20.297   2.505   4.567 -0.1130 -0.0612  0.3373
30300W        W36900  19.580   5.859  38.125  0.0148 -0.1334 -0.0796
30301W        W36901  12.120   0.344  42.068  0.2024  0.0421 -0.2838
30302W        W36902   8.974   5.403   0.118  0.0211  0.1156 -0.3427
30303W        W36903  17.002   1.403  41.837 -0.4665  0.2297 -0.0165
30304W        W36904  12.078   4.822  15.653 -0.3234  0.2698 -0.2037
30305W        W36905   6.035   5.303   4.165  0.0434  0.3823  0.3223
30306W        W36906   4.955   6.170  23.290  0.0907 -0.2771  0.2957
30307W        W36907   9.629   3.057  45.036  0.1749  0.3301  0.2416
30308W        W36908  14.984   3.333  20.220 -0.0899  0.2200  0.0735
30309W        W36909   8.628   0.794  26.197  0.0086  0.0166  0.2563
30310W        W36910   6.824   4.803  43.878 -0.0076  0.2769  0.0216
30311W        W36911   2.206   1.944  25.866 -0.0579 -0.0858  0.0150
30312W        W36912  16.685   5.419  19.367 -0.1209 -0.2609 -0.1874
30313W        W36913  15.224   4.219   5.122  0.2327 -0.0127  0.4114
30314W        W36914  11.420   2.928   3.849 -0.0819  0.1606  0.1626
30315W        W36915   5.081   1.876  33.729 -0.0321 -0.0284  0.0597
30316W        W36916   7.504   3.924  12.234 -0.0022  0.3102 -0.2190
30317W        W36917  17.113   4.575   6.381  0.1966 -0.1453 -0.3216
30318W        W36918   8.437   5.598   5.733 -0.1619  0.0840 -0.4647
30319W        W36919  19.675   2.688  15.076 -0.2987 -0.1470  0.2989
30320W        W36920  19.306   0.622   4.192  0.0665 -0.1843  0.2171
30321W        W36921   3.155   2.064  27.358  0.0587 -0.1164  0.3189
30322W        W36922  11.518   6.501  10.623 -0.0757  0.1951  0.0232
30323W        W36923  21.125   3.751   2.873  0.0120  0.1517  0.3556
30324W        W36924   1.481   3.928  25.448 -0.1340  0.1789 -0.2294
30325W        W36925  12.419   1.426  33.653  0.0193 -0.1052 -0.0159
30326W        W36926  18.937   3.493   5.762  0.0219  0.4000 -0.1282
30327W        W36927   4.317   1.777   2.313 -0.0464  0.0898 -0.3187
30328W        W36928   2.716   4.315  34.098 -0.2519  0.1426  0.3519
30329W        W36929   3.984   6.248  26.082 -0.1888  0.1030 -0.0152
30330W        W36930   9.790   6.514  12.454 -0.1002  0.0834 -0.0837
30331W        W36931  13.439   1.104  10.387  0.1170  0.0022  0.5062
30332W        W36932   3.190   3.528  30.466 -0.1426 -0.0500  0.1582
30333W        W36933   2.390   0.785  28.688 -0.0439 -0.1969 -0.2012
30334W        W36934   8.487   6.457   8.106 -0.1141 -0.2854  0.3659
30335W        W36935   7.719   0.154   6.355 -0.0936 -0.3479  0.0316
30336W        W36936   3.229   6.312   4.255 -0.3290 -0.1740 -0.0096
30337W        W36937   0.927   3.907   8.716 -0.1677 -0.0990  0.1779
30338W        W36938   5.862   3.800  37.909  0.2728 -0.0736 -0.2395
30339W        W36939  20.669   3.389   4.988  0.0171  0.0191  0.0827
30340W        W36940   6.834   4.634   5.636  0.3480 -0.1548 -0.1061
30341W        W36941   7.440   2.330  44.288  0.1928 -0.0937  0.1396
30342W        W36942   1.832   1.269   4.841  0.3028 -0.3639 -0.2110
30343W        W36943  17.154   6.024  41.826  0.0140 -0.0594 -0.2629
30344W        W36944   5.934   2.335  35.465 -0.1680  0.2529  0.0852
30345W        W36945   6.547   1.106  30.372 -0.2261 -0.3047  0.1694
30346W        W36946   0.534   5.501   8.175  0.3556  0.4012 -0.0125
30347W        W36947  18.856   5.210  10.485  0.2232 -0.0137  0.3366
30348W        W36948  11.523   4.068  28.314  0.0988  0.2810 -0.2245
30349W        W36949   1.805   4.117  37.666  0.0317 -0.0535  0.3151
30350W        W36950   2.686   0.198  22.354 -0.2608 -0.1311  0.0498
30351W        W36951   2.979   0.601  11.534  0.0153 -0.0050  0.0108
30352W        W36952  10.351   5.128  43.964  0.2764  0.0598  0.0083
30353W        W36953   7.803   1.064   6.984 -0.0130  0.0487  0.2493
30354W        W36954   9.951   1.222   2.232 -0.2191  0.0783  0.2427
30355W        W36955  20.892   4.588  33.746 -0.1274 -0.0058  0.1064
30356W        W36956  14.866   1.904  21.942 -0.1377  0.2123 -0.0678
30357W        W36957  16.604   1.104  17.369 -0.2224 -0.0693  0.2162
30358W        W36958  13.449   4.759  10.719 -0.3284  0.4475  0.0008
30359W        W36959  10.014   0.197  44.971  0.1478  0.2488 -0.2646
30360W        W36960   3.690   1.784  43.306 -0.0956 -0.1520  0.0019
30361W        W36961  16.368   5.917   9.509  0.3736 -0.0099  0.3293
30362W        W36962  14.619   2.812  33.384  0.0395  0.0683 -0.1412
30363W        W36963   5.294   0.244  13.052  0.0711 -0.2611 -0.1554
30364W        W36964   5.841   1.251   1.629  0.0206  0.0168 -0.1071
30365W        W36965   4.424   4.669  33.123 -0.1200 -0.1280  0.3045
30366W        W36966  14.536   2.537   9.942 -0.0732  0.0138 -0.0138
30367W        W36967  11.171   1.423   4.677 -0.1018  0.2457 -0.0870
30368W        W36968   1.402   5.186  42.621  0.1661 -0.1329 -0.0826
30369W        W36969   0.312   5.793  41.203 -0.1012 -0.2494 -0.0792
30370W        W36970   8.291   5.648  26.639  0.0385 -0.2019  0.0120
30371W        W36971   8.829   4.753   3.495 -0.1842  0.0822  0.2834
30372W        W36972  15.401   4.202  33.588 -0.1423  0.0531  0.0458
30373W        W36973  14.730   1.346   7.655 -0.0335  0.1846 -0.2349
30374W        W36974  11.269   1.924  33.687  0.1295 -0.1629 -0.4581
30375W        W36975   1.595   4.687  13.625 -0.0767  0.3215 -0.1653
30376W        W36976  17.681   6.560   7.976 -0.1759  0.1585  0.0886
30377W        W36977  12.668   2.873   4.401 -0.1828  0.1270 -0.0312
30378W        W36978   6.903   4.000  38.585  0.0620  0.1384  0.0709
30379W        W36979   6.009   0.280  40.675  0.1334 -0.2326 -0.0476
30380W        W36980   5.796   0.747  37.085 -0.1810 -0.1279 -0.0607
30381W        W36981  13.284   5.348   3.830  0.2363 -0.0870 -0.1141
30382W        W36982   3.578   0.260  42.629  0.1444 -0.1077  0.2552
30383W        W36983   3.531   5.221  30.114 -0.0776  0.3715  0.1601
30384W        W36984  10.528   0.620  19.626 -0.3384 -0.0775 -0.1241
30385W        W36985   4.527   3.499  41.724  0.0216  0.0412  0.0963
30386W        W36986  20.699   4.038   0.172 -0.1842  0.0218 -0.0572
30387W        W36987   4.823   0.533  37.152  0.3284  0.4011 -0.1492
30388W        W36988  16.231   4.700  11.800 -0.0718  0.0623 -0.1704
30389W        W36989   6.914   5.741  31.503  0.2948  0.1049 -0.3470
30390W        W36990   5.092   1.069  29.736 -0.0086 -0.0338 -0.3038
30391W        W36991   3.903   5.375  23.679  0.1940 -0.1937  0.1278
30392W        W36992   9.896   3.431  28.937 -0.1163 -0.1626 -0.1873
30393W        W36993  14.332   5.809  29.862 -0.0612  0.0536 -0.0371
30394W        W36994   2.494   3.085   6.133  0.1624 -0.1019 -0.0284
30395W        W36995   3.357   1.938  10.657 -0.2195 -0.0309 -0.1142
30396W        W36996   1.042   2.839  27.700  0.1240  0.0018 -0.0947
30397W        W36997  14.625   3.245  14.987  0.2265  0.0103 -0.1745
30398W        W36998   5.879   3.125  13.887 -0.0469 -0.3138  0.3385
30399W        W36999   0.557   3.425  31.855 -0.4621 -0.0630  0.0888
30400W        W37000   5.413   2.206   1.878 -0.0987 -0.4125  0.1950
30401W        W37001   9.397   3.866  38.876 -0.1446  0.2682  0.1345
30402W        W37002  15.700   2.415  28.868  0.0501 -0.0062 -0.0819
30403W        W37003   0.361   6.187  45.053  0.1218  0.1833 -0.0880
30404W        W37004  14.094   4.776   1.761 -0.3724  0.0736  0.1164
30405W        W37005   6.464   2.028  37.272  0.0637  0.3268  0.0575
30406W        W37006  15.610   5.285  37.122 -0.0034  0.3859 -0.0699
30407W        W37007   9.012   6.602  29.427  0.0697  0.2676 -0.1027
30408W        W37008   9.404   0.739  12.353 -0.1277 -0.1155 -0.1515
30409W        W37009   9.353   2.545  45.152  0.2274  0.1699  0.0858
30410W        W37010  18.057   0.350  41.214  0.0152 -0.0198 -0.1229
30411W        W37011  12.391   2.103  30.862 -0.0474  0.2141 -0.2299
30412W        W37012  10.004   6.193  34.038  0.0296  0.0554  0.0008
30413W        W37013  11.898   4.821   3.387  0.1468  0.0374 -0.1053
30414W        W37014   2.231   1.739  29.900 -0.0216  0.0119  0.2108
30415W        W37015  14.449   1.699  29.274  0.0514 -0.3136  0.1147
30416W        W37016  15.543   0.572   7.312 -0.1023 -0.0939 -0.0659
30417W        W37017   5.164   5.123  29.720 -0.1592 -0.2529  0.1983
30418W        W37018   1.387   3.941  31.699  0.1884 -0.1967 -0.2132
30419W        W37019  11.290   1.182  15.656 -0.1102  0.1830  0.0995
30420W        W37020   5.732   1.652  25.829 -0.0301 -0.0085  0.1480
30421W        W37021  12.647   1.385  42.736 -0.2826  0.0020 -0.1057
30422W        W37022   3.059   3.979  15.155  0.1209 -0.0124 -0.0683
30423W        W37023  18.892   2.484   2.740 -0.2129  0.1702 -0.0585
30424W        W37024   8.453   1.969  44.273  0.0804 -0.0926  0.0320
30425W        W37025   6.243   5.720   6.357  0.0771  0.0057 -0.1285
30426W        W37026  16.116   2.633  42.255 -0.1050  0.0986 -0.0810
30427W        W37027   1.630   3.946   0.406 -0.0167  0.1407 -0.1377
30428W        W37028   1.244   5.965  40.661  0.0565  0.0460 -0.1403
30429W        W37029   9.057   6.537   9.689 -0.1987  0.1187  0.2133
30430W        W37030  16.089   0.153   8.844 -0.1563 -0.2548 -0.0390
30431W        W37031   4.742   2.615  11.182  0.3352 -0.0310  0.2270
30432W        W37032   8.797   1.037  28.184 -0.1501  0.1032 -0.1916
30433W        W37033   9.188   4.391   3.659 -0.0989 -0.0333 -0.3016
30434W        W37034   9.301   5.362  17.353  0.2276 -0.1677 -0.2636
30435W        W37035   5.687   3.001   8.569  0.1332 -0.0164 -0.0951
30436W        W37036  12.327   6.121   8.473  0.0846 -0.2562  0.0886
30437W        W37037  19.010   5.659   0.683  0.2229 -0.1827  0.0530
30438W        W37038   5.125   4.204  30.811  0.1005  0.0090  0.1704
30439W        W37039   9.991   2.181   5.142 -0.1207  0.1578 -0.1692
30440W        W37040   2.015   1.434  36.898  0.3211 -0.3817 -0.3327
30441W        W37041  19.703   5.747   1.250  0.0084  0.0751 -0.1358
30442W        W37042  20.109   2.396  32.108  0.0878 -0.3253 -0.2669
30443W        W37043   4.517   0.647  15.922 -0.0440 -0.2489  0.1149
30444W        W37044  20.376   2.958   0.393 -0.1120 -0.2027 -0.1425
30445W        W37045  12.796   1.223  35.117  0.0177  0.1839 -0.1712
30446W        W37046   4.343   1.214  20.685 -0.1451  0.1737 -0.3216
30447W        W37047  19.821   0.222  37.980 -0.1062 -0.0641  0.2052
30448W        W37048  21.163   2.406  26.857 -0.1316  0.2719  0.0467
30449W        W37049   7.441   1.489  40.468 -0.1320 -0.1531  0.1015
30450W        W37050  15.478   3.295  32.183 -0.1052  0.0616  0.1949
30451W        W37051  19.587   6.125   2.985 -0.1878 -0.0469  0.0984
30452W        W37052  15.090   3.276  32.464 -0.0519 -0.2377 -0.2010
30453W        W37053  16.494   0.955  37.489 -0.0373  0.1205  0.0023
30454W        W37054  12.612   6.031  41.104  0.0752 -0.1985  0.0194
30455W        W37055  19.302   2.782   4.863 -0.0611 -0.2479 -0.0234
30456W        W37056  16.939   2.750   1.533 -0.1068  0.0556 -0.0569
30457W        W37057   3.058   2.288  26.424  0.0290 -0.1327 -0.0331
30458W        W37058  11.971   4.311  38.260  0.0435  0.2760  0.0887
30459W        W37059  15.714   5.339  35.383 -0.0009  0.2193  0.0612
30460W        W37060  14.414   1.333  35.925 -0.0744 -0.3059  0.0532
30461W        W37061   3.904   6.003   2.618  0.0184  0.0778  0.0435
30462W        W37062   4.398   2.694  33.913 -0.0611  0.0492  0.2777
30463W        W37063  13.055   4.798  43.200 -0.1968 -0.0048 -0.1751
30464W        W37064  17.744   4.605  32.246  0.0619 -0.0580 -0.0515
30465W        W37065  14.805   5.021  30.274  0.1870 -0.1792  0.4027
30466W        W37066   8.047   0.602  36.892  0.1633  0.1061 -0.2040
30467W        W37067   5.655   2.924  39.642 -0.0765  0.1155  0.0376
30468W        W37068  20.302   1.617  32.645 -0.0493 -0.0343 -0.1392
30469W        W37069   9.063   5.876  35.613 -0.1568  0.0715 -0.1603
30470W        W37070  12.841   5.561   5.721 -0.2779 -0.2216  0.1343
30471W        W37071  15.899   5.262  39.598  0.0382 -0.0807  0.0622
30472W        W37072  20.846   4.816   8.862  0.1385  0.1168 -0.1574
30473W        W37073  13.144   4.106  39.699 -0.3282  0.0488 -0.0548
30474W        W37074   1.425   1.594   5.137 -0.1486 -0.1497  0.0454
30475W        W37075  20.761   0.462  29.222  0.0482  0.0298 -0.2186
30476W        W37076   1.621   1.303  11.669 -0.0314 -0.0475 -0.1731
30477W        W37077   3.950   2.594  10.880  0.2370 -0.0479 -0.3274
30478W        W37078  18.894   1.734  18.450  0.0980 -0.0051 -0.0879
30479W        W37079  16.014   1.824   1.350  0.1771 -0.0394  0.0551
30480W        W37080  21.128   3.146  30.114  0.3443  0.0298  0.3841
30481W        W37081   6.402   3.115  11.762 -0.0982 -0.1748 -0.0244
30482W        W37082  20.067   0.813  30.610  0.0730 -0.2769  0.2102
30483W        W37083   7.436   5.273   3.730  0.2740  0.0992  0.2378
30484W        W37084   8.718   5.552   2.567  0.0637  0.1066 -0.1244
30485W        W37085  19.893   2.809  43.459  0.1141  0.2000  0.0083
30486W        W37086  14.610   3.421   8.002 -0.2518 -0.0467  0.3612
30487W        W37087  12.722   4.856  37.017  0.0457 -0.1342  0.0197
30488W        W37088  17.435   0.742  10.574 -0.0913 -0.4925  0.3309
30489W        W37089  21.027   5.925  24.762  0.2014 -0.0063  0.0906
30490W        W37090   4.694   1.894  25.422 -0.3385  0.1055  0.1952
30491W        W37091   3.431   3.622  29.552  0.2580 -0.2347 -0.0053
30492W        W37092  12.063   0.085  31.247 -0.1013  0.3493 -0.1089
30493W        W37093   5.352   0.220   5.635 -0.1264  0.1050  0.1908
30494W        W37094  15.584   6.504  19.060  0.0836  0.2480 -0.2280
30495W        W37095  15.924   5.313  14.323 -0.0251 -0.3372 -0.0842
30496W        W37096   4.969   2.875  40.261 -0.0838 -0.0363 -0.1554
30497W        W37097  14.008   2.748  15.657  0.0653 -0.1002  0.0864
30498W        W37098  15.082   3.718  13.333  0.1985  0.0736 -0.1016
30499W        W37099   5.958   2.568  10.644  0.0821 -0.0878  0.1178
30500W        W37100  20.141   1.331  26.641  0.1902 -0.1471 -0.2008
30501W        W37101   3.761   5.782  32.991 -0.0453 -0.1197 -0.0427
30502W        W37102  15.039   1.121  36.419 -0.0116  0.1002  0.2698
30503W        W37103  18.677   1.548  29.721  0.1632  0.1041 -0.1379
30504W        W37104   5.476   1.829   9.502  0.1277 -0.3600 -0.0916
30505W        W37105  12.390   2.677   2.604 -0.1817 -0.0981  0.0471
30506W        W37106  10.490   5.291  14.943  0.2511  0.0360 -0.1129
30507W        W37107  20.284   4.689  36.296  0.2467  0.2151 -0.1758
30508W        W37108  15.826   4.397  34.359  0.1169 -0.2874  0.0244
30509W        W37109  10.959   5.397  35.905  0.0630 -0.0328 -0.0120
30510W        W37110   8.361   3.310  39.186 -0.2505 -0.0630 -0.2079
30511W        W37111   5.048   4.839  40.882  0.2184  0.2808 -0.0150
30512W        W37112   1.703   4.178  29.057  0.1385  0.0329 -0.0135
30513W        W37113  16.445   0.445   5.992 -0.1681  0.2629  0.3253
30514W        W37114  16.115   3.479  31.326 -0.1621  0.1843  0.1912
30515W        W37115   4.307   3.197   0.364  0.2503 -0.3442  0.3985
30516W        W37116  18.781   0.791  35.491  0.0518  0.0298  0.3923
30517W        W37117   0.168   4.347  16.501  0.0308 -0.2300 -0.3684
30518W        W37118  10.821   4.445  20.723 -0.3038  0.0297 -0.1339
30519W        W37119  12.035   4.322  43.130  0.0264 -0.2509 -0.1579
30520W        W37120  18.816   3.797   6.342  0.0998  0.0055  0.4690
30521W        W37121   0.657   4.357   3.646 -0.1105  0.0345 -0.2239
30522W        W37122   8.188   5.710   9.760 -0.3843 -0.0694  0.1516
30523W        W37123   1.039   3.028  24.327  0.1199 -0.1302  0.1431
30524W        W37124  19.089   4.455  30.170 -0.2979 -0.2055 -0.3248
30525W        W37125   2.670   1.484  30.030  0.1399 -0.1716  0.0091
30526W        W37126   3.148   4.569  20.537  0.1502 -0.1266 -0.2230
30527W        W37127  11.767   3.424  33.269  0.1230 -0.0435 -0.0170
30528W        W37128  18.961   5.199   3.868  0.1446  0.4000  0.0173
30529W        W37129  16.078   6.392  10.798  0.3142  0.2490  0.0003
30530W        W37130  18.027   5.557  36.253 -0.2521  0.2135  0.1256
30531W        W37131  19.831   1.469  14.297 -0.0189 -0.0428  0.0638
30532W        W37132  16.646   0.818  22.669 -0.3223  0.2349  0.3197
30533W        W37133  18.012   5.526  17.543  0.1195  0.2262 -0.2311
30534W        W37134  17.731   1.709  14.961  0.0058 -0.4432  0.1008
30535W        W37135  13.614   4.308  11.308  0.3071 -0.1020  0.0926
30536W        W37136  20.805   2.076  33.721  0.0223 -0.0504  0.1030
30537W        W37137   9.186   5.745  17.674  0.1161  0.1366  0.1405
30538W        W37138   4.096   3.946  27.916 -0.0330 -0.1230 -0.1156
30539W        W37139   7.076   3.698  12.404 -0.0452 -0.0557 -0.1150
30540W        W37140  15.173   0.324   2.962  0.3757 -0.0530  0.1115
30541W        W37141   3.007   6.532   1.404  0.1803 -0.0701  0.0156
30542W        W37142  17.953   2.700  34.649 -0.1874  0.0574  0.0438
30543W        W37143   8.425   5.671  29.056  0.0093 -0.0858  0.1062
30544W        W37144  13.616   0.453   5.217  0.0363 -0.1923 -0.0547
30545W        W37145  12.169   6.016  13.496 -0.2089 -0.1851  0.0722
30546W        W37146   5.834   0.887  42.898 -0.3121  0.0246 -0.2354
30547W        W37147  15.646   2.743  33.969 -0.2399  0.0443 -0.0134
30548W        W37148   1.194   3.330   0.124  0.1292  0.1042 -0.2827
30549W        W37149   0.843   2.528  33.344 -0.2065 -0.2297 -0.0555
30550W        W37150   2.269   3.868  44.063 -0.2461  0.2497  0.1857
30551W        W37151  12.765   0.090  13.160  0.2114 -0.3926 -0.1545
30552W        W37152   0.509   2.603   3.477  0.1533 -0.1725 -0.2383
30553W        W37153  13.940   4.384  43.286  0.1133  0.1009 -0.2148
30554W        W37154   9.832   5.569  10.647 -0.1205  0.1487 -0.1839
30555W        W37155  15.926   0.324  42.346  0.2189 -0.0856 -0.1284
30556W        W37156   0.916   3.433  37.802  0.2088  0.3716 -0.1429
30557W        W37157  18.630   5.206   4.687  0.2211  0.0044 -0.0284
30558W        W37158  17.352   0.015   1.435 -0.0748 -0.0510  0.2112
30559W        W37159  16.329   6.192  12.293  0.3016  0.0128  0.1616
30560W        W37160  17.166   3.182  33.591 -0.1440  0.4064  0.0177
30561W        W37161   0.961   4.055  34.819 -0.0665 -0.1892  0.2901
30562W        W37162   2.191   5.843  38.826 -0.0833 -0.2343  0.0473
30563W        W37163  18.831   0.503  31.323  0.0530  0.1648 -0.0318
30564W        W37164   8.168   3.977   0.802 -0.2269  0.0640 -0.3578
30565W        W37165  19.337   0.039  28.568 -0.1139  0.0431  0.2215
30566W        W37166   7.355   1.780   1.716  0.0420  0.2950 -0.3135
30567W        W37167  18.084   2.541   4.443  0.1233 -0.0270  0.0412
30568W        W37168  17.783   2.103   3.632 -0.2739 -0.3882 -0.0433
30569W        W37169   5.853   5.008  10.327  0.0540 -0.0896 -0.0351
30570W        W37170  14.749   2.972  18.183  0.2218 -0.0843  0.1234
30571W        W37171  13.188   1.792  20.071  0.0518  0.0107  0.3463
30572W        W37172  17.387   3.734  32.158 -0.0976  0.0172 -0.1127
30573W        W37173  12.867   4.171   7.538  0.0888 -0.0612 -0.0286
30574W        W37174   6.785   3.985  35.587 -0.0755  0.0737 -0.2434
30575W        W37175  11.931   2.184  33.546 -0.0603 -0.4618 -0.1887
30576W        W37176   6.308   2.967  37.675  0.1013 -0.0709  0.2190
30577W        W37177   5.442   3.521  11.743 -0.0246 -0.1360 -0.0806
30578W        W37178   9.820   2.676  11.509 -0.3306 -0.1565 -0.1265
30579W        W37179  20.271   2.156  38.048 -0.0080  0.0151 -0.0162
30580W        W37180  16.457   2.984  42.156  0.1530 -0.1187 -0.0585
30581W        W37181   9.882   1.232   4.136 -0.0338 -0.4247  0.1725
30582W        W37182  10.382   1.487  11.041 -0.1685 -0.2134 -0.2108
30583W        W37183   8.452   0.717  29.402 -0.0930 -0.0357 -0.1057
30584W        W37184  13.025   5.306   2.284  0.3009 -0.1741 -0.0720
30585W        W37185   3.842   1.149  14.396 -0.0594 -0.0802 -0.0174
30586W        W37186   1.516   0.672   4.684  0.1673 -0.0192  0.0960
30587W        W37187   9.494   1.631  10.621 -0.2152 -0.0347 -0.0203
30588W        W37188  19.929   0.313  39.134 -0.3968  0.0534  0.2981
30589W        W37189   2.093   0.423  11.504 -0.0919 -0.0980 -0.1402
30590W        W37190   7.292   5.925  34.090 -0.2074  0.2690 -0.1611
30591W        W37191   0.375   2.392  34.468  0.0962  0.2701 -0.1403
30592W        W37192  14.642   5.445  22.349 -0.2000 -0.1361  0.3492
30593W        W37193   5.938   2.811  23.125 -0.1051  0.0307  0.1835
30594W        W37194  13.815   1.118   6.946  0.1253  0.0922  0.1075
30595W        W37195  10.547   3.925   8.812  0.0978  0.2398 -0.2871
30596W        W37196  13.526   4.854  29.261 -0.0391 -0.2477 -0.0489
30597W        W37197  15.369   2.627  19.026  0.0552 -0.2063  0.3424
30598W        W37198  18.497   6.511  37.555  0.0471  0.0658 -0.2189
30599W        W37199   0.521   2.733  35.940 -0.1128 -0.4196 -0.0967
30600W        W37200  18.418   4.602  28.792  0.2633  0.3030 -0.0934
30601W        W37201  14.189   1.895  31.023  0.2700  0.0736 -0.0326
30602W        W37202   9.222   3.443   4.977 -0.1306  0.2595  0.1197
30603W        W37203  14.151   6.542  41.875 -0.0284 -0.2604 -0.1530
30604W        W37204   5.778   5.383  10.741 -0.1385  0.3531 -0.2238
30605W        W37205  11.929   4.089  41.328  0.0646 -0.1328 -0.3380
30606W        W37206   8.412   4.113   9.800  0.0734 -0.0754  0.3989
30607W        W37207  18.654   0.621  15.412 -0.2144 -0.1207  0.1843
30608W        W37208  16.879   3.801  40.340 -0.2637  0.2904 -0.1250
30609W        W37209  12.539   0.903  29.107  0.1021  0.2728  0.0685
30610W        W37210   0.849   4.831  26.805  0.0053  0.2118  0.0660
30611W        W37211  16.093   3.233   7.519  0.0244 -0.0639  0.3750
30612W        W37212   2.659   6.065  32.212  0.0506  0.2494 -0.0012
30613W        W37213  20.814   4.749  14.392 -0.1911  0.1056  0.3154
30614W        W37214   1.138   2.656   8.007 -0.0163 -0.0903  0.3408
30615W        W37215  12.631   6.184  20.931 -0.0453 -0.2088  0.1038
30616W        W37216  15.612   6.089  38.618 -0.1186 -0.0170 -0.0089
30617W        W37217   7.569   6.139  26.428  0.1733  0.0348 -0.1887
30618W        W37218  19.669   2.046   7.852 -0.1736 -0.1007  0.0299
30619W        W37219   0.707   4.638  38.264 -0.0062  0.0656 -0.1142
30620W        W37220   6.392   1.513  43.344  0.0330 -0.1929  0.3141
30621W        W37221  12.006   5.200  20.706 -0.1183  0.2507  0.0238
30622W        W37222  12.959   5.108  43.698  0.2013  0.1437 -0.0135
30623W        W37223   5.979   6.392  34.612  0.2193  0.3731 -0.0994
30624W        W37224  13.007   4.688  23.115  0.0004 -0.0738  0.2047
30625W        W37225  15.850   0.526  17.388 -0.0592  0.1595 -0.2519
30626W        W37226   2.676   0.055  21.848 -0.1672 -0.0184  0.0091
30627W        W37227   3.524   1.246  27.148  0.0280 -0.1287  0.0921
30628W        W37228  19.659   1.612  26.773 -0.1891  0.0460 -0.0615
30629W        W37229   8.936   0.687   2.822  0.2449 -0.3922  0.0124
30630W        W37230  10.585   1.041  43.234  0.1421  0.1010  0.1472
30631W        W37231  12.342   2.176  10.308  0.0650 -0.0453 -0.0343
30632W        W37232  12.793   5.721   3.647  0.0840  0.2294 -0.0453
30633W        W37233   6.665   6.339  24.679  0.0738 -0.0298 -0.1606
30634W        W37234  17.601   1.455  36.384  0.2331  0.1713  0.0875
30635W        W37235   6.393   3.551  34.414 -0.0710 -0.0144  0.3716
30636W        W37236  16.357   3.341  44.399  0.2351 -0.1511 -0.2787
30637W        W37237   7.169   1.113  39.893  0.1518  0.0393  0.0398
30638W        W37238  20.304   0.211  38.590  0.0106  0.0786 -0.0826
30639W        W37239  14.536   0.084   3.740  0.0235  0.2804 -0.1668
30640W        W37240  13.093   4.892  42.585  0.1016  0.1106 -0.5050
30641W        W37241  15.194   0.095  20.426  0.2159 -0.0634  0.0850
30642W        W37242   0.272   2.922   5.810  0.0262  0.0398 -0.3433
30643W        W37243   5.612   5.964   0.634 -0.0004 -0.1481 -0.1447
30644W        W37244  18.791   2.128  44.353  0.2539  0.3254 -0.0500
30645W        W37245  11.562   0.103  11.087  0.0275  0.0227 -0.1267
30646W        W37246   7.540   4.438  12.256 -0.0889  0.2127 -0.0562
30647W        W37247   8.928   5.788  36.092 -0.1103 -0.3174  0.0749
30648W        W37248   3.534   3.837  43.251  0.0410  0.1123 -0.1521
30649W        W37249  11.170   5.413  11.490  0.1064 -0.1412  0.0659
30650W        W37250  17.606   0.507   4.703  0.0214  0.3564 -0.0643
30651W        W37251   8.526   3.897  40.099 -0.1443 -0.1275 -0.1528
30652W        W37252  18.183   1.409   0.868  0.0153 -0.0084  0.0556
30653W        W37253  14.960   4.395  21.357  0.1812 -0.2986  0.0099
30654W        W37254  19.973   1.657  17.509  0.1434 -0.0487 -0.0364
30655W        W37255  10.355   3.612  14.244  0.1061  0.3749 -0.3396
30656W        W37256   6.930   6.459  37.827 -0.2305 -0.1050 -0.1559
30657W        W37257   2.635   2.614  41.432  0.1314 -0.0128 -0.0329
30658W        W37258  15.444   3.147  11.999 -0.2240 -0.4609 -0.0109
30659W        W37259  10.403   0.351  43.048  0.0067 -0.1848 -0.5546
30660W        W37260   5.425   3.316  25.879  0.2721  0.1041  0.2084
30661W        W37261  10.281   2.403  30.395 -0.0431  0.0386 -0.1976
30662W        W37262  14.800   5.751   3.872  0.2459 -0.1628 -0.0647
30663W        W37263   3.178   1.281  23.761  0.0001 -0.2181  0.2106
30664W        W37264  14.878   1.452  14.938  0.1642  0.2797 -0.0792
30665W        W37265   9.648   1.633  30.602  0.0769 -0.1210 -0.0951
30666W        W37266  15.883   5.473  21.042 -0.0311 -0.0821 -0.2433
30667W        W37267   4.393   3.448  42.344  0.0173 -0.1350  0.2009
30668W        W37268  11.796   5.511  27.847  0.1175  0.1676  0.0893
30669W        W37269  10.367   6.067   9.298 -0.0489 -0.2681  0.2765
30670W        W37270   3.482   0.697  13.351  0.3508  0.4012  0.3313
30671W        W37271   1.007   0.862   6.520  0.0897  0.0622 -0.1103
30672W        W37272  10.856   0.892   9.120 -0.2419 -0.0690 -0.0338
30673W        W37273   6.667   6.571   8.476  0.0376  0.0907 -0.2062
30674W        W37274  16.962   0.619   8.199 -0.0262 -0.0588 -0.2302
30675W        W37275   7.568   4.864   7.307 -0.0432 -0.4055  0.0918
30676W        W37276   5.326   4.656  29.800  0.1866  0.1783  0.0169
30677W        W37277   1.628   3.552  41.614 -0.2364  0.0567  0.3076
30678W        W37278  16.727   2.903  33.527  0.2256 -0.0258 -0.0103
30679W        W37279  11.491   2.622   4.323 -0.0762  0.0978  0.0113
30680W        W37280  10.750   0.105  40.006  0.2380 -0.1089  0.2423
30681W        W37281  13.284   0.639  14.137  0.0326  0.1011  0.0928
30682W        W37282   9.804   2.741  39.125 -0.2258  0.0506 -0.2123
30683W        W37283   3.488   6.126   1.652  0.0454  0.2329 -0.2798
30684W        W37284  13.022   1.362  15.340 -0.0590  0.0585 -0.1111
30685W        W37285  10.722   5.031  12.434  0.0430 -0.0680 -0.3062
30686W        W37286  14.861   5.097  38.134 -0.2638 -0.1482  0.0198
30687W        W37287  15.895   0.401  44.423 -0.0003 -0.0429 -0.3119
30688W        W37288   5.951   0.659   6.776  0.0333 -0.1005  0.4300
30689W        W37289  12.689   5.222  38.890  0.3301 -0.2150  0.0234
30690W        W37290  18.949   2.575  10.472 -0.1003 -0.2102 -0.0037
30691W        W37291   5.104   4.338  37.005  0.0891 -0.1884  0.0944
30692W        W37292  14.142   0.397  11.312 -0.1568 -0.1491  0.1697
30693W        W37293   9.568   5.254  16.957 -0.0262 -0.0419  0.3206
30694W        W37294   2.499   2.584  36.706 -0.0877 -0.2593 -0.4077
30695W        W37295   8.774   0.031  36.986  0.0140  0.0960 -0.3401
30696W        W37296  11.995   5.116  44.110 -0.2519 -0.0482 -0.0228
30697W        W37297  20.693   3.865   5.025 -0.0513 -0.3472  0.0382
30698W        W37298  14.446   1.081  44.685  0.3395  0.1896 -0.1594
30699W        W37299  19.794   1.246  31.854  0.0154  0.0983 -0.0967
30700W        W37300  11.157   4.900  17.312 -0.0035  0.0658  0.2119
30701W        W37301   0.861   6.486   7.028  0.0595  0.2355 -0.0075
30702W        W37302   4.953   1.217  24.782  0.2352 -0.0039 -0.0258
30703W        W37303   2.127   0.368  13.304 -0.0248  0.0536  0.1619
30704W        W37304  14.134   0.137  30.488  0.0499  0.2095  0.0070
30705W        W37305  18.613   3.043   7.084 -0.1612  0.0210 -0.2756
30706W        W37306   3.655   2.907  22.716 -0.0014  0.0688  0.2826
30707W        W37307  19.098   6.022  17.408  0.3016  0.1057 -0.1003
30708W        W37308  13.384   4.564  38.172  0.0902  0.0585  0.0565
30709W        W37309   3.242   0.161  28.780  0.0485  0.1901 -0.0250
30710W        W37310  15.296   5.952  18.038  0.1717  0.0586 -0.0718
30711W        W37311  18.499   5.403   1.516 -0.0451 -0.5180  0.2624
30712W        W37312   9.367   6.016  31.796 -0.1609  0.1708 -0.2460
30713W        W37313   4.070   4.455   5.192  0.1417 -0.2818  0.1567
30714W        W37314  18.969   3.097   8.992 -0.1390 -0.2484  0.0790
30715W        W37315  17.183   1.559   2.220 -0.0226 -0.0609  0.1439
30716W        W37316  12.197   3.921  29.437  0.2990  0.1478 -0.0955
30717W        W37317   5.526   1.554   8.164  0.1786  0.2109 -0.1393
30718W        W37318  14.135   3.899  13.869 -0.3071 -0.0592 -0.0321
30719W        W37319  14.583   0.484  19.134  0.1334  0.0683  0.2775
30720W        W37320  20.543   3.409  25.764 -0.2872 -0.2799  0.2208
30721W        W37321  20.462   4.647   8.634  0.2435 -0.3851  0.1136
30722W        W37322  14.753   5.673  43.923  0.1395  0.2594 -0.2640
30723W        W37323   4.798   6.383  28.747  0.0236  0.2610  0.1281
30724W        W37324  19.772   0.907  42.968 -0.3783 -0.0659 -0.1474
30725W        W37325  16.039   1.564   6.056  0.1118  0.0037  0.3033
30726W        W37326   4.137   5.748  27.802  0.2447  0.1920 -0.2449
30727W        W37327   9.852   4.281  29.362  0.2834 -0.0664  0.2010
30728W        W37328  20.622   4.998  36.486  0.0768 -0.0116 -0.3217
30729W        W37329  10.572   2.423  17.955 -0.3677  0.0171 -0.1447
30730W        W37330   2.028   0.073  32.045 -0.0113  0.2897 -0.0132
30731W        W37331   8.399   5.759   0.725 -0.1519  0.1321  0.1427
30732W        W37332   9.275   5.652   2.750  0.2090  0.0377  0.2725
30733W        W37333   1.828   2.391   3.735 -0.1447  0.0338  0.3537
30734W        W37334   5.720   4.169   6.984  0.1971 -0.1899  0.0285
30735W        W37335   2.142   0.808   1.523 -0.1024  0.1047  0.3196
30736W        W37336   7.749   2.530  14.736  0.4793 -0.3127 -0.0096
30737W        W37337   6.419   4.095  31.141  0.4372  0.0642 -0.1389
30738W        W37338   5.030   0.416  23.695 -0.1786  0.0910  0.0143
30739W        W37339   9.326   4.015  18.095  0.1865 -0.2201 -0.1462
30740W        W37340  19.012   5.530  28.170 -0.0149 -0.1214 -0.1884
30741W        W37341  13.907   3.066   5.453  0.3611  0.3093  0.1461
30742W        W37342  13.228   0.879  42.857 -0.1975  0.0679  0.1733
30743W        W37343   6.662   2.988  25.207 -0.2634 -0.0328  0.0885
30744W        W37344   9.736   0.744   4.232  0.0794 -0.1492 -0.3421
30745W        W37345   5.749   2.532   7.041 -0.1171  0.0443  0.0517
30746W        W37346  13.952   6.185  21.440 -0.0284 -0.0770 -0.0434
30747W        W37347   4.225   6.108  43.327 -0.1063 -0.2005  0.2298
30748W        W37348   8.475   6.272  38.398 -0.0009 -0.0110  0.0198
30749W        W37349   2.613   5.714  39.565 -0.0883  0.2038 -0.3106
30750W        W37350  12.125   2.740  42.135 -0.0413 -0.1280 -0.2176
30751W        W37351   6.985   3.048  11.985 -0.1442  0.0440 -0.1156
30752W        W37352  20.048   4.875  27.254  0.1141 -0.0742 -0.0723
30753W        W37353   6.675   6.207  10.697  0.1468 -0.2567  0.1212
30754W        W37354   6.890   1.857  23.186 -0.1573 -0.0747 -0.0206
30755W        W37355  20.252   2.101  39.681 -0.0896  0.0615  0.1441
30756W        W37356  14.647   6.387   2.872  0.0364  0.3620 -0.0755
30757W        W37357  13.582   2.782   5.889 -0.0058 -0.4504  0.1949
30758W        W37358  21.061   3.994  24.897  0.0973 -0.0531 -0.2590
30759W        W37359  20.990   0.572  33.187 -0.1608  0.2023  0.1959
30760W        W37360  16.350   5.485   9.764 -0.1472  0.1083 -0.0336
30761W        W37361   4.230   5.296  43.502 -0.0282 -0.2398 -0.0304
30762W        W37362  11.650   1.061   8.385  0.0506  0.1118 -0.0433
30763W        W37363  10.053   1.434   3.729 -0.1986 -0.1693 -0.2381
30764W        W37364  16.749   6.250  14.050 -0.2553  0.0186 -0.1309
30765W        W37365  10.323   0.332   3.924  0.2560  0.2247  0.1253
30766W        W37366   0.617   6.356  29.492  0.0249  0.0631  0.1475
30767W        W37367  16.936   1.120  39.994  0.0959  0.2366  0.0285
30768W        W37368  13.483   1.820  39.009 -0.4407  0.1455  0.2297
30769W        W37369  16.773   6.498   4.708  0.0204 -0.2627  0.0230
30770W        W37370  20.695   5.515   2.803 -0.3025 -0.0647  0.0854
30771W        W37371  15.325   4.016  37.362 -0.0972  0.1090  0.1777
30772W        W37372   9.725   3.429  37.453 -0.0173 -0.1051 -0.4869
30773W        W37373   5.232   0.271   9.983  0.0195 -0.2256 -0.3584
30774W        W37374  16.133   0.057   3.830 -0.1891  0.0769 -0.2846
30775W        W37375   1.076   6.031  25.294  0.2628  0.1266 -0.1438
30776W        W37376   0.897   3.569  34.763  0.1435 -0.0393 -0.1194
30777W        W37377  18.023   4.198  32.114  0.0081 -0.2658  0.2644
30778W        W37378  15.844   0.851  33.264  0.1916 -0.1025  0.1495
30779W        W37379  20.375   5.649  42.008  0.2031  0.0034  0.1108
30780W        W37380   2.296   5.340  14.517 -0.1710  0.0913 -0.2397
30781W        W37381  15.613   3.059   2.595 -0.2422  0.1637  0.0858
30782W        W37382   4.165   0.614  42.065  0.0958 -0.1565  0.1014
30783W        W37383   7.645   2.592  32.581 -0.2513 -0.0834  0.0777
30784W        W37384   0.724   2.772   7.746  0.2614 -0.2606 -0.0041
30785W        W37385  11.440   5.650  13.234  0.4556 -0.1516  0.1875
30786W        W37386   5.210   6.380   5.906  0.3164 -0.1911  0.0057
30787W        W37387  10.071   5.779   9.007 -0.1221  0.1725  0.0341
30788W        W37388   2.180   3.432  31.530  0.1003  0.1170 -0.1951
30789W        W37389   6.492   2.456  39.480  0.3573 -0.2447  0.3312
30790W        W37390   1.481   6.238   3.755  0.0143 -0.2157 -0.2599
30791W        W37391  11.217   2.775  18.294 -0.1303  0.3111  0.1643
30792W        W37392  18.519   1.589  17.695 -0.0108  0.1889  0.0746
30793W        W37393   8.359   3.494  29.026 -0.0041 -0.0173  0.0240
30794W        W37394  11.358   0.682  13.142 -0.1786  0.0071  0.0715
30795W        W37395   3.931   6.585  44.781  0.2610  0.0372 -0.1875
30796W        W37396   9.293   4.868  29.644 -0.1015 -0.1061  0.1376
30797W        W37397  19.333   1.670  36.102  0.0574  0.0538 -0.3149
30798W        W37398   4.548   4.779  33.612 -0.2644 -0.0674  0.1323
30799W        W37399  12.144   3.103  30.011  0.0504  0.0192  0.0561
30800W        W37400   8.401   6.128   9.953 -0.2292  0.0532 -0.0233
30801W        W37401  17.901   0.898   0.560 -0.0224 -0.1087 -0.2136
30802W        W37402   9.043   4.735   8.685 -0.1987 -0.1834 -0.0465
30803W        W37403   0.399   5.601  27.035  0.0062 -0.1597 -0.1733
30804W        W37404  14.133   0.039  11.639 -0.0644  0.0657  0.0006
30805W        W37405   8.755   2.283  28.466 -0.4442 -0.4895 -0.2407
30806W        W37406  13.355   2.658  29.762  0.0918  0.2046 -0.1592
30807W        W37407  11.927   4.714  14.430  0.0923 -0.0245  0.3183
30808W        W37408  15.162   5.304  32.499 -0.0816 -0.2026 -0.0387
30809W        W37409   2.552   2.619  37.200 -0.1632  0.2046  0.1265
30810W        W37410  13.229   6.141  38.116 -0.0582 -0.2367  0.0067
30811W        W37411   2.544   1.990   3.669 -0.0659 -0.1989 -0.4110
30812W        W37412   1.719   3.927  36.722 -0.0370 -0.1002  0.2444
30813W        W37413  14.617   5.717  18.597 -0.1690  0.1289 -0.1312
30814W        W37414   0.772   3.581   5.275 -0.0594 -0.0362 -0.0855
30815W        W37415  16.558   4.445   4.794  0.0044  0.1178 -0.3043
30816W        W37416  18.526   6.240  27.529  0.1270  0.0531 -0.0206
30817W        W37417  12.703   4.844  17.459  0.1862 -0.1414  0.3128
30818W        W37418   9.509   0.210  31.544  0.0533  0.0838  0.0545
30819W        W37419   6.226   4.750  29.318  0.0575 -0.0042  0.0515
30820W        W37420   9.237   3.080  12.552  0.0861 -0.2912  0.0318
30821W        W37421  20.553   6.092  37.932  0.0916 -0.1438  0.0289
30822W        W37422  11.232   5.077  33.029  0.1872  0.1290  0.0179
30823W        W37423  16.868   2.737  21.702  0.1971 -0.0773  0.2068
30824W        W37424  13.624   5.680   8.914  0.2039  0.0099 -0.0393
30825W        W37425   8.954   5.872  40.892 -0.0128  0.0080 -0.0814
30826W        W37426   8.975   1.740  43.074  0.0276  0.2084  0.1189
30827W        W37427  18.678   3.556  17.077 -0.1260  0.0297  0.2015
30828W        W37428  20.519   6.433  42.810 -0.0669 -0.0823  0.2550
30829W        W37429   4.382   0.357  43.216  0.0035  0.0120  0.1998
30830W        W37430   1.078   5.170   2.291  0.1597 -0.1449 -0.2185
30831W        W37431   1.848   5.003  11.405 -0.1543 -0.0856  0.0767
30832W        W37432  12.795   3.846  10.014  0.0274  0.0746 -0.2491
30833W        W37433  14.415   3.771   2.545 -0.0058  0.1622  0.0761
30834W        W37434  16.763   3.355   0.958 -0.1628  0.2297 -0.1537
30835W        W37435   2.102   0.728  44.917  0.0989  0.3269  0.0101
30836W        W37436   3.873   2.908   2.205  0.1255 -0.3073 -0.1927
30837W        W37437   8.235   0.838   6.764 -0.0001  0.0106 -0.2657
30838W        W37438  20.374   4.336  42.033 -0.0015  0.2338  0.0731
30839W        W37439  11.613   1.103   2.857  0.1988 -0.3172  0.0015
30840W        W37440   3.739   1.581  44.168  0.1472 -0.0752 -0.0390
30841W        W37441   1.477   3.512  28.095 -0.1046 -0.0782  0.0796
30842W        W37442   2.530   0.156  11.424  0.0231  0.0068  0.0006
30843W        W37443   5.752   4.386   7.435  0.0485 -0.0669 -0.1408
30844W        W37444   8.508   1.151  36.329  0.1280  0.1040  0.1265
30845W        W37445   8.640   4.541  16.667  0.0804 -0.0070 -0.1591
30846W        W37446   2.749   2.394  42.309 -0.1158  0.0754 -0.1109
30847W        W37447   3.191   6.252   6.998  0.0536 -0.0410 -0.1065
30848W        W37448   3.929   3.821  31.430  0.2925 -0.0277 -0.0292
30849W        W37449   7.797   2.874  13.859  0.2909 -0.2581  0.1098
30850W        W37450   9.216   2.694  34.713 -0.1587  0.0818 -0.0668
30851W        W37451   8.413   2.879   5.185 -0.0355 -0.0527  0.0926
30852W        W37452  14.496   1.707  36.925 -0.2392 -0.1106  0.1793
30853W        W37453  11.092   0.371  35.178  0.1384  0.1789  0.0191
30854W        W37454  17.369   4.625  13.598 -0.0049  0.2087 -0.4536
30855W        W37455   7.871   6.345   0.284  0.0738 -0.0002 -0.0470
30856W        W37456  10.968   2.869  17.886 -0.0777 -0.2429  0.0806
30857W        W37457  15.830   2.940  19.240 -0.0581 -0.1078 -0.1491
30858W        W37458  17.105   5.987  20.134  0.0762  0.0660 -0.2784
30859W        W37459  13.325   1.050  30.688 -0.2949  0.0433 -0.0727
30860W        W37460  11.832   5.781   9.613  0.0778 -0.2650 -0.0138
30861W        W37461  16.405   4.301  43.027 -0.0734 -0.0661  0.0700
30862W        W37462  18.312   6.136  38.491 -0.3087  0.1122  0.2616
30863W        W37463  11.018   2.724  19.363 -0.0865  0.1438 -0.0896
30864W        W37464   4.223   0.885   5.213 -0.1312 -0.3285  0.1558
30865W        W37465  12.400   2.958   1.605  0.1056 -0.0060 -0.0921
30866W        W37466   6.155   6.332  40.622  0.0672 -0.1301 -0.0989
30867W        W37467  16.061   5.800   0.706  0.3592 -0.1255  0.3244
30868W        W37468  14.684   5.434  16.843 -0.2563  0.0306  0.0591
30869W        W37469  13.530   5.671   1.117  0.0941 -0.2905  0.2292
30870W        W37470  12.438   5.152  15.937 -0.1285 -0.1302 -0.0919
30871W        W37471  11.369   0.441  41.455  0.2176 -0.1663  0.2782
30872W        W37472  13.709   3.593  13.030 -0.0526 -0.2770 -0.2325
30873W        W37473   5.335   1.882  34.920  0.2574  0.0760  0.0595
30874W        W37474  20.208   6.488  40.304 -0.4558  0.0565  0.0697
30875W        W37475  11.775   2.938  18.630 -0.0733  0.1034  0.1027
30876W        W37476   7.738   5.944  10.715 -0.0438  0.1891 -0.3352
30877W        W37477   3.071   4.332  30.487 -0.1879  0.3040  0.1257
30878W        W37478   2.422   0.094  42.175 -0.0960  0.1657  0.2785
30879W        W37479  13.585   6.435  26.325 -0.0734  0.2728  0.1097
30880W        W37480  10.494   5.819  30.295  0.0260 -0.0789  0.1587
30881W        W37481  12.829   2.989  45.027  0.1029  0.0658 -0.0813
30882W        W37482  17.660   2.058  35.174 -0.1362  0.2044 -0.2754
30883W        W37483   5.570   3.597  28.061 -0.2249 -0.0897 -0.1457
30884W        W37484   4.184   0.133  27.239  0.0444 -0.2011 -0.4027
30885W        W37485   6.612   6.085   8.169 -0.0675  0.0103  0.1876
30886W        W37486  12.807   0.658  17.536  0.0964  0.1538  0.1371
30887W        W37487  18.206   3.113  12.096 -0.0320  0.3720  0.0806
30888W        W37488   9.014   5.575  12.635 -0.3880 -0.0831 -0.3779
30889W        W37489  13.935   4.211  17.461 -0.3893  0.1482 -0.1939
30890W        W37490   4.190   2.776   1.578 -0.0807  0.0506  0.0600
30891W        W37491  15.859   5.069  15.384 -0.0466  0.2206  0.0229
30892W        W37492   9.727   2.647   1.712 -0.1893  0.3731 -0.0030
30893W        W37493  20.213   5.521  37.175 -0.0223  0.0356 -0.0188
30894W        W37494  12.345   0.265   8.946  0.1406  0.0331  0.1050
30895W        W37495  10.417   0.557  29.325 -0.2463 -0.2551  0.1113
30896W        W37496  18.706   4.602  11.708  0.0425 -0.1909  0.3136
30897W        W37497   6.916   0.644  33.515 -0.0081 -0.2636  0.2189
30898W        W37498  11.258   3.404  14.966 -0.1276  0.1289 -0.1352
30899W        W37499  19.082   4.893  15.627  0.0292  0.1609  0.0605
30900W        W37500  12.848   6.118  30.878  0.0092 -0.1552  0.0109
30901W        W37501  11.996   5.119  32.046  0.0442  0.1061  0.0990
30902W        W37502   0.825   2.019  42.829 -0.1428  0.3354  0.2255
30903W        W37503   4.841   2.333  37.649  0.2642 -0.1563 -0.3415
30904W        W37504  12.283   6.118   5.173 -0.0205  0.3874  0.0401
30905W        W37505   5.628   4.851  43.820  0.0180 -0.1104 -0.2971
30906W        W37506   7.073   5.051  27.692  0.3637  0.3420  0.0808
30907W        W37507  18.976   6.524  31.944 -0.1208  0.1284  0.0619
30908W        W37508   4.967   5.750  25.158  0.1663  0.0674  0.0715
30909W        W37509   4.337   4.554  11.128 -0.2781  0.0792 -0.1279
30910W        W37510   3.263   1.570   6.762 -0.1009  0.0851 -0.1587
30911W        W37511  13.278   2.240  31.066  0.3146  0.1600 -0.2160
30912W        W37512  17.962   5.691  10.551  0.0134  0.0067 -0.0014
30913W        W37513   4.269   0.661  42.771 -0.0268 -0.0415 -0.0154
30914W        W37514  11.476   3.310   4.244  0.1110  0.1219  0.0791
30915W        W37515   4.930   2.825   1.023  0.1015 -0.2284  0.5104
30916W        W37516  11.714   4.081   0.754  0.0440 -0.2084  0.0622
30917W        W37517  18.041   3.112  13.716  0.0533  0.1120 -0.0504
30918W        W37518  18.541   5.234  44.708  0.2225  0.0905 -0.0636
30919W        W37519  14.577   0.520  30.562 -0.2727 -0.0798  0.1874
30920W        W37520   9.276   3.548  17.895  0.1329  0.0603  0.1598
30921W        W37521  18.057   3.157  19.159 -0.2063 -0.2381  0.2601
30922W        W37522  20.974   1.845  26.334 -0.2395 -0.0095  0.0562
30923W        W37523   1.178   6.129  10.964 -0.1235 -0.0099 -0.1496
30924W        W37524  15.023   3.165  39.125  0.3457 -0.0316  0.1126
30925W        W37525  18.777   3.642  29.127 -0.0867  0.3307  0.1512
30926W        W37526  12.030   4.480  21.350  0.1291 -0.1856 -0.1942
30927W        W37527   5.873   1.613  24.421  0.0483  0.0552 -0.1611
30928W        W37528   7.508   2.146  34.006  0.0934  0.0457 -0.2031
30929W        W37529  21.091   6.361  40.373 -0.0100  0.0995  0.2398
30930W        W37530   2.839   4.325  26.390 -0.1107 -0.0949 -0.2627
30931W        W37531  16.426   5.709   7.631  0.1834  0.1892 -0.1213
30932W        W37532  13.260   3.912  45.020 -0.3335  0.0029 -0.1317
30933W        W37533   4.356   2.158  20.038 -0.3315 -0.0505 -0.1856
30934W        W37534  16.139   1.796  21.318  0.0997 -0.1961  0.0705
30935W        W37535   1.946   5.150  28.602 -0.0632 -0.2027  0.0150
30936W        W37536  20.696   4.548   1.517 -0.0485 -0.0438  0.1664
30937W        W37537   9.578   3.206  40.864 -0.1086  0.2028 -0.0701
30938W        W37538  10.002   0.612  42.737 -0.3144  0.3102 -0.0935
30939W        W37539   6.449   6.130  42.883 -0.2544 -0.2481 -0.0881
30940W        W37540   0.371   5.737   4.622  0.0402  0.3952  0.0824
30941W        W37541  15.639   4.353  39.070 -0.0997  0.1177 -0.1420
30942W        W37542  20.806   5.485  27.527  0.0223  0.2102  0.1095
30943W        W37543  19.145   0.995  33.210 -0.0247 -0.1431 -0.0761
30944W        W37544  19.838   4.915  43.275  0.0547 -0.0154 -0.0096
30945W        W37545   2.419   1.495  23.555 -0.2073  0.0654  0.0749
30946W        W37546   3.100   1.979  20.862 -0.3008 -0.0585 -0.0146
30947W        W37547   1.632   5.890  31.249 -0.0337 -0.0523  0.1994
30948W        W37548   5.076   2.678  36.277  0.1588  0.1549 -0.0685
30949W        W37549  10.151   5.410   1.173  0.1997  0.0228 -0.1402
30950W        W37550  18.027   1.660  40.808  0.0904 -0.0871 -0.1330
30951W        W37551  13.603   6.041  10.289 -0.0614  0.1673  0.0616
30952W        W37552  11.960   0.397  30.157 -0.0239 -0.1526 -0.0260
30953W        W37553   2.637   1.700  22.172 -0.2696  0.0775  0.1772
30954W        W37554   7.556   0.292  14.460 -0.0792  0.1892 -0.2857
30955W        W37555   9.744   4.801  13.919  0.0591  0.2642  0.1092
30956W        W37556  16.575   2.403   9.869 -0.2150  0.0414  0.2142
30957W        W37557  18.803   0.648   6.362  0.1324  0.0356  0.1738
30958W        W37558   6.292   5.775   4.264  0.2164  0.2277 -0.0300
30959W        W37559   4.703   3.319  40.917  0.1708  0.3259  0.2492
30960W        W37560  11.711   2.874   7.098 -0.1364  0.2049  0.1382
30961W        W37561   7.343   5.316  37.057 -0.1509  0.3151  0.2472
30962W        W37562  11.249   4.423  18.944  0.0585  0.1684  0.2349
30963W        W37563  12.831   3.375  32.372  0.2293  0.3334 -0.0487
30964W        W37564  12.138   0.416  35.319  0.0041  0.0865 -0.2651
30965W        W37565  18.396   4.009  41.914 -0.0745  0.0406  0.0439
30966W        W37566  19.164   5.681  27.179  0.1923 -0.1270  0.1708
30967W        W37567  11.606   1.874   9.509  0.0327  0.1553 -0.0418
30968W        W37568  20.587   2.683  17.165 -0.2852  0.2290  0.2494
30969W        W37569  11.645   4.048  11.766 -0.1036  0.0866  0.1959
30970W        W37570   9.202   5.207  13.428  0.0155  0.0421  0.2498
30971W        W37571   8.580   5.760  35.617  0.0635  0.1821 -0.1262
30972W        W37572  17.907   1.935   2.377 -0.3514  0.1603  0.0969
30973W        W37573  12.473   5.462  41.331 -0.4061  0.0612 -0.1842
30974W        W37574  18.379   2.007  34.975 -0.1820  0.0764  0.2797
30975W        W37575  14.761   3.603   4.405 -0.1217  0.0414 -0.1078
30976W        W37576   0.758   4.617  40.357  0.0176 -0.1242  0.1417
30977W        W37577  18.992   1.366  20.029  0.0074  0.2414  0.1973
30978W        W37578  13.746   4.701  32.202  0.0937 -0.2459  0.1430
30979W        W37579  18.628   0.654  12.041 -0.0989  0.0889  0.0249
30980W        W37580   3.877   2.432  32.630  0.1247  0.1758  0.0007
30981W        W37581   3.696   3.109   5.678  0.0723 -0.1422 -0.0876
30982W        W37582  17.748   4.836  19.642 -0.1309 -0.2152 -0.0297
30983W        W37583   1.714   2.774  32.226  0.0517  0.0136  0.0054
30984W        W37584  16.168   4.268  32.239  0.1300  0.0541 -0.0090
30985W        W37585   2.939   2.063  30.082  0.0544  0.1777 -0.3110
30986W        W37586  18.224   3.424   2.804 -0.1570 -0.2382 -0.4063
30987W        W37587  10.900   5.700  10.294 -0.1543  0.2933 -0.0606
30988W        W37588   8.262   5.376   7.073 -0.0399 -0.1679 -0.0585
30989W        W37589   9.564   5.341   2.475  0.0264 -0.1595  0.0601
30990W        W37590   4.795   4.119   9.089  0.3505  0.3201  0.1582
30991W        W37591   8.403   1.502  40.678  0.0609  0.0233  0.0526
30992W        W37592   2.435   5.263   2.180 -0.0450 -0.2119  0.0834
30993W        W37593  18.247   5.242  31.445  0.1592 -0.2845 -0.0869
30994W        W37594  20.794   5.943  13.484 -0.2847 -0.0033  0.1355
30995W        W37595   3.742   1.025  29.486  0.3288  0.0683  0.0892
30996W        W37596  18.900   3.168  17.249 -0.0652  0.3259 -0.2785
30997W        W37597   0.708   1.147   9.294  0.0989  0.2240 -0.0707
30998W        W37598  20.682   4.790  17.068 -0.1935 -0.1087  0.2929
30999W        W37599  14.252   1.619   9.054  0.2654 -0.1840 -0.1616
31000W        W37600   0.871   4.950  37.013 -0.1117 -0.0977 -0.2747
31001W        W37601  20.832   1.927   4.912 -0.2550 -0.1586 -0.1472
31002W        W37602   1.297   6.239  28.130 -0.3509 -0.3983  0.0770
31003W        W37603   6.286   0.365  10.631 -0.0916  0.1821 -0.0213
31004W        W37604   7.127   6.037  38.009  0.0749 -0.0690  0.0435
31005W        W37605  11.349   3.788   9.609  0.2401 -0.1419 -0.1736
31006W        W37606  15.194   0.866  14.251  0.2772 -0.1522 -0.2579
31007W        W37607  13.447   3.457  44.723  0.1950 -0.1789 -0.1194
31008W        W37608  17.296   3.920  30.988 -0.2890 -0.0508  0.0524
31009W        W37609   1.426   5.220  10.751  0.0579 -0.1085  0.0399
31010W        W37610   2.201   2.236   3.344 -0.1344 -0.0523 -0.2010
31011W        W37611  19.097   0.371  37.638 -0.3493  0.1663 -0.2697
31012W        W37612   2.000   1.030  10.322  0.1104  0.2144  0.0401
31013W        W37613  11.917   1.695  12.442  0.3312  0.2533  0.0481
31014W        W37614  11.889   5.294  19.388  0.0554  0.0232  0.0474
31015W        W37615   4.342   3.072  14.270 -0.1791  0.1214  0.2085
31016W        W37616  17.074   0.151   6.454 -0.0186 -0.1806 -0.2585
31017W        W37617  19.365   2.426   5.658  0.0628 -0.0229 -0.1241
31018W        W37618  12.260   5.586  38.768 -0.3967 -0.3173  0.2399
31019W        W37619   3.977   3.561  11.486 -0.1277  0.1424  0.0169
31020W        W37620  19.087   1.372  13.930  0.3163 -0.1512  0.1207
31021W        W37621  10.186   3.632  12.210  0.2723  0.0951 -0.1397
31022W        W37622  14.937   3.383   3.959 -0.1216  0.1562  0.0108
31023W        W37623   8.574   4.037   0.023 -0.0745 -0.0699  0.0478
31024W        W37624   1.710   0.873  32.377 -0.1432  0.1593  0.3608
31025W        W37625  13.534   2.110   3.763 -0.1732 -0.0394  0.0302
31026W        W37626  20.026   0.292   8.295 -0.0548 -0.1443  0.2393
31027W        W37627   8.237   3.001  10.514 -0.1557 -0.2033  0.1019
31028W        W37628  15.766   0.060  16.248  0.0018  0.0495 -0.2220
31029W        W37629   9.021   0.169  40.737 -0.1533  0.3326 -0.2625
31030W        W37630   9.950   2.107  42.866 -0.1565  0.1399 -0.1269
31031W        W37631  13.713   1.088  36.641 -0.1698 -0.0482  0.1778
31032W        W37632   7.637   1.639  27.703 -0.0354 -0.0459  0.1354
31033W        W37633  16.804   2.243  38.974 -0.0540 -0.0120 -0.0869
31034W        W37634  15.005   2.031  21.205  0.1310  0.0390  0.1358
31035W        W37635  10.391   5.725  10.097 -0.0968  0.0534 -0.0261
31036W        W37636  13.636   3.177  42.630 -0.2038 -0.1694 -0.0608
31037W        W37637  10.634   1.884   6.918  0.3034  0.2569 -0.0509
31038W        W37638  10.847   6.147  27.857  0.1592 -0.1680  0.2035
31039W        W37639   9.940   5.219  32.386 -0.0099  0.0428 -0.1224
31040W        W37640   3.354   4.765   9.284 -0.1491 -0.2644 -0.2208
31041W        W37641   7.436   0.395  31.193  0.1745  0.1356 -0.0090
31042W        W37642  20.779   0.173  12.983  0.0411  0.1423  0.2837
31043W        W37643   7.767   2.079  26.513 -0.0635 -0.1364  0.3676
31044W        W37644  12.519   6.280   2.026  0.0897 -0.2132  0.2593
31045W        W37645  10.903   5.779   2.018 -0.0288 -0.0353  0.3290
31046W        W37646   3.380   1.064  13.078  0.0074  0.0290 -0.0634
31047W        W37647   3.385   6.580  16.107  0.2580 -0.3773 -0.0806
31048W        W37648  11.103   5.580  16.010  0.3257  0.0407  0.0926
31049W        W37649   2.712   5.244  23.161  0.0328 -0.1026 -0.1233
31050W        W37650  12.959   5.748   0.857 -0.2953 -0.0709  0.0250
31051W        W37651  19.392   3.576  45.080 -0.2759 -0.0472  0.3112
31052W        W37652   5.751   0.606  26.889 -0.0962  0.1484 -0.0999
31053W        W37653  18.901   0.985  38.488  0.1146  0.1026 -0.2251
31054W        W37654  20.805   3.281   1.544 -0.0387 -0.1215  0.0739
31055W        W37655  11.066   6.048   3.025 -0.0790  0.1755 -0.0944
31056W        W37656  16.264   1.719  36.222  0.0748  0.0575  0.1396
31057W        W37657  18.930   3.918  32.909 -0.1854  0.4029 -0.1626
31058W        W37658  15.752   1.234   4.928 -0.1090  0.1707  0.3294
31059W        W37659   9.286   3.592  17.340 -0.0473  0.1754 -0.1681
31060W        W37660  16.047   0.958  14.747  0.0798 -0.2804  0.3907
31061W        W37661  15.444   3.194  14.100  0.0292  0.1680 -0.4648
31062W        W37662  19.606   5.031  32.350  0.0394 -0.1069 -0.0836
31063W        W37663   8.797   5.148   5.776 -0.1983 -0.0636 -0.1171
31064W        W37664   8.962   1.215  35.544  0.2398  0.0979 -0.0296
31065W        W37665  13.354   2.214  30.035 -0.1325  0.1912 -0.2687
31066W        W37666   3.020   3.258   2.017  0.1685 -0.0354 -0.1252
31067W        W37667  11.281   5.187  36.254 -0.1046 -0.2826  0.2946
31068W        W37668   4.161   3.459  37.803  0.0633 -0.0480  0.0447
31069W        W37669   2.182   1.867  28.036  0.0109 -0.1495 -0.3399
31070W        W37670   6.300   1.723  26.799  0.0589 -0.0982  0.2112
31071W        W37671   3.810   6.510  15.813  0.1490 -0.0113 -0.0650
31072W        W37672   1.629   0.870   1.702 -0.4124  0.0618 -0.2836
31073W        W37673  14.501   6.465   2.361 -0.0081 -0.1558 -0.0353
31074W        W37674   0.396   2.774  42.513  0.0051 -0.4503  0.1596
31075W        W37675   2.893   5.947  23.831  0.4402  0.2538 -0.0424
31076W        W37676  14.035   1.676  14.967 -0.1610  0.0548 -0.2294
31077W        W37677  11.763   3.416   2.651 -0.1307  0.1049  0.1960
31078W        W37678  20.145   2.005  17.161 -0.1188  0.0681  0.0185
31079W        W37679   3.838   6.001  10.619 -0.0729 -0.1513  0.3122
31080W        W37680  18.119   4.042  16.567  0.0193  0.0347 -0.3754
31081W        W37681   2.505   2.493   9.195  0.0930 -0.0501  0.0452
31082W        W37682  13.305   2.962  44.087  0.0875 -0.3198 -0.3140
31083W        W37683   0.171   1.947  33.735 -0.0064 -0.0074  0.0717
31084W        W37684  19.505   0.202  33.686  0.0562  0.1765 -0.2217
31085W        W37685  19.410   2.684  43.176 -0.2755 -0.1405  0.0209
31086W        W37686  19.846   4.415   4.106  0.1960  0.2942 -0.0425
31087W        W37687  13.584   2.853   6.604 -0.0869 -0.0921  0.1187
31088W        W37688  17.025   5.361  33.448  0.1463  0.1098  0.0443
31089W        W37689  19.168   1.961  39.946  0.0281 -0.2191 -0.0634
31090W        W37690   2.688   0.982   2.345 -0.3034  0.0745 -0.1433
31091W        W37691  15.642   0.635  44.804 -0.2872  0.0947 -0.1933
31092W        W37692  11.224   0.270   2.017 -0.3178  0.5080  0.0064
31093W        W37693   4.546   1.829  29.748 -0.2449 -0.1746  0.1795
31094W        W37694   6.274   0.020  24.425 -0.2601 -0.0055 -0.2433
31095W        W37695  20.412   4.129  36.577  0.0570  0.0664  0.1340
31096W        W37696   6.756   5.550  30.939  0.0336 -0.3259 -0.1437
31097W        W37697  21.048   0.991  16.308 -0.1530 -0.1256 -0.0465
31098W        W37698   1.007   2.524   0.389  0.0822  0.0054  0.3966
31099W        W37699  16.271   5.115  22.081 -0.3322  0.0499 -0.1441
31100W        W37700  15.504   3.289   9.838 -0.1856 -0.0841 -0.0268
31101W        W37701   0.680   3.151   3.200 -0.0284  0.0260  0.0258
31102W        W37702  10.822   0.921  29.145 -0.0464 -0.1482 -0.2620
31103W        W37703   2.880   3.181  11.473 -0.2474 -0.1262 -0.1098
31104W        W37704   4.727   1.186  36.586  0.2393  0.0052 -0.3043
31105W        W37705   4.028   5.998   4.145  0.0407  0.0514 -0.0674
31106W        W37706  10.387   0.964  32.962  0.2080  0.0385  0.0378
31107W        W37707  16.359   3.557  35.838 -0.1473 -0.1675  0.0670
31108W        W37708   7.239   5.500   6.515 -0.1525  0.0355 -0.1607
31109W        W37709  18.662   5.939  11.757 -0.1229 -0.1855 -0.3334
31110W        W37710  14.216   1.575  41.561  0.1136  0.0847 -0.2892
31111W        W37711   3.945   0.219   9.668 -0.0871  0.0393 -0.0835
31112W        W37712   4.132   5.441  12.106  0.0947  0.0582  0.0402
31113W        W37713   9.607   1.826   3.864  0.1583 -0.2099 -0.0589
31114W        W37714  20.359   6.100  30.564 -0.1537  0.2300 -0.0635
31115W        W37715   3.225   5.615   8.445  0.0938  0.1520 -0.1729
31116W        W37716  10.711   1.240   7.489  0.1284  0.2152 -0.0408
31117W        W37717  16.712   4.475   1.292  0.0139  0.1196 -0.2093
31118W        W37718  19.142   0.112  13.631  0.1223  0.0471 -0.2845
31119W        W37719  15.738   1.753  34.224  0.1637 -0.1036  0.0042
31120W        W37720   0.418   0.961  16.160 -0.0910  0.1597  0.0629
31121W        W37721   6.999   0.450  39.152 -0.0005 -0.1092 -0.3032
31122W        W37722  13.199   0.813  13.294  0.0503 -0.0267 -0.2586
31123W        W37723   3.100   5.464  15.625  0.0526 -0.0180  0.0996
31124W        W37724  18.123   5.719  28.516 -0.0561  0.1937 -0.1926
31125W        W37725  16.449   1.878  18.069  0.0991 -0.0759  0.1145
31126W        W37726   6.656   6.455  38.400 -0.4128  0.0823  0.1488
31127W        W37727  20.219   1.575  34.653  0.1519  0.3696  0.2575
31128W        W37728  13.625   0.333  40.010  0.1810 -0.3023  0.0210
31129W        W37729   3.496   6.582  22.859 -0.0925  0.1321 -0.0995
31130W        W37730   1.738   4.869  42.954 -0.1685 -0.1416 -0.1117
31131W        W37731   3.127   3.874  35.942 -0.0797 -0.2285 -0.3441
31132W        W37732  20.381   1.249  11.795 -0.1182 -0.2607  0.0282
31133W        W37733  14.462   2.652  37.716  0.0920 -0.2756 -0.0536
31134W        W37734  11.448   0.537   9.808 -0.1297 -0.1218  0.2322
31135W        W37735  20.929   1.300  45.036  0.0518  0.3238 -0.0939
31136W        W37736  20.768   6.300  12.927 -0.2076  0.2428  0.3012
31137W        W37737   3.100   4.628  14.341  0.0811  0.0321  0.0468
31138W        W37738  11.019   2.673  36.500 -0.0114  0.0000 -0.0967
31139W        W37739  16.218   2.204  29.682  0.0337  0.1527 -0.0088
31140W        W37740  11.979   1.093  34.467  0.3359  0.0008  0.1795
31141W        W37741   2.755   1.225  40.627 -0.0734  0.0030 -0.0672
31142W        W37742  16.714   4.508  16.137 -0.1734  0.1710  0.2393
31143W        W37743   8.100   5.517  10.234 -0.0105  0.0677 -0.1720
31144W        W37744   5.374   4.917  15.097  0.2496 -0.0256 -0.1721
31145W        W37745   0.515   3.683   1.204  0.1694  0.1091 -0.1134
31146W        W37746  10.671   0.329  12.586 -0.1872 -0.0827  0.5383
31147W        W37747   8.826   2.930  34.922  0.1241  0.2342  0.0207
31148W        W37748  18.435   5.092   9.991 -0.1134  0.1142  0.3304
31149W        W37749   2.246   1.130  14.013 -0.1597 -0.2729 -0.1211
31150W        W37750  10.679   6.559  31.625  0.0014  0.1716  0.0158
31151W        W37751   8.394   3.111  34.774  0.0906  0.0924 -0.1207
31152W        W37752  10.593   2.710  10.439 -0.0108  0.1598  0.0909
31153W        W37753  16.282   5.178  42.905 -0.0363 -0.0638 -0.1265
31154W        W37754  14.703   5.501  12.027  0.0404 -0.1143  0.2041
31155W        W37755   5.887   1.951  28.432  0.1148  0.3501 -0.0152
31156W        W37756   8.483   4.544  29.051 -0.4038 -0.2339 -0.0655
31157W        W37757  17.115   6.008  35.221  0.0435 -0.0718  0.0023
31158W        W37758  12.091   4.991  32.562  0.0388  0.1224 -0.3051
31159W        W37759  11.429   1.622   2.722 -0.0600  0.1263  0.0406
31160W        W37760   8.518   5.474  33.533  0.0555 -0.1528 -0.0931
31161W        W37761   1.045   1.192  39.919  0.0823  0.1332 -0.1018
31162W        W37762   5.093   3.204  34.834 -0.2365  0.0012 -0.1735
31163W        W37763   4.809   4.954   0.650  0.1122  0.1179  0.0818
31164W        W37764   8.550   6.207   0.606 -0.0968 -0.0731  0.0957
31165W        W37765   9.368   2.460  16.449 -0.4057 -0.0649  0.2127
31166W        W37766  16.366   0.543  31.937 -0.0315 -0.3128 -0.0143
31167W        W37767  14.091   5.722  18.611  0.0160  0.2793  0.3726
31168W        W37768  14.635   0.643  11.406 -0.3854 -0.0172 -0.2573
31169W        W37769  13.836   4.248  22.984 -0.2112  0.2702  0.0046
31170W        W37770  19.248   2.023   9.426 -0.0294  0.0355 -0.1330
31171W        W37771   3.683   5.070  45.068 -0.1881 -0.0929 -0.1146
31172W        W37772  19.928   3.493   4.327  0.1741  0.0223  0.0211
31173W        W37773   3.938   6.179  30.716  0.0052  0.1229 -0.3048
31174W        W37774   7.663   2.102  12.252  0.0082  0.0214 -0.1407
31175W        W37775   6.653   4.172  39.318 -0.1226 -0.0387 -0.0783
31176W        W37776   8.977   3.509  27.268 -0.1639  0.1600  0.1647
31177W        W37777  17.448   4.335   4.581 -0.2278 -0.1837 -0.1187
31178W        W37778   0.622   2.639  24.050 -0.1060 -0.1809 -0.0978
31179W        W37779   3.119   2.723  14.477 -0.0460 -0.1348 -0.2756
31180W        W37780   4.169   0.838   2.220 -0.0431 -0.2918  0.1381
31181W        W37781  12.290   1.807  38.893  0.0274 -0.0421 -0.1364
31182W        W37782   3.915   1.328  36.355  0.1437 -0.0443 -0.0098
31183W        W37783   6.149   2.569  24.727 -0.0015  0.1279  0.0580
31184W        W37784  16.499   4.244  30.577  0.0700  0.0839 -0.1586
31185W        W37785  12.896   5.149  22.844 -0.1229 -0.0231 -0.1505
31186W        W37786   4.107   2.565  30.611 -0.1455  0.0750 -0.2155
31187W        W37787  11.477   1.655  34.941  0.0425  0.3520 -0.1580
31188W        W37788  14.170   4.551   7.174  0.2714 -0.0072 -0.1421
31189W        W37789   7.643   2.564  37.692  0.2813 -0.1152 -0.2144
31190W        W37790   9.400   2.547   7.222  0.0186  0.1233  0.0842
31191W        W37791  13.075   1.566  19.639 -0.2261  0.1322 -0.2567
31192W        W37792  18.092   1.306  33.137  0.0085  0.0262 -0.0054
31193W        W37793  14.200   6.076  42.779 -0.1278 -0.0927  0.2312
31194W        W37794  15.462   2.756  17.519 -0.3041 -0.0137 -0.0980
31195W        W37795   6.020   0.772  30.436 -0.0330  0.0177  0.0458
31196W        W37796  20.050   1.638   9.560  0.1157 -0.2430 -0.2753
31197W        W37797  11.237   0.526  16.770 -0.0606 -0.3000 -0.2107
31198W        W37798   9.433   4.654  37.284  0.1562 -0.1906  0.1002
31199W        W37799  20.237   5.573   8.865  0.1196  0.0826 -0.2992
31200W        W37800  15.070   4.629  13.834  0.1989 -0.2086  0.3945
31201W        W37801  17.846   0.554   3.869 -0.2649 -0.1655 -0.0418
31202W        W37802   2.487   3.998  27.730 -0.2385 -0.1601  0.1741
31203W        W37803  14.936   0.090  39.061  0.0257 -0.4982 -0.0780
31204W        W37804   1.375   4.439  41.580 -0.0554 -0.0090 -0.0685
31205W        W37805   8.192   3.045  29.075 -0.2104  0.1476 -0.0567
31206W        W37806  20.715   1.803  28.173  0.0676  0.0531  0.1245
31207W        W37807  10.505   0.104  30.750 -0.2161 -0.0260 -0.0958
31208W        W37808   3.308   1.521   1.865  0.1280  0.0843 -0.0014
31209W        W37809   8.874   2.466  16.371  0.1866  0.1614 -0.1878
31210W        W37810  18.365   6.471  33.490  0.1748 -0.3066 -0.1009
31211W        W37811   8.408   5.068   0.091  0.3054  0.1751  0.1040
31212W        W37812   1.664   3.380  13.700 -0.3667  0.0427  0.1419
31213W        W37813   5.724   5.746  39.601 -0.0034 -0.1051  0.0516
31214W        W37814  13.623   5.648   7.822  0.1844 -0.0391  0.2008
31215W        W37815  18.757   4.102  29.904  0.1588 -0.1761  0.0930
31216W        W37816  19.624   0.527  43.646  0.1085  0.2710  0.2356
31217W        W37817  20.790   3.439  14.848 -0.1682  0.1784 -0.2695
31218W        W37818   5.102   3.637  26.158  0.3723 -0.1816 -0.0290
31219W        W37819   2.177   6.062  22.846  0.1262  0.0315  0.1366
31220W        W37820  15.814   5.079  21.763 -0.1259 -0.2243 -0.0930
31221W        W37821   6.105   4.189  42.596 -0.1619 -0.0374 -0.1452
31222W        W37822   1.399   5.825   8.201  0.0202  0.0449 -0.1865
31223W        W37823  13.230   1.818  43.282  0.1758 -0.1523 -0.0313
31224W        W37824  12.499   4.901   9.243  0.1010  0.1844 -0.2927
31225W        W37825  12.962   3.739   9.514  0.0179  0.0873 -0.1501
31226W        W37826   4.629   4.644  41.092  0.0325 -0.1587 -0.1499
31227W        W37827  10.951   4.036  38.086 -0.0536 -0.0739 -0.0178
31228W        W37828  10.705   1.547  45.003  0.1574  0.0849 -0.1163
31229W        W37829  13.877   1.413   2.481  0.0886 -0.0064 -0.2525
31230W        W37830   0.407   1.698  42.708 -0.0522 -0.1117 -0.0368
31231W        W37831  20.981   3.405  30.600 -0.1521 -0.0289  0.2242
31232W        W37832   1.229   2.286   0.756  0.1312  0.3136 -0.1262
31233W        W37833   0.466   1.058   7.150 -0.0314 -0.0952  0.0464
31234W        W37834   0.597   1.456  39.980 -0.3521 -0.1710 -0.2194
31235W        W37835  17.255   2.082  41.046 -0.1412 -0.1248  0.1552
31236W        W37836   3.430   5.846  20.377  0.0248  0.2311  0.0923
31237W        W37837  12.671   4.532   8.797  0.2513  0.1897 -0.1338
31238W        W37838  13.715   2.242  29.662 -0.0672 -0.0802  0.0219
31239W        W37839  16.657   1.574   0.606 -0.1186 -0.1424  0.0465
31240W        W37840  10.416   5.391  32.304 -0.2598 -0.1500 -0.1718
31241W        W37841  10.576   1.532   9.758 -0.1299 -0.2033  0.2108
31242W        W37842   4.528   4.702  22.597 -0.0650 -0.0402 -0.1201
31243W        W37843  18.271   0.093   3.593  0.1600 -0.1911  0.0901
31244W        W37844  20.766   2.406  14.807 -0.1809  0.1233  0.0272
31245W        W37845  13.928   3.204   8.795 -0.1738  0.4637 -0.1424
31246W        W37846   5.589   1.672  32.127 -0.1738 -0.0578  0.0920
31247W        W37847  15.320   2.041  30.189  0.0791  0.5929 -0.2628
31248W        W37848   6.328   3.064  24.857 -0.1085 -0.0732 -0.3286
31249W        W37849  14.541   4.440  41.272 -0.1513  0.0878  0.0121
31250W        W37850   2.157   2.318   4.492 -0.0145  0.0455  0.1475
31251W        W37851  20.944   4.871  29.256 -0.1789 -0.2681  0.0985
31252W        W37852   0.358   3.962   3.409 -0.2353  0.0360 -0.2506
31253W        W37853  19.571   2.983  38.812  0.2278  0.2425  0.1301
31254W        W37854   6.936   0.773   3.737 -0.0855  0.1796 -0.0637
31255W        W37855  11.212   1.721  16.662 -0.1282  0.3718  0.0206
31256W        W37856  15.836   0.172  14.718 -0.0892 -0.0681 -0.1024
31257W        W37857  13.700   4.468  23.923  0.1429  0.0674 -0.2181
31258W        W37858   9.145   5.521  39.190 -0.1217 -0.1701  0.1194
31259W        W37859  13.154   2.713   6.904 -0.0491 -0.0363 -0.1971
31260W        W37860   2.245   5.611  15.034 -0.0996 -0.0396 -0.2915
31261W        W37861   3.541   2.492  13.363 -0.0699  0.1915 -0.0139
31262W        W37862  20.216   1.504  37.242  0.0543 -0.1059 -0.0567
31263W        W37863   1.368   4.236  29.867  0.0353  0.0849 -0.0092
31264W        W37864   9.669   5.934  31.322 -0.1169 -0.0606 -0.6331
31265W        W37865   3.131   5.996  34.284 -0.1373  0.0292 -0.1170
31266W        W37866   8.592   0.327  15.909  0.0348  0.0200  0.0849
31267W        W37867   5.732   2.903  37.830 -0.1582  0.0928 -0.1393
31268W        W37868   2.897   0.866   1.460 -0.1033  0.3366  0.3963
31269W        W37869  15.979   2.494  13.807 -0.1319 -0.1823 -0.1555
31270W        W37870   3.113   2.302   7.469 -0.0866  0.2038  0.2465
31271W        W37871  16.524   6.534  11.013  0.1129 -0.0389 -0.2433
31272W        W37872  14.216   4.168   8.634 -0.2080 -0.0709  0.0164
31273W        W37873  20.737   6.156  44.580  0.0947 -0.0785 -0.0089
31274W        W37874  19.121   4.589  27.118  0.3010  0.0496  0.2783
31275W        W37875  19.384   4.867  33.835 -0.1770 -0.2300  0.3290
31276W        W37876   7.550   4.133  13.977  0.1679 -0.0448  0.0353
31277W        W37877   8.042   6.325  25.750  0.2782 -0.0316 -0.2014
31278W        W37878   2.134   2.801  38.673  0.1820 -0.0861  0.2905
31279W        W37879   4.975   1.134  45.053  0.0321 -0.3349 -0.0385
31280W        W37880   2.008   4.897  38.159 -0.1912 -0.3227 -0.1237
31281W        W37881   5.997   4.870  40.443 -0.2262 -0.1493 -0.0236
31282W        W37882  13.803   0.998  10.068 -0.3295 -0.2497 -0.1765
31283W        W37883  18.689   2.047  35.368  0.1414 -0.1890  0.5087
31284W        W37884   8.643   2.785   7.305  0.1149  0.1786 -0.1454
31285W        W37885   6.543   3.044  44.081  0.1734 -0.2819 -0.1537
31286W        W37886   3.351   0.746  34.492 -0.2464 -0.1890  0.2057
31287W        W37887  14.681   6.445   9.080 -0.2319 -0.0733 -0.1667
31288W        W37888   1.334   4.163  24.579 -0.0120 -0.1132 -0.0619
31289W        W37889  13.051   4.904  38.061 -0.0111  0.0469  0.2986
31290W        W37890   7.248   5.536  43.101 -0.0494  0.3464 -0.1138
31291W        W37891   7.643   6.280  38.344  0.0232  0.1486  0.0238
31292W        W37892   1.989   1.608   7.815 -0.2219 -0.1189  0.2649
31293W        W37893  19.006   0.925  14.663  0.2149 -0.2785  0.1151
31294W        W37894  11.062   4.994   9.018  0.2003 -0.0008 -0.2059
31295W        W37895   6.735   2.163   4.904 -0.1713  0.0402 -0.1077
31296W        W37896   8.352   0.880  35.050 -0.2640  0.2309 -0.0813
31297W        W37897  13.008   4.338  13.491 -0.0487 -0.1373 -0.2557
31298W        W37898   7.243   1.128  16.177  0.2669  0.1275  0.2589
31299W        W37899  10.759   3.134   8.071 -0.1074 -0.0118  0.1819
31300W        W37900  11.251   6.197  32.130 -0.1886 -0.0260 -0.1014
31301W        W37901  10.120   6.196   1.524 -0.0983 -0.1080  0.1712
31302W        W37902   5.441   2.491  13.210  0.0232 -0.2853  0.1773
31303W        W37903  17.977   6.536  43.353  0.2832 -0.0475  0.2496
31304W        W37904   0.175   3.408   8.830  0.1017 -0.0928  0.0795
31305W        W37905  19.696   0.729   2.332  0.2027 -0.0290  0.0844
31306W        W37906  13.370   4.015  13.781  0.0500 -0.0029 -0.0427
31307W        W37907  17.914   3.346  14.146 -0.0971 -0.0143 -0.1343
31308W        W37908   2.572   5.650  13.037  0.2187  0.0328 -0.2231
31309W        W37909  18.107   3.678   3.290 -0.1428  0.1135  0.1071
31310W        W37910   2.398   2.848  36.265 -0.0114  0.1148  0.0272
31311W        W37911  15.337   5.936  16.744  0.3529  0.1829 -0.0934
31312W        W37912  21.132   2.476  45.092  0.3453 -0.4424  0.1273
31313W        W37913   9.045   1.813  36.438 -0.3436 -0.0053 -0.3037
31314W        W37914  12.710   2.191  42.041  0.0135  0.0045  0.2249
31315W        W37915  13.086   4.677  34.657 -0.1146 -0.1060 -0.0145
31316W        W37916   0.591   3.028  39.500 -0.0778 -0.0142 -0.1209
31317W        W37917   5.870   0.924  27.338  0.1226 -0.0081  0.0922
31318W        W37918   4.337   3.073   7.560 -0.1956  0.2924 -0.0171
31319W        W37919  18.233   6.300  43.754  0.2989  0.2702  0.1088
31320W        W37920  12.772   4.433  16.225  0.0993 -0.1038  0.0229
31321W        W37921  16.982   2.097  10.138 -0.0859  0.1092 -0.1834
31322W        W37922   2.854   5.430  32.930 -0.0755 -0.0130 -0.0018
31323W        W37923  19.417   6.137  41.102  0.2827  0.0801  0.0809
31324W        W37924  15.607   6.083  33.010 -0.3365 -0.0724 -0.0915
31325W        W37925   4.054   2.746  23.638  0.3540 -0.1339 -0.1144
31326W        W37926   2.335   3.446  10.953 -0.0398  0.1320  0.0422
31327W        W37927   6.437   4.393   9.835  0.0752 -0.2343 -0.0274
31328W        W37928  14.691   1.552   1.286  0.0278  0.4187  0.0170
31329W        W37929  17.970   0.717  39.580 -0.0344  0.2036 -0.0090
31330W        W37930   9.841   2.994  43.390 -0.0070  0.0755 -0.5193
31331W        W37931   7.671   2.455  38.823  0.2919 -0.0567  0.1404
31332W        W37932  19.686   3.726   9.424 -0.1053 -0.2241 -0.1506
31333W        W37933   6.279   0.491  43.547  0.0876  0.1182 -0.0265
31334W        W37934   1.471   3.989  33.075  0.1368 -0.1079  0.0565
31335W        W37935   5.393   4.054  33.648 -0.2945  0.2603 -0.3596
31336W        W37936  20.334   2.847   2.272  0.0015  0.0079 -0.0371
31337W        W37937  17.643   6.564  39.177  0.0143  0.0726 -0.2251
31338W        W37938  19.152   3.390  32.748  0.2206  0.1977  0.0907
31339W        W37939  10.703   5.345  16.259  0.0805  0.1431  0.0699
31340W        W37940  19.673   2.495   6.473 -0.1581 -0.0429 -0.0998
31341W        W37941   7.053   5.013  35.632 -0.0136  0.1772  0.4698
31342W        W37942   1.416   6.507  38.038 -0.1529  0.0847 -0.1100
31343W        W37943   3.950   0.399  34.173  0.0241 -0.0581  0.0870
31344W        W37944  17.982   1.813   5.423  0.4183  0.0495  0.1650
31345W        W37945   6.913   2.307  14.547 -0.0714  0.2171 -0.3488
31346W        W37946   3.402   0.547   1.646 -0.0460 -0.0330 -0.1926
31347W        W37947  13.183   1.933   2.504  0.0280 -0.2152  0.2281
31348W        W37948  17.297   2.714  27.910  0.0269  0.0626 -0.2396
31349W        W37949   3.806   2.486   1.791  0.2065  0.0355 -0.1251
31350W        W37950   8.435   0.126  42.174  0.0499 -0.0566  0.2574
31351W        W37951  15.243   1.926  19.657 -0.1860  0.0110 -0.1645
31352W        W37952  15.609   3.853  23.262  0.0903  0.0324 -0.0928
31353W        W37953   6.519   4.923  34.017 -0.0962 -0.0766 -0.1856
31354W        W37954   8.263   3.368   2.234  0.0978  0.1012 -0.1821
31355W        W37955  15.415   4.781  37.428 -0.0192  0.1303  0.0955
31356W        W37956   1.783   2.377  11.540  0.3334  0.3168  0.1640
31357W        W37957  14.946   2.799  44.686 -0.2471  0.2332 -0.4708
31358W        W37958   3.284   1.453  13.886  0.2317  0.1653  0.0500
31359W        W37959  12.271   1.789  29.284 -0.1032  0.2765  0.3271
31360W        W37960  19.510   2.990   6.482  0.0483 -0.1356  0.0006
31361W        W37961   7.787   3.171   1.486  0.1536 -0.0823  0.0469
31362W        W37962  19.080   3.947   9.799  0.2186 -0.0714 -0.4104
31363W        W37963   0.775   1.115  41.164  0.0313 -0.1055  0.2197
31364W        W37964  11.535   4.025  36.577 -0.1372  0.0303 -0.0925
31365W        W37965   6.111   5.847  27.065 -0.0713  0.3916  0.3371
31366W        W37966   3.833   3.520  12.428 -0.1102 -0.0314  0.1176
31367W        W37967  12.934   4.863  32.395 -0.1558 -0.0327 -0.1231
31368W        W37968   2.158   0.351  41.472  0.0603 -0.3062  0.0681
31369W        W37969  15.840   0.520  30.560  0.0532 -0.0797 -0.2618
31370W        W37970   2.184   4.295  11.901 -0.1810  0.1289 -0.0043
31371W        W37971  10.540   3.855  31.088  0.1563  0.0575  0.1918
31372W        W37972  17.774   4.873  43.555 -0.1500  0.2067 -0.0123
31373W        W37973   0.350   3.925  43.820  0.1762  0.0248 -0.0144
31374W        W37974   6.115   4.382  36.226  0.1860 -0.0403 -0.0310
31375W        W37975   7.749   2.608  32.125  0.0091 -0.0557 -0.0253
31376W        W37976   3.709   1.274  23.950 -0.0470  0.2026  0.2329
31377W        W37977   5.061   2.523  35.594 -0.1977  0.2590  0.0638
31378W        W37978   3.886   4.826  20.003  0.1250 -0.0976  0.0508
31379W        W37979   8.563   1.055  13.690 -0.0090 -0.1612 -0.1139
31380W        W37980  15.610   4.481   0.032  0.2689  0.2059 -0.1796
31381W        W37981  11.457   5.677  20.225  0.1706 -0.0014  0.1625
31382W        W37982  13.085   6.210  21.830 -0.0775  0.0078  0.2844
31383W        W37983  19.939   6.532  13.158 -0.2658 -0.0892  0.1323
31384W        W37984  17.239   2.474  41.462 -0.0583  0.2398  0.1958
31385W        W37985   3.231   6.586  29.589 -0.0518 -0.0041  0.0476
31386W        W37986  16.481   3.216  12.310  0.1217  0.1554  0.2522
31387W        W37987  13.793   5.146  18.819  0.1375 -0.0132  0.3364
31388W        W37988   8.391   0.343  29.938 -0.2615 -0.1040  0.1241
31389W        W37989  20.879   1.273   8.891 -0.0054 -0.1160  0.2229
31390W        W37990  10.617   5.193  10.043  0.0118 -0.1291 -0.1365
31391W        W37991  19.377   6.319  14.356 -0.0242  0.3101  0.0416
31392W        W37992   7.909   1.320  27.470 -0.1527  0.0540 -0.1656
31393W        W37993   8.454   2.501  17.265  0.0081 -0.1661  0.0146
31394W        W37994   8.784   4.817  31.225 -0.2027  0.1340 -0.1337
31395W        W37995   2.712   1.765   9.666  0.2826 -0.2650 -0.3061
31396W        W37996  18.151   2.323  34.287 -0.0004 -0.1692 -0.0460
31397W        W37997  13.707   3.442   5.683 -0.0125  0.2257  0.0778
31398W        W37998   3.296   0.525  24.231  0.0407  0.0185 -0.0568
31399W        W37999  15.542   4.604  30.328  0.2248  0.0861 -0.0236
31400W        W38000   3.559   4.827  43.381  0.1470  0.2063 -0.0233
31401W        W38001   6.136   6.243  41.584 -0.1917  0.1834 -0.1315
31402W        W38002   1.118   1.017  24.373  0.0280 -0.4075  0.2276
31403W        W38003   2.468   2.030   8.939  0.2284 -0.0970  0.1434
31404W        W38004   6.639   4.725  14.666 -0.1078  0.0441  0.0037
31405W        W38005  12.540   4.084  14.179  0.0126 -0.2794 -0.1141
31406W        W38006  13.260   5.267  18.973 -0.1491  0.3140 -0.0910
31407W        W38007   8.018   3.568  12.241 -0.0675 -0.0793  0.1729
31408W        W38008   4.982   4.512  27.552 -0.1153  0.0996  0.2599
31409W        W38009   2.121   0.788  12.155 -0.0362  0.1160  0.2454
31410W        W38010  14.918   1.102  33.355  0.0213  0.1633 -0.1526
31411W        W38011  18.101   5.631  35.114  0.1142 -0.1215  0.0622
31412W        W38012   4.383   1.862  31.353 -0.1460  0.2975  0.2028
31413W        W38013   4.024   0.312   5.962 -0.1415 -0.0307 -0.1202
31414W        W38014  14.383   0.580  43.957  0.0743 -0.0934  0.2860
31415W        W38015   7.740   2.540  13.299 -0.0897 -0.1124  0.0024
31416W        W38016  17.667   3.553  42.324 -0.1276  0.1216 -0.2043
31417W        W38017   2.868   4.882  43.571  0.0414 -0.1042  0.3410
31418W        W38018   1.636   2.527  42.761 -0.0200  0.1105 -0.2683
31419W        W38019   8.103   2.458  38.511 -0.0572 -0.1738  0.0188
31420W        W38020  15.119   0.324  10.826  0.1838 -0.0446  0.1230
31421W        W38021  19.886   6.465  28.209  0.0141 -0.1640 -0.2754
31422W        W38022  14.861   1.810  32.238  0.0053  0.1912 -0.0332
31423W        W38023  17.522   6.015  13.995 -0.0173 -0.0270  0.0045
31424W        W38024  20.635   0.214  16.469  0.0362  0.4079 -0.2207
31425W        W38025   6.697   0.692  14.503 -0.2545  0.0478 -0.4158
31426W        W38026   4.608   0.439  32.253 -0.2769 -0.1986 -0.1657
31427W        W38027   5.068   1.607   9.216 -0.0560 -0.0363  0.0371
31428W        W38028  15.903   4.402  32.648 -0.1763  0.0780 -0.0681
31429W        W38029  14.140   4.119  44.953  0.2327  0.1710  0.2614
31430W        W38030  19.147   6.253  13.790 -0.1393 -0.0593 -0.3632
31431W        W38031   1.346   3.892  34.461  0.0082  0.3570 -0.2191
31432W        W38032  18.516   5.186  11.684  0.1982 -0.4060 -0.2296
31433W        W38033  15.767   1.920   7.531 -0.1476 -0.1370 -0.0468
31434W        W38034  10.534   0.608   1.501  0.0002  0.0319  0.1015
31435W        W38035  14.484   6.462  12.495  0.1277  0.0997 -0.2075
31436W        W38036  15.164   3.929   4.715  0.0197  0.3828  0.0251
31437W        W38037   3.795   6.159  33.887  0.1089  0.0091  0.0936
31438W        W38038   7.323   4.099   4.649  0.0761 -0.2115 -0.0783
31439W        W38039   6.147   1.571   1.813 -0.1838  0.0624  0.1495
31440W        W38040  13.696   1.671  37.263 -0.0043 -0.1912 -0.0877
31441W        W38041  11.628   6.547  32.120  0.2440 -0.1292  0.2641
31442W        W38042  15.961   1.565  13.341  0.0842 -0.2957 -0.2983
31443W        W38043  17.749   2.762  19.429 -0.0035  0.0164 -0.1927
31444W        W38044  16.749   6.517  43.694 -0.0277  0.1879 -0.0034
31445W        W38045  14.926   2.530  43.419  0.2582  0.2578  0.0297
31446W        W38046  14.392   5.563   2.337  0.0667 -0.1800  0.2185
31447W        W38047  20.553   0.189  40.601  0.0184 -0.0700 -0.0551
31448W        W38048   4.284   2.524   2.901  0.1160  0.0856 -0.0112
31449W        W38049   8.339   3.547  24.580 -0.5219  0.1507 -0.0030
31450W        W38050  12.054   5.637  43.860  0.0066 -0.1550  0.2960
31451W        W38051  12.547   2.845   7.965  0.1532  0.0379  0.0682
31452W        W38052   4.382   6.381  40.314  0.0058 -0.2290 -0.0910
31453W        W38053  16.265   4.842  40.693  0.1489  0.1153  0.3343
31454W        W38054   0.253   5.481  30.377  0.2022  0.0045  0.0266
31455W        W38055  13.995   4.750  35.565  0.1518  0.2482 -0.2199
31456W        W38056  12.553   3.533   3.251 -0.0447  0.1610  0.1284
31457W        W38057  20.076   5.950  35.708 -0.2149 -0.0727 -0.1403
31458W        W38058   5.679   3.101   0.575  0.0544 -0.1688 -0.3474
31459W        W38059   3.441   5.926  11.782 -0.1384 -0.1356 -0.1826
31460W        W38060  10.164   3.459  14.692  0.0874  0.0312 -0.4289
31461W        W38061  21.156   1.824  15.024  0.0216 -0.1783 -0.0637
31462W        W38062  16.261   0.765   9.952 -0.0295  0.2439 -0.1021
31463W        W38063  16.533   4.442  22.087 -0.1608  0.0439 -0.2697
31464W        W38064  13.994   3.724  14.840  0.0595 -0.0294  0.0536
31465W        W38065  13.219   0.972  30.106  0.0874 -0.0857 -0.0256
31466W        W38066   8.119   5.337   5.336 -0.0183 -0.2470  0.0467
31467W        W38067  19.088   6.093  27.526  0.0220 -0.1100  0.0777
31468W        W38068  12.368   5.890  12.907 -0.1222  0.1601  0.0471
31469W        W38069  16.450   2.610  33.794 -0.1134 -0.1952 -0.0531
31470W        W38070  16.921   0.896  33.711  0.1696  0.2028  0.1436
31471W        W38071   1.780   1.005  37.469  0.2310 -0.0279 -0.0476
31472W        W38072   9.402   0.850  42.380 -0.1188  0.1947  0.2185
31473W        W38073   5.880   6.510   6.958 -0.0888  0.1716  0.0857
31474W        W38074  16.719   0.839  21.118  0.1477  0.4005 -0.3614
31475W        W38075  10.768   2.023  31.592  0.0502  0.0189 -0.2326
31476W        W38076  13.663   5.938  40.213 -0.0711  0.3983  0.0584
31477W        W38077  14.448   1.007  14.381 -0.0547 -0.1539 -0.2358
31478W        W38078  19.415   2.571   1.876 -0.3927 -0.0792 -0.0228
31479W        W38079  21.168   0.033  41.142  0.1404  0.0849 -0.0960
31480W        W38080   2.845   3.060  44.215 -0.1227  0.1456  0.1769
31481W        W38081   3.103   4.677   2.278  0.1291 -0.0375 -0.2643
31482W        W38082  13.890   1.371  43.688 -0.2143 -0.1570  0.2527
31483W        W38083  13.825   4.943   8.270  0.1352  0.0313 -0.3196
31484W        W38084   9.461   2.874  27.243  0.0283 -0.1920 -0.2140
31485W        W38085  18.189   1.854  42.853 -0.0211  0.0175  0.0356
31486W        W38086  11.290   5.532  33.268  0.0637 -0.3018 -0.1555
31487W        W38087  12.014   5.282   4.065  0.0908 -0.1672 -0.0451
31488W        W38088   2.273   5.256  38.605 -0.0553  0.2666 -0.1447
31489W        W38089   3.627   1.896   7.054  0.1696  0.3115  0.1712
31490W        W38090  17.193   6.411   0.915  0.0664 -0.0708  0.0427
31491W        W38091  18.478   1.397  16.489 -0.1093  0.0061 -0.0672
31492W        W38092   9.533   1.744  12.804  0.0033 -0.1315  0.3555
31493W        W38093   6.625   4.421  38.039  0.0693 -0.1244 -0.2229
31494W        W38094  14.358   3.933  19.611 -0.0696  0.3484  0.0300
31495W        W38095  17.487   4.143   7.654  0.2841 -0.2662  0.0411
31496W        W38096   9.472   2.763  43.638  0.0310  0.1914  0.0946
31497W        W38097   4.418   0.681  44.163  0.3191 -0.2096  0.0288
31498W        W38098   9.382   5.825  40.676 -0.0085 -0.1282 -0.1049
31499W        W38099   9.221   4.870   3.804 -0.0645 -0.0026  0.1188
31500W        W38100   4.830   4.269  43.909  0.3205 -0.1848 -0.0974
31501W        W38101  20.120   1.139  40.109 -0.2266  0.2466 -0.1712
31502W        W38102   5.265   0.545  30.901  0.0923 -0.1231  0.2341
31503W        W38103  13.204   4.928  35.089  0.0800  0.0256  0.0462
31504W        W38104   1.057   0.510  15.968 -0.0607 -0.0555 -0.1753
31505W        W38105  11.556   0.680  37.262 -0.2522 -0.1784 -0.1090
31506W        W38106  19.901   0.335   3.410 -0.1865 -0.0711 -0.1932
31507W        W38107  17.435   4.825  30.490  0.0218 -0.0380  0.0841
31508W        W38108  12.162   2.633   9.765  0.1232  0.0518  0.3045
31509W        W38109  14.831   1.174  42.156  0.0015  0.2534  0.1349
31510W        W38110   5.885   1.333   3.440 -0.2016 -0.4689 -0.4704
31511W        W38111  18.077   1.666  32.800  0.0236  0.0541 -0.1900
31512W        W38112   5.912   6.334   9.847  0.0591  0.2303  0.2568
31513W        W38113  19.703   4.976  35.904 -0.2272 -0.2675  0.0495
31514W        W38114  19.227   4.957  34.805 -0.0404  0.1608  0.0994
31515W        W38115  11.766   5.870  17.978 -0.0852  0.1013  0.1022
31516W        W38116   8.573   1.060  34.573  0.1094  0.2163  0.1924
31517W        W38117  11.419   0.063  39.083 -0.3412  0.0341  0.1109
31518W        W38118  15.826   5.173   2.709  0.0559  0.0540 -0.1570
31519W        W38119   4.999   3.595  22.762  0.3444 -0.1879 -0.1039
31520W        W38120   5.139   0.304  44.711 -0.1987  0.0177  0.0639
31521W        W38121   2.128   5.482  38.225 -0.1627  0.3197  0.1853
31522W        W38122   9.620   1.827  11.131 -0.0212 -0.0943 -0.0346
31523W        W38123   2.628   2.241  11.822  0.0901 -0.1895 -0.2040
31524W        W38124  20.563   5.736   5.505  0.0304 -0.0798 -0.2455
31525W        W38125  10.326   0.640  41.972  0.0556 -0.0665 -0.2651
31526W        W38126   0.403   3.212  37.918 -0.2931  0.0626  0.0314
31527W        W38127   1.244   0.417  10.875  0.3024  0.3560 -0.0608
31528W        W38128  18.638   3.112  16.782  0.0930  0.0123  0.0077
31529W        W38129   5.760   0.421  43.474 -0.2307  0.3120 -0.0698
31530W        W38130   2.543   6.146   7.552 -0.2129 -0.2149 -0.0075
31531W        W38131  16.443   3.784   8.742 -0.1200  0.1245 -0.0156
31532W        W38132  18.807   0.993  37.569 -0.0793  0.1667 -0.2320
31533W        W38133   7.550   5.923  35.712 -0.0344  0.0571 -0.0125
31534W        W38134  21.050   5.798  29.049 -0.2255 -0.1799  0.1356
31535W        W38135  16.016   3.060  22.696  0.0930  0.0387  0.2066
31536W        W38136   2.572   0.888   0.661  0.2477  0.2932 -0.0399
31537W        W38137   6.482   6.238   3.433  0.1944 -0.4413  0.2027
31538W        W38138  11.358   4.999  39.390  0.1550  0.2185  0.0747
31539W        W38139  17.811   4.152  41.118  0.0620  0.1341  0.0942
31540W        W38140  20.129   5.572  26.303  0.0210 -0.0258  0.0476
31541W        W38141   0.039   3.862  25.382 -0.2042  0.0678  0.0528
31542W        W38142  18.305   5.619  28.981 -0.2234 -0.2541 -0.0100
31543W        W38143  10.023   6.027  11.854 -0.2887  0.0751 -0.2719
31544W        W38144   5.186   4.747   1.591  0.0200 -0.1004  0.2005
31545W        W38145   6.006   5.119  34.109  0.2314  0.1311  0.0416
31546W        W38146  12.278   2.827  18.638 -0.1179  0.1672  0.1432
31547W        W38147   2.327   3.942  41.591  0.2793  0.5397 -0.2625
31548W        W38148   9.881   2.990   2.125  0.3175  0.0878 -0.0109
31549W        W38149   5.707   2.941   2.376 -0.0740  0.1549 -0.1452
31550W        W38150   9.622   4.779  37.722 -0.1391  0.0761  0.1447
31551W        W38151   0.409   5.781  11.826 -0.0542 -0.1415 -0.0994
31552W        W38152  18.855   2.358  17.423 -0.1803  0.0264 -0.1474
31553W        W38153  16.172   4.615  39.295 -0.0161  0.2736 -0.0344
31554W        W38154   3.253   6.096   3.121  0.1071  0.0477  0.1761
31555W        W38155   3.499   4.073  20.548 -0.1216 -0.1610 -0.0755
31556W        W38156  10.352   1.852  14.379  0.2461  0.0844 -0.1825
31557W        W38157  12.208   0.152  42.855 -0.0723 -0.1596 -0.2262
31558W        W38158   0.573   5.331  29.896 -0.1235 -0.1692 -0.1144
31559W        W38159   5.827   4.604  24.626 -0.4484 -0.0064 -0.2870
31560W        W38160  13.550   6.396  11.699 -0.0594 -0.2694  0.0237
31561W        W38161  16.412   6.121   5.076 -0.2261 -0.1598 -0.0543
31562W        W38162  20.590   2.735  43.210 -0.0687 -0.1412 -0.0162
31563W        W38163  10.100   0.024   5.148 -0.1158 -0.1443  0.1303
31564W        W38164  18.628   4.686   2.946 -0.1733  0.3785 -0.0498
31565W        W38165   6.850   4.283  42.301 -0.0878 -0.0025  0.1248
31566W        W38166   1.814   4.891  14.849 -0.0205  0.1019  0.0180
31567W        W38167  10.684   0.003  34.934 -0.0506  0.2430  0.0042
31568W        W38168   5.052   0.520  23.185  0.1312 -0.0812 -0.3797
31569W        W38169   4.880   4.397   7.709 -0.0465 -0.0266  0.0841
31570W        W38170   4.589   4.234  11.447  0.1035 -0.0014 -0.2706
31571W        W38171  16.318   1.045  13.471 -0.0334 -0.1930  0.0608
31572W        W38172   4.979   5.114  40.267 -0.2147  0.2277  0.1070
31573W        W38173   3.094   6.440  31.349  0.3712  0.1557 -0.0144
31574W        W38174  10.675   2.857  41.585 -0.0154 -0.0806 -0.2874
31575W        W38175   4.603   1.252  15.523  0.0198 -0.1941  0.2350
31576W        W38176  14.993   3.797   1.959  0.1111  0.1354 -0.0417
31577W        W38177   4.428   6.353  21.836  0.1184 -0.2710  0.1352
31578W        W38178   2.186   6.361  23.238  0.1107 -0.0484  0.1096
31579W        W38179   2.020   3.162  23.598 -0.2279  0.1580  0.0540
31580W        W38180  13.366   3.111  19.330 -0.0514 -0.1076 -0.1360
31581W        W38181  11.811   5.051  29.653  0.0656 -0.1996 -0.1061
31582W        W38182   0.636   3.058   0.958 -0.1488 -0.0403 -0.0839
31583W        W38183   7.571   4.493  36.029 -0.1874  0.0730 -0.1016
31584W        W38184   8.381   1.536  17.129  0.2496 -0.1653  0.0568
31585W        W38185   9.727   2.958   7.098  0.1058 -0.1147  0.2730
31586W        W38186   0.694   1.147   1.840 -0.0563 -0.0922 -0.0723
31587W        W38187   5.374   1.663   5.177  0.2147 -0.1383 -0.1968
31588W        W38188  17.627   0.533  12.960 -0.0812 -0.3200  0.2106
31589W        W38189   9.364   4.906  15.585 -0.1807 -0.1284 -0.1898
31590W        W38190   6.362   3.207   4.051 -0.0237 -0.0578 -0.2092
31591W        W38191   8.263   3.601   6.510  0.0768 -0.0437  0.1401
31592W        W38192   6.439   2.603   8.119  0.0570 -0.0885  0.1153
31593W        W38193  17.585   4.727   7.702  0.0460  0.1345  0.0871
31594W        W38194   6.947   5.194  36.719 -0.0132  0.3471  0.2243
31595W        W38195   4.205   1.621  35.455  0.0260 -0.3251 -0.0064
31596W        W38196   4.802   4.876   2.811  0.1213 -0.0091 -0.0451
31597W        W38197   4.855   5.886  34.253 -0.1856 -0.0022  0.1102
31598W        W38198  18.583   3.027   6.576  0.0689 -0.0293  0.3486
31599W        W38199   9.790   4.092   8.296  0.1094 -0.1624  0.1748
31600W        W38200   7.485   5.624  29.641  0.1693  0.2718 -0.0201
31601W        W38201   4.258   2.804  30.048 -0.1190  0.2781 -0.1657
31602W        W38202  12.985   1.726  34.006 -0.0749 -0.0215 -0.2603
31603W        W38203  15.411   0.162   7.582 -0.1461  0.1264  0.0502
31604W        W38204  14.904   4.531   6.250 -0.0352 -0.5762  0.1216
31605W        W38205   5.871   3.918  35.211 -0.0565 -0.2377 -0.0546
31606W        W38206  13.676   5.343   5.459 -0.1798  0.1669 -0.0352
31607W        W38207  16.701   6.519  21.407  0.0823  0.0291  0.3770
31608W        W38208   8.784   4.194   2.199  0.0924 -0.0525 -0.1254
31609W        W38209   2.545   0.602  23.080 -0.0486 -0.0548  0.0242
31610W        W38210   6.319   0.663   5.987 -0.2005 -0.0412  0.0327
31611W        W38211   7.416   1.767  38.409  0.5824 -0.1899 -0.0081
31612W        W38212   9.683   1.260   7.682 -0.0286  0.0017  0.0023
31613W        W38213  14.969   2.141  38.293  0.1596 -0.3198 -0.0663
31614W        W38214   5.608   3.472   8.401  0.0365 -0.2026 -0.1310
31615W        W38215  13.662   1.004  25.729  0.1600  0.1216 -0.1841
31616W        W38216  19.386   4.538  12.604  0.0458  0.5948  0.1501
31617W        W38217  14.309   1.343   2.226 -0.1319  0.0054 -0.1234
31618W        W38218  16.520   5.124  12.876 -0.0727  0.1720  0.0776
31619W        W38219  14.986   2.811  37.665 -0.1607  0.0836 -0.0043
31620W        W38220  13.348   2.217  35.023 -0.0125  0.0662  0.1112
31621W        W38221  15.123   1.237   1.069 -0.0169  0.2332 -0.0909
31622W        W38222  15.213   0.968  16.655 -0.1137 -0.1063 -0.0289
31623W        W38223   0.990   2.260  28.664 -0.1982 -0.1548  0.1936
31624W        W38224  17.041   3.454   7.506 -0.2264  0.0159  0.2074
31625W        W38225   3.062   2.963   0.216 -0.2549  0.0486  0.2396
31626W        W38226  15.682   3.946  34.480 -0.0631 -0.0863 -0.1462
31627W        W38227  17.636   5.391   2.306  0.2255 -0.1033 -0.0018
31628W        W38228  16.339   2.852  11.968  0.2136 -0.0547  0.1812
31629W        W38229   8.038   0.901  12.390 -0.2410 -0.0708 -0.1245
31630W        W38230  13.555   4.407  43.843 -0.0414  0.0320  0.0810
31631W        W38231  16.149   2.688  38.629  0.0151  0.0794 -0.1287
31632W        W38232   5.485   1.649  38.426 -0.1857  0.0206  0.1649
31633W        W38233  19.339   4.669  32.139  0.1376 -0.0640 -0.1006
31634W        W38234   7.802   4.183  35.712  0.1241  0.0655 -0.0290
31635W        W38235  10.020   4.320  12.032 -0.0800 -0.2565  0.1806
31636W        W38236   5.081   4.755   3.173 -0.0660  0.0886  0.0920
31637W        W38237  17.003   5.174   2.448  0.1008 -0.1802 -0.0319
31638W        W38238  10.502   1.364   8.362  0.0364 -0.0919 -0.0915
31639W        W38239  16.296   5.613  42.652  0.1260  0.0667  0.0879
31640W        W38240  11.494   4.403  29.502  0.0272 -0.0983 -0.1593
31641W        W38241   6.401   5.456  32.493 -0.1342  0.1559 -0.1324
31642W        W38242  16.279   4.205   6.209  0.0380  0.2122 -0.2306
31643W        W38243  10.426   0.359  36.667 -0.0300  0.0136 -0.1070
31644W        W38244  20.676   2.788  39.225  0.1142 -0.0425  0.1052
31645W        W38245  17.230   4.078  28.851 -0.2276 -0.0421  0.2634
31646W        W38246   3.126   2.800  39.582  0.2931  0.0140 -0.1833
31647W        W38247   8.621   1.753  28.563 -0.6095 -0.1424  0.3189
31648W        W38248   7.892   1.517  42.509  0.2626 -0.0721 -0.1525
31649W        W38249  14.130   0.010  30.007 -0.2922  0.0285  0.0984
31650W        W38250  19.323   3.904  38.325  0.2706  0.2232 -0.1142
31651W        W38251  19.131   5.155  17.721  0.0500  0.0684 -0.0337
31652W        W38252  16.173   5.855   2.246  0.0214 -0.0233  0.2400
31653W        W38253   9.389   1.945  16.304 -0.3882 -0.1343  0.3688
31654W        W38254   2.545   2.612  35.732  0.0318  0.0630  0.0753
31655W        W38255   4.570   6.404  22.987 -0.0226 -0.2975 -0.0829
31656W        W38256   0.082   1.149  37.858 -0.0664 -0.0963 -0.1317
31657W        W38257   6.264   0.333  32.753  0.3021 -0.0253  0.2148
31658W        W38258  13.143   0.667  39.876 -0.0176 -0.0542  0.0186
31659W        W38259  20.122   2.198  43.364 -0.0227  0.2405 -0.3238
31660W        W38260  19.469   1.452  44.477 -0.1493 -0.0478  0.6780
31661W        W38261  20.900   0.997  44.119 -0.0275  0.0272  0.3275
31662W        W38262   3.528   1.421  31.297  0.1194 -0.1001  0.0884
31663W        W38263   4.560   3.304   9.278  0.2075 -0.1563 -0.1667
31664W        W38264  19.707   6.198   4.223  0.1161  0.0018  0.2345
31665W        W38265  17.756   4.473  10.332 -0.1557 -0.1791 -0.2827
31666W        W38266  12.462   5.820   8.102 -0.1244  0.1831  0.1646
31667W        W38267  14.834   1.817   9.784 -0.3322  0.1749  0.2077
31668W        W38268  14.393   0.226   9.199  0.3059  0.1245 -0.0417
31669W        W38269   6.835   1.039  12.688 -0.2224  0.0347 -0.1666
31670W        W38270  14.843   1.158  24.798  0.0541 -0.1850 -0.0623
31671W        W38271  12.659   4.016  33.341 -0.3200  0.1496 -0.2116
31672W        W38272  12.713   1.278   0.726  0.1588  0.0657 -0.1965
31673W        W38273   2.545   3.087  43.453  0.1926 -0.1517  0.2142
31674W        W38274   7.649   2.380   1.453 -0.0457  0.0317 -0.4277
31675W        W38275   9.470   4.727  44.173 -0.1411 -0.2525  0.1193
31676W        W38276   5.644   3.231  34.441  0.0361  0.1023 -0.0057
31677W        W38277   3.854   6.556  31.591 -0.0107  0.2035 -0.1315
31678W        W38278  14.118   3.304  14.195 -0.0404  0.1078  0.1079
31679W        W38279  17.269   4.570  20.505 -0.2110 -0.0541 -0.1648
31680W        W38280  17.949   3.060  13.187  0.5451 -0.0141  0.0908
31681W        W38281   8.041   6.507  36.379  0.1452 -0.0502 -0.2290
31682W        W38282   7.755   5.940  16.452 -0.1565  0.1990  0.1562
31683W        W38283   7.397   6.063   0.369 -0.0133 -0.0324  0.0435
31684W        W38284  19.320   3.115   1.227  0.0589  0.3978 -0.0029
31685W        W38285  15.634   2.522  37.671  0.2002 -0.5917 -0.0460
31686W        W38286   9.923   1.863  33.803 -0.0985  0.0503 -0.1773
31687W        W38287  17.368   1.135  38.618 -0.1388  0.4150 -0.2063
31688W        W38288  20.375   2.803   7.507  0.0795 -0.1431  0.0419
31689W        W38289  14.972   0.135  30.413  0.1415 -0.0415  0.2520
31690W        W38290  18.214   3.041   8.468  0.2738 -0.0894  0.2820
31691W        W38291  19.931   0.371  30.552  0.1398  0.3721 -0.1776
31692W        W38292  11.495   3.687   5.915 -0.0051 -0.2520 -0.0629
31693W        W38293   8.495   4.853  25.093  0.1285  0.5378  0.0456
31694W        W38294  14.880   1.045  10.026  0.3574 -0.1784  0.1163
31695W        W38295  18.631   3.892  34.150  0.1955  0.0378  0.0236
31696W        W38296  12.048   0.859   7.459  0.1041  0.2619 -0.0320
31697W        W38297   4.122   5.520  20.539  0.2475  0.2786 -0.3063
31698W        W38298   8.987   3.282   4.440 -0.3983  0.1744  0.2142
31699W        W38299   6.508   3.521  15.680  0.1150 -0.1893 -0.2452
31700W        W38300  13.092   4.537   4.426  0.1796  0.1357 -0.3865
31701W        W38301  19.039   6.608  44.624 -0.2303  0.1401 -0.1418
31702W        W38302   4.811   2.001  38.789  0.1067  0.1519  0.2470
31703W        W38303  20.812   3.325  26.214 -0.0984 -0.3198 -0.2317
31704W        W38304   1.665   1.535  28.784 -0.0688  0.0348  0.3345
31705W        W38305  12.133   6.140  41.991 -0.0262  0.1371 -0.0431
31706W        W38306  16.125   5.690  35.440  0.1181 -0.4037 -0.0168
31707W        W38307   6.610   5.378   3.269 -0.1433 -0.1621  0.1119
31708W        W38308  18.947   2.962  12.867 -0.0034  0.2017 -0.0110
31709W        W38309   3.429   0.678  37.492 -0.2750  0.0002 -0.1247
31710W        W38310  18.761   4.711  14.603  0.0536 -0.0773  0.1173
31711W        W38311  16.205   0.202  13.393 -0.2594 -0.1778  0.2031
31712W        W38312   2.995   5.516  21.755 -0.0469  0.1879  0.2419
31713W        W38313  17.992   0.888  35.615 -0.1521  0.0238  0.1495
31714W        W38314  10.318   5.667  29.855 -0.1217  0.3920 -0.1954
31715W        W38315   4.574   2.162  28.850 -0.0767 -0.1629 -0.2668
31716W        W38316  16.275   5.487   8.182  0.0204 -0.1994 -0.1572
31717W        W38317  14.444   1.966  28.790 -0.1231 -0.3707  0.1440
31718W        W38318   5.397   3.293  44.345  0.1333 -0.0601 -0.1196
31719W        W38319   0.771   0.625   9.399  0.0694 -0.1202  0.1549
31720W        W38320   2.553   5.924   5.208 -0.2022  0.3571 -0.0516
31721W        W38321  17.030   0.601  17.932  0.0713 -0.0227  0.0649
31722W        W38322  13.605   2.271  38.555 -0.2427  0.1137  0.1454
31723W        W38323   4.882   2.212   4.548 -0.0780  0.3193 -0.3751
31724W        W38324   6.778   2.297  38.401 -0.0540  0.1148 -0.0334
31725W        W38325  17.890   0.078  19.443  0.0589 -0.1510 -0.0592
31726W        W38326  16.328   0.971  38.298  0.1917  0.0427 -0.2527
31727W        W38327  17.472   2.843  18.111  0.0266 -0.2074  0.0178
31728W        W38328   3.675   5.049   8.456  0.1665 -0.2711 -0.2082
31729W        W38329  15.398   2.004  22.017 -0.1728 -0.1330  0.1740
31730W        W38330   4.738   4.404   4.544  0.1745  0.0590 -0.0435
31731W        W38331   6.686   3.514  16.496  0.0196 -0.0406 -0.0398
31732W        W38332   3.069   4.196  24.190 -0.0618 -0.1325  0.0109
31733W        W38333  17.906   6.018   1.830 -0.0897  0.0787 -0.2960
31734W        W38334  15.266   2.502  31.097  0.2289  0.1313  0.2409
31735W        W38335  13.325   4.151  36.026  0.1631  0.0610 -0.2110
31736W        W38336  19.325   3.972  13.919 -0.0096  0.1962 -0.0258
31737W        W38337  15.177   2.239  14.188 -0.0347  0.1719 -0.0124
31738W        W38338   2.338   3.510   3.641  0.2733  0.1572  0.0349
31739W        W38339  15.491   4.301  15.019  0.0658 -0.1662  0.1636
31740W        W38340  10.152   1.748  38.684 -0.4920  0.0436  0.0805
31741W        W38341  10.825   0.091   9.126  0.2309 -0.1285 -0.1112
31742W        W38342  12.553   0.666   0.699 -0.0183  0.0196 -0.0094
31743W        W38343  12.157   0.513   1.824 -0.1775 -0.0026  0.0547
31744W        W38344  13.963   2.466  19.001  0.3320 -0.0255  0.1241
31745W        W38345  14.608   2.411  11.381 -0.2231 -0.2524  0.1879
31746W        W38346  11.923   3.805  13.143  0.2161  0.1447 -0.1962
31747W        W38347  17.987   5.284  39.838 -0.0847 -0.0469 -0.0862
31748W        W38348  12.694   1.890   2.650 -0.2304 -0.2491 -0.0389
31749W        W38349   9.191   5.213  28.213  0.0647 -0.1615  0.3127
31750W        W38350  12.309   0.068  12.942  0.0373 -0.2955 -0.0072
31751W        W38351  20.181   1.987  11.881  0.3560  0.0423 -0.1461
31752W        W38352   8.478   1.076   1.347 -0.0176 -0.0448 -0.0042
31753W        W38353  17.323   0.447   8.712  0.1903 -0.2964  0.0519
31754W        W38354  12.661   3.323  34.815  0.0025 -0.2073 -0.0525
31755W        W38355   7.473   2.252  14.391 -0.0068 -0.1344  0.0389
31756W        W38356   7.060   6.474   0.060 -0.0270  0.1447  0.1298
31757W        W38357   3.995   0.402  29.673 -0.2050 -0.1451  0.0143
31758W        W38358   1.126   5.436   0.699  0.0217 -0.0109  0.0421
31759W        W38359  15.352   0.335  16.043 -0.1264 -0.0128  0.1900
31760W        W38360   4.199   0.434  43.677  0.1926  0.0886  0.1891
31761W        W38361   9.435   5.838   1.710  0.0639 -0.0107 -0.1010
31762W        W38362   4.807   4.833   4.256  0.1983  0.0579  0.0607
31763W        W38363  11.264   1.148   3.660 -0.1189 -0.4186 -0.1588
31764W        W38364   5.680   1.497  36.452 -0.1042  0.2230 -0.0588
31765W        W38365  10.597   5.288  39.426 -0.2536 -0.3747  0.0004
31766W        W38366  18.677   2.841  30.779  0.2641 -0.0886  0.4321
31767W        W38367   1.551   5.572  13.003  0.1186  0.1345 -0.1588
31768W        W38368   4.983   6.184   6.415  0.1120 -0.1929  0.4030
31769W        W38369   1.889   3.209  10.230  0.0621  0.0123  0.0687
31770W        W38370  17.140   4.179  44.278 -0.2219 -0.0362  0.2172
31771W        W38371  16.714   1.334  35.610  0.1713 -0.1285 -0.0986
31772W        W38372  10.446   1.984   9.416  0.1475  0.0346  0.1242
31773W        W38373  17.917   5.261  18.451 -0.1743 -0.0143  0.3325
31774W        W38374  10.861   0.578  42.250 -0.1766 -0.3332 -0.3898
31775W        W38375   3.336   3.789   4.373  0.2334  0.1875 -0.0637
31776W        W38376  17.274   5.686   9.943  0.3238 -0.0631  0.0337
31777W        W38377  11.469   2.603  44.678  0.3478  0.1147 -0.3568
31778W        W38378  19.396   3.393   1.671  0.0454 -0.3963 -0.0360
31779W        W38379  19.646   1.670   2.163  0.2902  0.0220  0.0613
31780W        W38380   0.681   0.567  28.538  0.1409  0.1206  0.1437
31781W        W38381  13.781   2.683   2.335  0.1389 -0.1441 -0.3113
31782W        W38382  11.805   5.079  13.966 -0.0254  0.1257  0.2063
31783W        W38383   4.940   4.576  15.375 -0.1437  0.0615  0.0798
31784W        W38384  12.173   4.496  40.546 -0.0068 -0.3319  0.2091
31785W        W38385  18.970   2.334   6.698  0.0780  0.1687 -0.0468
31786W        W38386  10.263   1.482  30.736  0.0110  0.2057 -0.0798
31787W        W38387   2.971   1.020   5.652  0.0157  0.1950  0.2350
31788W        W38388   1.624   6.054   2.113 -0.2089  0.0734 -0.3072
31789W        W38389  15.939   2.196  22.874  0.1532 -0.0502 -0.1684
31790W        W38390  13.897   4.110  36.262 -0.0464  0.1220 -0.0851
31791W        W38391   6.857   0.093  31.888  0.2520 -0.0226 -0.0862
31792W        W38392  20.087   3.283   7.450  0.0247 -0.1998  0.0203
31793W        W38393   5.804   6.350   2.680 -0.1019 -0.1122  0.1444
31794W        W38394   5.917   0.823  29.126  0.3189  0.2695 -0.1825
31795W        W38395   6.178   0.153   9.694  0.1954  0.0216  0.1720
31796W        W38396   1.758   0.336  30.154  0.2790 -0.0023 -0.0996
31797W        W38397   9.993   4.191   3.066 -0.1619  0.3077  0.1416
31798W        W38398  12.885   4.398  14.462 -0.0639  0.3899  0.0986
31799W        W38399   9.557   5.371  10.268  0.4017  0.0659  0.3689
31800W        W38400  19.087   1.296  28.523  0.1768 -0.0138  0.3545
31801W        W38401  13.668   1.266  42.014  0.0632  0.1815 -0.0322
31802W        W38402  15.874   6.528  44.228  0.0026  0.2214  0.1022
31803W        W38403  15.475   6.529   4.662 -0.2628  0.1490 -0.0725
31804W        W38404   6.560   4.600  26.333 -0.1823 -0.0329  0.1192
31805W        W38405   6.887   6.108  26.782  0.2756 -0.0872 -0.1127
31806W        W38406  15.671   6.106  12.167 -0.3706  0.1174 -0.2460
31807W        W38407   2.080   5.741  35.695  0.1688  0.0698 -0.0264
31808W        W38408  20.314   0.330  33.850  0.1946  0.0625 -0.3079
31809W        W38409  11.734   1.584  10.365 -0.1273 -0.1832  0.3245
31810W        W38410   6.120   2.279  28.004 -0.1716  0.1882 -0.1618
31811W        W38411  20.149   4.130  14.912  0.0318  0.2832 -0.1883
31812W        W38412  14.491   0.855  29.550  0.2053 -0.2100  0.2320
31813W        W38413  10.554   3.943   0.931 -0.0790  0.0318  0.2650
31814W        W38414  10.835   0.307  44.979 -0.0733  0.0933  0.1455
31815W        W38415  19.814   2.921  18.680  0.2164 -0.3747 -0.3447
31816W        W38416  10.672   0.675   3.966 -0.1067  0.3234 -0.3639
31817W        W38417   0.480   5.839   5.099  0.0077 -0.1540  0.1748
31818W        W38418  16.060   2.424  19.932  0.2471 -0.3986 -0.1372
31819W        W38419  15.867   3.874  37.143 -0.4647  0.0565  0.2782
31820W        W38420   9.899   5.995   3.282 -0.1353  0.0762  0.0534
31821W        W38421   6.778   5.778  41.577 -0.1158 -0.1076  0.2094
31822W        W38422   2.668   1.699  23.035  0.1114 -0.0140  0.1831
31823W        W38423  20.260   4.656  40.215  0.1566 -0.1460  0.0210
31824W        W38424  19.301   0.816   7.497  0.0046 -0.1211 -0.1321
31825W        W38425   8.103   6.175  26.761 -0.2126 -0.0508  0.1079
31826W        W38426   6.153   1.495  38.091  0.0298  0.0408  0.2668
31827W        W38427   2.110   4.508  24.115  0.0884  0.0293  0.2187
31828W        W38428   0.637   4.532  27.445  0.1220 -0.0990 -0.5427
31829W        W38429   3.097   0.045  41.403 -0.1760 -0.0438 -0.0031
31830W        W38430  13.101   0.963   8.968 -0.0330 -0.0152 -0.1415
31831W        W38431  14.825   6.000  41.992 -0.1343  0.4302 -0.2347
31832W        W38432   1.827   5.449   7.290 -0.0698 -0.2914  0.1083
31833W        W38433   1.445   4.420  37.546 -0.3452  0.2514 -0.0727
31834W        W38434  14.987   1.082  13.476 -0.0694  0.1536 -0.2929
31835W        W38435   0.705   1.028  38.674  0.2167 -0.0948 -0.3926
31836W        W38436   7.533   2.315  41.527  0.0689 -0.0115 -0.1267
31837W        W38437  18.047   4.940  32.830 -0.1282 -0.0696 -0.0276
31838W        W38438  11.752   4.559  14.934  0.0592 -0.0383  0.1587
31839W        W38439  20.132   4.056  29.185 -0.0443  0.1040  0.2774
31840W        W38440   5.152   0.912   3.031  0.0647  0.2238  0.3222
31841W        W38441   2.429   1.076  21.420 -0.0755 -0.0327 -0.0664
31842W        W38442   9.835   5.887  45.094  0.2215 -0.1326 -0.0293
31843W        W38443   6.289   6.461  39.661 -0.1148  0.0878 -0.1494
31844W        W38444   3.082   5.369  20.942 -0.1083 -0.0719 -0.0711
31845W        W38445   8.847   0.870   2.310  0.2270 -0.1960 -0.0407
31846W        W38446   1.384   1.174  43.429  0.0478  0.0122  0.0319
31847W        W38447   9.726   4.906   0.154 -0.2764  0.2220  0.2489
31848W        W38448  18.549   2.767  29.144 -0.1267  0.0970 -0.0103
31849W        W38449   8.715   4.669   5.610 -0.3094  0.0120  0.0746
31850W        W38450  16.800   1.876   1.101  0.1562 -0.1663 -0.2298
31851W        W38451   4.184   6.015  43.976  0.0139  0.0909  0.0553
31852W        W38452  15.508   5.006  11.827  0.0168  0.1364 -0.2840
31853W        W38453   8.966   4.498   1.858  0.1152 -0.1590  0.1504
31854W        W38454   1.262   4.121  15.227  0.4220 -0.2659 -0.0115
31855W        W38455  18.199   4.533  41.170  0.0603  0.1217  0.3231
31856W        W38456   7.795   0.490  10.612  0.0659  0.4402  0.1495
31857W        W38457   3.041   5.763   9.788  0.0667 -0.2654  0.0168
31858W        W38458  20.804   4.443   4.646  0.3337  0.0724 -0.1747
31859W        W38459  18.344   0.403  16.478 -0.1163 -0.0888  0.3021
31860W        W38460  10.102   1.097  35.425  0.2228  0.0553 -0.1729
31861W        W38461  10.061   2.774   9.874 -0.0773  0.3506 -0.2096
31862W        W38462  15.919   1.840  21.794  0.0079 -0.0260 -0.0340
31863W        W38463  14.833   5.508  22.889  0.1285 -0.1253  0.1353
31864W        W38464  18.689   3.584  15.070  0.0392  0.4894  0.0108
31865W        W38465   8.878   1.039  33.798 -0.1247 -0.1406 -0.0171
31866W        W38466  11.068   4.512   6.715  0.0821 -0.0792  0.0377
31867W        W38467  19.575   1.640  32.181  0.0573 -0.0500 -0.1050
31868W        W38468  19.727   4.838  28.207 -0.0253 -0.2478 -0.1483
31869W        W38469   9.480   3.593  34.327 -0.1163  0.2158  0.0944
31870W        W38470   2.776   3.332  29.083  0.1458  0.2901  0.1282
31871W        W38471   8.298   1.045  38.199 -0.0945 -0.2524  0.1050
31872W        W38472  16.601   3.712  16.238 -0.3167 -0.1462 -0.1818
31873W        W38473   5.452   4.962  27.841 -0.2994  0.0421 -0.0676
31874W        W38474   7.299   0.752  42.768  0.0063 -0.1924  0.1431
31875W        W38475   3.619   5.222  34.113  0.3226 -0.0683  0.0824
31876W        W38476  16.509   1.227  11.700 -0.2586 -0.0999  0.2206
31877W        W38477  15.843   5.712  36.851 -0.2862 -0.1294  0.0786
31878W        W38478  18.699   1.345   5.839  0.1239 -0.1581  0.0630
31879W        W38479  19.596   1.022   3.625 -0.1652 -0.0013 -0.1237
31880W        W38480   1.788   4.241  13.856  0.5090 -0.0222 -0.3771
31881W        W38481  10.183   0.087  12.693  0.2019  0.0321  0.0491
31882W        W38482   2.316   4.918  23.928  0.1424 -0.0684  0.2063
31883W        W38483  14.751   3.536  17.608  0.0392 -0.1815  0.1911
31884W        W38484   3.959   3.645  39.033  0.0119 -0.0829 -0.0457
31885W        W38485   8.450   3.688  35.387  0.1049  0.1981  0.1353
31886W        W38486   2.294   5.095  28.253 -0.0741 -0.0846 -0.1534
31887W        W38487   7.404   3.496  26.072 -0.0323  0.0125 -0.1924
31888W        W38488   9.713   3.589  13.129 -0.5159  0.0902 -0.2924
31889W        W38489   8.822   0.824  12.965 -0.1543  0.3161  0.2838
31890W        W38490   2.445   1.602  38.478 -0.2969 -0.1058 -0.0104
31891W        W38491  16.943   3.218  18.081  0.1396 -0.0116 -0.0323
31892W        W38492   2.799   5.632  12.363 -0.5148  0.1772  0.1210
31893W        W38493   0.325   1.923  39.905 -0.3041  0.1144 -0.0347
31894W        W38494  15.785   2.095   9.644  0.4109 -0.2713  0.4323
31895W        W38495  19.671   6.185  33.854 -0.0944 -0.2448  0.1807
31896W        W38496   4.808   1.163  37.097  0.0677 -0.1810 -0.1689
31897W        W38497   4.590   2.017   9.902  0.0983  0.0673 -0.1684
31898W        W38498  14.554   6.050  39.743 -0.1549 -0.1097  0.0053
31899W        W38499  10.642   4.933  44.871  0.0416  0.2234 -0.1566
31900W        W38500  18.566   0.144  38.978 -0.2052 -0.0968  0.2218
31901W        W38501  13.227   5.961  13.044  0.2436 -0.0264 -0.1241
31902W        W38502  16.316   4.572  14.500  0.1233  0.1348  0.0256
31903W        W38503  13.946   1.034   3.281 -0.0474  0.3094 -0.0034
31904W        W38504   5.452   4.823  28.380  0.1274  0.3023  0.2026
31905W        W38505   9.099   3.316  39.732 -0.1368 -0.1226  0.0464
31906W        W38506  13.592   2.010  24.332 -0.1098  0.1340  0.2685
31907W        W38507   0.500   3.794  41.725  0.1620 -0.1986 -0.0159
31908W        W38508   4.363   1.528   3.472 -0.2962  0.1949  0.3340
31909W        W38509   1.980   5.077  42.549 -0.2220 -0.0357 -0.4352
31910W        W38510   5.391   6.152   7.979 -0.0350 -0.1219  0.0723
31911W        W38511  19.247   4.666   3.960  0.2882 -0.3226 -0.0180
31912W        W38512  11.917   6.041  28.909 -0.0591 -0.0779  0.0078
31913W        W38513  14.683   4.263  36.015  0.3311 -0.2840 -0.1443
31914W        W38514   4.213   4.074  31.800  0.1315 -0.0469 -0.0468
31915W        W38515   1.495   1.412  40.179 -0.0024  0.3395  0.1022
31916W        W38516   3.310   4.985  35.933  0.1929  0.2788  0.2206
31917W        W38517  18.380   4.222   5.315 -0.0338  0.2632 -0.4527
31918W        W38518  14.016   3.855   7.569 -0.4205  0.2188 -0.3069
31919W        W38519   7.497   2.796  26.662  0.1082 -0.0081 -0.2453
31920W        W38520  14.063   2.902  31.497  0.4459  0.3214  0.1767
31921W        W38521  15.400   4.750  34.433 -0.1945  0.2985  0.0276
31922W        W38522   5.685   6.575  28.652  0.0355  0.1736 -0.2022
31923W        W38523  19.224   2.171  12.240 -0.0751 -0.3014 -0.0575
31924W        W38524   9.479   0.690  10.925  0.0813 -0.1378 -0.2069
31925W        W38525  18.727   0.512  28.152 -0.1548  0.1122  0.1438
31926W        W38526   0.250   0.808   9.357 -0.1541  0.0878 -0.3007
31927W        W38527   5.284   6.325   8.479 -0.2978 -0.0496  0.1262
31928W        W38528   3.136   0.646  30.227  0.1003 -0.0556  0.3354
31929W        W38529   9.346   1.716  44.549  0.4104 -0.0576  0.0947
31930W        W38530  12.884   3.155  36.924 -0.0854  0.1790  0.1077
31931W        W38531   3.415   2.294  21.793 -0.3360  0.2791  0.0201
31932W        W38532   8.465   4.914  28.684  0.0209  0.1058  0.0405
31933W        W38533  16.438   1.041  43.705 -0.4836 -0.2229  0.1207
31934W        W38534  11.114   2.309  14.300  0.2708 -0.4930 -0.1610
31935W        W38535   1.256   3.560  14.027  0.0972 -0.1232 -0.0571
31936W        W38536   8.443   2.360  37.954 -0.0769  0.1558 -0.4900
31937W        W38537  20.469   1.929  43.711  0.3403 -0.0070  0.0144
31938W        W38538   4.376   4.137  30.452  0.0461 -0.2053  0.1883
31939W        W38539  17.760   5.271  35.940 -0.0035 -0.3019 -0.3746
31940W        W38540   6.290   2.673  34.359 -0.1202  0.1070  0.0396
31941W        W38541  11.563   3.912   0.144  0.0045  0.0299  0.0387
31942W        W38542  17.867   6.033  13.560  0.1672  0.3335  0.0333
31943W        W38543  13.664   5.991  12.874 -0.4664  0.1687 -0.0158
31944W        W38544  19.825   4.912  32.791 -0.0096 -0.0000  0.2562
31945W        W38545   0.369   0.223  44.378 -0.1776 -0.1041  0.0138
31946W        W38546  17.646   3.924  38.717  0.2639  0.1020  0.1897
31947W        W38547  11.307   4.807  42.510  0.1012  0.0658  0.2793
31948W        W38548   3.400   2.995  21.963  0.0107 -0.1954 -0.2269
31949W        W38549  10.588   2.569  34.155  0.0080  0.3409  0.0108
31950W        W38550   0.317   0.070   8.226  0.2232  0.1433 -0.1201
31951W        W38551   3.653   2.240  26.592 -0.1650  0.2552  0.3209
31952W        W38552  20.386   1.469  31.207 -0.2165  0.1593 -0.0255
31953W        W38553  13.113   1.804  28.218 -0.0363 -0.0508  0.2459
31954W        W38554  15.684   5.773   7.329  0.1428  0.0282  0.0885
31955W        W38555  15.454   6.104  30.621  0.1341 -0.1053  0.0680
31956W        W38556  11.432   5.345   0.935 -0.2184  0.2321 -0.0382
31957W        W38557  13.336   2.457  39.514  0.0055 -0.2222  0.0843
31958W        W38558   3.370   4.659  31.231  0.0939  0.1158 -0.3570
31959W        W38559  20.073   2.822   8.534 -0.2091  0.0511 -0.1800
31960W        W38560  10.215   1.194   4.966  0.0282  0.3557  0.0996
31961W        W38561   6.462   5.964  39.803 -0.2077  0.1940  0.0421
31962W        W38562  13.504   5.107   3.488 -0.0900  0.1443  0.1496
31963W        W38563  13.520   2.327  44.050 -0.0865  0.2085 -0.0735
31964W        W38564   9.986   3.798  30.590  0.0957  0.1459  0.3338
31965W        W38565  11.564   2.704  10.499  0.0012  0.0232  0.1607
31966W        W38566   8.650   2.382  26.905 -0.1158  0.0651  0.0954
31967W        W38567   5.910   3.800  26.432  0.0223  0.3375 -0.1788
31968W        W38568  18.830   2.362  37.446  0.1236  0.0484  0.1608
31969W        W38569  20.133   4.590  44.528 -0.0518  0.3234 -0.1863
31970W        W38570   7.116   3.959  10.529 -0.2343 -0.2452  0.1763
31971W        W38571  16.921   1.107  17.765 -0.0875  0.2080 -0.1618
31972W        W38572  13.457   1.600  39.977 -0.3053 -0.1206  0.1094
31973W        W38573  19.163   4.311   0.669 -0.2866 -0.1167  0.2353
31974W        W38574   7.030   5.406  25.580  0.2344 -0.3312 -0.0653
31975W        W38575  16.152   0.853   4.732  0.0036  0.0328 -0.1210
31976W        W38576   8.604   6.387   2.817  0.3004 -0.0098 -0.0443
31977W        W38577   9.337   2.582  40.088 -0.0938  0.2240  0.0381
31978W        W38578   8.805   2.485  34.004  0.0928  0.0615 -0.1999
31979W        W38579   2.456   2.198  32.105  0.2158  0.1202  0.0200
31980W        W38580  20.967   5.937   8.510 -0.1439  0.0207 -0.1890
31981W        W38581   5.086   1.567  41.733 -0.0047  0.3020  0.2110
31982W        W38582  13.704   3.550  19.177 -0.1153 -0.4441 -0.0284
31983W        W38583   2.758   1.936  25.595 -0.1504  0.1191  0.2312
31984W        W38584  13.076   0.986  14.989 -0.1101  0.0245 -0.2442
31985W        W38585  10.398   5.249  31.400  0.0186  0.1220 -0.1431
31986W        W38586   3.048   1.651  31.339  0.0074  0.1809  0.0762
31987W        W38587   3.528   2.772   3.505 -0.0081  0.1581  0.0308
31988W        W38588   4.665   2.868  16.192  0.0804  0.0884 -0.1556
31989W        W38589  14.763   0.723   3.889  0.0888  0.0426 -0.0891
31990W        W38590  15.013   5.138  13.015  0.2760 -0.0612  0.0780
31991W        W38591   7.207   2.246  34.751 -0.0499 -0.1329  0.0977
31992W        W38592  18.549   6.340  14.095  0.1515  0.0747  0.2834
31993W        W38593   4.466   6.244   4.352  0.1230  0.1283 -0.4225
31994W        W38594  17.349   4.636   2.223  0.1042 -0.3664  0.0942
31995W        W38595   5.623   4.907  39.436 -0.2157  0.0445 -0.0200
31996W        W38596   1.803   0.372   2.537 -0.1725 -0.0141  0.3097
31997W        W38597  13.987   5.461   8.115  0.1819  0.1896 -0.0445
31998W        W38598   3.448   4.502  38.706  0.0373 -0.2420  0.0935
31999W        W38599   6.369   5.980  14.884  0.1615 -0.4127  0.1126
32000W        W38600   6.592   6.470  28.127  0.1723 -0.0348 -0.1412
32001W        W38601   1.878   0.343  26.862  0.0729 -0.1914 -0.0574
32002W        W38602  14.699   6.150  42.962 -0.1285  0.0155 -0.2165
32003W        W38603  12.255   6.521  43.859 -0.1071 -0.0288 -0.0789
32004W        W38604   7.551   0.153  30.259  0.0735 -0.2739 -0.1624
32005W        W38605  19.071   2.902  31.264 -0.0261 -0.0017 -0.1477
32006W        W38606   2.877   3.865   1.974 -0.3106 -0.1819 -0.1070
32007W        W38607   9.638   3.425  30.165 -0.3783 -0.1314  0.0968
32008W        W38608   4.417   4.462  38.815  0.3046 -0.2690  0.0119
32009W        W38609   5.530   1.805  43.421  0.5058  0.1725 -0.1056
32010W        W38610   2.391   3.049  22.214 -0.3250  0.0713 -0.1230
32011W        W38611  12.190   5.724  18.565 -0.0413  0.2610  0.0656
32012W        W38612   1.724   6.562  12.719 -0.1638 -0.0497  0.0216
32013W        W38613  10.245   0.089  31.798  0.1428  0.3189 -0.2747
32014W        W38614   3.260   0.731  21.219  0.0290 -0.2722 -0.1009
32015W        W38615  18.133   4.314  18.602  0.1470  0.0144  0.3302
32016W        W38616   6.050   6.011  25.689  0.2278  0.0492  0.0880
32017W        W38617   7.943   5.089  34.247  0.1136  0.1413 -0.0554
32018W        W38618   3.648   2.132  25.254 -0.1013  0.0330 -0.0281
32019W        W38619  20.611   1.647   0.021 -0.0123  0.0756  0.0492
32020W        W38620  14.865   4.820  13.392  0.1762 -0.3708 -0.1672
32021W        W38621   7.098   1.786  40.935  0.0807 -0.0528  0.0774
32022W        W38622  16.996   3.001  33.118 -0.0679  0.1088 -0.1099
32023W        W38623   8.358   0.933  40.872 -0.1006  0.2298  0.1626
32024W        W38624   6.369   4.967   7.774  0.4280  0.2969 -0.1942
32025W        W38625  15.070   6.180   4.647 -0.2546 -0.0679 -0.1562
32026W        W38626  16.461   1.634  28.802  0.2600 -0.1429  0.2447
32027W        W38627   2.987   0.103  11.656  0.1547 -0.2109 -0.1494
32028W        W38628   6.767   2.124   2.372  0.1475  0.1766  0.2543
32029W        W38629   8.613   6.169  16.608 -0.4548 -0.5007 -0.1704
32030W        W38630   4.345   0.225  35.442  0.1472  0.0992  0.2450
32031W        W38631  19.345   4.931   9.951 -0.0747  0.0782 -0.3660
32032W        W38632   3.417   3.004   5.117  0.0530  0.1162 -0.0325
32033W        W38633   4.749   0.499  29.623 -0.0766 -0.1307 -0.1822
32034W        W38634  20.908   3.769   7.406  0.3198  0.0198  0.0706
32035W        W38635   5.516   3.347  16.398  0.0426  0.2171 -0.1336
32036W        W38636   4.254   5.936  37.971  0.0624 -0.1321 -0.0386
32037W        W38637   3.130   1.817   1.047  0.1730  0.0005  0.3704
32038W        W38638   7.940   2.863  38.654  0.3544 -0.0072  0.0330
32039W        W38639   8.807   3.891   9.550 -0.0773 -0.0223  0.3083
32040W        W38640  20.973   2.338   5.404  0.0131  0.1103  0.0747
32041W        W38641  14.213   3.860  24.843 -0.3257  0.3036  0.0635
32042W        W38642  14.221   2.551  36.399 -0.0422 -0.3549 -0.2710
32043W        W38643  11.194   5.311  30.427 -0.0380  0.2343  0.0629
32044W        W38644  16.598   0.108  13.865  0.1052 -0.2074 -0.1015
32045W        W38645   4.299   1.662  14.090  0.2291  0.0509  0.0424
32046W        W38646   5.937   5.156   0.048  0.1524 -0.3462 -0.1471
32047W        W38647   4.458   3.835  34.650 -0.2580 -0.1942 -0.3661
32048W        W38648  20.301   5.426  13.926  0.0891  0.1171  0.0750
32049W        W38649  17.820   0.666  42.759 -0.0436  0.0478  0.2335
32050W        W38650  18.832   5.003  39.206 -0.1377 -0.2174  0.1017
32051W        W38651   3.874   1.349   0.174  0.0284 -0.1378  0.0869
32052W        W38652  14.632   4.044  22.562  0.0280 -0.0308 -0.3757
32053W        W38653  20.152   2.208  28.956 -0.0169  0.0565  0.1086
32054W        W38654   1.583   2.750  37.048 -0.1142  0.3595 -0.0112
32055W        W38655   0.341   3.089  28.625  0.1425  0.0630 -0.0043
32056W        W38656   4.524   3.817  33.033  0.2603  0.0735 -0.0355
32057W        W38657  11.925   2.855   1.632  0.0198 -0.4052 -0.3812
32058W        W38658   1.386   3.288  36.144  0.3424 -0.0471  0.3098
32059W        W38659  16.287   2.564  18.540 -0.2229  0.0714 -0.5591
32060W        W38660  14.701   5.946   5.449  0.0011  0.0681 -0.0622
32061W        W38661   3.613   6.343   7.870 -0.1461  0.3248  0.0284
32062W        W38662  18.096   3.877  13.342  0.0827 -0.2815 -0.0674
32063W        W38663   6.850   1.943  13.845 -0.0479  0.1435  0.0768
32064W        W38664  20.569   2.291  16.219 -0.3152 -0.1698 -0.0589
32065W        W38665  14.692   0.820   0.217  0.0746 -0.0352 -0.2831
32066W        W38666   0.764   4.524   0.333  0.0092 -0.2686  0.1605
32067W        W38667  15.840   0.175  21.059 -0.0769  0.0634  0.1532
32068W        W38668  16.738   0.488   8.731  0.1455  0.1042  0.0654
32069W        W38669  19.044   1.910  34.326 -0.0675 -0.1924 -0.0413
32070W        W38670   6.984   2.246  24.437  0.2265 -0.0198 -0.1043
32071W        W38671  19.382   1.048   4.471 -0.2501 -0.0535 -0.2868
32072W        W38672   3.341   4.830  32.213  0.0939 -0.0153  0.0280
32073W        W38673  16.401   0.153  21.033 -0.1227 -0.3411  0.0947
32074W        W38674  17.340   4.119   2.158 -0.2373 -0.1361  0.2874
32075W        W38675  15.972   0.060  19.488  0.0566 -0.0161 -0.0090
32076W        W38676  14.885   4.654   9.761 -0.0242 -0.0240  0.4323
32077W        W38677   7.131   4.223  28.945 -0.0177  0.0497 -0.0290
32078W        W38678   6.784   3.460  11.592 -0.0028  0.1836  0.0717
32079W        W38679  17.209   4.648  35.530  0.3861 -0.3533 -0.1313
32080W        W38680   5.593   4.333  25.975  0.3671 -0.0623  0.0083
32081W        W38681  20.853   1.342  12.227  0.1704 -0.0908 -0.0803
32082W        W38682  13.605   6.471  13.069 -0.0890  0.0851 -0.0833
32083W        W38683  17.710   4.968  31.732 -0.1603  0.1884  0.4349
32084W        W38684  14.255   2.455  19.503 -0.2299 -0.2026  0.1134
32085W        W38685   9.131   4.673   8.171  0.0963  0.1792  0.2536
32086W        W38686  14.387   2.022  16.610 -0.0206 -0.0329 -0.0008
32087W        W38687  12.483   4.788  15.355 -0.0615 -0.0187  0.1222
32088W        W38688  13.754   6.134  35.016  0.3957 -0.0787 -0.1080
32089W        W38689   6.360   4.595  41.032  0.1247 -0.3016  0.0932
32090W        W38690  16.294   1.301  36.561  0.1652  0.2274 -0.2362
32091W        W38691  11.587   6.400   7.857 -0.0705  0.3096  0.1538
32092W        W38692  20.721   1.316  41.827  0.0752 -0.0783 -0.1376
32093W        W38693   9.148   2.010  33.703 -0.3421  0.2239 -0.0029
32094W        W38694   2.455   4.558  35.515 -0.0677  0.1280 -0.2647
32095W        W38695   4.859   1.258   0.877 -0.1438  0.0216 -0.0860
32096W        W38696   6.999   3.043  28.388 -0.2055  0.1642  0.3559
32097W        W38697   2.262   5.154  16.110 -0.0801  0.1811 -0.2338
32098W        W38698  16.934   5.378  39.441 -0.0171  0.1532  0.1503
32099W        W38699   3.720   5.626  11.002 -0.1012 -0.0699  0.2427
32100W        W38700  10.163   5.561   8.584 -0.0106 -0.2621  0.0716
32101W        W38701   4.801   1.653  36.806 -0.2760  0.4311  0.0194
32102W        W38702  17.736   0.612  17.145 -0.0983 -0.0293  0.1178
32103W        W38703   5.706   4.491  40.290  0.1445  0.0588 -0.3237
32104W        W38704   0.656   3.081   3.698 -0.0628  0.0323  0.0242
32105W        W38705   5.769   1.183  15.199  0.0688 -0.1546 -0.2531
32106W        W38706  20.644   3.408  26.664 -0.2682 -0.1419 -0.2335
32107W        W38707  20.050   3.012  13.255  0.3344  0.2191  0.2811
32108W        W38708   0.168   2.961  41.387  0.1587  0.2766 -0.3090
32109W        W38709  16.875   2.768  35.158  0.0783  0.1060 -0.0080
32110W        W38710   3.412   0.559  10.987  0.2052  0.1663 -0.0800
32111W        W38711   8.696   0.187   0.881 -0.0529 -0.0174 -0.1823
32112W        W38712  12.834   2.357  21.959  0.0736  0.2213  0.0655
32113W        W38713  10.742   4.075  30.011 -0.0126 -0.2133 -0.1008
32114W        W38714   6.822   1.606   9.226  0.0915 -0.3591  0.2282
32115W        W38715   2.802   0.963  28.948  0.1267  0.0482 -0.0197
32116W        W38716   8.753   0.778  26.993 -0.0633 -0.1550 -0.1310
32117W        W38717  18.145   0.527   2.386 -0.2375 -0.0204  0.0990
32118W        W38718  18.399   1.432   3.846 -0.0128 -0.3861 -0.2880
32119W        W38719   1.361   2.957  14.628 -0.1046 -0.0457  0.0438
32120W        W38720   3.410   3.260   0.445 -0.0963 -0.1818  0.0722
32121W        W38721  18.567   6.439  42.423 -0.1126 -0.1505 -0.0913
32122W        W38722   5.600   4.741  16.638  0.1611 -0.2222  0.0299
32123W        W38723  19.379   0.586  32.431 -0.1102 -0.1169  0.0224
32124W        W38724   2.564   1.794  43.146  0.0162  0.0759 -0.0236
32125W        W38725   8.596   3.983  15.306 -0.1417  0.0570  0.0702
32126W        W38726   4.400   0.153  12.925  0.2307 -0.2009 -0.0154
32127W        W38727  19.407   4.924  15.238 -0.0734  0.3056 -0.1118
32128W        W38728  20.511   3.773  29.293  0.0331  0.0094 -0.2151
32129W        W38729  14.112   4.410  10.422 -0.0888 -0.2919  0.0576
32130W        W38730  12.400   2.237  29.577  0.1277  0.0808  0.0724
32131W        W38731  20.325   5.718  40.326  0.5992 -0.1030 -0.1030
32132W        W38732  10.693   0.723  42.768 -0.1335  0.0959 -0.0630
32133W        W38733  12.856   4.029   6.894 -0.0852 -0.0939  0.1348
32134W        W38734  15.779   0.999  19.238 -0.1407 -0.3349  0.1073
32135W        W38735   7.379   4.917  12.964  0.1722  0.1383  0.2527
32136W        W38736  18.376   3.588  38.053  0.0580  0.0342  0.0661
32137W        W38737  17.289   6.073  36.518 -0.0379  0.1289 -0.1487
32138W        W38738   7.686   4.559   2.954 -0.1123 -0.0130 -0.1159
32139W        W38739   6.987   6.093  30.245  0.0076  0.1902  0.2278
32140W        W38740   5.143   5.561  14.360 -0.2269 -0.0717 -0.2187
32141W        W38741   1.759   3.404  44.063  0.0388  0.0265 -0.0371
32142W        W38742   1.064   1.457  15.929  0.2637  0.0549 -0.2440
32143W        W38743  18.026   4.248  37.775 -0.0634 -0.0673  0.0853
32144W        W38744  13.919   1.707  32.339  0.3089 -0.1194 -0.0707
32145W        W38745  13.095   3.305   3.105  0.1163  0.1901 -0.0384
32146W        W38746  19.671   3.433   7.634 -0.1380 -0.1305 -0.0996
32147W        W38747   2.322   0.195  43.275 -0.1804  0.2040  0.0075
32148W        W38748  10.981   6.324  39.763  0.1628 -0.0855  0.0431
32149W        W38749   9.992   4.419  43.369 -0.1209  0.0476 -0.2392
32150W        W38750  17.261   0.031  44.873 -0.1326  0.0966  0.2329
32151W        W38751   9.354   3.733  39.753 -0.3569 -0.0099  0.1086
32152W        W38752  16.673   5.935   2.246 -0.2120  0.1740 -0.0833
32153W        W38753   6.714   6.174   4.610  0.0848  0.2396 -0.1222
32154W        W38754  14.547   2.722   6.574 -0.2015 -0.1195  0.2494
32155W        W38755  19.470   1.410  43.167 -0.1326  0.1752  0.0566
32156W        W38756   6.615   2.645   5.668 -0.1538  0.1021  0.0470
32157W        W38757   4.591   2.456  15.371  0.2764  0.0825  0.0882
32158W        W38758   4.165   2.031  23.831 -0.1601  0.0611 -0.0576
32159W        W38759   2.507   6.218   3.736 -0.3875 -0.1320  0.1153
32160W        W38760  14.535   2.285  33.267  0.1818  0.0585 -0.1920
32161W        W38761  14.778   4.185   7.662 -0.1752 -0.0480 -0.0305
32162W        W38762  13.052   2.313  37.763 -0.1514  0.2200 -0.1006
32163W        W38763  19.760   1.649  42.775 -0.0605  0.1327  0.5050
32164W        W38764  17.636   0.397  15.368 -0.0791  0.0558  0.3575
32165W        W38765   6.468   1.819  39.988 -0.0636  0.2606 -0.0614
32166W        W38766  15.371   2.667   6.707  0.1380  0.0786  0.2327
32167W        W38767  10.642   4.518  39.266  0.3071  0.1661 -0.0787
32168W        W38768  12.385   4.681   2.841 -0.0642  0.0377 -0.1995
32169W        W38769   3.091   5.871   5.030  0.2161  0.0770  0.2665
32170W        W38770   8.558   0.805  32.296  0.1363  0.0211 -0.2127
32171W        W38771  15.075   0.414  40.364 -0.0024 -0.1113 -0.0029
32172W        W38772   3.384   6.082  31.563  0.0832  0.1452  0.0394
32173W        W38773  19.762   4.696   5.511  0.2437 -0.1532 -0.0213
32174W        W38774  20.400   1.516   8.494 -0.0123 -0.4149 -0.0137
32175W        W38775  11.658   2.062   2.550 -0.0085 -0.0701 -0.2909
32176W        W38776  16.726   5.243  41.993 -0.0928  0.1564  0.0868
32177W        W38777   5.518   1.408  44.845 -0.1027 -0.0164 -0.3640
32178W        W38778   7.578   6.451  11.641 -0.0719 -0.0207  0.0323
32179W        W38779  13.852   3.165  26.131 -0.1697 -0.1972  0.0872
32180W        W38780   4.078   4.834  25.959  0.2365  0.0834 -0.0498
32181W        W38781  20.418   6.270  13.285 -0.2332  0.0721  0.2696
32182W        W38782   9.906   3.918  31.994 -0.0247  0.2469 -0.2173
32183W        W38783   4.909   4.091  37.798  0.0770  0.0168 -0.3031
32184W        W38784   2.238   3.171   4.272  0.1859 -0.1010 -0.0437
32185W        W38785  19.002   4.114  11.744  0.1361  0.1747 -0.1744
32186W        W38786  17.063   0.373  42.634 -0.6532  0.0527 -0.4574
32187W        W38787  21.149   5.505  31.921  0.4469  0.0895 -0.1826
32188W        W38788   6.362   2.769  36.696 -0.2216 -0.0401  0.0825
32189W        W38789   5.112   2.933  11.014 -0.0264 -0.1492 -0.2363
32190W        W38790  15.556   1.490   8.955 -0.0717  0.1414 -0.1446
32191W        W38791   5.501   0.446   8.865  0.0014  0.1425  0.0403
32192W        W38792   1.844   0.577  39.722  0.0081 -0.0301 -0.1754
32193W        W38793   0.572   5.697   9.160  0.0953  0.0678 -0.2231
32194W        W38794   2.619   1.942  39.478 -0.0121 -0.0959  0.0712
32195W        W38795  11.842   6.212  34.111 -0.0668  0.1538  0.0596
32196W        W38796   5.637   1.835   4.251  0.0384 -0.0606  0.1373
32197W        W38797   5.127   3.832   5.934  0.3983 -0.0129  0.4140
32198W        W38798   4.439   3.771  27.027  0.1280  0.2309 -0.1743
32199W        W38799  11.103   1.673  12.028  0.1708 -0.0446 -0.1683
32200W        W38800   9.028   5.008   5.367  0.0729 -0.0008  0.2390
32201W        W38801  10.681   0.545  38.006 -0.1910 -0.2857  0.0369
32202W        W38802   0.775   6.437  45.013  0.3679 -0.0835 -0.0878
32203W        W38803  14.399   4.456   6.168 -0.2159  0.1748 -0.0630
32204W        W38804  12.454   3.694  12.397 -0.2996  0.1284 -0.0360
32205W        W38805  19.754   2.795  36.993  0.1593  0.0969 -0.1476
32206W        W38806  17.637   3.506  29.669  0.1082 -0.2160 -0.3919
32207W        W38807   6.923   1.433  14.004 -0.0312 -0.2627 -0.1140
32208W        W38808   4.858   6.473  24.438 -0.2162  0.1396  0.1707
32209W        W38809  15.535   4.990   8.970 -0.0847 -0.1075 -0.3311
32210W        W38810  14.849   2.535  22.631  0.2369  0.0249  0.0683
32211W        W38811  13.893   4.515  42.234  0.0379  0.1184  0.2646
32212W        W38812  18.200   2.527  14.374  0.1783 -0.1066 -0.2433
32213W        W38813  20.292   5.468   5.144 -0.0515 -0.0291  0.2158
32214W        W38814  11.184   3.242  38.479  0.0302  0.0468 -0.1757
32215W        W38815  14.383   3.871  41.234 -0.1959 -0.0402 -0.0205
32216W        W38816  13.126   4.250   5.502 -0.2146 -0.3123  0.1137
32217W        W38817   2.025   3.919  25.921 -0.0875 -0.1111 -0.1526
32218W        W38818   9.539   6.463   4.006 -0.0353  0.0719 -0.0714
32219W        W38819   5.668   0.963  31.601  0.0233  0.0045 -0.1588
32220W        W38820  13.142   3.607  37.138 -0.0890 -0.0487 -0.0656
32221W        W38821  12.914   2.478   9.147  0.4046  0.2943 -0.0909
32222W        W38822   1.344   1.291  15.534 -0.0181  0.2412 -0.2190
32223W        W38823   3.299   3.209  13.203 -0.1794  0.0342 -0.1185
32224W        W38824   9.308   4.209  34.046 -0.0664 -0.0847 -0.1195
32225W        W38825   9.383   5.216  27.750  0.0281 -0.2848  0.0616
32226W        W38826   5.806   2.155  22.610 -0.0178  0.3760  0.1252
32227W        W38827   7.004   0.684  35.142 -0.3050  0.1366  0.3199
32228W        W38828  18.219   1.465   8.566 -0.1662 -0.1033 -0.0672
32229W        W38829  19.664   3.898  40.892 -0.1384  0.0822 -0.0112
32230W        W38830  19.356   1.998  18.056 -0.1641  0.2126  0.1434
32231W        W38831   5.844   5.584  44.019 -0.3260  0.1935 -0.1010
32232W        W38832  17.119   5.381  13.788  0.2011 -0.2421  0.0704
32233W        W38833   6.545   3.575   7.121  0.2567  0.0237  0.2167
32234W        W38834  19.376   5.224  32.749 -0.1758  0.0373  0.0134
32235W        W38835  15.259   5.253  16.637 -0.0534  0.0660 -0.0998
32236W        W38836  13.027   1.887   2.987 -0.0411  0.2121 -0.3114
32237W        W38837  17.144   0.996  15.664 -0.1841 -0.0342  0.1392
32238W        W38838   2.427   2.382  15.314  0.0020  0.0843 -0.0527
32239W        W38839   1.332   3.019  24.741 -0.2071  0.0622 -0.1471
32240W        W38840   2.301   6.116  25.466 -0.2010 -0.0942 -0.1305
32241W        W38841   3.711   3.127  21.523  0.0217  0.1507 -0.1557
32242W        W38842  12.632   4.159   5.687 -0.0696 -0.2861  0.0624
32243W        W38843  16.162   4.074  22.920  0.0157  0.2996 -0.1929
32244W        W38844  17.680   5.630   4.602 -0.0068  0.2346  0.1112
32245W        W38845  20.257   3.956  16.669 -0.0712 -0.1782 -0.1076
32246W        W38846  14.055   5.144  44.201 -0.1619  0.1027  0.0369
32247W        W38847   1.818   1.267  13.045  0.1814 -0.0123  0.2191
32248W        W38848  18.624   1.736   7.270  0.0145  0.0534  0.0196
32249W        W38849  14.734   5.840  20.434 -0.0367 -0.0625 -0.0362
32250W        W38850  15.940   4.715  29.976  0.0915  0.2058  0.2194
32251W        W38851   7.837   0.337   7.555  0.0005  0.0796 -0.0418
32252W        W38852  16.856   0.551  14.567 -0.1634 -0.0122 -0.0313
32253W        W38853  15.250   2.657  22.840 -0.1356  0.1196 -0.0319
32254W        W38854  18.869   6.306  40.890 -0.0870  0.0748 -0.0837
32255W        W38855  18.129   6.429  35.666 -0.2447 -0.0394  0.0668
32256W        W38856  12.253   0.726  40.869  0.0387 -0.1513 -0.0545
32257W        W38857  17.117   3.112  21.500  0.0846 -0.1863  0.0429
32258W        W38858   7.813   0.564   1.310  0.1323  0.2662 -0.0730
32259W        W38859  12.581   5.996   4.237 -0.1866  0.5521  0.0743
32260W        W38860   9.959   1.622  43.174  0.2699 -0.0619  0.0389
32261W        W38861   7.280   6.162   7.031  0.1145  0.1577  0.2479
32262W        W38862  12.268   4.687  41.776 -0.2084  0.1005 -0.1386
32263W        W38863  14.126   5.438  37.528 -0.0886  0.0422  0.1938
32264W        W38864   7.365   5.863  32.269 -0.4022 -0.1016  0.2145
32265W        W38865   0.041   5.503  36.086 -0.0623  0.1391  0.1978
32266W        W38866  15.428   1.758  20.979  0.1882 -0.1847  0.0226
32267W        W38867   9.779   5.405  35.235  0.0667  0.1295  0.0162
32268W        W38868  14.068   2.532  21.012  0.2802  0.3342 -0.2278
32269W        W38869   9.827   0.876  27.923 -0.1082 -0.1599  0.0508
32270W        W38870  15.225   2.286   8.502 -0.0481  0.1216  0.0978
32271W        W38871   7.915   3.251  31.614  0.0689 -0.3404 -0.1525
32272W        W38872   7.790   0.910  32.748 -0.1007  0.0041 -0.0830
32273W        W38873   8.906   3.787  41.853 -0.1188 -0.1363  0.1066
32274W        W38874   0.688   2.396  33.832  0.0441 -0.1828 -0.1715
32275W        W38875   1.568   4.326   0.756  0.3271  0.0136  0.1618
32276W        W38876   5.632   1.365  12.288 -0.0768 -0.1100  0.0329
32277W        W38877  14.985   2.302   6.687  0.2576 -0.0741  0.0142
32278W        W38878   4.005   5.745  29.125 -0.1496  0.1843  0.1323
32279W        W38879  17.298   1.056  16.534  0.2885 -0.0638  0.0772
32280W        W38880   6.252   3.971  39.120  0.0343  0.0865  0.1355
32281W        W38881  15.413   4.317  13.893 -0.5352  0.2578 -0.1144
32282W        W38882  18.013   3.781  33.418 -0.2180 -0.1420 -0.0176
32283W        W38883  17.069   6.309  40.116 -0.2225 -0.0049  0.1291
32284W        W38884   5.809   4.500  28.571  0.0727  0.0631  0.0212
32285W        W38885   9.388   0.641  39.626 -0.0587  0.0988  0.1224
32286W        W38886  11.025   6.542  15.873  0.1816 -0.2137 -0.2475
32287W        W38887  20.073   5.543  29.618  0.4119 -0.0852  0.0066
32288W        W38888  14.436   1.609  39.030 -0.0843  0.2236  0.1977
32289W        W38889   3.773   0.143  10.100 -0.0934  0.3222 -0.0962
32290W        W38890   4.053   0.084  32.859  0.1904 -0.0677 -0.1587
32291W        W38891   1.559   5.571   4.604  0.0919 -0.1992  0.0587
32292W        W38892  20.127   5.050  30.462 -0.0509  0.0983  0.0419
32293W        W38893  12.975   4.695  10.992 -0.2472 -0.0005 -0.3703
32294W        W38894  17.452   3.837  44.558  0.1790  0.0602 -0.1041
32295W        W38895   4.044   5.022  15.369  0.1969 -0.0399 -0.0333
32296W        W38896  12.082   1.804  10.683  0.2874 -0.0876 -0.3271
32297W        W38897   6.256   0.938  12.385  0.1318  0.0815  0.2013
32298W        W38898  15.433   6.549  42.441 -0.4294 -0.0750 -0.0019
32299W        W38899  20.022   3.242   5.353  0.1548  0.0629 -0.1588
32300W        W38900   3.747   2.844  27.410 -0.2573  0.2256 -0.0990
32301W        W38901  18.042   2.927  16.598 -0.1516  0.3569  0.3762
32302W        W38902   3.093   3.725   9.740  0.0450 -0.0690  0.1166
32303W        W38903  18.989   2.711  28.944 -0.1563  0.0604 -0.1205
32304W        W38904  20.427   2.746  27.099 -0.2366  0.3591 -0.4649
32305W        W38905   7.905   4.193   1.268 -0.1010 -0.0392 -0.0799
32306W        W38906  15.716   3.457  42.190  0.1335  0.0901 -0.2772
32307W        W38907  12.366   5.404  40.528  0.1524 -0.1354  0.0438
32308W        W38908  15.662   2.264  37.104 -0.1453 -0.2037  0.0024
32309W        W38909  18.093   5.841   8.568  0.0581 -0.1287 -0.0019
32310W        W38910  16.727   5.201  17.474  0.2295  0.1153 -0.1105
32311W        W38911   0.251   0.041   4.588 -0.0714 -0.1970  0.1569
32312W        W38912  12.878   4.028  12.047 -0.0422  0.2124 -0.1062
32313W        W38913   7.150   1.307  29.797  0.1551 -0.0406  0.0005
32314W        W38914  13.256   0.077  30.200 -0.0070 -0.0702 -0.0879
32315W        W38915  18.194   4.839  19.449  0.2167 -0.2247  0.1701
32316W        W38916   5.036   5.204  41.583 -0.1107 -0.1676 -0.0303
32317W        W38917  14.003   6.271  39.504  0.0966  0.1061 -0.2250
32318W        W38918   0.261   4.626   0.374 -0.2686 -0.1603 -0.2622
32319W        W38919   2.434   6.550  39.233  0.1984 -0.0863  0.1954
32320W        W38920   6.468   2.735   4.921  0.1828  0.0620 -0.2565
32321W        W38921   2.819   3.034   2.924 -0.2479  0.0257 -0.0608
32322W        W38922  18.823   2.442  31.419 -0.0171  0.1882 -0.2178
32323W        W38923  16.422   1.824  42.603 -0.0025  0.0263 -0.1025
32324W        W38924  10.858   1.443   3.460  0.2389 -0.0255  0.0962
32325W        W38925   7.272   2.700  40.678  0.0934 -0.0300 -0.0370
32326W        W38926  14.471   4.276  40.245 -0.1339  0.0935 -0.2674
32327W        W38927  15.256   5.223  22.633 -0.1334  0.0236 -0.0767
32328W        W38928  13.497   5.489  32.744 -0.0381  0.0861  0.1402
32329W        W38929   4.786   2.634  42.111  0.3107 -0.0362  0.3836
32330W        W38930   9.448   6.220   9.852 -0.2343  0.1403 -0.0328
32331W        W38931  19.175   3.718  18.617 -0.2223  0.3238  0.3031
32332W        W38932   5.006   0.501  12.258 -0.2207 -0.0974 -0.1224
32333W        W38933  15.771   6.490  13.608  0.0521 -0.3139  0.0991
32334W        W38934  11.706   0.324  19.706  0.1483 -0.0842 -0.2270
32335W        W38935  20.619   4.886   5.920  0.2418 -0.1015  0.0674
32336W        W38936  19.777   2.764  16.116  0.3033  0.2217  0.1490
32337W        W38937   3.922   0.039  40.197  0.3644  0.0442 -0.1428
32338W        W38938  19.840   1.222  26.182 -0.0784 -0.0910  0.1662
32339W        W38939  18.991   1.380  30.712  0.0669  0.0851 -0.1091
32340W        W38940  17.651   1.953  40.687  0.3030 -0.0586  0.0104
32341W        W38941   9.866   2.440  12.006  0.2510 -0.1344 -0.1149
32342W        W38942   1.121   0.292  37.863 -0.1050 -0.0296  0.0540
32343W        W38943   5.212   2.654   3.645  0.0495  0.2300  0.0632
32344W        W38944  19.764   4.192  28.805 -0.2668 -0.2449 -0.0780
32345W        W38945  16.658   1.352   9.562  0.0488 -0.1377 -0.0547
32346W        W38946   8.133   4.156  10.282  0.2041 -0.0502  0.1795
32347W        W38947  19.718   2.178  15.101 -0.1100  0.1815  0.1059
32348W        W38948  14.138   0.144  18.018 -0.1800 -0.0051  0.0066
32349W        W38949  11.007   2.961   5.866 -0.0912 -0.1019 -0.2549
32350W        W38950  12.441   3.354  16.185  0.0210  0.0659  0.3517
32351W        W38951  19.284   6.570  11.304 -0.3515 -0.3207  0.0714
32352W        W38952   0.020   0.611  10.101 -0.2809 -0.1379 -0.0498
32353W        W38953  12.208   5.056  17.867 -0.1659 -0.0570 -0.2307
32354W        W38954  13.602   0.682  40.389  0.0881  0.0564 -0.3570
32355W        W38955   2.367   0.957   9.480 -0.3590  0.1410 -0.0731
32356W        W38956  10.520   4.877   8.959  0.1601 -0.0163 -0.1041
32357W        W38957  20.495   5.941  37.045 -0.0381  0.1035  0.0172
32358W        W38958   6.398   3.678  36.336  0.2159  0.0105  0.1180
32359W        W38959   1.502   5.497   6.412  0.1160 -0.2164 -0.3759
32360W        W38960  17.875   0.098  44.634  0.0720  0.1713  0.3102
32361W        W38961   5.161   4.538  12.563  0.0343 -0.3390  0.1608
32362W        W38962   2.628   2.329   2.105  0.0773 -0.0110  0.2353
32363W        W38963  15.553   3.761   4.066 -0.2300  0.2926  0.1687
32364W        W38964  21.115   2.918  30.946  0.1859  0.1714  0.1224
32365W        W38965  14.465   1.300  15.738  0.0673  0.2487 -0.0573
32366W        W38966  13.168   0.262  10.733  0.0550  0.1305 -0.2098
32367W        W38967  20.662   3.078   4.217  0.1345 -0.3344 -0.0861
32368W        W38968   0.409   0.823  24.401 -0.0594  0.3069  0.0842
32369W        W38969  13.600   2.969  44.775  0.3595 -0.3429 -0.1028
32370W        W38970   5.329   1.109  14.732  0.0399 -0.0498  0.1212
32371W        W38971  11.452   6.252  28.780  0.0437  0.0131  0.1136
32372W        W38972  18.222   4.957  34.650 -0.2330  0.0810 -0.1635
32373W        W38973  12.086   5.899   6.115 -0.3448 -0.1366  0.1440
32374W        W38974  13.585   6.009   4.395 -0.0965 -0.0430 -0.0011
32375W        W38975  17.517   5.064  37.510  0.0562  0.3307 -0.2679
32376W        W38976  19.401   0.145  17.980 -0.0293  0.2673  0.0109
32377W        W38977  13.002   6.150  15.418 -0.0807  0.3575  0.0410
32378W        W38978   5.137   0.248   3.673 -0.0307 -0.1815 -0.1595
32379W        W38979  19.216   0.224   5.527  0.0711 -0.1587  0.0626
32380W        W38980  12.707   0.400  10.154 -0.1588 -0.1646  0.1138
32381W        W38981  21.123   3.296  33.559 -0.1121  0.0218  0.0505
32382W        W38982  21.018   1.789  41.444  0.1620  0.0080 -0.4205
32383W        W38983   4.500   5.859  31.952 -0.1869 -0.1751  0.3811
32384W        W38984   2.933   2.409  29.447  0.0220  0.1545  0.0337
32385W        W38985   1.044   1.442  25.912  0.0170  0.2060  0.1533
32386W        W38986  12.099   0.522   3.555  0.1243  0.0863  0.0144
32387W        W38987  15.622   0.900   3.318 -0.0023  0.0056  0.1234
32388W        W38988  13.397   2.235   5.689 -0.0961 -0.1181  0.3109
32389W        W38989   4.382   5.141  11.764  0.0366  0.1026  0.1226
32390W        W38990  20.828   2.769  40.687 -0.0595  0.1577 -0.0175
32391W        W38991  11.529   4.666  16.895  0.1673  0.0231 -0.0892
32392W        W38992   7.958   6.205   8.867 -0.0802  0.2673 -0.0566
32393W        W38993  13.144   4.527  32.069 -0.3289  0.0027 -0.0711
32394W        W38994  11.404   6.459  42.410 -0.1346 -0.2694 -0.0503
32395W        W38995   8.546   3.906  10.544 -0.0973  0.1338  0.0655
32396W        W38996   6.131   2.320  32.031 -0.3069  0.3662 -0.0603
32397W        W38997   1.994   3.177  29.653  0.1637  0.0369  0.0616
32398W        W38998  19.851   5.024  43.744  0.0414 -0.1540  0.1755
32399W        W38999   7.170   1.918  39.291  0.2478 -0.0330 -0.2026
32400W        W39000   3.959   5.850  38.945  0.0125  0.2730 -0.1831
32401W        W39001  20.219   5.097  41.462  0.0227  0.2616 -0.0269
32402W        W39002   3.415   5.877  33.483  0.0289  0.1300  0.3048
32403W        W39003  15.825   6.476  30.350  0.1106 -0.1298  0.1456
32404W        W39004  11.097   6.339   9.469 -0.0649 -0.1077  0.2036
32405W        W39005  12.545   2.702   9.390  0.3603  0.3025 -0.1484
32406W        W39006   4.865   0.947  37.973  0.0696  0.2107  0.0410
32407W        W39007  17.088   0.839  16.118 -0.2729  0.1951 -0.0395
32408W        W39008  12.086   5.638  11.511 -0.0460  0.0691 -0.4305
32409W        W39009   6.909   0.756  30.402 -0.2050  0.0070  0.0604
32410W        W39010   9.429   4.471  39.207 -0.0131 -0.0108 -0.3159
32411W        W39011  11.577   5.931  44.243  0.2757  0.0541  0.0951
32412W        W39012   1.969   3.322  27.446 -0.3698 -0.1475 -0.1348
32413W        W39013  18.190   2.820   3.536 -0.5033 -0.1151  0.2268
32414W        W39014  15.931   3.704  32.780  0.2046  0.0985 -0.0870
32415W        W39015  13.930   1.372  19.881  0.2203  0.1706 -0.1199
32416W        W39016   6.424   1.975  24.659  0.3357  0.0047  0.0469
32417W        W39017   8.129   4.176   0.223  0.0607 -0.2819  0.1242
32418W        W39018   4.998   4.869  33.436  0.0445  0.1187 -0.0118
32419W        W39019  20.399   1.374   6.752  0.3219  0.1715  0.1066
32420W        W39020  15.597   1.029  38.935  0.2457  0.1469 -0.1605
32421W        W39021  16.574   0.109  19.883 -0.0289  0.0937 -0.2450
32422W        W39022  10.954   1.300  12.851  0.3898  0.2281  0.0981
32423W        W39023   0.078   6.259   1.285 -0.1041  0.2733  0.2430
32424W        W39024  20.219   3.368  41.437  0.0713 -0.1684 -0.1485
32425W        W39025  10.779   6.403   3.300 -0.0423 -0.0374  0.3486
32426W        W39026  18.384   3.456  38.539  0.1296  0.2426  0.0538
32427W        W39027   1.094   2.970  36.569  0.3094  0.0128 -0.1040
32428W        W39028   1.272   4.183   9.545 -0.2315  0.0685  0.2600
32429W        W39029   4.910   5.114  21.943 -0.0085 -0.1175  0.0801
32430W        W39030  18.688   5.827  27.792  0.1179 -0.0600 -0.1119
32431W        W39031   2.417   4.397  42.395 -0.1952  0.2359 -0.0017
32432W        W39032  19.326   1.662  28.159 -0.0029  0.1115 -0.2053
32433W        W39033  17.562   5.671  38.372 -0.0219 -0.2454 -0.0430
32434W        W39034   7.077   2.307   9.620 -0.0396  0.1309  0.1085
32435W        W39035   7.653   3.397  37.557 -0.3400 -0.1162  0.0146
32436W        W39036   7.876   2.563  26.511 -0.0805 -0.2003  0.0443
32437W        W39037  13.920   2.158  34.769  0.0077  0.1810  0.1595
32438W        W39038   5.688   4.953   3.174  0.3650  0.1967 -0.0357
32439W        W39039  15.986   5.969   8.168  0.0634  0.1811  0.0175
32440W        W39040   6.700   3.415  32.450 -0.0478 -0.1769 -0.1643
32441W        W39041  20.730   1.610  15.453  0.4053 -0.3480  0.1559
32442W        W39042   4.386   1.899  36.864  0.0782 -0.2163 -0.1176
32443W        W39043   2.172   3.846  28.506  0.2794  0.0030 -0.1093
32444W        W39044   2.309   5.741  13.554 -0.1802  0.3509 -0.0617
32445W        W39045   7.158   4.254   3.814  0.1275 -0.2571 -0.1567
32446W        W39046  11.098   2.491  34.643 -0.2237 -0.0093 -0.0393
32447W        W39047   9.464   6.562  32.107  0.0619  0.1624  0.0387
32448W        W39048   4.521   6.099  32.393 -0.1640  0.0550 -0.1645
32449W        W39049  13.966   0.409   2.796 -0.0666 -0.0832 -0.1493
32450W        W39050  13.343   6.321  13.784 -0.1605 -0.0349  0.1084
32451W        W39051  15.144   6.420  23.388 -0.1025  0.0998  0.1391
32452W        W39052   1.219   1.290   9.399 -0.2224 -0.3091 -0.0442
32453W        W39053  14.184   0.678   9.798 -0.1239  0.2990  0.4694
32454W        W39054   9.961   3.907  32.681 -0.0109  0.0197  0.1039
32455W        W39055   8.657   1.990  36.962  0.3562  0.1568 -0.2088
32456W        W39056  13.203   5.171  36.174  0.0804  0.2036  0.2245
32457W        W39057   8.275   4.954  17.878  0.0041 -0.2175 -0.0541
32458W        W39058   2.790   5.049  37.633  0.1932  0.0278 -0.2922
32459W        W39059  12.610   2.844  32.521  0.0845 -0.1781 -0.0821
32460W        W39060   8.868   2.898  12.288  0.2367  0.0982  0.0393
32461W        W39061  12.727   5.297  22.430  0.0244 -0.3911 -0.0137
32462W        W39062  17.315   6.554  14.640  0.1165 -0.0131 -0.3405
32463W        W39063  12.792   5.171  16.281  0.1505  0.0283 -0.2170
32464W        W39064  14.895   2.728   6.193 -0.0547 -0.1292  0.1764
32465W        W39065  19.398   6.429  35.918  0.1199  0.0088  0.4251
32466W        W39066  10.159   2.652  37.205  0.1355 -0.0656 -0.0029
32467W        W39067   1.459   3.705  24.729 -0.0602 -0.0911  0.1501
32468W        W39068   4.693   4.012   6.833 -0.3951 -0.0971 -0.0355
32469W        W39069   6.855   1.343  43.457 -0.0564  0.3928  0.2148
32470W        W39070  18.205   0.611  29.065 -0.1706  0.1015  0.1712
32471W        W39071  13.130   2.260  21.118 -0.0321  0.2681 -0.0095
32472W        W39072   1.862   5.569  29.751 -0.0952  0.1391  0.1580
32473W        W39073   8.102   5.398  14.467  0.2520 -0.0657 -0.1281
32474W        W39074  19.214   2.902  32.571 -0.0286 -0.0446 -0.0984
32475W        W39075   9.827   2.495  44.215  0.0592  0.0681  0.2892
32476W        W39076   3.806   1.033  42.117 -0.2465  0.1068  0.1123
32477W        W39077   9.643   4.964  29.996  0.0459  0.0424 -0.1869
32478W        W39078   5.244   5.394   3.812 -0.1229  0.2596  0.1414
32479W        W39079  20.292   4.706  31.327 -0.0932 -0.1896  0.1040
32480W        W39080  13.999   3.028  19.001 -0.1494  0.0302  0.1474
32481W        W39081   7.167   3.731  26.979  0.4393  0.0269  0.1900
32482W        W39082   9.570   3.942  11.385  0.0456  0.0629 -0.1378
32483W        W39083  19.645   2.050  40.868  0.1474 -0.3896 -0.1788
32484W        W39084   0.464   3.621  44.603  0.1081  0.0299  0.2659
32485W        W39085  19.094   0.494  35.202 -0.0464  0.1489  0.1079
32486W        W39086  17.235   3.834  20.024  0.2104  0.0729 -0.0865
32487W        W39087   3.837   0.050  16.379  0.3266  0.1430  0.0250
32488W        W39088  13.561   5.852  15.948 -0.2219  0.1956 -0.0543
32489W        W39089  10.448   3.661  29.852 -0.1121  0.0397 -0.0501
32490W        W39090   8.997   4.782  40.615  0.1532 -0.4221 -0.1544
32491W        W39091  14.672   1.373   6.637 -0.2063 -0.1005 -0.2442
32492W        W39092  19.486   0.659   3.357 -0.0929  0.0766  0.3027
32493W        W39093  12.075   3.199  40.217 -0.1702  0.2031  0.0770
32494W        W39094  18.104   4.627   2.230  0.1145 -0.1361  0.1207
32495W        W39095   6.972   0.497   0.219  0.2339 -0.2037 -0.1260
32496W        W39096   1.923   1.295   2.876 -0.0442 -0.1201  0.1068
32497W        W39097   1.368   5.582  36.284  0.2959 -0.0503  0.3853
32498W        W39098  21.116   4.094   4.830  0.3762  0.2917  0.1423
32499W        W39099  12.805   0.178   5.343 -0.0972 -0.1663  0.1584
32500W        W39100   6.867   4.514  35.638 -0.1078 -0.1875  0.0826
32501W        W39101  14.623   0.135  17.919 -0.0068  0.1177  0.1888
32502W        W39102  19.800   0.775  39.289 -0.0417 -0.0821 -0.0100
32503W        W39103   7.778   3.554  38.046  0.1178  0.0297 -0.0418
32504W        W39104  14.822   5.919  29.922 -0.0633  0.2285 -0.1106
32505W        W39105  20.966   5.421  29.507  0.3036  0.3832  0.1469
32506W        W39106   6.917   5.098  14.259 -0.4497 -0.3884  0.0073
32507W        W39107  11.169   4.038  17.170  0.1267  0.0133  0.0964
32508W        W39108   9.123   3.461  38.781  0.1400  0.0435  0.0934
32509W        W39109   2.171   6.154   8.043  0.2111  0.1126  0.1618
32510W        W39110  20.853   0.389  40.990  0.0179  0.2981  0.0019
32511W        W39111  11.283   5.639  40.373  0.2307  0.1412 -0.2105
32512W        W39112   7.308   5.170  10.146  0.0197 -0.1340  0.0086
32513W        W39113   4.173   3.445  34.719  0.4173 -0.0655  0.4916
32514W        W39114  18.759   1.972  18.855  0.3184 -0.2073  0.1726
32515W        W39115   3.519   1.973  14.579  0.2292 -0.2642  0.2892
32516W        W39116  20.448   0.250  42.483 -0.0088  0.0008 -0.0416
32517W        W39117  19.564   6.010  28.022  0.0646  0.0794  0.0209
32518W        W39118  19.238   1.087  18.066 -0.0640  0.0985 -0.0113
32519W        W39119  11.020   5.235  33.615  0.0531  0.0198  0.1246
32520W        W39120  17.586   2.332  38.096 -0.2352  0.2297  0.0235
32521W        W39121  18.494   0.683  16.915 -0.0092  0.0273  0.0012
32522W        W39122  10.852   1.638  33.446 -0.0064  0.1830 -0.3753
32523W        W39123   4.453   6.241  24.525 -0.0882 -0.2382 -0.3697
32524W        W39124   0.007   0.699   6.207  0.1556  0.0685 -0.0962
32525W        W39125  17.668   5.776  12.644 -0.1941 -0.0659  0.1994
32526W        W39126   7.751   6.534   5.231 -0.0309 -0.1144 -0.0849
32527W        W39127  18.774   5.919  18.309 -0.0959  0.3089  0.1235
32528W        W39128  12.477   3.369  45.053  0.0445 -0.1730  0.1320
32529W        W39129   9.514   5.231  34.850 -0.1214  0.0644 -0.1942
32530W        W39130   4.203   4.576   0.683  0.4059  0.2088 -0.0081
32531W        W39131   2.070   1.368  41.407 -0.4430 -0.0915 -0.1118
32532W        W39132   5.704   5.568   5.254 -0.0152 -0.0863  0.0085
32533W        W39133   9.948   4.938  14.366 -0.1261  0.0819  0.2195
32534W        W39134  15.295   4.073  14.574  0.0910 -0.2294  0.1581
32535W        W39135   7.337   2.868   1.575 -0.3113 -0.0246 -0.1355
32536W        W39136  10.422   2.396  43.610  0.0950  0.1203  0.0013
32537W        W39137  17.371   3.507  12.798 -0.0545  0.0124  0.0573
32538W        W39138   7.258   4.136   9.329 -0.1336  0.1343  0.1607
32539W        W39139  12.641   1.500  11.866  0.0686  0.1886 -0.1396
32540W        W39140  13.615   4.647  20.773 -0.0870  0.0448 -0.0152
32541W        W39141  14.376   1.266  39.471  0.0017 -0.0808 -0.1677
32542W        W39142  12.046   6.587  17.415  0.3198 -0.0008 -0.1206
32543W        W39143   9.336   3.591   0.431  0.2773  0.0806 -0.1079
32544W        W39144   9.000   3.463  16.579 -0.0289  0.0686 -0.1648
32545W        W39145  17.517   0.032  16.415 -0.1166  0.1010  0.1446
32546W        W39146  12.279   3.397  43.068  0.1000 -0.1723  0.1018
32547W        W39147  20.465   3.657   3.659  0.1166  0.2428 -0.0913
32548W        W39148  16.508   0.510  41.930  0.1780  0.1727 -0.1973
32549W        W39149   1.905   6.386  38.222  0.5417 -0.0071 -0.0000
32550W        W39150  10.330   2.086   8.118  0.0837  0.1168 -0.3311
32551W        W39151  20.629   1.831  27.238  0.1167  0.0062  0.3419
32552W        W39152   2.501   3.021  10.087 -0.3413  0.3190 -0.0691
32553W        W39153   5.857   2.228  27.029  0.2184 -0.2222  0.0803
32554W        W39154  19.415   2.080   6.095 -0.1099  0.4254  0.3535
32555W        W39155  10.670   4.451  35.804  0.0108  0.0157 -0.0856
32556W        W39156  20.350   2.471   9.475  0.1520  0.1803  0.1134
32557W        W39157   7.382   2.447   7.654 -0.0351 -0.0082 -0.1880
32558W        W39158  16.235   4.629  37.562  0.2465 -0.1143  0.0455
32559W        W39159  12.967   0.813  34.100  0.0586  0.0492 -0.2194
32560W        W39160   1.691   5.524  33.769 -0.0221 -0.0084 -0.1417
32561W        W39161  15.932   0.362   7.129  0.0157 -0.0888 -0.2622
32562W        W39162  18.574   0.135  15.388  0.2124  0.2062 -0.0405
32563W        W39163   1.661   1.427  33.023 -0.0767 -0.0320 -0.3639
32564W        W39164   8.335   0.670  10.700  0.2650  0.1232 -0.3468
32565W        W39165   6.866   2.129   0.747  0.0470 -0.3443  0.3855
32566W        W39166   3.554   1.608  35.280 -0.0264  0.0495  0.1924
32567W        W39167  11.241   1.409  19.972  0.3211 -0.2661 -0.0572
32568W        W39168   5.864   5.657  13.620  0.2686  0.1098  0.0164
32569W        W39169   7.010   3.564  10.255  0.2194 -0.3504  0.1489
32570W        W39170   9.928   3.361   8.260  0.3399  0.0725 -0.1233
32571W        W39171  15.906   4.307  12.000 -0.1317  0.1671 -0.1501
32572W        W39172  18.349   0.459  33.555 -0.0168 -0.0950 -0.0900
32573W        W39173   6.545   2.881  12.951 -0.1417  0.0216 -0.2245
32574W        W39174  17.193   3.555  35.347  0.0834  0.1491 -0.2528
32575W        W39175  12.342   1.865  23.090 -0.4297 -0.0944  0.1833
32576W        W39176   3.718   2.752  42.512  0.0149  0.3085  0.1807
32577W        W39177   2.336   5.175  10.446  0.0047 -0.1923 -0.0052
32578W        W39178  19.301   2.382   0.513 -0.1359  0.2571  0.1312
32579W        W39179   7.929   3.932   8.157  0.2227  0.2949 -0.2107
32580W        W39180   8.977   0.266  13.877  0.2773 -0.0625 -0.0489
32581W        W39181   8.589   6.355   1.097 -0.2218 -0.0935  0.3924
32582W        W39182  14.327   5.829  36.648 -0.2039 -0.0864 -0.2074
32583W        W39183  16.724   6.323  16.838 -0.0194  0.1180  0.0342
32584W        W39184   4.465   1.440  43.470 -0.3478 -0.1798 -0.5021
32585W        W39185   3.614   4.479   7.173 -0.0721 -0.2283  0.1288
32586W        W39186  11.755   4.863  42.313 -0.0779  0.1740 -0.1280
32587W        W39187   7.146   0.610  10.771  0.0048 -0.1625  0.0729
32588W        W39188   7.920   4.174  43.932 -0.1927  0.0572  0.1083
32589W        W39189   1.762   1.861   9.775  0.1330  0.0087  0.1689
32590W        W39190   3.389   0.494  41.511  0.0350  0.0770  0.0583
32591W        W39191  20.727   3.088  38.801 -0.2096  0.2141  0.5763
32592W        W39192   9.500   3.258  32.456  0.0122  0.0539  0.0399
32593W        W39193  15.082   1.588  38.494  0.0936 -0.1867  0.2681
32594W        W39194   5.393   5.943  31.471 -0.2973 -0.1759  0.1793
32595W        W39195   5.683   6.502  34.244  0.0759  0.0981  0.0441
32596W        W39196   4.281   6.514   7.195  0.1281  0.0336 -0.1005
32597W        W39197  13.396   6.326   3.834  0.1896  0.0523  0.1606
32598W        W39198   2.035   0.663  38.067 -0.2141  0.1594  0.0945
32599W        W39199  11.011   5.862   6.670  0.0253 -0.3851 -0.0729
32600W        W39200   3.644   4.952  41.059  0.2952  0.0613 -0.2934
32601W        W39201  12.493   0.538   6.052  0.1963  0.0404  0.4008
32602W        W39202  11.079   3.847  14.714 -0.0230 -0.0316 -0.0138
32603W        W39203   0.716   0.341  34.612  0.0493 -0.0935  0.0743
32604W        W39204   9.989   1.015  34.111 -0.2853 -0.1020  0.0127
32605W        W39205   8.930   5.672  28.597  0.2695 -0.4356  0.0016
32606W        W39206   4.613   5.247  35.040  0.1047  0.0161 -0.2438
32607W        W39207  20.684   1.256   0.359  0.1632  0.0048 -0.2433
32608W        W39208  14.259   3.379   2.794 -0.1716 -0.4642  0.0533
32609W        W39209  18.813   3.875  32.409  0.4004 -0.2817  0.1769
32610W        W39210  15.266   0.994  31.105  0.3839 -0.4283 -0.1514
32611W        W39211   2.347   6.141  33.498 -0.0769 -0.2205 -0.0902
32612W        W39212   7.791   3.051  27.662  0.0504 -0.0619 -0.2481
32613W        W39213  21.047   3.590  26.889  0.1281  0.1987 -0.3009
32614W        W39214   5.971   4.541  42.057  0.3072 -0.0691  0.0811
32615W        W39215   8.100   1.867  32.691  0.3163 -0.2608 -0.3161
32616W        W39216  15.568   0.295  41.914  0.0837  0.1300  0.1628
32617W        W39217   7.939   2.945   5.299  0.1821 -0.1290 -0.4173
32618W        W39218  17.952   1.129  15.832 -0.4308 -0.1119  0.1609
32619W        W39219   1.475   3.366  10.528  0.0987 -0.0596 -0.1015
32620W        W39220  11.974   4.975  16.846  0.0258  0.2552  0.2399
32621W        W39221  11.140   1.147  18.399 -0.1914 -0.2517 -0.1822
32622W        W39222  20.090   1.834   5.525 -0.0375  0.1242  0.0342
32623W        W39223   7.546   5.504  43.686 -0.0969 -0.0019  0.0951
32624W        W39224  10.571   3.082  33.965  0.0404  0.0148 -0.1138
32625W        W39225   5.697   0.348  28.183 -0.2380  0.1525  0.3050
32626W        W39226   1.831   2.117  39.902  0.1127 -0.1459 -0.0682
32627W        W39227  10.201   2.734  10.867 -0.2419  0.1384  0.0593
32628W        W39228  18.229   1.628   6.983  0.0499  0.3684 -0.2287
32629W        W39229  17.580   0.069  31.520 -0.0489  0.1807 -0.0530
32630W        W39230  15.019   0.148   5.738 -0.1758 -0.1473 -0.0629
32631W        W39231  12.755   3.207   0.700  0.0302  0.1955 -0.1091
32632W        W39232  20.761   5.360  31.642  0.0323  0.3188 -0.0945
32633W        W39233  13.725   3.645  32.032 -0.1249  0.0844 -0.1515
32634W        W39234  12.871   3.804  42.963  0.0427 -0.2595  0.3512
32635W        W39235   7.390   0.090  10.699  0.1451  0.3803  0.1795
32636W        W39236  16.765   0.745  44.033  0.1586 -0.1407  0.1021
32637W        W39237   4.142   3.075  37.496 -0.0826  0.0852  0.2166
32638W        W39238  19.216   6.251  29.899  0.1868  0.0797 -0.0341
32639W        W39239  14.846   6.535  37.703  0.1819 -0.1641  0.0383
32640W        W39240  20.357   4.970  39.692  0.1694 -0.0137 -0.0040
32641W        W39241  15.597   2.046  40.667 -0.3898  0.2987  0.0531
32642W        W39242   0.029   1.524  30.577 -0.4235 -0.1198  0.0654
32643W        W39243   8.458   3.523  29.562  0.0921 -0.3460  0.0320
32644W        W39244  16.748   4.741  18.436  0.0972  0.0556 -0.0210
32645W        W39245   0.573   3.461  34.191 -0.0908 -0.1880  0.0375
32646W        W39246  11.636   4.378  13.160  0.2621  0.0336  0.2431
32647W        W39247  19.698   5.700  39.469  0.0085  0.2742 -0.1072
32648W        W39248   6.376   5.614  25.279  0.2635  0.2203 -0.0207
32649W        W39249  11.849   5.167   8.945  0.0263 -0.1469  0.1592
32650W        W39250  17.697   2.087  38.895 -0.1804  0.3631  0.0779
32651W        W39251  15.903   3.591  34.228  0.1353 -0.1807 -0.0946
32652W        W39252  13.457   2.550  37.970 -0.0145  0.2058 -0.0076
32653W        W39253  17.924   6.196  11.179 -0.1997  0.2359  0.6213
32654W        W39254   7.872   0.083  36.834  0.1589 -0.2041 -0.0405
32655W        W39255  16.911   2.518  19.723  0.0568 -0.1197  0.0642
32656W        W39256  10.206   3.814   9.224 -0.2350 -0.1803 -0.2802
32657W        W39257  16.297   5.233  43.447  0.0672 -0.3053 -0.1068
32658W        W39258   6.864   2.308  36.430 -0.0875 -0.0472 -0.2791
32659W        W39259   4.647   4.672  22.095  0.0875 -0.0203 -0.4387
32660W        W39260   5.680   1.976  25.344  0.2820  0.0760  0.2535
32661W        W39261  16.282   1.499  41.605 -0.0279  0.2069  0.0468
32662W        W39262  10.439   1.654  15.506 -0.2328 -0.0486 -0.1122
32663W        W39263   7.612   2.855  11.145 -0.2230  0.2232 -0.0497
32664W        W39264  19.326   0.698  15.163 -0.0681 -0.0672 -0.0781
32665W        W39265   2.585   4.737  28.417 -0.0176 -0.0795 -0.1100
32666W        W39266  19.151   5.764   7.105  0.0258  0.1267  0.0928
32667W        W39267  20.020   3.868  31.678 -0.1407  0.1180 -0.0434
32668W        W39268   2.215   1.195   5.383 -0.0502  0.1312  0.0455
32669W        W39269  17.315   3.135  17.574  0.4692  0.1307 -0.0279
32670W        W39270   8.697   6.486   6.885 -0.1960  0.1152 -0.1846
32671W        W39271  15.024   3.301   1.932 -0.0454  0.0577 -0.0330
32672W        W39272  14.106   1.684   5.206  0.0605  0.2032 -0.0869
32673W        W39273   5.183   4.480  34.874  0.2241 -0.1208 -0.3763
32674W        W39274  10.136   6.321  36.624 -0.1623  0.0227  0.0343
32675W        W39275   2.181   3.308   6.461  0.0828 -0.0418  0.0191
32676W        W39276   9.004   2.163  44.930 -0.2741  0.1233  0.0078
32677W        W39277  19.627   0.436  44.233  0.0021  0.1393  0.1900
32678W        W39278  11.554   6.442   6.693  0.4923  0.0253  0.2604
32679W        W39279   1.836   6.252  11.955  0.1236 -0.1640 -0.3615
32680W        W39280  15.085   6.241  20.257 -0.3765 -0.6278  0.1476
32681W        W39281  20.832   5.687  44.691 -0.0349  0.2341 -0.1110
32682W        W39282   2.032   1.676   5.230  0.1745  0.0355  0.0334
32683W        W39283  10.114   0.867  30.103  0.3323  0.2991  0.1408
32684W        W39284  14.705   5.275  33.426  0.1709  0.2150 -0.1910
32685W        W39285   4.084   5.967   8.760  0.0523  0.0697  0.0539
32686W        W39286   9.658   2.556  28.026  0.1047 -0.0216 -0.0921
32687W        W39287  15.854   2.839  34.919 -0.3672 -0.1924  0.0697
32688W        W39288   6.138   6.270  45.001 -0.0294  0.5949 -0.1316
32689W        W39289  17.085   4.802  42.720 -0.0726 -0.1517 -0.1076
32690W        W39290   0.806   5.839   6.922  0.0335 -0.0761  0.0131
32691W        W39291  19.419   3.875  32.512 -0.0455 -0.0476  0.0175
32692W        W39292   7.140   0.140  33.708  0.2720 -0.0530 -0.0754
32693W        W39293   2.438   4.293   8.531  0.1574  0.2882  0.0102
32694W        W39294   5.641   4.922  32.399 -0.0051 -0.0563  0.1103
32695W        W39295   4.096   4.124  30.942  0.1054  0.1220  0.0989
32696W        W39296  11.378   0.812  45.013 -0.0015  0.0105  0.0382
32697W        W39297  13.287   2.808  34.975  0.0189 -0.0684 -0.1321
32698W        W39298  13.918   4.889  37.392  0.0657 -0.0600  0.2481
32699W        W39299   8.443   5.099  31.486 -0.0303 -0.3805 -0.2411
32700W        W39300   8.469   0.465   3.663 -0.0469  0.1011  0.0656
32701W        W39301   5.048   6.041  29.814 -0.2238 -0.0232  0.1001
32702W        W39302   7.008   3.560   1.772  0.1839  0.2632 -0.3528
32703W        W39303   3.261   1.921  37.567 -0.3466  0.1489  0.1088
32704W        W39304  18.319   6.059  10.481  0.0207 -0.0819 -0.0804
32705W        W39305   1.491   2.596  22.398  0.0585  0.0464 -0.1726
32706W        W39306   4.113   3.112  22.602 -0.0506  0.0102 -0.1367
32707W        W39307  15.318   4.832  19.488  0.0231 -0.0273  0.0126
32708W        W39308  14.096   1.556   8.048 -0.0362 -0.0202  0.2537
32709W        W39309   4.466   6.212  39.789  0.2964  0.5109  0.0780
32710W        W39310  20.310   0.424  26.474  0.0015 -0.0214 -0.0496
32711W        W39311   3.255   0.684   5.418 -0.1706 -0.0665 -0.1070
32712W        W39312   1.208   1.829  14.587  0.1564  0.0804  0.1073
32713W        W39313  10.556   2.269   2.071  0.1738 -0.3049 -0.0633
32714W        W39314   4.087   3.857  42.426 -0.0368  0.1587 -0.0384
32715W        W39315  18.299   1.064   9.652 -0.1872 -0.2473  0.2248
32716W        W39316  15.028   1.709  39.073  0.3318  0.1107  0.0231
32717W        W39317   8.290   5.753  17.465 -0.0793  0.2980  0.1158
32718W        W39318  14.518   1.702  34.007 -0.0455  0.0863 -0.1849
32719W        W39319   4.603   4.809  24.866  0.2585  0.0113  0.1581
32720W        W39320  18.828   2.998  41.167 -0.1653  0.1235  0.1218
32721W        W39321   8.002   2.904  43.430  0.1434 -0.2142  0.2759
32722W        W39322  19.150   0.642   0.660  0.2797 -0.1050  0.1371
32723W        W39323   1.035   6.516   3.799  0.0801 -0.0299  0.3110
32724W        W39324   2.652   2.360  30.455  0.0130  0.0465 -0.0898
32725W        W39325   6.019   4.617  39.889 -0.4265  0.1892 -0.0920
32726W        W39326  10.947   1.966  18.103 -0.1905  0.3894 -0.0830
32727W        W39327  16.856   0.461  20.129 -0.0704 -0.1960  0.0763
32728W        W39328   8.034   6.312  44.979 -0.1985  0.1033 -0.2152
32729W        W39329  11.683   0.924  44.675 -0.2022  0.0417  0.2395
32730W        W39330  11.499   1.513  38.970 -0.0520  0.0566  0.1093
32731W        W39331  15.010   5.586  31.614 -0.0304 -0.0190  0.0140
32732W        W39332   5.729   1.999  13.049 -0.2292 -0.1234 -0.0744
32733W        W39333   7.976   5.834  40.138 -0.0861 -0.0414 -0.1844
32734W        W39334   2.122   4.603  26.631  0.0550 -0.1720  0.1047
32735W        W39335   5.102   0.957  23.870 -0.1438  0.3241 -0.1615
32736W        W39336   7.570   5.551   1.204 -0.1385 -0.2252 -0.2221
32737W        W39337  18.356   2.631  15.859  0.1830 -0.1532  0.1494
32738W        W39338   5.154   6.116   9.110 -0.3093 -0.1901  0.1708
32739W        W39339   6.175   0.539   2.346 -0.2212  0.0797 -0.2370
32740W        W39340  17.241   5.195  31.678 -0.0187 -0.2224 -0.1168
32741W        W39341   2.378   2.591   5.926  0.0741 -0.4241  0.0777
32742W        W39342  21.002   4.988  25.136  0.0330  0.0090 -0.3010
32743W        W39343   7.432   1.120   3.610  0.1323 -0.0946 -0.1187
32744W        W39344  20.193   2.348   8.804  0.1052 -0.2033  0.0701
32745W        W39345   1.975   1.049   8.199  0.0438  0.0586 -0.1896
32746W        W39346  17.293   5.360  30.670  0.1677  0.2595 -0.0606
32747W        W39347  14.298   5.683   8.545  0.1176 -0.1940 -0.1762
32748W        W39348   1.968   4.999  10.759 -0.0773 -0.0085 -0.0701
32749W        W39349  10.471   0.173  34.493  0.3520 -0.1141  0.1589
32750W        W39350   1.244   1.803  15.516 -0.0700  0.1005 -0.1875
32751W        W39351   3.236   5.707  36.761  0.1288  0.2857  0.3829
32752W        W39352  15.519   1.574   2.209  0.1943  0.1070  0.0134
32753W        W39353  19.108   6.316  14.878  0.0622 -0.1949  0.1323
32754W        W39354  17.264   2.826  19.489 -0.5180 -0.1138  0.2130
32755W        W39355  16.079   0.081   2.551  0.2136  0.0418  0.2003
32756W        W39356  11.457   0.524   8.388 -0.0427 -0.0299 -0.1559
32757W        W39357  15.643   4.503  36.562  0.1903  0.1917 -0.0463
32758W        W39358   3.285   4.144   8.526 -0.1158 -0.2260 -0.0053
32759W        W39359   1.021   3.323  13.101 -0.0050  0.1062 -0.2873
32760W        W39360  16.368   3.429  17.882 -0.0585 -0.0508  0.1377
32761W        W39361   5.491   0.276  32.301  0.1002 -0.3797  0.1374
32762W        W39362   0.211   0.949  44.328  0.0022  0.2463 -0.1848
32763W        W39363   9.403   4.389  28.736  0.1015  0.0992  0.1477
32764W        W39364   3.104   6.039  32.011 -0.1373 -0.1641 -0.3727
32765W        W39365  16.129   3.817  32.116 -0.0129 -0.3126  0.1733
32766W        W39366  17.384   1.654  14.136 -0.0100  0.0254 -0.1887
32767W        W39367  19.727   0.511   4.440  0.1248 -0.1250  0.0927
32768W        W39368  15.445   0.368  43.511 -0.1965 -0.4263  0.1275
32769W        W39369  18.476   5.440  30.131 -0.1477 -0.0932  0.3930
32770W        W39370  20.963   1.621  39.373 -0.1628 -0.2725 -0.1514
32771W        W39371   4.426   4.198  37.522 -0.2102 -0.0054 -0.1255
32772W        W39372   9.546   5.180  35.905  0.0766 -0.0247  0.2276
32773W        W39373  15.947   0.669  43.128 -0.1612 -0.2425 -0.2111
32774W        W39374  18.393   3.443   5.729  0.3211  0.2905  0.0223
32775W        W39375  15.802   2.126   0.190  0.1105  0.0970 -0.0527
32776W        W39376   6.995   6.134  37.059 -0.3182  0.0728 -0.0450
32777W        W39377   1.536   4.773   3.945 -0.0793 -0.1443  0.1322
32778W        W39378  19.581   2.012  36.782 -0.0744  0.0094  0.0633
32779W        W39379  16.382   5.144  41.490  0.1666 -0.2748 -0.3462
32780W        W39380  14.013   0.646  16.289 -0.1436  0.1371  0.0596
32781W        W39381  14.928   0.720  10.995 -0.1206 -0.0245 -0.0568
32782W        W39382   4.380   6.156  41.262 -0.2231 -0.0569  0.0993
32783W        W39383  16.557   5.549  30.216  0.1837 -0.2105 -0.1068
32784W        W39384   0.756   4.555  11.496  0.1656 -0.0726 -0.2645
32785W        W39385  10.977   2.855  40.884  0.1669 -0.1833  0.0550
32786W        W39386   3.581   2.058   1.061  0.1452 -0.1371  0.0254
32787W        W39387   8.350   6.241  32.495 -0.0389  0.2072  0.0813
32788W        W39388  19.730   1.673  15.228  0.0468  0.0818 -0.1136
32789W        W39389  17.928   4.790   8.342  0.4797 -0.2139  0.0156
32790W        W39390   0.098   4.983   0.757  0.2753 -0.3294  0.3115
32791W        W39391  15.289   1.904  11.021 -0.1822 -0.0023 -0.4949
32792W        W39392   3.873   5.950  14.992 -0.1527 -0.0253  0.0755
32793W        W39393   0.466   3.488  12.061  0.1489  0.1408  0.1458
32794W        W39394   4.567   4.930   5.777 -0.1488  0.3005 -0.2205
32795W        W39395  14.191   4.080  23.876  0.3699  0.5047 -0.1303
32796W        W39396  10.021   5.174  35.696  0.1932  0.1776  0.2684
32797W        W39397   7.105   2.787   7.876  0.0316  0.4006  0.0320
32798W        W39398  13.861   2.901   8.371 -0.0353  0.2134  0.5560
32799W        W39399   2.977   2.413  13.479  0.2171  0.0138  0.2168
32800W        W39400  11.523   0.396   6.795  0.1977  0.0535  0.0221
32801W        W39401   0.232   4.928  15.661 -0.0315  0.0440 -0.4320
32802W        W39402   6.234   5.658   2.109  0.1426  0.0249 -0.0132
32803W        W39403   6.668   1.285  16.029  0.2190  0.1528  0.3252
32804W        W39404   9.929   5.390   9.405  0.0064 -0.2186  0.1302
32805W        W39405  11.600   5.167   1.414  0.1287 -0.0181  0.0808
32806W        W39406  17.009   4.898   0.238  0.1182  0.0373 -0.1640
32807W        W39407  11.152   2.962  17.342  0.0796  0.0559  0.1042
32808W        W39408  14.312   0.439  29.326 -0.1704  0.0434  0.1213
32809W        W39409  10.825   4.469  15.368  0.1810 -0.0257 -0.1438
32810W        W39410   0.863   2.879  15.907  0.0647 -0.2310  0.2012
32811W        W39411  17.506   4.230   5.645  0.0686  0.2040 -0.0225
32812W        W39412  10.198   1.319  12.249  0.2940 -0.0759 -0.0603
32813W        W39413  10.687   3.798  29.399  0.0627  0.0146 -0.1205
32814W        W39414  19.326   4.498  37.783 -0.2340  0.0082  0.3031
32815W        W39415   3.460   4.630  26.925  0.0978 -0.0956  0.2273
32816W        W39416  15.141   4.853  42.715  0.1063 -0.3026 -0.0062
32817W        W39417  13.835   1.049  28.890  0.0327 -0.0238  0.1486
32818W        W39418   1.774   3.092  12.706 -0.0382  0.1707 -0.1504
32819W        W39419  15.098   0.159  17.774 -0.2646 -0.0076  0.0726
32820W        W39420   5.149   6.484  33.573  0.1407 -0.0310 -0.1107
32821W        W39421   2.620   0.884  40.240 -0.1681 -0.2231 -0.5051
32822W        W39422   5.378   0.870   1.772  0.0445 -0.4295  0.1990
32823W        W39423  12.817   1.012  10.562  0.3394 -0.0717 -0.1145
32824W        W39424  15.416   4.725  41.880 -0.0547  0.2236  0.2679
32825W        W39425  16.040   3.202  19.654 -0.0116 -0.2491  0.1765
32826W        W39426   0.178   3.962   1.516 -0.1143 -0.0742  0.1076
32827W        W39427   3.437   5.357  27.783  0.0255  0.0777  0.1469
32828W        W39428  19.631   1.235  34.105  0.1412  0.2105  0.2309
32829W        W39429   3.397   5.740  35.391 -0.2331  0.2583 -0.1646
32830W        W39430   2.803   4.148  23.741 -0.2346  0.1298 -0.2444
32831W        W39431   6.981   1.640  10.629 -0.3914  0.3727 -0.2569
32832W        W39432   0.707   5.711  27.874 -0.0795 -0.0205  0.0041
32833W        W39433  14.434   3.750   8.382  0.0472  0.1132 -0.1645
32834W        W39434  20.044   3.218  37.275  0.1275 -0.1501 -0.2674
32835W        W39435  12.385   2.398  35.909 -0.3285 -0.1025 -0.2049
32836W        W39436   1.733   1.009  31.297 -0.0080 -0.0694  0.4214
32837W        W39437  11.775   5.621   1.881 -0.2459  0.1085  0.0036
32838W        W39438  13.163   2.506   3.788  0.1046  0.1995  0.0061
32839W        W39439  14.515   0.742   8.519 -0.0051  0.2456 -0.0338
32840W        W39440  18.213   4.345  42.328  0.2028 -0.0464 -0.2715
32841W        W39441   4.790   5.286   4.009  0.0900 -0.0535  0.0540
32842W        W39442  19.615   4.629   9.579 -0.0588 -0.1803 -0.2366
32843W        W39443  13.783   3.702  22.221  0.0317 -0.1575  0.0143
32844W        W39444   1.713   4.350  22.420 -0.0627 -0.1229  0.2484
32845W        W39445   8.965   1.018  11.101 -0.0908 -0.1997 -0.0144
32846W        W39446  11.981   5.241  33.843  0.1692  0.0726 -0.0011
32847W        W39447   0.288   6.080  43.221  0.2277 -0.0996  0.2877
32848W        W39448   3.645   0.584  12.348 -0.1461  0.2909 -0.1779
32849W        W39449   5.453   4.730  39.904 -0.2418 -0.1437 -0.3901
32850W        W39450  11.514   1.057  37.879  0.2643  0.0367 -0.2370
32851W        W39451   1.527   2.756  31.172  0.2221  0.0349  0.0614
32852W        W39452   6.616   5.725  27.083 -0.0093  0.2284 -0.1814
32853W        W39453  19.219   2.497  14.882 -0.2056 -0.3671 -0.2014
32854W        W39454   0.481   0.638  14.785  0.1216 -0.0624 -0.1423
32855W        W39455   5.050   5.281  35.841 -0.0575  0.0107 -0.1634
32856W        W39456  14.027   4.760  34.660 -0.0790  0.0459 -0.0819
32857W        W39457  16.937   6.202  32.618  0.2420 -0.1152 -0.1326
32858W        W39458   8.150   3.531  11.257  0.0958 -0.2272 -0.0154
32859W        W39459  20.774   0.120  42.046 -0.1165  0.1855 -0.0930
32860W        W39460   2.884   2.066  14.979 -0.1302  0.0081  0.0671
32861W        W39461  19.240   3.914   2.890  0.2289  0.3243  0.3386
32862W        W39462   1.482   5.965  33.550 -0.2372 -0.1857 -0.0751
32863W        W39463  10.550   4.172  20.444  0.3040 -0.2447 -0.0057
32864W        W39464  10.946   5.663  14.636  0.0142  0.0428  0.0646
32865W        W39465  20.762   6.348  27.758 -0.2711  0.1701 -0.1493
32866W        W39466   9.471   4.989   8.452 -0.0209 -0.0490 -0.0385
32867W        W39467  18.760   3.454   6.815  0.0729  0.1151 -0.2750
32868W        W39468   6.322   3.672  26.678 -0.0650  0.0780 -0.0587
32869W        W39469  11.455   1.561  38.452 -0.0448  0.0098  0.0509
32870W        W39470   6.209   2.309  34.776 -0.0041  0.1321  0.2195
32871W        W39471  10.269   4.635  34.074 -0.0851 -0.2323  0.1745
32872W        W39472  11.971   0.954  30.988  0.2355 -0.1162  0.0375
32873W        W39473  10.481   5.466   6.021 -0.3120 -0.0141  0.1129
32874W        W39474  12.203   4.739  36.564  0.0801  0.0391 -0.0360
32875W        W39475   4.056   1.927  29.538 -0.0866  0.0151 -0.3003
32876W        W39476   9.938   4.869   8.149 -0.3480  0.0322  0.2612
32877W        W39477  11.252   1.661  29.685 -0.1621 -0.0419 -0.0054
32878W        W39478  20.545   5.820  27.236  0.3130  0.0594 -0.0514
32879W        W39479  16.837   5.933   4.899  0.2718  0.1038 -0.0087
32880W        W39480   3.340   4.574  42.869 -0.0391  0.0654  0.0924
32881W        W39481  11.594   1.038  38.828  0.2987  0.5475 -0.1356
32882W        W39482  11.335   0.456  42.332 -0.0286 -0.4074  0.0818
32883W        W39483  12.315   1.637  20.982  0.0501 -0.1852 -0.1949
32884W        W39484  17.046   3.411  28.991  0.0066  0.1001 -0.0978
32885W        W39485  13.759   4.846  39.830 -0.0225 -0.2646 -0.0251
32886W        W39486   9.179   2.897  34.078  0.1961 -0.0696 -0.2250
32887W        W39487  13.228   2.557  44.387 -0.3019 -0.1163 -0.1166
32888W        W39488  15.974   1.012  44.419  0.2306  0.2184  0.0708
32889W        W39489   3.496   0.157  27.883 -0.1822 -0.0597 -0.0136
32890W        W39490   7.487   4.793  37.932  0.0384 -0.0168  0.1497
32891W        W39491   3.182   4.614  39.997  0.0885 -0.2232 -0.0088
32892W        W39492   1.695   2.631  34.986 -0.1183 -0.0528  0.3419
32893W        W39493  17.049   4.462  36.046  0.1297  0.1948  0.0105
32894W        W39494   5.135   4.029  43.604  0.1333 -0.1168 -0.0657
32895W        W39495   5.005   5.494  22.827 -0.1878 -0.0507  0.1873
32896W        W39496   9.556   1.591  36.021  0.0824  0.1125 -0.0159
32897W        W39497  14.085   6.192  45.103  0.0768 -0.0577 -0.0938
32898W        W39498   3.627   2.586  34.601 -0.2276 -0.2701  0.3438
32899W        W39499   4.023   0.428   1.897  0.3517 -0.0136 -0.3400
32900W        W39500   1.639   5.038   5.529  0.5099 -0.3643  0.1879
32901W        W39501   2.571   0.984  23.573  0.1236 -0.0790  0.1021
32902W        W39502  12.262   4.949  14.159  0.1973  0.3841 -0.0582
32903W        W39503  16.967   5.955  31.484 -0.3188  0.0756  0.1297
32904W        W39504   2.181   3.778  11.835 -0.0846  0.0285  0.0315
32905W        W39505   6.842   4.361  25.443  0.3021  0.0511  0.3314
32906W        W39506  18.249   1.184  16.896 -0.4178 -0.0532 -0.3310
32907W        W39507  13.572   5.380  34.496 -0.1240 -0.0214  0.1608
32908W        W39508  16.266   2.060  12.570  0.0160  0.2449  0.2981
32909W        W39509  18.770   2.040  10.522  0.0135 -0.0943  0.1331
32910W        W39510   6.926   2.423  25.372  0.1650  0.0627  0.1398
32911W        W39511  12.962   1.418  21.753 -0.0149 -0.3172  0.1031
32912W        W39512  20.557   5.797   0.781  0.0926 -0.3009  0.2355
32913W        W39513   7.983   2.028  13.512 -0.1866  0.0399  0.1823
32914W        W39514  17.301   6.031  39.418  0.0340 -0.2892  0.0110
32915W        W39515  12.659   6.478  39.846  0.1350 -0.2020 -0.0807
32916W        W39516   9.141   3.999  31.323  0.2629 -0.0620 -0.0450
32917W        W39517   4.727   2.081  20.375 -0.1820 -0.5713  0.1862
32918W        W39518  14.371   0.880  10.712 -0.0314  0.0908 -0.2054
32919W        W39519   8.939   5.952  38.772  0.0025  0.2131  0.1524
32920W        W39520   8.886   1.060  44.032  0.2304 -0.1636  0.3572
32921W        W39521   8.149   1.399   9.334 -0.2205  0.0418 -0.3667
32922W        W39522   4.931   1.341   0.384  0.0508  0.2411 -0.0302
32923W        W39523  17.992   3.641  10.359  0.0048 -0.0114  0.1753
32924W        W39524   8.964   5.087  11.003 -0.4212 -0.1310 -0.1161
32925W        W39525  19.141   1.697   3.014  0.3054 -0.3093 -0.1041
32926W        W39526   1.776   2.110  27.259 -0.0123  0.0119  0.1419
32927W        W39527  18.754   3.526  18.843  0.2754  0.1887  0.1637
32928W        W39528  11.212   2.597  28.066  0.1926  0.2973 -0.1594
32929W        W39529  18.073   4.498  34.726 -0.0031 -0.1234  0.0385
32930W        W39530   2.732   5.234  39.677  0.4025  0.0138  0.0495
32931W        W39531  13.406   5.931  17.906 -0.2975 -0.0281  0.1136
32932W        W39532  10.080   3.428  38.690 -0.0789 -0.0631 -0.1201
32933W        W39533   2.573   3.201  15.180  0.0695  0.2578 -0.0186
32934W        W39534  15.391   4.884  43.196 -0.2251 -0.1023 -0.1160
32935W        W39535  11.723   3.122  13.168  0.0439 -0.2045  0.1681
32936W        W39536   2.157   1.212   3.951  0.1398  0.3217  0.0660
32937W        W39537  20.780   5.356   5.215 -0.1320  0.2074 -0.2851
32938W        W39538  15.385   6.306   5.099 -0.2379 -0.0781 -0.0674
32939W        W39539   3.852   1.106  10.068 -0.2849 -0.1159 -0.1822
32940W        W39540   3.055   2.029  36.217  0.0275  0.0050 -0.2236
32941W        W39541  10.605   1.813  28.255  0.0523 -0.0624 -0.0977
32942W        W39542   0.165   0.330  27.320 -0.1817 -0.1673  0.0836
32943W        W39543  19.697   1.487  39.456 -0.0838  0.0357 -0.1875
32944W        W39544   6.344   0.336  24.811  0.3132  0.0726 -0.0436
32945W        W39545   8.405   6.093  12.910  0.1521  0.3181  0.1037
32946W        W39546  13.539   0.969   5.196 -0.1842  0.0917  0.2372
32947W        W39547   3.995   0.087  15.347 -0.1690 -0.1665  0.1042
32948W        W39548  11.526   3.554   3.177 -0.1068  0.2317 -0.0430
32949W        W39549   7.136   0.891   4.312  0.3212 -0.1057 -0.1266
32950W        W39550   0.974   2.742  40.051  0.0259 -0.3594 -0.0166
32951W        W39551  18.781   2.531  41.447  0.3464 -0.0428  0.1643
32952W        W39552   7.658   4.936   2.534 -0.1794  0.0374 -0.0179
32953W        W39553   5.647   1.938  11.905  0.0185 -0.1494  0.1032
32954W        W39554   3.368   4.802  34.707  0.2315 -0.2256  0.1526
32955W        W39555   1.516   5.616  35.791  0.2202  0.0502  0.2000
32956W        W39556  15.563   3.086  14.914 -0.3307 -0.0271 -0.0238
32957W        W39557  20.771   6.027   6.633 -0.0648  0.2540 -0.3590
32958W        W39558   2.430   0.562  22.081  0.0912  0.1313  0.1954
32959W        W39559   3.288   1.807  26.532  0.0518  0.1839  0.1849
32960W        W39560   9.854   1.125  42.537 -0.1809  0.0431 -0.1147
32961W        W39561   8.296   3.511  44.353 -0.0050 -0.2514 -0.0403
32962W        W39562   6.222   2.051  24.212  0.3222  0.0829  0.1202
32963W        W39563   9.052   6.447  37.911  0.1100  0.0195 -0.1616
32964W        W39564   8.912   3.004  37.304  0.1793 -0.4114  0.0397
32965W        W39565  17.146   1.638  37.264 -0.0356  0.0155  0.1489
32966W        W39566   8.565   4.659   2.097  0.0760  0.1738 -0.2832
32967W        W39567   4.984   6.578  29.687  0.0976 -0.1586  0.0044
32968W        W39568  10.616   2.711  30.246  0.1768  0.3367 -0.2426
32969W        W39569   5.991   6.430  42.479 -0.1328 -0.0584  0.0280
32970W        W39570   7.854   0.722   2.420 -0.1132  0.0014 -0.1359
32971W        W39571   2.893   3.643  16.023 -0.0328  0.0558 -0.1599
32972W        W39572  14.935   6.485  42.397  0.0333  0.2121  0.2604
32973W        W39573  12.289   4.912   3.838 -0.2531 -0.1139  0.0634
32974W        W39574   9.374   3.323  16.954  0.0745  0.1289 -0.0193
32975W        W39575   1.640   4.578  27.569 -0.0847 -0.0081  0.0073
32976W        W39576   7.236   2.736  33.464  0.0888  0.4366 -0.0052
32977W        W39577  13.233   5.887  44.627  0.0326 -0.2710 -0.0671
32978W        W39578   9.876   5.029  36.788 -0.3165 -0.0210  0.1364
32979W        W39579   7.942   5.093  41.106  0.1364  0.1306  0.2492
32980W        W39580  13.861   6.182  10.685 -0.1950 -0.0260 -0.1376
32981W        W39581   1.294   1.557  39.704  0.4549  0.0222  0.1228
32982W        W39582  15.057   4.193   9.553  0.0842  0.0797 -0.1746
32983W        W39583  15.954   6.478  14.327  0.1824 -0.1381 -0.0363
32984W        W39584  12.762   4.085  19.550 -0.0751  0.2032 -0.0734
32985W        W39585   4.980   3.787   3.288 -0.0513 -0.1995 -0.0019
32986W        W39586   6.905   6.365   6.264 -0.0899 -0.2155 -0.2051
32987W        W39587   8.662   0.548   8.951 -0.1186  0.0717 -0.2733
32988W        W39588  18.500   2.290  32.482  0.1664 -0.0192 -0.3800
32989W        W39589   4.874   6.021  38.906  0.3660 -0.1110  0.2191
32990W        W39590  20.675   5.056  45.041 -0.0900  0.0554  0.0087
32991W        W39591  16.387   2.802  34.370  0.0412 -0.0364  0.1732
32992W        W39592  18.820   2.669  16.061  0.1143 -0.1142  0.1194
32993W        W39593  15.563   5.421   8.716  0.1786 -0.0743 -0.0351
32994W        W39594  13.614   6.136   7.899  0.0275  0.0290 -0.2263
32995W        W39595  13.793   5.412  37.151 -0.0313  0.1377 -0.2861
32996W        W39596  15.493   0.158  23.281 -0.2885 -0.1575  0.2054
32997W        W39597  11.664   1.262  31.789 -0.2780 -0.0521  0.1314
32998W        W39598  12.803   0.494   2.410  0.1993  0.1461  0.2853
32999W        W39599  11.476   6.142  41.537 -0.3580 -0.0909  0.1162
33000W        W39600  13.748   3.567  24.801 -0.1141 -0.0894 -0.2733
33001W        W39601  12.125   5.200  18.845 -0.0016  0.1846  0.2781
33002W        W39602   7.405   5.043  25.104  0.0736 -0.0228 -0.0322
33003W        W39603  18.062   4.660  13.972 -0.1668 -0.1932  0.0413
33004W        W39604  20.858   3.445   3.895  0.0276  0.1802  0.0728
33005W        W39605  18.403   5.303  19.536 -0.2017  0.0885  0.2046
33006W        W39606  15.752   4.537  39.529  0.1251 -0.1435 -0.2472
33007W        W39607  14.024   1.616   0.141  0.1567 -0.2076 -0.4584
33008W        W39608  19.416   3.077  14.870 -0.0769 -0.3562 -0.0743
33009W        W39609  11.928   4.532  17.139 -0.0360  0.2129  0.0421
33010W        W39610   1.747   2.028   4.931 -0.1958 -0.1003 -0.1338
33011W        W39611   1.775   0.185   9.230 -0.0048 -0.1523  0.0689
33012W        W39612   0.927   2.976  37.585  0.0915  0.2344  0.1630
33013W        W39613  18.926   1.271   2.908  0.0492  0.3444 -0.0055
33014W        W39614   8.466   6.042   0.117 -0.2199  0.3250 -0.2647
33015W        W39615  18.327   1.426  11.342 -0.2496 -0.2829  0.2276
33016W        W39616  18.425   1.526  19.352 -0.0084  0.1421  0.0959
33017W        W39617   6.125   5.183   5.308 -0.0277 -0.3982 -0.0628
33018W        W39618   5.914   4.959   2.742 -0.1620 -0.3382  0.0110
33019W        W39619  11.128   0.519   8.987 -0.3733 -0.1368  0.2621
33020W        W39620   1.234   5.542  12.115  0.1390 -0.0535 -0.0727
33021W        W39621  19.760   5.861  17.501  0.2111  0.1778  0.0157
33022W        W39622   2.613   2.010  40.813 -0.1656  0.1480  0.1674
33023W        W39623  14.388   4.382  33.859 -0.0703  0.2084 -0.0170
33024W        W39624  20.251   6.183   5.802  0.2563  0.2348  0.0793
33025W        W39625  13.268   2.605   7.859  0.2311 -0.1874  0.4026
33026W        W39626   5.242   5.694   3.330 -0.2697  0.0273 -0.0243
33027W        W39627   6.555   2.398  44.526  0.1484  0.2213 -0.0871
33028W        W39628   4.651   1.938  37.875  0.1229  0.2982 -0.0645
33029W        W39629  11.709   0.325  20.196 -0.0878 -0.3315 -0.0240
33030W        W39630   4.710   5.585  34.625 -0.0658  0.0237 -0.1006
33031W        W39631   0.068   4.032   2.488  0.1625  0.1368 -0.0164
33032W        W39632   1.254   1.446   8.010  0.0282  0.1914  0.0732
33033W        W39633   0.181   2.613  42.063  0.0026 -0.2676 -0.2268
33034W        W39634   4.719   5.657  28.097  0.1442  0.2664  0.3704
33035W        W39635   3.412   2.124  36.541 -0.0861  0.0657  0.0301
33036W        W39636   7.102   2.884  35.530 -0.1289 -0.1087 -0.3873
33037W        W39637   2.450   4.920  15.730  0.0304  0.1776 -0.2262
33038W        W39638  14.402   5.085  19.288 -0.4131  0.0859  0.1460
33039W        W39639   1.523   1.600  35.761  0.1134  0.0928  0.2471
33040W        W39640   4.939   2.841  37.673  0.1213  0.2741  0.4166
33041W        W39641  11.235   6.480   8.986  0.0931 -0.4204  0.0241
33042W        W39642  14.451   2.977   6.098 -0.0856  0.2437  0.1317
33043W        W39643   2.712   5.218  33.368 -0.1296 -0.1769 -0.0824
33044W        W39644  14.417   3.463  30.754 -0.2490 -0.0294 -0.4115
33045W        W39645  20.963   4.155  36.006 -0.2940  0.1322  0.0602
33046W        W39646  13.864   3.106   0.790  0.0807  0.0416 -0.2468
33047W        W39647   5.002   2.188  40.077 -0.1595 -0.4382  0.1684
33048W        W39648   4.178   5.469   3.105  0.1808 -0.5443  0.0600
33049W        W39649   1.307   3.475  31.919 -0.2162 -0.0598 -0.2284
33050W        W39650   6.546   4.240   2.725  0.1002  0.0472  0.3138
33051W        W39651  17.075   5.104  33.022  0.1359  0.3327 -0.2972
33052W        W39652  17.371   0.484  19.955 -0.0250 -0.3211 -0.1407
33053W        W39653  11.899   2.569  17.274 -0.1366 -0.1948 -0.1090
33054W        W39654  20.291   2.509   3.169  0.1191  0.0021 -0.0850
33055W        W39655  20.479   1.490  40.242  0.0945 -0.1498 -0.2614
33056W        W39656  10.992   4.407  14.045 -0.0627 -0.1835  0.0766
33057W        W39657   8.193   5.699  45.002  0.1286  0.0620 -0.1496
33058W        W39658   3.833   1.782  11.549 -0.1880  0.2889  0.0716
33059W        W39659   6.156   3.418  40.472  0.0421 -0.0446  0.1764
33060W        W39660   3.651   3.594   0.068  0.0677  0.0184 -0.1153
33061W        W39661  12.918   2.390  29.646  0.0720 -0.0942  0.1405
33062W        W39662  16.160   4.775  14.053 -0.2446  0.0770  0.0930
33063W        W39663  11.710   0.819  18.934 -0.0799 -0.2261  0.0654
33064W        W39664  17.620   5.894  16.852  0.2076  0.1488 -0.1529
33065W        W39665  14.617   0.471  14.056  0.4552 -0.0837 -0.1090
33066W        W39666   7.081   4.659   9.461 -0.1557  0.0776 -0.0328
33067W        W39667  17.314   1.775  19.561 -0.2557 -0.0650  0.3626
33068W        W39668   4.326   0.574  30.051 -0.0693  0.1085  0.3284
33069W        W39669   0.962   3.497  28.251 -0.0775  0.0855  0.0355
33070W        W39670   2.838   5.940  25.328  0.3231 -0.0561 -0.0089
33071W        W39671   3.616   0.329  14.493  0.0244  0.0456 -0.0261
33072W        W39672   6.395   5.297  24.921  0.0088  0.1372 -0.1591
33073W        W39673  12.065   2.913  19.091  0.2165 -0.2536  0.0965
33074W        W39674  15.183   6.412   7.133 -0.0582 -0.0553  0.1464
33075W        W39675  14.697   6.592  43.953 -0.1729 -0.3369  0.2556
33076W        W39676   4.595   3.782  23.063 -0.1721  0.3142  0.0659
33077W        W39677  20.484   1.752  12.176 -0.0019 -0.0350 -0.3709
33078W        W39678  13.995   4.329  19.538  0.1731 -0.1679 -0.0144
33079W        W39679  21.068   5.968  36.279 -0.3431  0.0610 -0.1666
33080W        W39680   0.827   6.102  35.401 -0.0956 -0.0246  0.0674
33081W        W39681   4.885   5.668  15.224  0.0755 -0.2917  0.0247
33082W        W39682   3.571   5.927   7.359  0.0133  0.0149  0.0132
33083W        W39683   8.879   1.074  44.575 -0.3540 -0.0308 -0.1611
33084W        W39684   7.569   4.555  16.098  0.0920 -0.0661 -0.0298
33085W        W39685  20.980   4.494   2.383 -0.0728 -0.2598 -0.1554
33086W        W39686  13.510   6.355  42.832  0.2633 -0.2556  0.2465
33087W        W39687   1.081   4.241   2.181 -0.1307 -0.3476 -0.3460
33088W        W39688  14.338   4.972  43.388  0.0449 -0.0593  0.0951
33089W        W39689  14.950   0.076  12.686 -0.2117 -0.0556 -0.0810
33090W        W39690  20.302   5.234  16.209  0.1603  0.1743 -0.1837
33091W        W39691   3.171   3.638  42.584  0.0984  0.0571  0.0582
33092W        W39692  12.498   1.627  22.618  0.1367 -0.1057 -0.1362
33093W        W39693  13.848   5.815  44.699  0.0072  0.0621 -0.0682
33094W        W39694  15.851   5.798  42.002 -0.2821 -0.0283  0.0056
33095W        W39695   1.395   1.702  26.519 -0.0655  0.0686  0.0482
33096W        W39696   5.682   5.494   7.389 -0.1724  0.2492 -0.1646
33097W        W39697  11.581   4.242  30.978  0.0285  0.2136  0.1252
33098W        W39698   3.113   1.892   0.254  0.1323 -0.0219  0.4035
33099W        W39699  13.295   5.499  12.745  0.1032  0.3606 -0.0215
33100W        W39700   2.839   1.351  37.407 -0.1947  0.2493  0.0010
33101W        W39701   2.935   5.467  25.565  0.2064  0.3263 -0.0012
33102W        W39702  18.426   3.381   2.350 -0.2168  0.2310 -0.0465
33103W        W39703   8.263   4.647  44.045 -0.0050  0.1412  0.0114
33104W        W39704   6.360   1.428  24.616 -0.0186 -0.1200 -0.0334
33105W        W39705  10.333   5.981  39.083 -0.2964  0.0382 -0.1588
33106W        W39706  13.467   4.504   1.459  0.0417 -0.1071  0.0159
33107W        W39707  14.813   5.045  39.163  0.0283 -0.0382  0.0870
33108W        W39708  18.359   3.177   1.109 -0.5272 -0.2716  0.0138
33109W        W39709   4.748   4.484  30.130 -0.0454 -0.0097  0.1936
33110W        W39710   8.276   3.890   1.916 -0.0264 -0.1528 -0.0244
33111W        W39711   3.024   6.323  10.026  0.2889 -0.1567  0.0116
33112W        W39712  12.500   0.871   3.574  0.1252 -0.1793  0.1391
33113W        W39713  17.687   5.529   8.734 -0.2137  0.1195  0.2703
33114W        W39714  13.775   0.749   4.264  0.0028 -0.1246  0.2242
33115W        W39715   7.680   5.034  13.700 -0.1379  0.3162 -0.0449
33116W        W39716   2.956   2.280   3.815 -0.0656  0.0361  0.0383
33117W        W39717  10.583   2.084  35.547 -0.4489 -0.0316 -0.0812
33118W        W39718   7.275   0.377   9.915  0.0599 -0.1068  0.1340
33119W        W39719  19.957   5.162   3.030  0.3486 -0.1860  0.0740
33120W        W39720  12.129   1.212   3.537 -0.1864  0.0014 -0.2181
33121W        W39721   2.806   2.940  36.455  0.0015  0.0360  0.2315
33122W        W39722  15.607   2.084  33.322 -0.0012  0.0332  0.2975
33123W        W39723   5.247   3.152  10.000 -0.1679 -0.1339  0.0843
33124W        W39724  15.483   6.559   0.127 -0.2642  0.0180  0.1721
33125W        W39725   0.871   5.745   0.434 -0.2017  0.0675 -0.1849
33126W        W39726  18.809   3.588  29.664  0.0709  0.5045 -0.0372
33127W        W39727   8.754   5.106  37.733  0.4582  0.1795 -0.5695
33128W        W39728   7.949   1.410  44.894  0.1081 -0.1415  0.0798
33129W        W39729   8.921   4.824  14.315  0.2327  0.0093  0.0084
33130W        W39730  19.908   3.635  42.174 -0.2671  0.0904  0.4201
33131W        W39731   0.862   2.502  40.501 -0.0954 -0.1930  0.0794
33132W        W39732   8.991   3.437  29.597  0.1087 -0.0083 -0.2009
33133W        W39733  11.275   6.175  29.860 -0.1505  0.0017  0.1820
33134W        W39734  14.897   4.484  19.273 -0.2935 -0.2334  0.3103
33135W        W39735   6.190   4.790  27.785  0.1294  0.0902  0.1131
33136W        W39736   7.436   6.472  33.942  0.0694  0.0747  0.1344
33137W        W39737  20.609   4.427  31.075 -0.2440 -0.3251 -0.1034
33138W        W39738   5.217   4.114  13.919 -0.1173 -0.3571 -0.1920
33139W        W39739  11.477   1.961  12.248  0.2447 -0.1667 -0.0204
33140W        W39740  13.965   2.639  44.726  0.1664 -0.0694  0.1043
33141W        W39741  20.323   5.293  38.495  0.0385  0.2218 -0.0022
33142W        W39742  14.044   3.106  11.445 -0.2865 -0.0369 -0.0291
33143W        W39743  13.362   4.123  23.863 -0.2634  0.1115  0.2019
33144W        W39744  17.809   4.467  29.637  0.0269  0.1350  0.0656
33145W        W39745   7.821   5.977   2.197  0.2133 -0.2905 -0.1988
33146W        W39746   9.741   4.319   5.476  0.0008  0.0605  0.1525
33147W        W39747   3.663   3.520  19.352  0.0090  0.0302 -0.0083
33148W        W39748  13.878   6.102  15.181  0.3091 -0.1561  0.2056
33149W        W39749  14.572   3.638   3.757 -0.1224  0.2004  0.1189
33150W        W39750   8.530   6.110  26.548  0.0585  0.1134 -0.0319
33151W        W39751   6.053   6.104  16.672  0.2719 -0.0895 -0.3902
33152W        W39752  19.092   0.646  12.358 -0.1705 -0.0832  0.2804
33153W        W39753   6.510   0.575  30.134 -0.2374 -0.1820 -0.0263
33154W        W39754  13.065   3.081  23.156  0.2348  0.0866 -0.2312
33155W        W39755  12.543   6.464  31.344  0.1122 -0.1552  0.2743
33156W        W39756  19.328   3.289  38.146 -0.0906 -0.0350  0.1100
33157W        W39757  21.065   2.108   0.284  0.1141  0.2381 -0.1235
33158W        W39758  13.267   0.168  36.520 -0.1695 -0.0113  0.0325
33159W        W39759   6.146   0.386  35.851  0.1195 -0.0070 -0.0738
33160W        W39760   6.704   6.595  14.988  0.2183 -0.1885  0.0192
33161W        W39761  13.012   3.174  30.489  0.0408 -0.1955 -0.0216
33162W        W39762  18.173   6.173  18.799 -0.0517 -0.0543  0.2867
33163W        W39763   0.032   3.961  34.440  0.4167  0.2131 -0.0968
33164W        W39764  20.206   4.052  17.669  0.1846 -0.1744 -0.0695
33165W        W39765  16.609   6.530  42.558 -0.1654  0.1225 -0.2149
33166W        W39766  15.854   4.627  20.325 -0.1016 -0.0504  0.2855
33167W        W39767   1.955   1.272   1.506  0.1660 -0.0093  0.2260
33168W        W39768  11.517   4.476  21.209  0.0514  0.1514 -0.0599
33169W        W39769   6.349   0.635   9.649 -0.1486  0.1951  0.1201
33170W        W39770   6.407   5.017  30.609  0.0738 -0.0462  0.1009
33171W        W39771   9.545   1.140  35.323 -0.2226 -0.4174 -0.1593
33172W        W39772  10.036   5.712  12.740  0.2727 -0.1998 -0.0882
33173W        W39773   9.463   1.909  15.498 -0.1436 -0.0185 -0.2879
33174W        W39774   9.491   0.329  42.426 -0.1497 -0.2879 -0.0885
33175W        W39775   3.124   1.250   4.399 -0.0426  0.1029  0.0344
33176W        W39776   6.423   4.584  31.901  0.1260  0.0469 -0.1537
33177W        W39777   9.173   4.494  14.018 -0.0118  0.2588  0.1494
33178W        W39778   4.285   1.041   0.801  0.0259 -0.1364 -0.1203
33179W        W39779  13.786   5.901  22.557  0.4279  0.2255  0.1162
33180W        W39780   5.609   3.902  29.831  0.3113  0.0225  0.3282
33181W        W39781  15.846   5.497  33.611  0.0428  0.2585 -0.0047
33182W        W39782   0.128   0.141  14.567  0.0583 -0.3263 -0.0858
33183W        W39783  20.316   2.728  40.795 -0.3448 -0.3843 -0.1967
33184W        W39784   7.669   1.808  33.251  0.3004  0.2129 -0.1671
33185W        W39785  19.237   1.781  41.495  0.2746 -0.3344 -0.0653
33186W        W39786   2.671   5.446  10.816 -0.1613  0.0677 -0.0208
33187W        W39787  16.042   6.516  35.824 -0.2133 -0.2370 -0.1989
33188W        W39788  13.998   1.810  10.358 -0.1406 -0.0772 -0.1519
33189W        W39789   0.434   1.522  29.365 -0.0567  0.3133 -0.1735
33190W        W39790   3.692   3.233   3.209 -0.4336  0.5106 -0.0214
33191W        W39791  16.212   4.683  21.787 -0.1519  0.0915 -0.0210
33192W        W39792  20.167   2.933   4.256  0.0552  0.0664 -0.4404
33193W        W39793  19.545   4.489  41.799  0.0022 -0.0114 -0.0256
33194W        W39794   5.687   2.463  29.808 -0.0694 -0.2473  0.0692
33195W        W39795  17.565   4.711  38.872 -0.0404 -0.1667  0.0336
33196W        W39796   5.365   3.532  14.760  0.0006 -0.2947  0.3370
33197W        W39797   1.548   0.211  15.868 -0.0637 -0.2436  0.2192
33198W        W39798  13.079   5.828  35.626  0.2212  0.1187  0.3473
33199W        W39799   4.188   1.797   5.365  0.0750 -0.0622 -0.2496
33200W        W39800   7.558   4.931  14.958  0.1713  0.2573  0.1428
33201W        W39801  15.189   2.213   4.167 -0.1675  0.0770 -0.1137
33202W        W39802  16.818   3.457  40.721 -0.1374  0.0543 -0.2848
33203W        W39803  11.895   0.122   5.701  0.1080  0.2583  0.2743
33204W        W39804   8.892   2.610   8.122 -0.1208 -0.0289 -0.0362
33205W        W39805  15.915   4.006  29.459 -0.2345  0.1093  0.1040
33206W        W39806   8.672   6.344  32.085 -0.0419  0.1628 -0.2286
33207W        W39807   4.497   3.676  13.341 -0.0111 -0.1351  0.2393
33208W        W39808   5.845   3.024  37.367  0.0478 -0.1391  0.3492
33209W        W39809  14.952   4.690   1.703 -0.0841 -0.0610 -0.1980
33210W        W39810   6.610   6.060  37.917 -0.1057 -0.3184 -0.0920
33211W        W39811  12.508   5.591  21.119  0.2865 -0.0372  0.1634
33212W        W39812   5.728   3.997  13.169  0.0447 -0.1897  0.0668
33213W        W39813   8.431   5.540   0.277  0.0402  0.0750 -0.0272
33214W        W39814   3.646   3.840  44.626  0.2320 -0.1311  0.1290
33215W        W39815  19.077   3.980  28.857  0.2128 -0.1239  0.3960
33216W        W39816  19.707   0.744  16.353  0.3181  0.0329 -0.1793
33217W        W39817  14.797   3.820  15.741 -0.1649  0.2004  0.1294
33218W        W39818  15.233   3.537  11.726  0.3856 -0.1594 -0.4256
33219W        W39819  12.988   2.178  16.890 -0.0770 -0.1172 -0.0352
33220W        W39820  12.407   3.169  19.463 -0.1518 -0.0194  0.0665
33221W        W39821  18.171   0.028   8.199 -0.1062 -0.1064  0.1448
33222W        W39822  16.107   0.753   5.727 -0.0931  0.3730  0.1386
33223W        W39823  18.797   0.848   9.778 -0.1725 -0.1617  0.1850
33224W        W39824   9.225   2.405  30.592  0.0132 -0.0615  0.0118
33225W        W39825  10.219   2.012   3.870  0.1194  0.1210 -0.2057
33226W        W39826   2.815   2.399  21.021 -0.0256 -0.2724 -0.0327
33227W        W39827  19.961   0.364   7.313 -0.0764  0.1975  0.0407
33228W        W39828  14.558   5.364  23.345  0.0990  0.0550 -0.0797
33229W        W39829  13.324   0.221   2.249 -0.1177  0.0195  0.2620
33230W        W39830  11.784   1.224  20.058 -0.3761 -0.0622 -0.0591
33231W        W39831   1.035   1.716  13.378 -0.0441  0.4605  0.0842
33232W        W39832  17.015   3.635   4.814 -0.1115 -0.1688 -0.0632
33233W        W39833  20.686   6.019  11.403 -0.2474 -0.2126 -0.2177
33234W        W39834  11.914   2.397  35.071 -0.1670 -0.0819 -0.0797
33235W        W39835  15.034   0.197  17.279 -0.0194  0.4051  0.0159
33236W        W39836   6.106   3.236  34.130 -0.2721  0.0266  0.1418
33237W        W39837  16.902   3.963   7.456 -0.2206  0.1254 -0.1272
33238W        W39838   6.303   6.298   7.055  0.0259  0.1149 -0.0375
33239W        W39839  19.061   1.248  18.646 -0.2210 -0.1019  0.0311
33240W        W39840  19.740   5.751  42.748 -0.2041 -0.1717 -0.4033
33241W        W39841  10.055   0.337   9.453 -0.1218  0.0574  0.0734
33242W        W39842   5.396   1.024  24.839  0.0519  0.0187  0.0355
33243W        W39843   8.978   2.516   8.620 -0.2752 -0.0310 -0.0421
33244W        W39844  14.058   3.933  40.304 -0.0947 -0.1799  0.0696
33245W        W39845   1.209   1.874  36.782 -0.0448 -0.3611  0.3326
33246W        W39846  17.059   2.662  11.656  0.1919  0.0240 -0.0170
33247W        W39847   1.498   4.543  14.939  0.1102  0.3752 -0.2219
33248W        W39848   1.416   4.844  11.514  0.0832  0.1586 -0.1082
33249W        W39849   5.013   3.478   0.887 -0.1615  0.1055  0.3901
33250W        W39850  11.262   0.197  39.904 -0.0213  0.3062 -0.0249
33251W        W39851  11.562   3.009  38.687  0.2044  0.0669 -0.0455
33252W        W39852   7.372   0.465   6.621 -0.3641 -0.2087 -0.0214
33253W        W39853  20.025   0.706  30.015 -0.0112 -0.2873  0.0165
33254W        W39854   9.955   1.537   8.587  0.2354 -0.0882 -0.1508
33255W        W39855   2.190   2.437  37.469  0.5241 -0.0974  0.1704
33256W        W39856   1.131   5.177   2.789 -0.0738  0.0900 -0.1768
33257W        W39857  17.583   4.966   0.250  0.2939 -0.0256  0.0308
33258W        W39858  12.361   0.805   9.765 -0.1517 -0.0648  0.0241
33259W        W39859  19.688   1.587  40.864  0.0902  0.2608 -0.0293
33260W        W39860  10.906   2.406   4.899 -0.1043  0.1443  0.1494
33261W        W39861  20.809   4.772  39.906 -0.0742  0.1025  0.1793
33262W        W39862  14.539   5.662  42.733  0.0988  0.0096  0.0249
33263W        W39863  13.653   2.644  33.105  0.1057  0.1276 -0.2584
33264W        W39864  17.346   5.028  32.132  0.1472 -0.1539  0.1556
33265W        W39865  17.266   2.979   5.924 -0.2713 -0.4533  0.0727
33266W        W39866  10.064   3.795  35.308 -0.3603 -0.1051  0.3500
33267W        W39867  10.839   3.748  12.229 -0.0639 -0.1105 -0.0549
33268W        W39868  16.763   0.807  34.190 -0.0694 -0.0931  0.0727
33269W        W39869  13.343   0.045  16.298 -0.2399  0.0637  0.1521
33270W        W39870  15.076   0.538   0.318 -0.0414 -0.0029  0.3309
33271W        W39871  19.544   4.007  34.229  0.1415  0.1755 -0.1506
33272W        W39872  12.351   0.193  36.593  0.0369  0.2958  0.1269
33273W        W39873  12.837   3.169  37.411 -0.0722 -0.2270 -0.2366
33274W        W39874  11.084   1.683   9.768 -0.4080  0.1200  0.1874
33275W        W39875  10.003   2.291  41.494 -0.0630 -0.0635  0.1983
33276W        W39876  14.940   3.780  12.689 -0.1587  0.1937  0.1882
33277W        W39877  13.310   3.636  13.495 -0.3301 -0.0008  0.1662
33278W        W39878  19.981   4.965  29.550  0.1449 -0.2532 -0.3766
33279W        W39879  10.619   1.327  44.545 -0.1479  0.0679  0.1254
33280W        W39880  10.948   6.451  20.176 -0.0968  0.0794  0.0894
33281W        W39881   6.252   4.058  41.090 -0.2037  0.4535 -0.0843
33282W        W39882   8.260   1.672   7.244 -0.4674 -0.0888  0.0728
33283W        W39883  10.213   5.627  30.720  0.0903 -0.0561 -0.0484
33284W        W39884   9.586   0.890  38.814 -0.0176  0.0340 -0.2241
33285W        W39885   1.077   5.262  30.811  0.0655 -0.2776  0.0368
33286W        W39886  11.958   0.381   7.269 -0.0035 -0.1416 -0.0234
33287W        W39887  19.455   3.519  34.411  0.0201 -0.0050  0.2820
33288W        W39888  10.071   3.231   0.230  0.0871  0.2339  0.3418
33289W        W39889  16.118   5.606  34.120 -0.1764  0.3008  0.0605
33290W        W39890   3.231   0.091  43.256  0.0067  0.0615 -0.0481
33291W        W39891   4.207   6.452  24.108 -0.2415  0.1007  0.1432
33292W        W39892  18.135   4.928  39.274 -0.1311 -0.3460  0.1713
33293W        W39893  17.474   4.783  16.924  0.0473 -0.2154  0.1848
33294W        W39894   3.145   4.730  12.471 -0.0347  0.1051  0.1310
33295W        W39895   3.538   3.493  21.267  0.3050 -0.0426 -0.1175
33296W        W39896  19.848   2.482  44.321  0.1123  0.0534  0.2935
33297W        W39897  11.343   4.285  29.979  0.1401  0.0506  0.1571
33298W        W39898  15.211   2.813  31.508 -0.1322 -0.0049 -0.0426
33299W        W39899   3.075   2.246  40.663 -0.0270  0.3193 -0.1869
33300W        W39900   1.612   0.092  24.577  0.0246 -0.1826  0.1393
33301W        W39901  17.629   6.398  15.441 -0.0117  0.2917  0.1055
33302W        W39902  12.694   4.275  44.933  0.3983  0.0533 -0.2672
33303W        W39903  20.145   4.985  16.630  0.3458  0.1878  0.1856
33304W        W39904  11.393   0.592  43.365  0.3295  0.0851 -0.0455
33305W        W39905  12.393   2.191  20.642  0.1790 -0.1170 -0.0566
33306W        W39906   2.589   4.103  29.298 -0.2832 -0.1257  0.2426
33307W        W39907  15.625   2.701  19.612 -0.0233  0.0683 -0.0042
33308W        W39908   9.282   2.020  13.752 -0.0376 -0.0813 -0.2902
33309W        W39909  12.067   5.474  29.661 -0.0479 -0.1122 -0.1613
33310W        W39910   0.411   3.831  12.974  0.1467 -0.5820 -0.1813
33311W        W39911   7.730   4.124  24.850  0.1463 -0.1326  0.0142
33312W        W39912  14.702   3.364  15.863 -0.0783  0.0004 -0.2866
33313W        W39913   3.856   2.421   1.328 -0.1983  0.0529  0.1832
33314W        W39914  13.121   3.493  18.578  0.0220 -0.1147  0.1381
33315W        W39915   3.535   6.548  30.006  0.2203 -0.2622  0.2926
33316W        W39916   9.028   3.030  38.411  0.2022  0.0363 -0.1309
33317W        W39917  19.057   0.813   5.512 -0.1028  0.0382  0.1076
33318W        W39918  12.224   1.033  43.703 -0.1406 -0.1394  0.2443
33319W        W39919  11.112   2.216   0.473  0.0718 -0.2176 -0.0930
33320W        W39920  18.758   4.961  45.026 -0.1026  0.1206  0.1482
33321W        W39921   1.842   0.199  43.282 -0.0598 -0.0345 -0.1011
33322W        W39922  19.793   6.507   7.351 -0.0008  0.1334  0.2415
33323W        W39923  19.000   4.920  14.229 -0.2441 -0.2170  0.1321
33324W        W39924   6.123   0.203   5.883  0.2770 -0.0004 -0.2226
33325W        W39925  15.258   3.649   7.138  0.0273 -0.0208 -0.0001
33326W        W39926  15.055   5.225  15.652  0.0626  0.2536 -0.0506
33327W        W39927  11.453   4.691   9.922  0.0226 -0.0574 -0.1815
33328W        W39928  18.232   1.376  32.066 -0.1340 -0.2186 -0.1085
33329W        W39929   9.558   5.816  15.306  0.0555  0.0031  0.2699
33330W        W39930  11.368   1.147   1.866 -0.2937 -0.1303 -0.0318
33331W        W39931  13.897   3.795  34.525  0.2854  0.0834  0.3330
33332W        W39932  19.720   3.340   8.610  0.1358  0.1819 -0.3025
33333W        W39933   5.065   5.336  16.110 -0.1136  0.2608 -0.0463
33334W        W39934  16.099   5.168   6.651 -0.0242 -0.2415 -0.1945
33335W        W39935  10.828   3.947  34.315 -0.0248  0.2602  0.0662
33336W        W39936  14.703   2.598  41.267 -0.0983 -0.0464 -0.1536
33337W        W39937   4.957   5.734  13.114  0.2120 -0.1718  0.0019
33338W        W39938  19.007   6.194   1.921 -0.1033  0.1348  0.2761
33339W        W39939  14.017   3.598   2.343 -0.2092 -0.1076 -0.1614
33340W        W39940  20.584   2.317  40.006  0.1088 -0.0169 -0.0997
33341W        W39941   7.234   0.806  42.293  0.0289 -0.0029 -0.0131
33342W        W39942   1.380   0.135  28.038  0.2961 -0.2298 -0.0212
33343W        W39943   0.945   2.981  36.068 -0.0363 -0.0623  0.3129
33344W        W39944   3.075   0.174   4.370  0.0005  0.1056 -0.1027
33345W        W39945   7.687   2.487  42.086 -0.2093 -0.1078  0.1594
33346W        W39946  14.475   1.590  42.990  0.0138  0.1305 -0.0894
33347W        W39947  12.441   1.516   8.528  0.1494 -0.1329 -0.0448
33348W        W39948   6.463   5.933  31.666  0.3041 -0.1168  0.0545
33349W        W39949  13.924   0.130   1.771  0.0445 -0.3376 -0.1652
33350W        W39950  10.271   0.320  37.191 -0.2813 -0.0334  0.1678
33351W        W39951   7.752   4.426  44.935  0.0136 -0.1754 -0.2712
33352W        W39952   8.484   0.678  39.110  0.3138 -0.1488  0.3601
33353W        W39953   2.107   5.240  29.111  0.0222  0.1551  0.1292
33354W        W39954  13.500   3.938   8.285  0.1248  0.0152 -0.0813
33355W        W39955   0.233   2.391   6.586  0.0111 -0.3113  0.1372
33356W        W39956   4.857   5.948  10.342  0.2316  0.2354  0.1161
33357W        W39957  21.145   1.996  43.966 -0.2419 -0.3451 -0.3913
33358W        W39958   5.639   5.749  14.218  0.0520 -0.3805  0.1645
33359W        W39959   3.252   3.851   7.934  0.2820 -0.0798  0.1967
33360W        W39960  12.106   5.482   9.873 -0.1322 -0.0317  0.1957
33361W        W39961  13.343   0.813   4.527 -0.1174 -0.1705  0.0069
33362W        W39962  13.681   3.738  35.905 -0.1436  0.0471 -0.1007
33363W        W39963  19.164   1.567  39.149 -0.0145  0.1165 -0.0095
33364W        W39964   4.813   6.271  29.269 -0.0766 -0.1024 -0.1164
33365W        W39965   6.670   1.357  36.591 -0.2183  0.2137  0.0113
33366W        W39966  17.315   1.579  41.309 -0.1228 -0.1438  0.3036
33367W        W39967   0.327   2.572  30.719 -0.0016  0.4310  0.2600
33368W        W39968   3.638   3.993  23.594 -0.1924  0.0413  0.1322
33369W        W39969   9.484   4.220  37.099 -0.1417 -0.1696 -0.3098
33370W        W39970   1.894   4.513   1.194  0.0022 -0.1330 -0.0421
33371W        W39971  10.802   4.185  42.768  0.1227 -0.1715 -0.0667
33372W        W39972  12.264   1.025  44.636  0.0852 -0.2029  0.1046
33373W        W39973   4.901   2.094  36.921 -0.1326  0.1144  0.0226
33374W        W39974  19.064   0.428  30.047  0.0824  0.0211 -0.2216
33375W        W39975   8.466   5.806  38.121  0.1775  0.2264  0.1257
33376W        W39976   9.139   5.468  35.271  0.2336 -0.1526  0.0351
33377W        W39977   1.417   6.554  30.106  0.2083  0.0124 -0.0935
33378W        W39978   8.486   4.336  17.107  0.1638  0.1029  0.0849
33379W        W39979   6.906   3.323  31.539 -0.0142 -0.1030  0.0039
33380W        W39980   2.164   1.409  24.438 -0.0982  0.0675 -0.1628
33381W        W39981  14.916   1.565  20.113  0.0302  0.3430  0.1227
33382W        W39982  12.984   0.297  33.943  0.2669  0.0926 -0.1759
33383W        W39983  15.391   4.601  31.218  0.2347 -0.0774  0.2519
33384W        W39984  13.022   3.311  29.069 -0.1515  0.2022 -0.0442
33385W        W39985   0.660   5.780  13.000 -0.0407 -0.0122 -0.0263
33386W        W39986  17.920   3.483   2.286  0.2310  0.0297 -0.0230
33387W        W39987  18.129   0.421  10.304  0.1786 -0.1854 -0.1159
33388W        W39988   8.133   4.548  15.068 -0.1461 -0.0321 -0.0813
33389W        W39989  12.338   1.266  34.142 -0.2024 -0.2931  0.2570
33390W        W39990   6.064   1.566   2.469  0.2515  0.2021  0.0871
33391W        W39991   5.098   5.339  42.926 -0.0954 -0.0496  0.1810
33392W        W39992  14.833   2.911  20.357 -0.1861 -0.3157  0.2031
33393W        W39993   0.875   3.876   3.583  0.0244  0.3243  0.1673
33394W        W39994  10.755   4.202   7.476  0.0203 -0.2850  0.4171
33395W        W39995   8.175   5.920  44.273 -0.1194  0.4014 -0.1970
33396W        W39996  19.490   2.996  29.027 -0.2148 -0.0035 -0.2758
33397W        W39997   2.768   6.221  41.365 -0.0584 -0.0475 -0.0230
33398W        W39998  11.473   5.125  13.548  0.1119  0.1931  0.1221
33399W        W39999   0.790   4.836  14.578 -0.0992  0.0235  0.3102
33400W        W40000  19.278   2.874  42.292 -0.0458  0.0793  0.0304
33401W        W40001   9.806   2.749   6.636  0.0024 -0.0967 -0.1492
33402W        W40002  19.701   5.720  33.568  0.1716 -0.1907  0.0466
33403W        W40003  10.573   2.861   9.953  0.0987  0.0606  0.5164
33404W        W40004   1.368   5.126  23.635 -0.0499  0.3078 -0.1667
33405W        W40005   7.617   4.083  33.638  0.1515 -0.1730  0.0319
33406W        W40006   2.661   3.675   6.310 -0.0331  0.0596 -0.1001
33407W        W40007   1.481   6.387  14.728 -0.2447  0.0781 -0.0672
33408W        W40008  14.861   2.449  31.355 -0.0241  0.0012 -0.1014
33409W        W40009   6.837   1.712  24.473 -0.0081  0.4049 -0.1322
33410W        W40010  13.498   2.621  10.612  0.1230  0.1773  0.1106
33411W        W40011   5.499   4.622  10.310 -0.0690 -0.0906 -0.2081
33412W        W40012  12.161   0.809  16.787  0.2782 -0.2218 -0.0664
33413W        W40013  14.996   3.524  31.971 -0.2909 -0.2001  0.1656
33414W        W40014  17.719   1.449  12.181  0.1567  0.0764 -0.4462
33415W        W40015  16.493   2.979  20.687  0.0452  0.1775 -0.5111
33416W        W40016  10.755   6.521  33.610  0.0373  0.0829 -0.0004
33417W        W40017  19.859   2.354   2.918 -0.1702  0.0958 -0.1291
33418W        W40018  11.542   1.296  18.037  0.0071 -0.0117  0.1473
33419W        W40019   0.459   3.316   4.067  0.1543 -0.0640  0.0299
33420W        W40020  14.439   5.069  10.957  0.2458 -0.0583 -0.2028
33421W        W40021  11.707   3.011  42.415  0.3993  0.0235  0.0041
33422W        W40022   3.359   0.088  35.588 -0.0785 -0.1093 -0.0005
33423W        W40023   1.312   2.918  25.763 -0.0222 -0.2055  0.1010
33424W        W40024   1.306   0.156   7.819  0.2305  0.1151  0.1566
33425W        W40025  14.008   5.271  11.142  0.0248 -0.0783  0.1162
33426W        W40026   3.358   5.899  24.084  0.0132 -0.2333 -0.2016
33427W        W40027  20.772   4.473  25.835  0.0008  0.1457 -0.0531
33428W        W40028   5.660   0.996   4.981 -0.0888 -0.0565  0.0041
33429W        W40029  17.908   6.004  33.396  0.0882  0.3411  0.0014
33430W        W40030  14.230   5.002  22.542  0.0297 -0.2926  0.1517
33431W        W40031   1.720   5.246   1.349 -0.0281 -0.0584  0.0132
33432W        W40032  18.424   2.447  44.073  0.0205 -0.0592  0.0108
33433W        W40033  18.625   4.593   8.808  0.0437  0.0974  0.2395
33434W        W40034  13.463   2.233  19.025  0.1027 -0.0785 -0.0999
33435W        W40035  17.665   3.854  13.938 -0.2994 -0.0623  0.0548
33436W        W40036  12.735   5.269  13.577  0.0408  0.3560 -0.0143
33437W        W40037   0.494   0.914   1.388 -0.0020  0.1420 -0.1836
33438W        W40038   2.625   1.306  35.105 -0.1143  0.0680 -0.2643
33439W        W40039  20.804   4.275  12.579 -0.1506 -0.0938 -0.1194
33440W        W40040   1.750   3.239  28.872  0.1798 -0.4302 -0.0072
33441W        W40041   9.755   3.878  12.030 -0.0047  0.0591  0.3267
33442W        W40042   2.393   0.757  10.309 -0.0715 -0.0291  0.0194
33443W        W40043   7.264   3.765  43.230 -0.3689  0.1902  0.4994
33444W        W40044   1.611   0.108  38.805 -0.2959  0.1517 -0.0908
33445W        W40045   7.182   2.608  37.467 -0.0707  0.0477  0.0328
33446W        W40046  15.880   0.115  44.812  0.2907 -0.1675  0.1174
33447W        W40047   6.188   2.948  36.143  0.0183  0.2355  0.1473
33448W        W40048   5.068   0.241  21.753 -0.1931 -0.0186 -0.1063
33449W        W40049  17.365   5.741  30.031 -0.0509  0.2170 -0.1897
33450W        W40050   3.748   3.909  43.713 -0.0992 -0.1160 -0.3744
33451W        W40051  19.512   2.938  32.123 -0.1857 -0.1072  0.0741
33452W        W40052  12.088   6.353   0.213 -0.1679  0.0410 -0.1296
33453W        W40053  11.091   3.527  19.435  0.2015 -0.0700 -0.0658
33454W        W40054  13.237   4.280  16.532  0.1601 -0.0411 -0.1115
33455W        W40055  20.141   1.231  39.229 -0.1727 -0.0815 -0.1769
33456W        W40056   0.566   0.755  12.059  0.2006  0.3075 -0.0512
33457W        W40057  11.884   0.129  44.697 -0.3718 -0.1735  0.0751
33458W        W40058  16.711   5.718  19.813 -0.1397  0.2046 -0.4371
33459W        W40059   6.933   4.063  31.974 -0.1060  0.2147  0.1237
33460W        W40060  20.233   5.349  28.645 -0.1129  0.4475 -0.4973
33461W        W40061   1.003   4.638   7.849 -0.2756 -0.1589 -0.3360
33462W        W40062   2.882   4.094   7.664 -0.2944 -0.0567 -0.1944
33463W        W40063   7.599   0.249  43.432  0.1812 -0.2879  0.1137
33464W        W40064  10.068   2.294  33.562 -0.0669  0.0852  0.2573
33465W        W40065   6.762   4.067  13.285  0.0655  0.1901 -0.1505
33466W        W40066  20.703   3.705  43.283  0.4571  0.0864 -0.4142
33467W        W40067  10.967   3.107  36.783 -0.2253 -0.0667 -0.3930
33468W        W40068  15.894   4.331  10.447 -0.1706  0.2771  0.2335
33469W        W40069   8.967   3.581  44.785 -0.1389  0.0250  0.1900
33470W        W40070   2.041   2.894  38.058  0.0345 -0.2506 -0.0940
33471W        W40071  10.544   2.956  28.137  0.1306 -0.2924  0.2170
33472W        W40072  16.704   3.499  14.279  0.1266  0.0629  0.2267
33473W        W40073  16.783   1.930  28.474 -0.2160  0.3416  0.2515
33474W        W40074  20.130   6.521  39.375  0.0795  0.0364  0.2201
33475W        W40075   7.130   1.151   8.932 -0.2872  0.0672  0.3964
33476W        W40076  15.122   6.296  17.218  0.0379 -0.1185  0.0479
33477W        W40077   3.133   3.377  22.069  0.2646 -0.2579 -0.1440
33478W        W40078   1.685   3.242  44.917 -0.1446  0.4240 -0.0110
33479W        W40079  16.379   3.971  29.343 -0.0427 -0.1152 -0.0914
33480W        W40080   4.032   0.125  30.890 -0.0307  0.0341 -0.0575
33481W        W40081   4.019   5.111  41.425 -0.0106 -0.0795  0.2817
33482W        W40082  20.475   3.256  31.577 -0.0317  0.1050 -0.0847
33483W        W40083  10.816   0.957  18.782  0.2734  0.1788  0.1301
33484W        W40084  11.343   4.700  34.676  0.0716 -0.0579  0.1953
33485W        W40085  20.385   2.909  17.616  0.1532 -0.1027 -0.2536
33486W        W40086   3.711   3.600  23.940  0.4675 -0.0284  0.2293
33487W        W40087  10.091   6.141  19.622  0.1306  0.5195  0.1221
33488W        W40088   4.821   2.305  27.226  0.1279 -0.2164  0.0326
33489W        W40089  19.345   2.782   8.745 -0.4081 -0.0914  0.1278
33490W        W40090  17.000   2.141  35.074 -0.0512 -0.2504  0.1948
33491W        W40091  14.665   1.926  12.870 -0.1386  0.0493  0.1738
33492W        W40092  18.077   5.240  28.257  0.2265 -0.3086  0.0904
33493W        W40093   4.104   6.104  13.811 -0.1177 -0.2418 -0.0414
33494W        W40094   3.766   6.027  22.774  0.1136 -0.2274  0.1542
33495W        W40095  12.341   6.234  36.284 -0.0033  0.1393 -0.2023
33496W        W40096  13.126   3.963  19.206 -0.0527 -0.0071  0.1062
33497W        W40097   1.294   5.952  31.755 -0.2520  0.2929  0.1414
33498W        W40098   3.905   4.821  35.819 -0.0637  0.1050  0.0238
33499W        W40099   1.950   3.696  44.496  0.1469  0.2238 -0.0755
33500W        W40100   7.978   4.219   9.592 -0.0737  0.2223  0.2109
33501W        W40101  10.646   6.466  16.758 -0.2597  0.1043  0.0475
33502W        W40102  17.334   4.033  17.671 -0.2805 -0.0520 -0.0417
33503W        W40103   0.525   3.859  34.497  0.0640 -0.1473  0.0337
33504W        W40104  16.567   3.898   5.810 -0.2663 -0.0660  0.0481
33505W        W40105   4.226   5.392  26.762 -0.0235 -0.0352  0.1572
33506W        W40106   8.045   5.470  39.771  0.1849 -0.1088 -0.0142
33507W        W40107  15.666   1.565  30.031 -0.0725 -0.1009  0.1334
33508W        W40108  14.556   4.893   5.997  0.0331 -0.2278  0.4580
33509W        W40109   6.828   4.290   4.756  0.1026  0.2511  0.0407
33510W        W40110  19.497   5.344  10.760  0.0864  0.2878 -0.0795
33511W        W40111   4.893   2.168  11.060 -0.2363  0.1066  0.0610
33512W        W40112   2.888   4.016  38.151 -0.2647 -0.0587  0.2329
33513W        W40113   9.497   3.853  30.369 -0.1619  0.1316 -0.0440
33514W        W40114   1.961   5.609  37.290  0.0859 -0.1676 -0.0555
33515W        W40115   6.956   3.083  44.993  0.0652 -0.3820 -0.0043
33516W        W40116  10.247   3.239   9.815  0.1154 -0.1338 -0.0365
33517W        W40117   9.319   6.458  10.680 -0.0643 -0.1764 -0.0559
33518W        W40118   7.690   2.311  12.743  0.2800 -0.1316 -0.0267
33519W        W40119  17.998   4.366   4.438 -0.1870  0.0407 -0.0118
33520W        W40120  14.829   6.471  10.146 -0.3244 -0.1016 -0.2568
33521W        W40121   2.699   5.758  28.815  0.1635 -0.2984 -0.1819
33522W        W40122   1.548   4.488   9.175  0.0277 -0.1107  0.2391
33523W        W40123   9.928   5.619  35.893  0.1196 -0.1027  0.0993
33524W        W40124  14.642   2.777  24.199  0.1459  0.1829 -0.1192
33525W        W40125   7.687   2.148   7.891 -0.0369 -0.1993  0.1120
33526W        W40126  21.036   1.523  27.771 -0.0130  0.2514 -0.1360
33527W        W40127  17.082   2.989  39.224 -0.1404  0.2049 -0.1194
33528W        W40128  17.962   0.796  17.579 -0.3276  0.0243  0.2034
33529W        W40129  14.301   3.303   0.844 -0.0219 -0.5206  0.2473
33530W        W40130   1.132   3.871  24.243 -0.0179  0.0185 -0.0649
33531W        W40131  21.012   0.183   5.373  0.2063  0.1384  0.0063
33532W        W40132  13.489   1.455  30.361 -0.3041 -0.4309 -0.1828
33533W        W40133  13.508   3.870  23.433 -0.1274  0.0253  0.0322
33534W        W40134  15.887   2.607  12.012  0.2224 -0.1305  0.2101
33535W        W40135  19.466   6.296  31.693 -0.1098 -0.0409 -0.2410
33536W        W40136  12.171   3.708  35.421  0.1177 -0.2527  0.1612
33537W        W40137   3.591   2.855  13.009  0.1233  0.3681  0.1086
33538W        W40138   3.347   2.093  24.374 -0.2016  0.2335  0.0323
33539W        W40139   1.723   1.057  36.309  0.0539  0.2796  0.0133
33540W        W40140  18.334   4.015  39.277  0.1136 -0.1561 -0.1489
33541W        W40141   1.132   3.613  27.729  0.1673 -0.0649 -0.0022
33542W        W40142  12.797   4.309  41.248  0.1492 -0.0709  0.2886
33543W        W40143  15.432   1.252  20.066 -0.1184 -0.0605  0.0058
33544W        W40144   3.850   2.558   4.401  0.2673 -0.1758  0.0836
33545W        W40145   7.008   5.492  39.372  0.0422  0.2142 -0.2530
33546W        W40146   2.897   5.930   0.734  0.1243  0.2683  0.0158
33547W        W40147   0.771   2.696  36.796 -0.0892  0.2353  0.2657
33548W        W40148  10.291   2.891  42.267  0.0760 -0.1980  0.1318
33549W        W40149  13.647   5.988  40.704 -0.1529  0.2067 -0.0404
33550W        W40150   0.350   3.760  26.065  0.4198 -0.2848  0.0716
33551W        W40151  10.255   4.079  14.506 -0.0702  0.2041  0.1956
33552W        W40152   9.989   4.298  17.001  0.0572 -0.0371 -0.1792
33553W        W40153  10.435   3.769  18.999 -0.1174  0.3516  0.2114
33554W        W40154   1.788   3.756  28.799  0.1110 -0.4176  0.3351
33555W        W40155  16.367   4.572  10.848 -0.1355 -0.0054  0.0413
33556W        W40156  19.756   4.111   6.659  0.1122 -0.0555 -0.0142
33557W        W40157  10.003   1.237  39.014 -0.2380  0.0640 -0.3830
33558W        W40158  16.490   4.815  44.623  0.1269  0.1712  0.2324
33559W        W40159  10.239   6.155  30.586 -0.3287  0.0895  0.2226
33560W        W40160   2.093   2.514  13.456  0.0110  0.2212  0.0465
33561W        W40161   9.730   3.265   5.753 -0.3305 -0.1165 -0.0976
33562W        W40162   6.949   2.323  11.735  0.1312  0.4512  0.2868
33563W        W40163  19.505   6.264  17.758  0.1295 -0.1180  0.0632
33564W        W40164  13.610   0.778   5.646 -0.0642 -0.0027  0.1906
33565W        W40165  17.720   1.446  30.821  0.2151  0.0956 -0.1165
33566W        W40166  11.596   3.019  39.742  0.3243 -0.0804  0.2033
33567W        W40167   9.993   6.472  39.523 -0.1051 -0.1833  0.1597
33568W        W40168  14.093   4.132  39.803  0.1185  0.1217 -0.2162
33569W        W40169   7.013   0.645   2.394  0.3264 -0.0843 -0.1928
33570W        W40170  11.619   3.042   8.511 -0.1419  0.2314 -0.2578
33571W        W40171  10.866   2.193   9.468  0.0878  0.0667 -0.0701
33572W        W40172   2.661   0.567  32.084 -0.1338 -0.0359 -0.1558
33573W        W40173  17.193   6.270   8.936 -0.1420 -0.2248 -0.1383
33574W        W40174  16.556   3.971  15.727  0.0396 -0.1554 -0.0200
33575W        W40175  10.949   3.472  16.506  0.0185  0.3128 -0.0175
33576W        W40176  16.600   6.318  18.101 -0.2794  0.0687  0.1406
33577W        W40177   6.056   1.032  36.216  0.0169 -0.4747  0.2737
33578W        W40178  16.053   5.471   5.983 -0.1311 -0.1715  0.0855
33579W        W40179   4.069   3.259  38.737  0.1054  0.0353  0.2980
33580W        W40180  12.149   4.723  30.356 -0.0936  0.0586  0.1605
33581W        W40181  16.556   4.635  45.113 -0.0484 -0.2613 -0.0945
33582W        W40182  15.090   3.918  34.355  0.0075 -0.1652 -0.1030
33583W        W40183  19.648   4.489  16.903  0.2022  0.1595 -0.0405
33584W        W40184  14.284   5.864  43.200 -0.0859 -0.1550  0.2397
33585W        W40185  14.504   0.687  34.271 -0.4333 -0.1763 -0.1163
33586W        W40186  15.282   1.177  43.185 -0.0870  0.3122 -0.0484
33587W        W40187  19.247   3.286   6.865 -0.3780 -0.3409 -0.4044
33588W        W40188  20.539   2.817  40.298 -0.3197 -0.3392  0.2541
33589W        W40189  20.491   1.717  29.709  0.1039  0.1257 -0.1010
33590W        W40190  14.907   2.244  42.452 -0.1771 -0.0597  0.1592
33591W        W40191  18.201   5.487  12.920  0.1175  0.0062  0.3415
33592W        W40192  15.367   6.008  15.226  0.1269 -0.1028  0.1723
33593W        W40193  17.234   5.881   3.681 -0.0501 -0.3243 -0.0270
33594W        W40194   1.337   0.460  10.092  0.0078  0.1515  0.2925
33595W        W40195  20.366   1.322  15.662  0.0405  0.2006  0.2820
33596W        W40196   4.777   2.967  20.303  0.1419  0.2032 -0.1305
33597W        W40197   1.009   1.147   3.539 -0.1903 -0.1186  0.1657
33598W        W40198   1.144   1.838  39.139 -0.3082  0.0476 -0.0547
33599W        W40199   6.053   4.674   7.211  0.1285 -0.1044 -0.2174
33600W        W40200  17.813   0.585  35.267 -0.0058  0.1733  0.3319
33601W        W40201  13.245   1.214  16.815 -0.0965  0.1648  0.0409
33602W        W40202  16.844   1.811  35.473 -0.3142  0.1321 -0.2581
33603W        W40203  20.995   5.691  25.234  0.3427  0.4289  0.1835
33604W        W40204  10.678   1.990  44.818  0.1007 -0.0737 -0.1018
33605W        W40205  12.966   3.549   4.981  0.0304  0.1024  0.0243
33606W        W40206  10.726   1.044  20.038 -0.1548 -0.0974 -0.2482
33607W        W40207  17.128   4.953  17.290 -0.2460  0.5052 -0.2089
33608W        W40208  18.164   4.161  31.579 -0.5026 -0.0581 -0.2593
33609W        W40209   7.406   6.421   7.866  0.1753 -0.1898  0.4239
33610W        W40210   2.461   3.916  34.199 -0.1487  0.1823  0.0562
33611W        W40211   8.511   2.339  13.657  0.0685 -0.3543  0.1030
33612W        W40212  10.411   3.813  36.969 -0.0851  0.3415  0.1155
33613W        W40213  17.580   3.407  31.848 -0.1688 -0.4489 -0.1302
33614W        W40214   5.690   2.475  32.319  0.1644  0.1990  0.0526
33615W        W40215   9.603   1.201  11.789 -0.1473 -0.1126  0.2582
33616W        W40216   0.142   3.689   8.401  0.0420  0.1866 -0.1446
33617W        W40217  18.370   1.863  15.094  0.1556  0.1907  0.1465
33618W        W40218  16.253   6.259  40.341 -0.3403 -0.0111 -0.1435
33619W        W40219   0.906   1.239  11.468 -0.0769 -0.1944 -0.0877
33620W        W40220  16.005   5.223  18.484  0.0516 -0.4952  0.0614
33621W        W40221  20.490   1.625  35.650 -0.0660  0.0921  0.1844
33622W        W40222   4.253   1.163  44.268 -0.0472 -0.0079  0.0439
33623W        W40223  18.033   4.111  15.247  0.0561 -0.2086  0.0576
33624W        W40224  17.933   3.550   7.642  0.1850 -0.0520  0.0376
33625W        W40225  17.666   3.981  31.813  0.1664 -0.0097  0.0692
33626W        W40226   0.913   0.792  39.087 -0.0663  0.1206  0.1178
33627W        W40227   3.297   0.137  33.654  0.0399  0.0643 -0.0779
33628W        W40228  11.648   2.579   5.022 -0.0454  0.1456 -0.0361
33629W        W40229  18.966   5.525  18.566  0.1375 -0.0654 -0.3042
33630W        W40230  12.135   0.929  20.483  0.1821 -0.0696 -0.0966
33631W        W40231  20.501   2.441  41.430 -0.2603 -0.2998 -0.2751
33632W        W40232   2.213   0.705  35.691  0.0587  0.2527 -0.1794
33633W        W40233   4.243   5.048  28.613 -0.2470 -0.0029 -0.0687
33634W        W40234  17.684   1.533   1.209  0.0536 -0.1981  0.1328
33635W        W40235  15.021   0.218  22.931  0.2246  0.0003 -0.0823
33636W        W40236  20.680   5.477  14.389 -0.2367 -0.1576 -0.0498
33637W        W40237  12.811   2.849   5.834  0.0745  0.0611  0.0537
33638W        W40238  16.714   5.518  15.240  0.4226  0.0296  0.1519
33639W        W40239   3.781   3.682  20.536 -0.2312  0.1736 -0.0273
33640W        W40240   4.328   2.147  38.725  0.0717 -0.0473  0.1003
33641W        W40241  11.108   3.303  44.793 -0.0694 -0.4874  0.1190
33642W        W40242   7.836   6.129  29.583 -0.2415 -0.0216 -0.1625
33643W        W40243  19.639   1.181  39.069  0.0040  0.0563  0.0122
33644W        W40244  16.332   0.517  14.745 -0.1389 -0.0061 -0.1130
33645W        W40245   5.934   5.207  34.817 -0.1940  0.2003 -0.0827
33646W        W40246  12.508   1.300   9.870  0.0943 -0.1641 -0.0343
33647W        W40247  19.716   2.200   2.053 -0.0036 -0.0007 -0.0158
33648W        W40248  13.566   3.619  10.483 -0.1457 -0.0642  0.1403
33649W        W40249   7.433   6.560  44.146  0.1016  0.2270 -0.0398
33650W        W40250  11.972   2.705  10.786  0.2786 -0.0826  0.0269
33651W        W40251  17.289   1.922  18.101  0.0213  0.1442  0.0772
33652W        W40252  11.340   3.887  42.851  0.2241 -0.1090 -0.0593
33653W        W40253  14.585   0.887  32.235 -0.1990  0.0615  0.3381
33654W        W40254   0.655   2.924  34.410 -0.0004  0.1726  0.1949
33655W        W40255  11.252   2.613  40.380  0.1700 -0.0715  0.3388
33656W        W40256   3.363   5.744  37.321  0.1696  0.0314 -0.2726
33657W        W40257  16.890   0.240   1.139 -0.1360  0.0781  0.0781
33658W        W40258  20.960   5.189  14.646 -0.0267 -0.6130 -0.5738
33659W        W40259  18.432   0.371  12.408 -0.0642 -0.2344 -0.2090
33660W        W40260  19.944   5.839  18.528 -0.2490 -0.2919  0.2384
33661W        W40261   3.949   2.424  44.840  0.0956 -0.2571 -0.1357
33662W        W40262   6.031   3.687  25.618  0.1185 -0.1403 -0.0557
33663W        W40263   4.032   0.099  29.195  0.1710 -0.0937  0.1133
33664W        W40264   7.491   0.957  40.346 -0.3883 -0.0266 -0.0270
33665W        W40265  16.291   5.123  20.934 -0.2194  0.2536 -0.0938
33666W        W40266   4.137   5.972  13.313  0.4140  0.0145  0.0565
33667W        W40267  16.517   4.453   3.382  0.1448  0.1804  0.2619
33668W        W40268   7.804   4.115  16.935 -0.1361 -0.1776  0.0775
33669W        W40269   3.553   3.281  25.156 -0.3975  0.0096  0.1698
33670W        W40270   6.556   1.173  42.947  0.1756 -0.2231  0.0536
33671W        W40271   1.025   1.887  35.766  0.0114 -0.1463 -0.0229
33672W        W40272  14.202   5.250  16.030 -0.2153 -0.3161  0.3594
33673W        W40273   3.194   3.737  14.743 -0.0956 -0.2486  0.0601
33674W        W40274   2.253   1.888  15.288 -0.1380 -0.1312 -0.1440
33675W        W40275  16.010   1.822  38.870  0.4036  0.1657  0.0647
33676W        W40276   8.143   0.469  36.214  0.0357  0.2567 -0.1417
33677W        W40277  13.286   0.531  14.981 -0.1011  0.1307 -0.0570
33678W        W40278  12.511   0.565  37.336 -0.1602  0.1106 -0.1090
33679W        W40279  14.271   2.281  35.941  0.2263 -0.1754 -0.0204
33680W        W40280   4.061   2.057   7.438 -0.0223 -0.0101  0.0552
33681W        W40281  19.397   4.274  40.587 -0.3559 -0.1384 -0.0941
33682W        W40282  15.306   3.468  12.992 -0.0644 -0.1814 -0.2289
33683W        W40283   2.415   3.955   9.184  0.1185  0.0216 -0.1634
33684W        W40284   7.190   4.673   0.319  0.0450 -0.0732 -0.1146
33685W        W40285   2.450   2.623   5.428  0.0890  0.0931  0.3505
33686W        W40286  13.155   0.912  39.405 -0.0769 -0.2958  0.1973
33687W        W40287   5.512   2.485  33.230 -0.0180 -0.0854 -0.4265
33688W        W40288  10.145   5.109  33.842 -0.1179 -0.0590 -0.1107
33689W        W40289   9.767   2.865  41.429  0.1273 -0.2912  0.2632
33690W        W40290   2.322   4.891  41.825 -0.2196 -0.2360  0.0750
33691W        W40291  14.908   1.818  29.362  0.1751  0.3120  0.3203
33692W        W40292  18.424   0.924  16.490 -0.3401  0.1416  0.1669
33693W        W40293  15.939   5.930  29.282 -0.0640 -0.2162 -0.1570
33694W        W40294   2.134   3.534  22.063  0.1354  0.1191  0.0840
33695W        W40295  19.770   5.378  38.111  0.1817 -0.1384  0.0900
33696W        W40296   3.034   0.031  21.001 -0.0203 -0.0511  0.1027
33697W        W40297   8.917   1.300  15.107 -0.1768 -0.0184  0.1434
33698W        W40298   3.915   5.376  41.007 -0.0606 -0.1902  0.0463
33699W        W40299   3.013   3.264  21.043 -0.1444  0.1683  0.1938
33700W        W40300  11.680   2.752  36.201  0.1816 -0.2622 -0.0638
33701W        W40301  11.136   2.580  34.059  0.0004  0.1231 -0.0388
33702W        W40302  18.576   1.743  45.105  0.1638  0.1532 -0.1424
33703W        W40303   7.028   5.424  29.553 -0.1657 -0.2029  0.1850
33704W        W40304   2.182   2.717  26.482  0.0128 -0.3939 -0.1378
33705W        W40305   9.948   2.123   6.603 -0.0356 -0.2782 -0.1032
33706W        W40306   3.901   3.205  30.088  0.2051  0.3638  0.2160
33707W        W40307  14.186   0.810  35.992 -0.1727 -0.1239  0.2554
33708W        W40308  15.050   5.242  43.167  0.2196 -0.1311 -0.0237
33709W        W40309   1.620   5.717  23.173  0.0365 -0.1907  0.1138
33710W        W40310   6.658   3.725   2.606 -0.0769  0.1414 -0.2306
33711W        W40311  13.620   1.234  11.966  0.3968  0.1152 -0.1567
33712W        W40312  14.633   4.558  44.303  0.1884  0.4812  0.0966
33713W        W40313   2.934   3.951  34.375 -0.1957 -0.0993  0.1365
33714W        W40314  18.444   5.394  18.396 -0.0580 -0.1217  0.1418
33715W        W40315  16.660   1.867   5.525 -0.2099  0.0206  0.1572
33716W        W40316   4.430   4.555  35.893 -0.4271  0.0409  0.1800
33717W        W40317   1.577   3.858   9.363 -0.0525 -0.2612  0.2421
33718W        W40318  17.965   0.761   9.839  0.0147 -0.1078  0.0820
33719W        W40319   4.802   4.993  12.503 -0.1350  0.2845  0.0918
33720W        W40320  17.055   3.262   6.356 -0.0257 -0.1562 -0.0036
33721W        W40321  11.193   1.870  15.577 -0.1325 -0.0578 -0.1845
33722W        W40322   8.766   4.802  33.564  0.2588  0.1133  0.2858
33723W        W40323   0.725   6.472  25.544  0.0665  0.4488 -0.0891
33724W        W40324   0.851   4.157  10.816  0.0219  0.0332  0.1563
33725W        W40325   8.173   0.823   9.827 -0.0205  0.2670  0.0236
33726W        W40326  14.548   4.683  31.732 -0.0179  0.0886  0.1306
33727W        W40327  17.812   1.361  41.187  0.1020  0.0839  0.2294
33728W        W40328  11.422   3.035  35.698 -0.1212  0.1454 -0.3502
33729W        W40329  19.780   0.698  13.075  0.1675  0.1538  0.1948
33730W        W40330  14.671   3.541   9.284 -0.2955  0.0457  0.0989
33731W        W40331  15.637   3.855   3.507  0.2600 -0.1801  0.1193
33732W        W40332  10.490   4.526  12.125  0.0764  0.2067 -0.3758
33733W        W40333   0.011   2.249  34.141 -0.1944 -0.2986  0.2852
33734W        W40334  19.896   3.884  43.158  0.0354 -0.2627  0.1406
33735W        W40335  19.734   5.916   5.999 -0.0232 -0.3800  0.0292
33736W        W40336   1.488   4.542  30.298  0.0644  0.0485 -0.0875
33737W        W40337   5.594   1.020   4.433 -0.1037  0.3335 -0.1626
33738W        W40338   0.157   3.949  27.089 -0.0407 -0.1990 -0.1477
33739W        W40339   8.361   3.971  14.565 -0.2541  0.2123 -0.0539
33740W        W40340   3.802   4.808  11.217 -0.0644 -0.2879  0.0959
33741W        W40341   5.380   5.873  14.627 -0.0226  0.1302  0.1259
33742W        W40342  12.103   2.621  10.327 -0.1243  0.3684  0.1835
33743W        W40343   2.460   1.895  29.197 -0.1540  0.3288  0.0105
33744W        W40344  14.791   6.602  21.431 -0.0991  0.0388  0.2938
33745W        W40345  14.241   3.604   9.080 -0.2279 -0.2397 -0.2419
33746W        W40346  16.045   0.375  41.850  0.2478 -0.2022 -0.3066
33747W        W40347   3.668   0.744   5.781 -0.0664  0.3980  0.1320
33748W        W40348   4.689   1.847  31.724 -0.1279 -0.2979  0.0596
33749W        W40349  20.502   6.552  44.809  0.3159  0.2443  0.3381
33750W        W40350  10.043   6.363  14.248  0.1989  0.2111 -0.0050
33751W        W40351   2.437   3.591  12.208  0.0452  0.2626 -0.0323
33752W        W40352  12.755   5.899  13.243  0.2881  0.1106 -0.2920
33753W        W40353  15.882   0.162  29.678 -0.0044 -0.2182  0.0958
33754W        W40354   8.356   5.177   8.094  0.0341 -0.1604  0.1005
33755W        W40355   4.468   1.393  32.690  0.0273 -0.1610 -0.1684
33756W        W40356   2.866   1.341  42.415 -0.2330 -0.3796  0.0330
33757W        W40357  15.794   2.888  33.066 -0.2815  0.0618  0.2715
33758W        W40358   5.594   6.237  33.291 -0.1456  0.2194  0.2275
33759W        W40359  19.980   0.354  17.883 -0.0896 -0.1492 -0.2830
33760W        W40360   2.617   0.308  32.808  0.0447  0.1184 -0.0888
33761W        W40361   6.685   6.144  45.077 -0.3102  0.0847 -0.0839
33762W        W40362  18.571   4.693  13.198  0.2367 -0.0893  0.1440
33763W        W40363   4.250   4.498   4.692 -0.2572  0.0852  0.1265
33764W        W40364  14.781   5.217  43.668  0.0510  0.0960  0.0734
33765W        W40365  13.414   4.498  17.547  0.1017 -0.0519  0.1690
33766W        W40366   2.703   5.311   7.719  0.0425 -0.2940 -0.0669
33767W        W40367  16.836   1.174  12.176 -0.0311 -0.2581 -0.0697
33768W        W40368  11.336   3.940  20.006 -0.1203  0.1149 -0.1864
33769W        W40369  19.388   3.944  30.916 -0.3820 -0.1951 -0.2626
33770W        W40370  19.781   2.676  38.349  0.2763 -0.0672  0.1131
33771W        W40371  14.834   1.774  16.706  0.0818 -0.0926  0.0130
33772W        W40372   7.113   5.128  29.176 -0.1367  0.2664  0.1863
33773W        W40373  14.599   4.511  13.098 -0.0866 -0.1889 -0.0635
33774W        W40374   8.423   2.158  16.257 -0.1190 -0.3583 -0.1560
33775W        W40375  20.918   3.380  25.422  0.3249  0.1398  0.2416
33776W        W40376  18.515   5.018   6.653 -0.1660  0.1164  0.2561
33777W        W40377   9.301   2.103  38.792 -0.2228  0.2224 -0.1586
33778W        W40378   6.159   3.566  27.480 -0.0889  0.1366  0.0596
33779W        W40379  12.759   1.866  14.927  0.1375  0.0638  0.0493
33780W        W40380  15.876   4.343  43.095 -0.0227 -0.0393 -0.2639
33781W        W40381  18.426   4.238  40.753  0.0536 -0.0471 -0.2573
33782W        W40382   5.139   3.012  20.714  0.2544 -0.0289  0.2540
33783W        W40383   1.418   3.754  25.923  0.1303 -0.1781  0.2930
33784W        W40384   0.047   5.911  25.720 -0.1210 -0.2722  0.3946
33785W        W40385  11.921   2.405  41.875 -0.1094 -0.0786  0.0343
33786W        W40386   7.359   1.171  43.454  0.0403 -0.0540 -0.0986
33787W        W40387   5.995   2.135   1.367 -0.0376 -0.1355 -0.0376
33788W        W40388  15.585   1.707  15.990  0.1674  0.1958 -0.1219
33789W        W40389   1.593   2.648  24.036  0.0921 -0.1803 -0.2016
33790W        W40390   5.032   1.676   1.039  0.3602 -0.0155  0.1104
33791W        W40391  13.587   3.954  16.628  0.0368 -0.1253  0.0273
33792W        W40392   6.308   2.325  45.071  0.5060  0.2801  0.0933
33793W        W40393  19.924   2.743  13.677 -0.1105 -0.2500  0.1040
33794W        W40394   3.611   5.263  13.858 -0.0247  0.1712 -0.0232
33795W        W40395  15.642   0.633  14.960  0.0468  0.2596 -0.1644
33796W        W40396  18.481   2.789   4.085  0.2157  0.0225 -0.0095
33797W        W40397   6.587   5.813  29.191  0.0072  0.3395 -0.0216
33798W        W40398   5.979   2.868  12.176  0.3292  0.0649 -0.3930
33799W        W40399  16.931   5.198  37.438 -0.1473 -0.0807 -0.0752
33800W        W40400  12.238   4.322  30.737 -0.1924  0.0185  0.1157
33801W        W40401  19.039   6.248  11.592  0.2125  0.0466 -0.2499
33802W        W40402   2.333   5.101  11.075  0.1024 -0.2628 -0.1748
33803W        W40403   5.110   5.327  43.427 -0.0012  0.2004 -0.1237
33804W        W40404   0.134   5.473   6.394 -0.1045 -0.0458 -0.1229
33805W        W40405  19.606   4.670  38.831  0.1018 -0.2060 -0.3972
33806W        W40406   5.468   2.601  42.722 -0.2746 -0.0452  0.0820
33807W        W40407  14.661   0.218  35.351 -0.0450  0.1663 -0.0880
33808W        W40408   8.222   0.862  27.590 -0.0518  0.0990  0.0684
33809W        W40409  18.126   3.971  19.555  0.2249 -0.0810 -0.2130
33810W        W40410   0.744   0.736  29.419  0.1558  0.0768  0.3299
33811W        W40411   2.008   3.532  26.210  0.0854 -0.1883  0.1744
33812W        W40412   7.890   3.729  34.289 -0.3073 -0.0449 -0.0388
33813W        W40413  17.141   6.088  44.646  0.1338  0.3454  0.1750
33814W        W40414   4.586   3.716  37.636  0.2406  0.1406  0.1772
33815W        W40415  17.214   4.433  16.111 -0.0824  0.1132 -0.0063
33816W        W40416   7.033   4.628  29.767 -0.1415  0.0251  0.0907
33817W        W40417   9.260   3.324  42.769  0.2096 -0.2424 -0.1787
33818W        W40418   8.958   6.004  14.242  0.2546  0.3618  0.1796
33819W        W40419   3.251   3.774  21.593  0.3686 -0.1151  0.3948
33820W        W40420   5.355   4.343  11.207 -0.1571  0.3556 -0.0878
33821W        W40421  10.729   2.073   8.996 -0.1697 -0.1249  0.1669
33822W        W40422  17.100   4.490  13.131  0.1396  0.1385 -0.5126
33823W        W40423   7.239   0.286   1.107 -0.0724  0.0689 -0.1294
33824W        W40424  18.267   2.894   5.776 -0.2217  0.1306 -0.1323
33825W        W40425   7.546   0.189  27.560 -0.4195 -0.0625 -0.0555
33826W        W40426   6.513   1.968  14.392  0.1571  0.4378  0.3291
33827W        W40427   5.420   5.686  12.229  0.0806 -0.1299 -0.0459
33828W        W40428  16.813   0.429  29.018 -0.1965 -0.3584 -0.1876
33829W        W40429   7.271   6.199  14.013 -0.0331 -0.3460  0.1205
33830W        W40430   0.115   3.603   5.823 -0.1582  0.0760 -0.0919
33831W        W40431   8.540   1.331  26.758  0.0569 -0.1125 -0.1208
33832W        W40432  15.465   3.248  19.736 -0.0830  0.2537  0.4768
33833W        W40433   1.090   4.594   3.905 -0.0372 -0.0699 -0.2439
33834W        W40434  19.443   1.951  38.776 -0.3806 -0.2985  0.1226
33835W        W40435   2.810   5.330  37.213 -0.1188  0.1107  0.1470
33836W        W40436   9.327   6.063  39.123  0.1431  0.1254  0.0353
33837W        W40437   1.789   0.861  40.205 -0.3057 -0.4090 -0.0518
33838W        W40438  13.549   4.947  43.518 -0.0228 -0.0050 -0.0359
33839W        W40439   0.300   6.304  42.540 -0.0145  0.1290  0.0722
33840W        W40440  12.170   1.791  20.456  0.1692  0.1347 -0.0027
33841W        W40441  16.378   1.948  34.778 -0.1283  0.0646 -0.2261
33842W        W40442   0.506   3.951  30.332  0.3234  0.1530 -0.0617
33843W        W40443  16.466   3.914  17.971  0.0857 -0.1298 -0.1556
33844W        W40444  18.442   2.613  35.356  0.3903 -0.0975 -0.0830
33845W        W40445   3.762   1.318  41.451  0.1253 -0.1551 -0.1124
33846W        W40446  18.058   1.652  33.512 -0.2827 -0.1789 -0.0131
33847W        W40447   7.339   4.863  36.811 -0.2861 -0.1249 -0.1754
33848W        W40448  19.860   4.563   4.572 -0.1593 -0.0339 -0.0528
33849W        W40449  10.337   0.523  29.793  0.2587  0.1702  0.0880
33850W        W40450  16.264   3.107   1.171 -0.0148  0.0626  0.1275
33851W        W40451  10.871   4.103  35.468 -0.0163 -0.0745 -0.4230
33852W        W40452  11.726   0.170   9.805 -0.0722 -0.0330 -0.3152
33853W        W40453  10.218   2.028  33.146 -0.0006 -0.0265 -0.0021
33854W        W40454   1.805   0.646   7.665 -0.4340  0.0503 -0.2137
33855W        W40455   5.293   0.082  37.232 -0.0411 -0.0529  0.0139
33856W        W40456   0.741   2.225  38.321 -0.2448  0.0070 -0.1298
33857W        W40457   8.994   6.490  15.104 -0.1661 -0.0318 -0.1166
33858W        W40458  11.637   5.735  34.588  0.3970 -0.2565 -0.4892
33859W        W40459   4.369   4.348  41.417 -0.2010 -0.0064  0.1480
33860W        W40460   5.500   4.219   5.209  0.0337 -0.0121  0.0141
33861W        W40461   9.459   5.280   5.533  0.1244 -0.2131  0.2898
33862W        W40462  18.974   5.997   4.688 -0.3638 -0.0947  0.4403
33863W        W40463   4.203   3.285  13.144 -0.1615 -0.2340  0.1381
33864W        W40464  15.285   1.637  14.768  0.2378 -0.0529 -0.2228
33865W        W40465  16.089   5.103   7.955 -0.0344 -0.3301 -0.1720
33866W        W40466   2.718   1.552   2.722 -0.1071 -0.3152  0.2150
33867W        W40467  20.446   2.410  32.793  0.0623  0.2136  0.3704
33868W        W40468   9.177   6.596  36.555  0.0979  0.0856  0.0265
33869W        W40469   7.790   4.096  39.968  0.3158 -0.0959 -0.1719
33870W        W40470  11.197   4.855  43.125 -0.2718  0.2661 -0.1239
33871W        W40471   6.971   3.837  25.584 -0.2789 -0.2016  0.1827
33872W        W40472  17.879   2.599  31.193 -0.1104  0.0233  0.1794
33873W        W40473   9.203   0.977   6.520  0.1349  0.3061  0.0850
33874W        W40474   2.804   0.755  15.490  0.2919 -0.1347 -0.3254
33875W        W40475   9.462   1.269   5.146 -0.0872 -0.4045  0.0295
33876W        W40476   6.390   0.945  29.071  0.1604 -0.0706  0.1585
33877W        W40477   6.857   4.945   1.087  0.5172  0.1012 -0.3755
33878W        W40478  11.351   3.127  43.452 -0.2722 -0.2739  0.3448
33879W        W40479  17.245   3.846  16.880  0.3183  0.1347  0.3521
33880W        W40480  14.632   2.163   6.380  0.0025  0.1055 -0.0722
33881W        W40481   3.050   4.453  22.822 -0.0141  0.0458 -0.0957
33882W        W40482  20.695   0.320   9.969  0.0795  0.1629 -0.0583
33883W        W40483   0.277   2.655  16.059  0.1486 -0.2894 -0.1927
33884W        W40484  19.866   3.619   1.843  0.1464 -0.0990 -0.2077
33885W        W40485  15.486   2.642  13.931 -0.2544  0.0702  0.1714
33886W        W40486  20.262   5.966  38.728  0.1971 -0.3807  0.2076
33887W        W40487  20.827   4.946  37.460  0.2700  0.2948 -0.1127
33888W        W40488  19.898   3.951  31.113  0.2808  0.3172  0.1780
33889W        W40489  13.687   4.394  16.389 -0.2144 -0.3478  0.1698
33890W        W40490   3.614   1.417   1.499  0.1505 -0.0437 -0.2695
33891W        W40491  17.247   1.471  31.538 -0.1928  0.1093 -0.3318
33892W        W40492  12.266   1.908  21.439 -0.3585  0.3494  0.1800
33893W        W40493   1.292   4.905  41.851 -0.1001  0.3309  0.1321
33894W        W40494  10.486   6.102   9.780  0.1003  0.0079  0.1682
33895W        W40495   4.438   0.549   0.268 -0.1566 -0.0404 -0.0984
33896W        W40496   6.729   2.730  42.996 -0.1203  0.0864 -0.2863
33897W        W40497   7.250   0.427   4.556  0.0934  0.1787 -0.0950
33898W        W40498   6.882   2.910  37.749 -0.1913 -0.0093  0.3283
33899W        W40499   6.414   4.228  40.647  0.0663  0.4809 -0.3148
33900W        W40500  10.062   1.408  36.803 -0.0236  0.0461 -0.2116
33901W        W40501  11.698   2.215   3.471 -0.1451  0.1376  0.0734
33902W        W40502  14.368   5.128   8.565 -0.0603  0.3858  0.0354
33903W        W40503   3.454   5.816  15.313  0.0848  0.1108 -0.2977
33904W        W40504  20.698   4.038  39.508  0.0168 -0.2022  0.1508
33905W        W40505   5.758   0.055  36.495 -0.1882 -0.0079 -0.0695
33906W        W40506  19.834   4.932  30.048 -0.4098 -0.3025  0.0056
33907W        W40507   0.972   1.105  12.615  0.0935 -0.0532 -0.1758
33908W        W40508  15.416   1.507   0.752 -0.0852 -0.0987  0.0707
33909W        W40509  13.243   5.882  19.372 -0.3735  0.3496 -0.3002
33910W        W40510   1.797   5.542  31.935 -0.2193 -0.0146 -0.1686
33911W        W40511  19.199   5.900   7.661 -0.2026 -0.0963 -0.1741
33912W        W40512  11.598   4.761  40.231 -0.4290  0.1704 -0.4275
33913W        W40513   9.343   4.327   1.389 -0.2239 -0.0736 -0.2291
33914W        W40514  12.435   6.602   7.911 -0.0368  0.1734  0.2205
33915W        W40515  11.430   0.366  30.363 -0.0542  0.3109 -0.0309
33916W        W40516  10.889   3.039  31.511  0.0473 -0.0705 -0.1975
33917W        W40517   1.767   3.743  14.091 -0.1921 -0.0606 -0.2149
33918W        W40518   0.263   0.037  35.192 -0.2353  0.2156  0.0904
33919W        W40519  15.946   3.119  36.630 -0.3456  0.0289  0.0907
33920W        W40520  12.290   5.175  12.093 -0.1272 -0.3155 -0.2609
33921W        W40521  20.780   0.882   1.091 -0.4393  0.2056 -0.1678
33922W        W40522   1.144   4.061  26.669 -0.0144  0.0657 -0.0096
33923W        W40523  12.475   1.646  34.951  0.3108  0.1934  0.2371
33924W        W40524  15.629   0.152  21.801  0.2313  0.2558  0.2335
33925W        W40525   1.216   4.440  41.063  0.0932 -0.2577  0.1455
33926W        W40526  19.831   3.989  30.550 -0.1879  0.0333  0.2335
33927W        W40527  11.152   0.464  41.897 -0.0320  0.1715 -0.0623
33928W        W40528   4.349   3.499  28.782 -0.1073 -0.0331 -0.0646
33929W        W40529  10.104   1.475  29.690  0.0018  0.2367  0.1259
33930W        W40530  16.520   2.594  30.466 -0.0706  0.1624 -0.0461
33931W        W40531  21.120   4.415  11.681  0.0552  0.1460  0.1201
33932W        W40532  20.263   4.209  12.659 -0.1284  0.0075  0.0342
33933W        W40533   7.246   0.834  29.454 -0.1770 -0.0976 -0.3114
33934W        W40534  16.713   2.623  11.325 -0.0946  0.0277 -0.0160
33935W        W40535   6.132   5.219  12.008  0.0039  0.1011  0.1985
33936W        W40536  12.776   0.232  32.231 -0.1108  0.1776  0.0257
33937W        W40537   7.018   3.882  16.593 -0.3260  0.2787  0.1206
33938W        W40538   7.293   3.870   8.935  0.0356  0.1245  0.0154
33939W        W40539   6.652   2.937  14.015 -0.0633  0.2911  0.2313
33940W        W40540   4.284   2.206  12.283  0.0366 -0.1455  0.2480
33941W        W40541  11.406   3.548  10.627  0.0814  0.0572  0.2839
33942W        W40542   6.036   5.066  32.737  0.2428 -0.1614  0.1268
33943W        W40543  12.153   3.487  37.457 -0.0118  0.0977  0.0184
33944W        W40544  12.341   2.249  29.080  0.3322  0.0655  0.0865
33945W        W40545  11.910   1.458  29.084  0.0238  0.1820  0.1147
33946W        W40546  17.326   0.592   6.482 -0.2398  0.2111  0.0932
33947W        W40547   0.988   1.670  43.809 -0.0093  0.2862  0.2127
33948W        W40548   4.562   6.513   7.611 -0.2936  0.3195 -0.0624
33949W        W40549   7.588   1.402  35.073  0.2517  0.1413  0.2618
33950W        W40550   0.472   1.866  37.411  0.0333  0.4255 -0.0240
33951W        W40551   0.218   2.116  26.512 -0.2611 -0.1003  0.0961
33952W        W40552  10.104   0.412   5.544 -0.0725 -0.0808  0.2258
33953W        W40553  10.971   5.117  39.084 -0.0022 -0.0301 -0.2688
33954W        W40554  16.392   2.857  10.675  0.0776 -0.0520  0.0095
33955W        W40555  19.568   2.811  44.021  0.1067 -0.3979  0.2849
33956W        W40556  14.038   3.478  18.778  0.0899 -0.0206  0.6933
33957W        W40557  15.487   6.448  41.051 -0.0878 -0.1220  0.2028
33958W        W40558  16.112   1.979   3.095  0.0601 -0.0689  0.0898
33959W        W40559  12.033   2.090  17.963 -0.1197 -0.2057  0.2059
33960W        W40560  12.826   0.621  39.107 -0.1107 -0.2390  0.1404
33961W        W40561  18.928   2.074  13.384  0.1892 -0.1634 -0.3409
33962W        W40562   3.600   3.886  38.784 -0.1667  0.0693  0.2930
33963W        W40563  13.103   0.157  29.488 -0.1319 -0.2497  0.0745
33964W        W40564   8.433   1.296  15.131  0.2574  0.0099  0.1982
33965W        W40565  15.692   6.577  41.506 -0.2208  0.1187  0.3891
33966W        W40566  19.403   2.875  44.483 -0.0714  0.3140 -0.1593
33967W        W40567   0.188   1.549  40.268  0.0625 -0.3820 -0.3278
33968W        W40568   2.227   1.270  26.876 -0.1967  0.2063 -0.0616
33969W        W40569  20.362   0.390  43.410  0.0667 -0.0203 -0.0088
33970W        W40570   3.536   3.250  22.381 -0.0305  0.1648  0.4263
33971W        W40571   6.728   5.261  10.707  0.1897 -0.1902 -0.0034
33972W        W40572   8.579   0.210  30.730 -0.1066 -0.2373 -0.0980
33973W        W40573   2.705   0.120   8.205  0.1763  0.0087  0.0076
33974W        W40574  13.578   1.634  33.944  0.0538  0.1403 -0.0114
33975W        W40575   0.901   2.891  16.672 -0.0263 -0.2392 -0.1697
33976W        W40576  10.188   2.116  13.460  0.0044 -0.0590  0.0827
33977W        W40577   5.247   0.577  35.995 -0.0291 -0.1830 -0.0737
33978W        W40578  18.492   0.630   4.542  0.1385  0.1137 -0.0446
33979W        W40579  17.105   1.094   8.144 -0.1189 -0.0032 -0.0952
33980W        W40580  20.524   6.443  26.254  0.1543  0.0527  0.0237
33981W        W40581   2.318   0.498   0.382 -0.4528  0.2922  0.0032
33982W        W40582  16.200   1.362   0.503  0.0592 -0.0200  0.0386
33983W        W40583  20.024   5.497  39.096  0.0507 -0.4218 -0.3625
33984W        W40584  13.613   5.064  21.348  0.3869 -0.1970 -0.0093
33985W        W40585  11.433   5.461  38.726  0.0640  0.3680 -0.1984
33986W        W40586  13.969   2.109  22.765  0.2664 -0.2177 -0.1161
33987W        W40587  20.468   6.179   1.159 -0.1866 -0.2668  0.0183
33988W        W40588   7.055   3.477  27.800 -0.0859  0.0163 -0.0172
33989W        W40589   5.309   1.915   7.907  0.4947 -0.0315  0.0854
33990W        W40590   3.605   4.628  36.163  0.0410  0.0990 -0.1525
33991W        W40591  12.422   5.115   6.513 -0.0320  0.0825  0.0301
33992W        W40592   4.057   5.644  33.932  0.1175  0.0889 -0.0063
33993W        W40593  10.250   6.220  12.885  0.3227  0.0248  0.0775
33994W        W40594   4.720   4.544   5.518 -0.1230 -0.1018 -0.0337
33995W        W40595  18.482   6.498  10.776  0.3391 -0.1000 -0.2086
33996W        W40596  20.410   5.044   1.744 -0.0940 -0.1161 -0.1267
33997W        W40597  15.028   5.954  18.458  0.1539  0.0803 -0.2392
33998W        W40598   2.587   6.425  26.052 -0.0912  0.1103  0.0698
33999W        W40599  10.698   1.409   1.031 -0.2320  0.0851 -0.3806
34000W        W40600  11.980   0.698   1.388 -0.0733 -0.1422  0.4047
34001W        W40601  16.860   5.115  33.979  0.0944  0.1600  0.0479
34002W        W40602  14.434   6.118  37.664  0.0339  0.0071  0.2679
34003W        W40603  18.471   3.953  29.466 -0.1889  0.1114  0.1874
34004W        W40604   1.814   3.203   5.608  0.1406 -0.2612 -0.0397
34005W        W40605  10.368   4.160  34.323 -0.0770  0.0481  0.0557
34006W        W40606  20.207   2.021  41.926  0.2117 -0.0662  0.0752
34007W        W40607  15.579   4.241  11.299 -0.1002 -0.0838 -0.1371
34008W        W40608   8.633   4.985   6.309  0.0944 -0.1763  0.0241
34009W        W40609   6.048   4.328  22.727  0.0335 -0.0333 -0.1106
34010W        W40610   6.201   3.062  35.113  0.1158  0.1239 -0.0582
34011W        W40611   9.590   2.294  15.927  0.2508 -0.1711  0.1659
34012W        W40612   6.731   2.050  24.049  0.4435 -0.3489 -0.1355
34013W        W40613  17.532   5.484  20.192  0.0106 -0.0916 -0.0362
34014W        W40614   3.606   6.560   6.738  0.1161  0.2196  0.2371
34015W        W40615   6.897   3.216  29.250 -0.2107  0.1186  0.1632
34016W        W40616   0.034   4.201   0.183  0.2189  0.1185 -0.1111
34017W        W40617  14.924   5.295  30.658 -0.2700  0.0864 -0.0307
34018W        W40618  10.252   2.672  18.822  0.1258  0.2664  0.0224
34019W        W40619  19.861   3.759  16.933 -0.2320  0.1177 -0.3179
34020W        W40620  13.993   2.712   6.870 -0.2645  0.0248 -0.0937
34021W        W40621   7.268   0.813   3.169 -0.0237  0.0075 -0.0169
34022W        W40622  18.457   3.171  42.071  0.0272  0.1783 -0.2154
34023W        W40623   2.785   2.580  22.678  0.2460  0.4226 -0.0493
34024W        W40624   0.342   0.810  31.070 -0.1256  0.4147 -0.0005
34025W        W40625   8.509   4.196  38.238  0.3024  0.2126 -0.0790
34026W        W40626   7.652   5.954  33.601  0.1243 -0.0700  0.1133
34027W        W40627   7.875   5.681  14.875 -0.0697 -0.0937  0.0554
34028W        W40628  18.241   5.806  34.200  0.2853  0.2898  0.0534
34029W        W40629   1.928   6.029   6.219 -0.1247 -0.1509  0.2188
34030W        W40630  14.422   4.527  43.563 -0.0131 -0.2421  0.0693
34031W        W40631   2.136   3.403  25.647 -0.2558 -0.0647 -0.1713
34032W        W40632  17.485   4.619   6.816  0.2356 -0.1273 -0.0580
34033W        W40633   1.212   4.354  28.503  0.0047 -0.1341  0.0918
34034W        W40634  16.523   2.015  44.566 -0.1437  0.0325  0.0763
34035W        W40635   6.891   5.037  24.899 -0.1967 -0.0339 -0.3099
34036W        W40636   5.733   1.440  25.253 -0.1219 -0.1105  0.1859
34037W        W40637  17.758   4.604  37.280 -0.1828 -0.1240  0.0676
34038W        W40638   2.604   1.590   4.504 -0.0595  0.1195  0.2223
34039W        W40639   3.015   0.183   5.270  0.1068 -0.2478 -0.1024
34040W        W40640   4.160   4.519  26.397  0.2335 -0.2875  0.1831
34041W        W40641   6.869   1.162   3.408 -0.1300 -0.0944  0.0192
34042W        W40642   6.850   1.384  34.146  0.1151  0.2464 -0.1407
34043W        W40643   6.774   3.270   9.837 -0.3125 -0.1243 -0.0505
34044W        W40644   5.854   5.675  11.142  0.0274  0.1537  0.0572
34045W        W40645  10.492   1.008  38.937 -0.2816 -0.0065  0.0869
34046W        W40646   9.874   2.169  28.319 -0.4376 -0.1220 -0.2318
34047W        W40647  15.724   4.637  33.045  0.1452  0.0712 -0.0599
34048W        W40648  12.899   0.373  41.670  0.1098 -0.0173  0.1632
34049W        W40649  14.028   1.117  24.273  0.1359 -0.1520 -0.1129
34050W        W40650   7.187   0.327  44.380  0.0961 -0.1803 -0.1268
34051W        W40651   5.848   0.214  24.735 -0.1022  0.0452  0.2880
34052W        W40652   6.157   1.293  14.967  0.1683  0.1151 -0.0732
34053W        W40653  10.949   6.461   0.835 -0.1020  0.0281 -0.1425
34054W        W40654   2.656   3.342  24.325 -0.1064 -0.0007 -0.1288
34055W        W40655   4.108   4.758  43.408 -0.0934  0.1795  0.1417
34056W        W40656   6.076   6.268  23.799  0.1199 -0.0941  0.0129
34057W        W40657  10.442   2.686  39.259  0.1121 -0.0803  0.0793
34058W        W40658   7.039   2.078   8.715  0.2326  0.0486 -0.0915
34059W        W40659   0.055   0.081  33.566 -0.1364 -0.1040  0.1162
34060W        W40660   4.534   1.663  23.730  0.0148  0.0440  0.1139
34061W        W40661  15.277   1.011  12.150 -0.0910 -0.2888 -0.2919
34062W        W40662   7.311   2.376  14.892  0.6291  0.0507 -0.2318
34063W        W40663  12.733   5.765  17.195  0.0064 -0.0147 -0.1773
34064W        W40664  14.653   5.825  33.096  0.0398 -0.0021  0.3113
34065W        W40665   7.558   2.577  43.857 -0.1764  0.0819 -0.0571
34066W        W40666   4.523   0.177  24.397  0.3334  0.3958 -0.3405
34067W        W40667  11.547   5.723  11.280  0.1955 -0.0118  0.1127
34068W        W40668  12.824   5.382   7.485 -0.2366  0.0541  0.3000
34069W        W40669   0.586   3.219  42.210  0.0668  0.0631 -0.1934
34070W        W40670   9.442   0.175  40.408  0.4681 -0.0320 -0.0449
34071W        W40671  12.420   5.003   8.615 -0.1029 -0.0405 -0.0474
34072W        W40672  10.125   2.318  35.586  0.0438 -0.0883  0.0737
34073W        W40673  10.559   1.173  20.936  0.3378 -0.1145  0.0641
34074W        W40674  14.286   3.290  39.500  0.0151 -0.2421  0.1751
34075W        W40675  12.178   4.319  15.337  0.0000 -0.1642  0.2046
34076W        W40676   2.179   4.426  28.546 -0.2237 -0.0547  0.2222
34077W        W40677  20.723   3.840  12.863  0.0887 -0.1786 -0.0141
34078W        W40678  20.878   2.411  13.372 -0.0300 -0.0189 -0.0699
34079W        W40679   8.900   2.139   9.078  0.0291  0.0980 -0.1541
34080W        W40680   1.000   0.750  32.809  0.1411 -0.0161 -0.2271
34081W        W40681   4.891   0.918  12.027  0.2839  0.3554  0.1499
34082W        W40682   7.519   3.091  30.857  0.0585  0.2284  0.1002
34083W        W40683  12.230   6.412  32.920  0.1421 -0.1043 -0.1515
34084W        W40684  12.441   3.721   4.148 -0.0853 -0.0096  0.3064
34085W        W40685  16.837   5.717  17.587  0.0571 -0.0183 -0.0752
34086W        W40686   4.623   0.711  25.482  0.1945 -0.1258 -0.0588
34087W        W40687  13.840   0.918  21.781 -0.2589 -0.0622 -0.1709
34088W        W40688  18.226   5.521  34.640 -0.0204 -0.1691 -0.0560
34089W        W40689   9.470   0.151  44.167  0.0498 -0.2262  0.2477
34090W        W40690  15.872   0.486  16.047 -0.1230 -0.0677  0.1754
34091W        W40691   5.776   1.694  28.842 -0.0189  0.1066  0.1336
34092W        W40692  15.309   2.730  39.083  0.0018  0.0398 -0.0626
34093W        W40693  21.105   1.473   6.387 -0.1439 -0.1854  0.2110
34094W        W40694  11.373   2.693  31.407  0.0975 -0.0836 -0.3996
34095W        W40695   4.725   4.778  21.601  0.0077 -0.3473  0.0174
34096W        W40696  13.359   1.143  36.359  0.0012 -0.3411  0.0569
34097W        W40697  15.942   4.722  18.235 -0.2382 -0.0132  0.0500
34098W        W40698  11.622   3.266  19.081  0.1968  0.1329 -0.1519
34099W        W40699  16.477   3.047   6.261  0.1627  0.1048 -0.2489
34100W        W40700   5.868   0.971  11.267 -0.3578 -0.1709 -0.2422
34101W        W40701   0.250   0.125   8.723 -0.0408 -0.2858 -0.3914
34102W        W40702   7.825   3.060  37.865  0.1013 -0.0463  0.1338
34103W        W40703  14.390   6.481  33.643 -0.2135 -0.2097  0.3297
34104W        W40704  11.829   0.235  10.315 -0.2863 -0.0111  0.2123
34105W        W40705   5.018   2.364  42.954  0.2234 -0.2866 -0.1113
34106W        W40706   1.642   0.171   9.832 -0.0304  0.0567  0.0593
34107W        W40707  13.063   1.964  31.607 -0.0626  0.0307  0.2276
34108W        W40708  13.394   1.272  39.134  0.0473  0.0723  0.1063
34109W        W40709  17.430   3.247  38.035  0.1414 -0.1071 -0.2521
34110W        W40710   5.682   4.781  29.479  0.0694 -0.0118  0.1012
34111W        W40711  20.942   3.501  12.559  0.2602 -0.0176  0.2854
34112W        W40712  10.552   4.240  14.830 -0.2839 -0.0015 -0.3105
34113W        W40713   0.363   0.777  25.735 -0.2653 -0.2306 -0.0260
34114W        W40714   4.498   1.708  28.065 -0.0572 -0.3653 -0.2632
34115W        W40715  12.792   5.101   3.971  0.3015  0.1441  0.2737
34116W        W40716   6.486   3.893  30.272 -0.1537  0.0727 -0.2338
34117W        W40717   3.449   3.425  20.753  0.0168  0.1544  0.0883
34118W        W40718  15.540   6.529  36.846 -0.2562  0.1675  0.1305
34119W        W40719   1.687   0.614  43.523  0.1609  0.2166 -0.0908
34120W        W40720  15.160   2.359   9.018  0.2355  0.0374  0.1081
34121W        W40721  12.743   2.995   2.449  0.3713 -0.0221 -0.0502
34122W        W40722  11.969   0.752  34.003  0.2162  0.1056  0.1281
34123W        W40723  17.643   0.555  34.297  0.0250 -0.0183  0.1111
34124W        W40724   2.947   2.113   3.321 -0.1577 -0.0605 -0.1335
34125W        W40725   4.269   4.662  37.402  0.1131  0.1259 -0.2388
34126W        W40726   5.436   0.671  40.204  0.1347  0.1033  0.0864
34127W        W40727  20.905   3.466   4.506  0.0016  0.0118 -0.2430
34128W        W40728  20.555   2.188  35.440  0.2203  0.0742  0.2471
34129W        W40729   9.532   5.026  31.173  0.0894  0.0504  0.2213
34130W        W40730  16.057   4.051  40.879 -0.0538  0.1406 -0.2941
34131W        W40731  20.302   4.305   2.266  0.4797  0.1026 -0.1731
34132W        W40732  17.534   6.535  41.651  0.2295  0.0942  0.2820
34133W        W40733  13.087   5.956  17.474  0.0602 -0.3645  0.0551
34134W        W40734  18.426   4.914   1.860  0.0845 -0.5475  0.0479
34135W        W40735  16.916   0.141  39.782 -0.1295  0.1027 -0.3866
34136W        W40736  17.685   3.236   3.617  0.1041  0.0990  0.0431
34137W        W40737  16.239   1.195  35.500  0.1915  0.0770  0.0663
34138W        W40738  16.359   4.764  33.532 -0.2797 -0.0855 -0.0154
34139W        W40739   5.482   1.544  44.344 -0.1133  0.0517  0.1937
34140W        W40740  16.894   3.085  39.804 -0.0023 -0.1459  0.0038
34141W        W40741   7.871   4.111  31.857 -0.0087 -0.0051  0.2483
34142W        W40742  12.994   3.352  39.171 -0.0641  0.0702  0.1760
34143W        W40743  16.601   5.863  14.851  0.0538 -0.0781  0.0689
34144W        W40744   3.996   5.266   3.534  0.0540  0.2679  0.0647
34145W        W40745  18.768   1.462   1.283 -0.1225 -0.0161 -0.0688
34146W        W40746   5.227   1.366  23.652 -0.1011 -0.2814  0.3266
34147W        W40747   6.922   5.108  29.913 -0.1426  0.1867  0.2375
34148W        W40748  11.472   5.224  31.958  0.2154 -0.3085 -0.2621
34149W        W40749  11.952   1.963  19.471 -0.1607  0.0455  0.1770
34150W        W40750  16.007   1.339  11.782 -0.0598 -0.3181  0.0662
34151W        W40751  17.845   4.306  33.915 -0.3243  0.2579 -0.2304
34152W        W40752  10.390   0.290  27.376 -0.0913  0.1019  0.1370
34153W        W40753   7.824   6.081  12.866 -0.0868  0.1154 -0.0642
34154W        W40754  15.421   5.835  44.774 -0.3683 -0.2198  0.1104
34155W        W40755   3.952   5.592  15.423 -0.1725  0.0143  0.0744
34156W        W40756  11.554   0.681   1.179 -0.1700 -0.2007  0.0100
34157W        W40757  16.666   1.576  30.534 -0.1998  0.0093 -0.2537
34158W        W40758  19.465   3.171  36.788 -0.0841 -0.1537 -0.0008
34159W        W40759   4.748   3.725  36.338 -0.1091  0.0821 -0.0470
34160W        W40760  15.697   1.500  20.426  0.2427 -0.0663 -0.2652
34161W        W40761  15.065   3.584  32.889  0.0114 -0.1678 -0.0868
34162W        W40762   2.867   3.468  31.876  0.0328 -0.3690 -0.2204
34163W        W40763  11.015   3.219  12.140 -0.1108  0.0480  0.1972
34164W        W40764   2.680   3.366  26.764  0.0878  0.0204 -0.2036
34165W        W40765   3.424   6.005  38.815 -0.2409 -0.0095 -0.1555
34166W        W40766   9.002   0.175  34.730  0.1009  0.2103  0.0759
34167W        W40767   6.187   6.077  40.194 -0.2479  0.1409 -0.1721
34168W        W40768   8.199   2.018  39.588  0.0421  0.0561  0.0296
34169W        W40769  10.605   2.575  32.319 -0.1865 -0.3419  0.1634
34170W        W40770  14.123   1.470  12.816  0.0084 -0.0728 -0.3340
34171W        W40771  11.032   4.823  14.366  0.1434  0.0447 -0.3905
34172W        W40772   0.980   5.819  36.063 -0.2230 -0.0525  0.2561
34173W        W40773  14.309   1.356   3.345  0.1744  0.0257  0.0312
34174W        W40774   6.508   5.836  42.042 -0.1870  0.1753 -0.0264
34175W        W40775  18.225   0.511   8.488 -0.1986 -0.1426  0.2115
34176W        W40776   4.183   3.861  23.369  0.1230 -0.2396  0.0006
34177W        W40777   5.053   1.260  14.240  0.0447 -0.0108 -0.2099
34178W        W40778  20.054   3.475  30.632 -0.0070  0.3282 -0.0855
34179W        W40779  18.981   2.258  38.547 -0.1116 -0.1062  0.0433
34180W        W40780   0.495   0.539  11.443  0.1510 -0.0772  0.0110
34181W        W40781   7.703   0.660  33.224  0.2944  0.0695 -0.2229
34182W        W40782  14.027   6.087   8.900  0.1692 -0.2094 -0.1190
34183W        W40783   6.842   5.057  25.906 -0.1306  0.2113  0.1434
34184W        W40784  16.820   3.972  29.158 -0.1784 -0.0394  0.0837
34185W        W40785  20.732   5.991  38.957 -0.0789  0.1692  0.0426
34186W        W40786   3.319   0.006  13.310 -0.3685  0.1196  0.2705
34187W        W40787   1.261   3.044  38.502  0.1464 -0.0718  0.0449
34188W        W40788   7.459   6.335  16.410 -0.1351 -0.1682 -0.0362
34189W        W40789  12.249   3.668   1.341 -0.0709 -0.2242  0.1580
34190W        W40790  14.502   3.555  39.092 -0.0019 -0.1122  0.3193
34191W        W40791   7.871   0.217  11.531 -0.1123 -0.0054 -0.0748
34192W        W40792   4.113   2.307  15.520 -0.1766  0.1621 -0.0614
34193W        W40793   0.038   5.346   4.420  0.0986 -0.1607 -0.1751
34194W        W40794  11.452   2.152  15.232 -0.2899 -0.1146  0.2698
34195W        W40795   4.754   5.982   6.817 -0.1835  0.0138 -0.1638
34196W        W40796   4.797   2.158   7.773  0.0288  0.0106  0.2947
34197W        W40797   1.160   2.113   5.220  0.2875  0.1069  0.2893
34198W        W40798   5.414   3.122  42.876 -0.1192  0.0495  0.0084
34199W        W40799  19.088   3.869  41.093 -0.1256 -0.0211 -0.2719
34200W        W40800   0.849   5.162  23.867  0.1013  0.0025  0.1921
34201W        W40801  17.767   2.379  13.324  0.2827 -0.1707  0.0105
34202W        W40802  11.529   6.030  27.838  0.3003  0.1280 -0.1507
34203W        W40803   7.365   5.841  39.212  0.0890  0.1045  0.0257
34204W        W40804  18.341   0.671   0.831 -0.2941  0.0558 -0.1165
34205W        W40805   5.408   4.587  31.110 -0.0951 -0.0633  0.0578
34206W        W40806  12.224   1.172  28.790  0.0698 -0.0325  0.5726
34207W        W40807  14.517   4.149  41.990  0.1311 -0.2033 -0.1003
34208W        W40808  20.044   5.468  34.936 -0.0165  0.2462 -0.3126
34209W        W40809   8.982   1.386  29.830 -0.0889  0.2196 -0.2544
34210W        W40810   4.098   3.154  31.252 -0.0905 -0.0355 -0.0295
34211W        W40811  10.321   3.103   9.257 -0.0286  0.2166  0.0828
34212W        W40812  16.882   3.620  41.910 -0.2007 -0.1059  0.2273
34213W        W40813   7.954   0.058   7.145 -0.0651  0.2057  0.3678
34214W        W40814   2.138   2.350  36.371  0.2191  0.0132  0.0445
34215W        W40815   2.604   2.472  10.958 -0.0314  0.1024 -0.0907
34216W        W40816  19.215   4.659  44.900  0.3049 -0.1215 -0.1256
34217W        W40817  20.653   2.116  10.780 -0.1840  0.2536  0.2206
34218W        W40818  20.322   4.052  30.746 -0.0260  0.0522 -0.0629
34219W        W40819   3.626   1.931  32.583  0.0298 -0.2311  0.0218
34220W        W40820  15.626   4.807  14.967 -0.1531 -0.1371 -0.1037
34221W        W40821  13.767   2.265  39.076  0.1976 -0.2416 -0.0151
34222W        W40822  13.319   3.418  29.435  0.1592  0.4272  0.1023
34223W        W40823  13.375   1.732  16.160 -0.0153 -0.0217  0.0901
34224W        W40824   9.058   0.381   3.684  0.0202 -0.0228 -0.1333
34225W        W40825  11.456   1.507  31.447 -0.0251  0.1537 -0.1933
34226W        W40826  20.653   4.345  13.998  0.2938 -0.0428  0.0072
34227W        W40827   4.407   6.219   8.463  0.2582  0.2452  0.1537
34228W        W40828  10.896   5.248  27.790 -0.1986 -0.1758 -0.1105
34229W        W40829  10.626   1.431  37.836  0.1880  0.0097  0.0447
34230W        W40830  19.873   2.170  40.434 -0.4909  0.0115  0.0402
34231W        W40831  17.279   0.544  30.909  0.0158 -0.2645 -0.0957
34232W        W40832  16.115   2.027  18.436 -0.0190 -0.2410 -0.0297
34233W        W40833   7.995   5.044  16.274  0.0256 -0.0900 -0.0646
34234W        W40834  17.630   1.870  33.591  0.1877 -0.1343 -0.1956
34235W        W40835  13.117   1.901   5.946 -0.2566 -0.2776  0.0737
34236W        W40836  14.885   0.396  34.392 -0.1686  0.3027 -0.3058
34237W        W40837  19.448   4.210  11.586  0.1827  0.1429 -0.0151
34238W        W40838   6.212   3.242  38.493 -0.0937  0.0438 -0.2154
34239W        W40839  21.145   0.060  26.134 -0.1670 -0.1894 -0.2213
34240W        W40840   8.223   4.767  26.022 -0.0688  0.0963  0.2960
34241W        W40841  18.381   5.653  32.001  0.0356  0.1428  0.0260
34242W        W40842   8.623   3.519  34.962 -0.0243 -0.0516  0.1622
34243W        W40843   0.903   0.146  38.313  0.3354  0.1881 -0.0804
34244W        W40844   0.223   1.151   8.960 -0.0730  0.1270 -0.0358
34245W        W40845  17.373   4.591  36.845  0.1361  0.1269 -0.1070
34246W        W40846   5.922   3.547  12.897 -0.2366 -0.1575 -0.2301
34247W        W40847  12.514   4.039  11.395 -0.1576 -0.1066  0.0515
34248W        W40848   5.958   5.796  38.570 -0.0919  0.3357 -0.0163
34249W        W40849  18.027   4.762  28.219  0.1131 -0.0878  0.4108
34250W        W40850  21.088   3.189   6.734 -0.3116  0.4016 -0.1332
34251W        W40851  13.105   4.969  21.552 -0.0719  0.0396  0.4060
34252W        W40852   4.690   5.210   9.118  0.0885 -0.3301  0.1991
34253W        W40853  14.062   5.643   4.105 -0.0846 -0.0786  0.3399
34254W        W40854   5.182   2.470  41.781  0.0492  0.0382  0.2750
34255W        W40855  12.769   3.861  11.022 -0.3032 -0.1833 -0.0939
34256W        W40856   6.038   0.703  24.580 -0.1545  0.2430  0.1204
34257W        W40857   3.333   0.736  42.540  0.2616 -0.0337  0.0281
34258W        W40858   5.239   4.447  30.378  0.0496  0.2970  0.2962
34259W        W40859   3.786   6.312   3.785  0.0371 -0.1354 -0.2168
34260W        W40860   7.065   3.830  11.404  0.0103 -0.0148  0.1637
34261W        W40861   5.225   4.372  26.814 -0.2417  0.2762  0.1053
34262W        W40862   4.368   5.245  29.575  0.2543 -0.1530  0.1074
34263W        W40863  19.682   0.584  41.305  0.0763 -0.0445 -0.0677
34264W        W40864  17.189   3.017   6.737 -0.0445  0.1811  0.3452
34265W        W40865   0.046   1.942  35.800 -0.0724 -0.2560  0.1385
34266W        W40866  15.184   1.909  30.633  0.1328 -0.2900 -0.2419
34267W        W40867   8.477   1.221  16.599 -0.1550 -0.0270  0.4057
34268W        W40868  13.498   5.255  23.812  0.1436 -0.1800  0.2151
34269W        W40869   2.732   0.510  21.057  0.2717 -0.1238  0.1166
34270W        W40870  13.173   4.372  20.800 -0.1442  0.2085  0.0859
34271W        W40871  16.806   4.804   5.622  0.1571  0.3734  0.1432
34272W        W40872   6.525   1.594  31.561 -0.2197 -0.1876  0.0824
34273W        W40873  18.121   3.125   1.586  0.0607  0.0888 -0.0115
34274W        W40874  13.152   4.798  38.534  0.2648  0.1223 -0.3453
34275W        W40875   3.702   1.179  37.388 -0.0151  0.2015  0.0278
34276W        W40876  13.037   4.409  32.546 -0.0104 -0.2626 -0.0520
34277W        W40877   9.344   1.547  15.142  0.3061 -0.1278 -0.0250
34278W        W40878  17.622   6.088  38.978 -0.5131 -0.3432 -0.1904
34279W        W40879  10.712   2.589   6.126  0.1771  0.1144 -0.0659
34280W        W40880  10.294   1.705  10.129  0.1339 -0.0522 -0.0162
34281W        W40881   7.521   4.830  27.932 -0.0727 -0.0033 -0.2244
34282W        W40882   7.158   4.273   0.733  0.0294 -0.1212  0.0967
34283W        W40883  13.026   2.257  36.920  0.0868  0.0624 -0.1617
34284W        W40884  19.336   0.899   9.705  0.0268 -0.1579  0.0044
34285W        W40885  19.896   3.614  28.316 -0.2481  0.2014  0.0730
34286W        W40886   9.697   5.387   4.619  0.1795 -0.1300  0.1040
34287W        W40887   8.039   5.858   8.500 -0.0542 -0.1600  0.1357
34288W        W40888   8.384   2.339  31.490 -0.1880 -0.1070  0.1018
34289W        W40889   6.426   5.164   0.874 -0.0624 -0.1263 -0.0438
34290W        W40890  18.880   5.181  28.520  0.1680  0.0909  0.1727
34291W        W40891  10.441   1.435   4.153  0.0626  0.1175 -0.1625
34292W        W40892   1.247   5.197   3.294  0.0986 -0.0448 -0.0736
34293W        W40893   8.842   6.342  13.924  0.0965  0.1330 -0.1408
34294W        W40894  16.420   2.597  35.339  0.1586  0.3016  0.0317
34295W        W40895   8.075   2.674  27.704  0.4396 -0.0255  0.3396
34296W        W40896  12.971   2.136   5.124  0.0495 -0.1866 -0.2367
34297W        W40897   0.028   1.614   0.163 -0.0260 -0.3072  0.6302
34298W        W40898   0.978   1.681  23.483  0.2461  0.0449 -0.0544
34299W        W40899   2.066   3.861   9.595  0.1753 -0.0545  0.0597
34300W        W40900   1.004   2.371  11.644  0.4291 -0.1703  0.0674
34301W        W40901  14.132   0.531  22.575 -0.0298 -0.0438 -0.0462
34302W        W40902   1.890   3.869  41.897 -0.1986  0.0782  0.1011
34303W        W40903  13.049   2.259  32.474 -0.6888 -0.1134  0.1795
34304W        W40904  17.606   5.834  36.203  0.2568 -0.1513 -0.0315
34305W        W40905  15.365   1.751  44.687 -0.2348  0.0133 -0.2614
34306W        W40906   2.961   6.502  32.228 -0.1223  0.1262  0.1819
34307W        W40907   1.751   1.230  24.181  0.0320  0.1478  0.1206
34308W        W40908  11.689   3.259  38.194 -0.0740 -0.2342  0.1600
34309W        W40909   7.987   2.551  16.083  0.1217  0.3649  0.2045
34310W        W40910   0.485   4.668  12.227  0.2130 -0.1588 -0.1012
34311W        W40911  14.953   4.964  31.145 -0.0356 -0.1580 -0.0864
34312W        W40912   1.146   0.595  40.674 -0.1371  0.0900 -0.1800
34313W        W40913  13.897   3.590  15.904  0.0404 -0.1617  0.3697
34314W        W40914   9.394   4.609  41.525 -0.0388 -0.0688 -0.3811
34315W        W40915   0.044   5.934   0.597  0.0846  0.1887  0.1680
34316W        W40916  19.471   3.630  14.644  0.2155 -0.0751  0.1267
34317W        W40917   2.729   0.008  33.202  0.2647  0.0971  0.0347
34318W        W40918  12.797   6.176   0.601  0.0836  0.1717 -0.4063
34319W        W40919  10.326   2.169  32.221 -0.0787 -0.1088  0.2583
34320W        W40920   1.846   1.360   9.976  0.2209 -0.1077 -0.0708
34321W        W40921  14.271   4.800  39.245 -0.0870 -0.0021 -0.2913
34322W        W40922   8.383   1.864  10.045  0.3896  0.1623 -0.0884
34323W        W40923  16.962   0.293  44.485 -0.0438 -0.0737  0.0763
34324W        W40924  11.702   3.894  39.460  0.1713 -0.0458  0.0471
34325W        W40925  12.287   3.901   3.388  0.1043 -0.1250  0.1415
34326W        W40926   2.375   3.402  39.903  0.1045  0.1916  0.1806
34327W        W40927   0.954   3.907  41.893 -0.0856 -0.1247 -0.0714
34328W        W40928  18.913   5.540  17.284  0.0554  0.0861  0.1655
34329W        W40929   0.709   5.296   0.556  0.0164  0.1995  0.0449
34330W        W40930   5.728   4.431  27.059  0.1412 -0.0057 -0.0857
34331W        W40931  15.723   4.349  37.337 -0.1574  0.1770 -0.4984
34332W        W40932  13.751   0.180  34.184  0.1953  0.0349  0.0351
34333W        W40933  15.342   5.307  34.450  0.0520  0.0750 -0.2312
34334W        W40934  17.638   5.641  30.988 -0.1137  0.3337 -0.1440
34335W        W40935   8.989   0.747  35.771  0.1243  0.0861 -0.0112
34336W        W40936   6.620   4.299  39.912 -0.0918  0.1049  0.0089
34337W        W40937  17.061   4.794   9.113 -0.1656 -0.3454  0.3677
34338W        W40938   4.546   5.953   2.743 -0.0179  0.2010  0.0923
34339W        W40939   1.609   2.053   4.433  0.0694  0.2792  0.0012
34340W        W40940  19.807   5.562  10.462  0.1213 -0.2644  0.0097
34341W        W40941   0.887   3.546  35.294  0.1118 -0.0169 -0.0915
34342W        W40942   8.675   3.100  15.785 -0.0320 -0.0165 -0.1093
34343W        W40943   2.929   6.293   6.138  0.1096 -0.0919 -0.2977
34344W        W40944   7.100   6.086   4.187 -0.0373  0.0943 -0.3592
34345W        W40945  13.913   1.789   8.571 -0.1188 -0.1734 -0.4005
34346W        W40946  13.360   2.049  38.108  0.1474 -0.1141  0.0861
34347W        W40947   5.335   3.700   2.837  0.0751  0.2084  0.0743
34348W        W40948   9.700   0.903  16.697 -0.0449  0.4064  0.0687
34349W        W40949  11.513   1.957  17.950  0.1448  0.2487 -0.2097
34350W        W40950  10.386   5.063  37.871  0.2613 -0.1477  0.2051
34351W        W40951  16.816   3.404  35.636  0.1981 -0.2177 -0.0878
34352W        W40952  10.605   3.687  12.654  0.1749  0.0919 -0.2319
34353W        W40953  19.303   4.857  27.914 -0.0684 -0.3041 -0.1229
34354W        W40954   1.008   3.341  22.750  0.1886  0.1417  0.0001
34355W        W40955  12.420   1.920  32.773 -0.1914 -0.0990  0.0202
34356W        W40956  13.775   3.468   1.557  0.0955 -0.4086  0.1054
34357W        W40957   0.202   1.583  16.130 -0.0319 -0.0849  0.2776
34358W        W40958   8.144   4.664  10.090  0.0723  0.3609  0.5330
34359W        W40959  16.357   4.555   0.960  0.2654 -0.0154  0.3560
34360W        W40960  13.484   4.362  13.348 -0.2965 -0.0571 -0.0427
34361W        W40961  10.803   5.521  29.935  0.1783  0.1171  0.0651
34362W        W40962  17.213   3.867  18.214  0.1269  0.3987  0.1296
34363W        W40963  16.101   0.929  30.190 -0.1978  0.0082  0.0864
34364W        W40964   3.765   2.619  30.963  0.0129 -0.0393 -0.1700
34365W        W40965  18.032   3.829  14.298 -0.2115 -0.2709  0.0657
34366W        W40966  18.198   5.048   3.260  0.2100  0.0495 -0.0464
34367W        W40967  17.455   2.866  17.069 -0.0432  0.2591  0.0847
34368W        W40968  15.074   1.931   6.192  0.0790  0.0962  0.1221
34369W        W40969   0.884   0.737  40.109 -0.1230  0.1269 -0.1979
34370W        W40970   8.113   2.894  12.372  0.2145  0.0258  0.0149
34371W        W40971  15.218   3.942  22.860  0.1886 -0.3212  0.0847
34372W        W40972   8.446   6.080  42.223 -0.0574  0.2329 -0.0310
34373W        W40973  12.607   5.344  17.875 -0.3340 -0.1306  0.1147
34374W        W40974   5.885   1.272  37.679  0.0430  0.0170 -0.0002
34375W        W40975   2.527   1.301  25.002  0.0040  0.0370  0.0930
34376W        W40976  12.147   4.540  44.062  0.1721  0.1236  0.1598
34377W        W40977   9.560   0.011   9.508  0.0848 -0.1356 -0.0448
34378W        W40978  19.126   1.102   1.235  0.0768 -0.1997  0.2387
34379W        W40979   0.804   0.295   5.220  0.0861  0.3001 -0.0148
34380W        W40980  21.124   4.924   9.363 -0.1453  0.1670 -0.1235
34381W        W40981  10.523   5.136   7.658  0.0303 -0.3202  0.1257
34382W        W40982  16.640   1.238  15.541 -0.0842 -0.1778 -0.0085
34383W        W40983  14.324   0.036  23.337  0.0469  0.0397  0.3729
34384W        W40984  18.125   5.061   1.474  0.1460 -0.1689 -0.0158
34385W        W40985  14.847   4.031  41.594  0.0869 -0.2998  0.0666
34386W        W40986  14.424   3.575  37.737  0.1007  0.0643 -0.2442
34387W        W40987  10.301   6.370  13.688  0.3131  0.0799 -0.3338
34388W        W40988   3.971   2.846   1.104 -0.0283 -0.2677  0.1830
34389W        W40989  20.425   2.178   1.552 -0.2855  0.2100 -0.0074
34390W        W40990   7.564   3.120  34.906  0.1303 -0.2480  0.1515
34391W        W40991   4.451   1.368  27.062 -0.0497  0.0118 -0.2046
34392W        W40992  15.447   6.385  21.032 -0.0326 -0.0619  0.0402
34393W        W40993  16.653   0.497  36.040  0.1963 -0.0863 -0.3013
34394W        W40994   3.668   5.539  26.481  0.0604  0.0926  0.1916
34395W        W40995  12.055   5.859   0.514  0.1108 -0.0996  0.2294
34396W        W40996  19.113   2.260  10.810  0.0970  0.1442  0.1586
34397W        W40997   1.972   3.199  40.525 -0.3148  0.0967  0.1081
34398W        W40998  19.741   4.809   7.204  0.2556  0.0698 -0.2788
34399W        W40999   4.542   1.703  28.574 -0.2314 -0.0069 -0.0691
34400W        W41000   9.833   0.282  43.180 -0.1988 -0.2134 -0.2386
34401W        W41001  10.261   6.128   4.895 -0.0218  0.1328 -0.0269
34402W        W41002   8.475   5.850  10.443  0.1151 -0.1041  0.0050
34403W        W41003  16.882   6.017  34.068  0.1327  0.0307 -0.1283
34404W        W41004  20.132   6.323  33.236 -0.2393  0.0001 -0.0184
34405W        W41005   9.669   5.855  19.729 -0.1079  0.1665  0.1809
34406W        W41006  14.443   0.572  35.605  0.0007  0.1921 -0.2589
34407W        W41007  11.496   3.547  14.536  0.3070  0.0256 -0.1501
34408W        W41008  18.696   5.954  32.997  0.0232 -0.2850  0.0827
34409W        W41009  14.058   0.402   4.986 -0.0240 -0.1613 -0.1527
34410W        W41010  18.485   1.237  16.033 -0.0270  0.0232  0.2056
34411W        W41011   7.853   1.356  26.270 -0.0943  0.2608  0.0396
34412W        W41012   1.016   4.971  10.814  0.0988  0.2806 -0.1537
34413W        W41013   6.859   1.474   6.295  0.1122 -0.4661 -0.1936
34414W        W41014  20.904   5.747   6.265  0.2437  0.0108  0.2438
34415W        W41015   9.464   4.200   3.203 -0.1318 -0.1157  0.0191
34416W        W41016  18.236   2.068  10.786 -0.0724 -0.2264  0.0437
34417W        W41017  10.424   0.026  28.779 -0.2281  0.0442  0.0451
34418W        W41018  12.651   0.338   3.329 -0.0333 -0.0679 -0.2141
34419W        W41019   6.251   1.455  41.617  0.0848 -0.0975  0.1927
34420W        W41020  15.973   5.419  17.325  0.0709  0.0458  0.0056
34421W        W41021   7.701   6.190  42.694  0.0048  0.0636  0.4594
34422W        W41022   6.405   2.554  10.419 -0.0494  0.0684  0.0548
34423W        W41023  18.527   2.973  13.198 -0.3240 -0.3353 -0.0105
34424W        W41024  18.995   5.181  44.007  0.0328  0.0538  0.4089
34425W        W41025   8.242   3.093  29.612 -0.1572  0.0828  0.2612
34426W        W41026   0.936   2.989  38.093 -0.2830  0.0035  0.1712
34427W        W41027  17.333   2.237  19.750  0.0205  0.1873  0.0720
34428W        W41028  19.763   0.968  36.627  0.1421  0.0116  0.0794
34429W        W41029   6.426   0.575  23.444 -0.0666  0.3057  0.1892
34430W        W41030  14.741   3.984  42.952  0.0651 -0.1734 -0.1097
34431W        W41031  15.514   2.620  21.953  0.4773 -0.2216 -0.0410
34432W        W41032  16.852   3.326  17.495  0.1430 -0.1615  0.0572
34433W        W41033  12.523   0.031  21.841 -0.0935 -0.4331 -0.0584
34434W        W41034   9.655   4.784  32.424  0.1705  0.0037  0.0401
34435W        W41035   5.561   4.910  23.223 -0.1608 -0.2605  0.2533
34436W        W41036   9.564   2.756  15.686 -0.3940  0.1316 -0.1930
34437W        W41037   9.470   3.284  31.571  0.1299  0.0549 -0.1186
34438W        W41038  11.735   4.394  30.202  0.3012  0.0059 -0.1182
34439W        W41039  14.210   3.175   5.034  0.2053  0.2293  0.0222
34440W        W41040   1.232   4.130   4.716  0.0915  0.0685  0.2156
34441W        W41041  17.385   3.951  42.372  0.3429 -0.3190  0.1122
34442W        W41042   6.988   0.073   8.057  0.2074 -0.1576  0.2036
34443W        W41043   5.706   5.853  40.115 -0.4141 -0.2648 -0.2517
34444W        W41044   9.335   0.378  29.690 -0.1462  0.0885 -0.1035
34445W        W41045  17.153   4.888   0.745  0.2266 -0.0112  0.1702
34446W        W41046  20.286   1.469   2.683  0.0461 -0.1526 -0.0779
34447W        W41047  17.320   2.690  32.838 -0.0743  0.1413 -0.1906
34448W        W41048  11.602   5.111   3.661  0.0074  0.4228 -0.2565
34449W        W41049  10.827   4.057   1.891 -0.1332  0.0658 -0.2480
34450W        W41050  18.874   0.095  35.001 -0.2017 -0.2053  0.1750
34451W        W41051  17.587   1.805   2.734 -0.0520 -0.2350  0.2143
34452W        W41052  19.008   0.710  17.499  0.0871  0.2599 -0.1939
34453W        W41053   8.888   0.815  15.212  0.1332 -0.3703  0.3182
34454W        W41054   3.243   5.297  22.760 -0.3229 -0.0543 -0.1006
34455W        W41055  16.956   3.140  15.573  0.0934 -0.3444  0.0634
34456W        W41056   7.506   0.560   3.570  0.2570 -0.1615  0.1212
34457W        W41057   9.421   3.786  10.156  0.0985  0.0178  0.1763
34458W        W41058  10.336   4.651  15.174 -0.2517  0.0276  0.1968
34459W        W41059   1.617   2.646  34.487  0.2785  0.0673  0.2939
34460W        W41060   2.735   5.442  35.517  0.0258  0.1181  0.1261
34461W        W41061  19.995   2.220  37.530 -0.0985 -0.1243  0.2039
34462W        W41062   1.439   6.093  23.867 -0.2619  0.2805 -0.1699
34463W        W41063  20.535   2.037   6.332 -0.0368  0.1178  0.1087
34464W        W41064   4.322   4.315  42.499 -0.0148 -0.0016  0.0475
34465W        W41065  17.498   6.335  43.352  0.1688 -0.0744 -0.1358
34466W        W41066   8.541   2.663  16.045 -0.0449 -0.0692  0.1580
34467W        W41067   9.123   0.182  27.466 -0.0437 -0.1302 -0.1058
34468W        W41068   4.667   1.592  24.528 -0.0265  0.0111 -0.1247
34469W        W41069  10.616   1.260  31.108 -0.0959  0.0303  0.0825
34470W        W41070  10.083   3.584  40.856 -0.0447  0.1543  0.0354
34471W        W41071   9.052   2.981  10.228 -0.1465  0.0442  0.3636
34472W        W41072   6.323   3.356   0.359 -0.3998  0.0389  0.0637
34473W        W41073  11.408   2.165  40.684  0.0575  0.4243 -0.0461
34474W        W41074   2.751   5.600  31.171 -0.1471 -0.1814 -0.3491
34475W        W41075   8.869   4.627   0.639 -0.0855  0.2262 -0.3531
34476W        W41076  20.502   6.483   2.033 -0.1814  0.2219  0.1232
34477W        W41077   4.714   5.488  36.153  0.1576  0.1178  0.0547
34478W        W41078  13.846   4.738  12.245  0.0029  0.0495 -0.3100
34479W        W41079  21.155   4.450  14.103 -0.4450 -0.3303 -0.4870
34480W        W41080   9.920   3.173  36.528 -0.1826  0.0115 -0.1671
34481W        W41081  11.702   5.249  35.002 -0.0864 -0.0250  0.0511
34482W        W41082  16.497   0.512  32.415 -0.3487  0.3230 -0.0945
34483W        W41083   3.498   3.293  13.705  0.1071 -0.0423  0.2646
34484W        W41084   4.024   0.286   4.410  0.2505  0.0103 -0.0434
34485W        W41085   9.703   5.323  40.693  0.0870 -0.0914  0.1125
34486W        W41086  10.889   6.444  17.203  0.2072 -0.0563 -0.0547
34487W        W41087  20.413   4.719  29.400  0.1634  0.2243  0.2548
34488W        W41088   9.478   3.033  14.619  0.1677 -0.0024  0.1033
34489W        W41089  12.425   2.624   8.926  0.2358  0.0054 -0.0723
34490W        W41090  12.019   3.161  41.866 -0.1159 -0.1911  0.0231
34491W        W41091   7.852   3.097   7.189  0.2395 -0.1776  0.1309
34492W        W41092   6.959   0.920   4.803 -0.1554 -0.0071 -0.2289
34493W        W41093   4.874   4.098  30.356  0.0279  0.1637  0.1154
34494W        W41094  21.046   3.236   2.859 -0.0668 -0.2214  0.0859
34495W        W41095   4.962   2.049  15.692 -0.1878 -0.1092  0.0437
34496W        W41096   6.310   2.953  44.527 -0.2916  0.0537  0.0114
34497W        W41097  10.909   1.184   9.971 -0.0117 -0.2303 -0.4453
34498W        W41098  19.133   2.857  42.764 -0.2057 -0.1455  0.0498
34499W        W41099  13.193   5.426  23.140  0.1179  0.1377 -0.1209
34500W        W41100  18.179   6.544  13.807 -0.2258  0.1403 -0.2143
34501W        W41101  11.646   5.552  17.543  0.0406  0.0491  0.0457
34502W        W41102   4.744   5.975  36.214 -0.1382  0.0869 -0.0659
34503W        W41103  15.619   4.568  29.571  0.2058 -0.2354  0.1682
34504W        W41104  16.829   1.306  43.942  0.0203  0.2884  0.0368
34505W        W41105  19.684   3.941   6.139  0.0550  0.3011 -0.0630
34506W        W41106   9.829   5.663  32.593 -0.2260 -0.0639  0.0829
34507W        W41107   2.958   0.499  12.000 -0.1260 -0.0215 -0.1252
34508W        W41108   6.001   6.545  32.930 -0.0679  0.1281 -0.0239
34509W        W41109   1.860   6.489  37.744  0.0251  0.2739  0.2224
34510W        W41110  15.548   6.254  29.198  0.0791  0.2108  0.1057
34511W        W41111   0.812   1.525  16.870 -0.1096  0.0212 -0.0272
34512W        W41112  12.338   5.609   0.850  0.0338 -0.0850  0.0189
34513W        W41113   0.504   0.629   6.402 -0.1700  0.2097 -0.1506
34514W        W41114   2.023   0.869  43.771  0.0576 -0.3874 -0.0623
34515W        W41115   8.883   3.788  17.706  0.0777  0.1270  0.3403
34516W        W41116   3.954   3.779  28.852  0.2132 -0.1289 -0.2962
34517W        W41117   7.003   3.637  40.521 -0.4078 -0.1981 -0.0923
34518W        W41118  13.412   3.269  11.910  0.0015 -0.0784 -0.0078
34519W        W41119  15.185   2.659  30.084  0.4411  0.1744  0.2139
34520W        W41120   3.279   5.628  31.444  0.1310  0.2116 -0.1101
34521W        W41121   3.689   3.041  36.309 -0.1485  0.0452 -0.1359
34522W        W41122  16.252   1.012  41.782  0.1051 -0.0279 -0.1948
34523W        W41123  19.447   5.542  38.526 -0.0414  0.3657 -0.0227
34524W        W41124  12.312   1.457  40.233  0.3431 -0.0049 -0.3038
34525W        W41125  16.110   1.732  29.647 -0.3866 -0.0372  0.1310
34526W        W41126   6.180   5.994  10.750  0.1076  0.0308  0.1044
34527W        W41127   4.384   3.375  23.339 -0.1225  0.1345 -0.0113
34528W        W41128   6.843   3.346  41.869 -0.0414  0.0197 -0.2233
34529W        W41129  16.945   0.965  20.479  0.0290  0.3559  0.1365
34530W        W41130   4.520   3.642   0.158 -0.0397 -0.2769 -0.1304
34531W        W41131  13.509   3.999  17.551 -0.1765  0.0723  0.0994
34532W        W41132  10.334   0.581  31.506  0.1656  0.0196  0.0586
34533W        W41133  16.707   3.081   4.679  0.4776 -0.2418 -0.1674
34534W        W41134   7.497   2.091   8.941 -0.0951  0.2264 -0.2910
34535W        W41135  18.449   3.117  18.053  0.1272  0.0687  0.1183
34536W        W41136  10.077   0.701  15.276  0.0037 -0.0232 -0.0782
34537W        W41137  13.763   3.790   3.347 -0.1094  0.2184 -0.0896
34538W        W41138   9.544   1.308  27.814  0.1068  0.0723 -0.0236
34539W        W41139  20.293   5.879  28.873  0.0895 -0.0168 -0.1674
34540W        W41140   6.055   3.230   5.943 -0.1819  0.1866  0.0067
34541W        W41141   1.113   2.126  33.985  0.0587  0.0995 -0.0659
34542W        W41142  19.685   3.270  16.131 -0.0476 -0.1170 -0.0489
34543W        W41143  15.350   3.229   8.872 -0.0219 -0.1073 -0.1835
34544W        W41144   9.927   2.086  12.931  0.0323 -0.2495 -0.0919
34545W        W41145  15.151   4.500  11.212 -0.2371  0.2025 -0.0813
34546W        W41146  16.455   5.244  39.687 -0.1111  0.2137  0.1620
34547W        W41147  18.571   3.275  34.805  0.1665  0.2709 -0.2524
34548W        W41148   0.340   2.392   9.729  0.3719 -0.2547  0.0288
34549W        W41149   1.055   4.475  12.420  0.1506 -0.0220  0.1838
34550W        W41150  12.958   2.070  30.703 -0.0380  0.1661  0.0839
34551W        W41151  19.268   4.438  28.633 -0.2158 -0.1057  0.0596
34552W        W41152   8.041   0.345  43.302 -0.2171 -0.1879  0.0634
34553W        W41153  13.653   2.164  10.458 -0.0080 -0.0993  0.1115
34554W        W41154  13.180   0.537   3.443  0.3273  0.0460  0.0176
34555W        W41155   1.028   6.230  41.032  0.1538 -0.1894 -0.0440
34556W        W41156  16.176   4.614  12.297  0.2351  0.1393 -0.0812
34557W        W41157  11.516   2.541  12.015  0.0115 -0.1018  0.6160
34558W        W41158   1.866   3.394   4.666  0.2687  0.1366 -0.1075
34559W        W41159   4.173   5.722  24.666 -0.2521 -0.1029  0.0115
34560W        W41160  20.681   6.149  29.138  0.1033  0.0491 -0.0325
34561W        W41161   1.770   3.785  26.994  0.1791 -0.0458  0.0830
34562W        W41162  21.141   2.704  38.937  0.3099  0.0522  0.2558
34563W        W41163  19.899   3.716  44.276  0.0263  0.1998  0.1052
34564W        W41164   5.509   3.592  12.459  0.1285 -0.3122  0.2041
34565W        W41165  11.630   6.299  16.644  0.0793 -0.2182  0.2980
34566W        W41166   7.101   2.515  40.214  0.0818  0.3199  0.2471
34567W        W41167  14.521   0.211   4.440 -0.2899 -0.3763 -0.0343
34568W        W41168  15.025   3.910  11.316 -0.2643 -0.2060  0.2450
34569W        W41169   0.802   4.886  11.930 -0.2530 -0.1664 -0.3210
34570W        W41170   8.863   3.747  15.817  0.0032  0.2015 -0.2070
34571W        W41171  13.211   2.080   0.982  0.1367 -0.1933  0.0730
34572W        W41172  15.838   0.933   2.872  0.2147 -0.0210 -0.1055
34573W        W41173   7.987   2.331  16.776 -0.1331  0.0134  0.2060
34574W        W41174   6.123   6.017   2.807 -0.1635  0.6257 -0.1271
34575W        W41175   2.230   5.707   6.997 -0.2931  0.1905 -0.1139
34576W        W41176  15.753   1.129  16.091  0.2687 -0.3947 -0.0424
34577W        W41177  13.467   5.299  15.132 -0.3049  0.0144  0.1109
34578W        W41178  18.458   2.989  41.546  0.1577  0.0909 -0.2233
34579W        W41179  18.524   4.890  32.683  0.0269 -0.2130 -0.0369
34580W        W41180  10.943   3.763  43.066 -0.2554 -0.0900  0.1844
34581W        W41181  20.756   2.298  25.253  0.0200  0.0258 -0.0137
34582W        W41182   7.713   6.349  35.463  0.0893 -0.0243  0.0085
34583W        W41183   3.210   4.519   5.004  0.0724 -0.0202  0.3692
34584W        W41184   1.784   2.225  25.747  0.0360 -0.0421 -0.1286
34585W        W41185   0.844   2.008  16.245  0.1920 -0.1876 -0.0194
34586W        W41186   4.377   4.239  14.159 -0.0096 -0.0964  0.0377
34587W        W41187  19.143   3.573  30.604 -0.1061  0.2180 -0.1960
34588W        W41188   8.153   1.902   5.025 -0.4173 -0.0076  0.0713
34589W        W41189   0.577   1.863  40.360  0.1148 -0.0523 -0.0801
34590W        W41190   7.012   2.929  41.022 -0.2503 -0.0413 -0.0091
34591W        W41191  12.003   1.958   1.578  0.0120  0.0736  0.0275
34592W        W41192   0.492   2.090  11.648  0.0302 -0.1057  0.0433
34593W        W41193  12.390   0.842  17.730  0.1927  0.3881  0.0702
34594W        W41194  11.191   5.792  29.574 -0.1543 -0.1066 -0.2150
34595W        W41195   9.819   6.387  43.072  0.0763 -0.1371  0.5299
34596W        W41196   3.013   4.508  23.480 -0.2118 -0.1078 -0.1315
34597W        W41197   2.195   4.876  35.219 -0.1154  0.0020  0.2144
34598W        W41198   9.478   1.672  37.433  0.1526 -0.0432 -0.0092
34599W        W41199   3.212   4.081  16.274 -0.1594  0.0388  0.1003
34600W        W41200  20.652   5.623  15.887  0.0834 -0.0400  0.1967
34601W        W41201  20.387   6.509  28.091 -0.0301 -0.1796 -0.2764
34602W        W41202   2.360   3.530  32.032  0.0432 -0.0024 -0.1830
34603W        W41203   6.583   3.830  34.048 -0.0536  0.0312 -0.1174
34604W        W41204   0.741   6.402   9.771  0.0823  0.1308 -0.0430
34605W        W41205   2.409   2.516  41.949  0.2373 -0.2247 -0.0107
34606W        W41206   1.420   4.019  42.752  0.2654  0.1150 -0.1266
34607W        W41207  20.622   2.060   2.192 -0.0484 -0.2902 -0.0735
34608W        W41208  17.209   3.942  10.574 -0.0974  0.1483 -0.2086
34609W        W41209  19.923   1.182  42.604  0.0343  0.0595 -0.1775
34610W        W41210  19.029   5.989  35.957 -0.0205  0.0750 -0.4804
34611W        W41211  13.144   2.298   1.900  0.1750  0.4817 -0.0021
34612W        W41212  17.997   4.756  29.005 -0.3902  0.0233  0.0987
34613W        W41213  15.958   4.774  23.137 -0.2133 -0.0295 -0.1040
34614W        W41214   6.992   0.817  29.926  0.1978  0.0574  0.0911
34615W        W41215  20.856   5.383  31.130  0.0629  0.3032  0.1348
34616W        W41216   6.057   5.686  43.215 -0.1761 -0.3169 -0.1646
34617W        W41217  21.094   0.506   1.919  0.0519 -0.2130  0.1400
34618W        W41218  12.737   1.949  21.650 -0.1730  0.2191 -0.0110
34619W        W41219   6.633   4.763   4.331 -0.1776 -0.1991 -0.0061
34620W        W41220  16.143   2.030  41.666  0.2707 -0.2217 -0.2060
34621W        W41221   4.993   4.392   2.018 -0.0343 -0.2985 -0.2590
34622W        W41222  17.738   2.404  35.580 -0.0328 -0.2156 -0.2024
34623W        W41223   1.161   3.360  15.878 -0.0933 -0.2589  0.2662
34624W        W41224  11.167   3.855  15.531  0.1974 -0.0605  0.4771
34625W        W41225   3.428   0.640  36.395 -0.1040 -0.0347 -0.0482
34626W        W41226   8.493   5.644  40.962  0.0501  0.0178  0.2730
34627W        W41227  16.401   5.057  10.738  0.3379  0.0503 -0.0956
34628W        W41228  20.707   1.148  29.873  0.2110  0.0965  0.1047
34629W        W41229   2.364   5.239  39.386  0.1470 -0.0891  0.1966
34630W        W41230  13.212   1.469  17.257 -0.2830 -0.0569  0.1693
34631W        W41231  15.861   1.780  34.762 -0.1515  0.1418 -0.0957
34632W        W41232  13.127   1.077   7.158 -0.1021 -0.0814  0.2168
34633W        W41233  17.771   1.567  18.741 -0.1634 -0.0013  0.4086
34634W        W41234   0.908   4.769  34.625  0.4236 -0.1297 -0.2687
34635W        W41235  10.959   2.615  35.124  0.1285 -0.1062  0.0420
34636W        W41236  17.798   0.402  13.677 -0.0325 -0.0596  0.1694
34637W        W41237  11.135   4.191  31.825  0.0456 -0.0807 -0.1601
34638W        W41238   0.276   5.481   5.447 -0.4380  0.1649 -0.0993
34639W        W41239  18.552   1.331  15.154  0.1144  0.1390 -0.0594
34640W        W41240   4.779   1.702  41.404 -0.1940 -0.1134  0.2838
34641W        W41241   4.895   3.294  33.276  0.1730  0.1362 -0.0450
34642W        W41242  12.635   1.695  43.179  0.2888  0.2214 -0.2633
34643W        W41243   6.455   2.987  12.256 -0.0851 -0.0358  0.1769
34644W        W41244   7.992   2.533   6.020  0.1737  0.3998  0.4304
34645W        W41245   7.046   0.313  27.312 -0.0525 -0.1853  0.1568
34646W        W41246   1.091   0.792  44.342 -0.0098 -0.3783 -0.2128
34647W        W41247   4.694   1.691  39.621 -0.0879  0.6555  0.3544
34648W        W41248  14.104   5.537   8.982 -0.0743  0.1010  0.1397
34649W        W41249   8.815   1.143  30.724 -0.1766  0.0894 -0.0014
34650W        W41250  18.731   4.974  18.128 -0.0337 -0.0331 -0.1206
34651W        W41251  11.914   3.039   9.951  0.0809  0.2264 -0.0355
34652W        W41252  12.052   3.985  17.873 -0.2247 -0.0171  0.1334
34653W        W41253   8.353   5.006  33.343 -0.2388 -0.1445  0.1128
34654W        W41254  14.413   3.793  14.447 -0.0226  0.0039 -0.1369
34655W        W41255   1.891   3.441   7.501 -0.3475  0.2315 -0.0226
34656W        W41256  16.755   3.838  35.181 -0.0582 -0.1449  0.0816
34657W        W41257   8.452   6.531  45.138  0.1531 -0.0264  0.3273
34658W        W41258  16.489   0.055  16.548  0.2884 -0.0845 -0.0127
34659W        W41259  20.133   2.524  13.079 -0.0391 -0.0238  0.2401
34660W        W41260   4.590   0.282  24.902  0.2320 -0.1674 -0.1707
34661W        W41261   1.359   2.934  43.338 -0.1434 -0.0347  0.1750
34662W        W41262   8.829   2.582  17.566  0.3181  0.0879  0.0582
34663W        W41263  13.470   0.995  34.321 -0.0845 -0.0790  0.1054
34664W        W41264   0.025   3.288   9.920 -0.2346 -0.0914 -0.1947
34665W        W41265  12.986   3.737  42.188  0.1408 -0.2281 -0.1392
34666W        W41266  11.355   4.391  42.798 -0.0148  0.0628  0.0059
34667W        W41267   9.875   5.046  15.760  0.1171 -0.1301 -0.0334
34668W        W41268  13.327   0.482  44.027 -0.3749 -0.2280 -0.0690
34669W        W41269   7.288   6.145  25.438 -0.2090  0.1758  0.0810
34670W        W41270  12.396   0.069   6.501 -0.2176  0.1900 -0.0065
34671W        W41271   1.853   4.320  43.703 -0.2847  0.2122  0.1517
34672W        W41272  17.616   6.099   4.657  0.1632 -0.3792 -0.1557
34673W        W41273  10.052   5.311  10.165  0.0331 -0.0524  0.1365
34674W        W41274   4.970   6.491  22.692 -0.1116  0.0170 -0.1680
34675W        W41275  17.716   2.698  12.831  0.0373 -0.0935 -0.2434
34676W        W41276  14.002   3.791  21.786  0.2572 -0.0451 -0.0806
34677W        W41277  13.026   4.874  37.466  0.0988 -0.0212 -0.2641
34678W        W41278   0.301   0.218  42.525 -0.1222 -0.1611  0.1490
34679W        W41279   7.619   3.905  27.099  0.2607 -0.1512 -0.0991
34680W        W41280  20.876   6.312  43.994  0.0116  0.0122  0.0410
34681W        W41281   4.603   2.870  24.367 -0.3882 -0.1390  0.0657
34682W        W41282  13.289   2.727  38.473  0.0060  0.0555 -0.3806
34683W        W41283  13.387   2.096  15.617  0.0459  0.0916 -0.1151
34684W        W41284   9.804   1.178  43.125  0.0109 -0.2318  0.0900
34685W        W41285   6.609   5.838  44.310  0.3126  0.1748  0.0990
34686W        W41286  11.594   6.347  36.821  0.1036  0.1923 -0.0993
34687W        W41287  19.485   2.030  35.597  0.0718  0.3130 -0.0469
34688W        W41288   2.375   1.601  43.598  0.1636 -0.1114 -0.0290
34689W        W41289   6.780   2.030  26.710  0.1673 -0.1295  0.0865
34690W        W41290  12.876   4.413  19.022  0.3005  0.0444 -0.0730
34691W        W41291  19.585   2.024  10.807 -0.4924  0.1203 -0.2776
34692W        W41292   4.103   3.404   2.498  0.3516 -0.0241  0.3335
34693W        W41293   7.496   6.349  45.043  0.1493 -0.0052 -0.3403
34694W        W41294   7.741   3.358  43.171 -0.0049 -0.2316 -0.1080
34695W        W41295   8.551   3.716  30.084 -0.3333 -0.2150  0.0968
34696W        W41296   0.715   4.259  37.941 -0.0566 -0.2021 -0.0503
34697W        W41297  12.131   3.559  16.878  0.2089 -0.0026 -0.2163
34698W        W41298   7.839   3.350   4.532 -0.0955 -0.2453  0.1468
34699W        W41299  18.600   4.493  41.984 -0.0994 -0.2656 -0.0052
34700W        W41300  15.237   2.235   2.723 -0.0241 -0.0577 -0.1774
34701W        W41301  17.689   5.242  14.858 -0.2135 -0.0423 -0.1783
34702W        W41302  20.120   0.327  28.110  0.3329  0.2537 -0.1593
34703W        W41303  20.007   1.008  28.753 -0.0768  0.1463  0.0330
34704W        W41304  11.239   0.237  30.871 -0.1243  0.1970 -0.2358
34705W        W41305   7.670   5.833   5.980 -0.0325  0.1403 -0.2548
34706W        W41306   2.299   2.272  44.224  0.1149  0.0772 -0.0986
34707W        W41307   3.867   4.662  42.198  0.1283 -0.1157  0.0352
34708W        W41308   0.439   6.477  25.152  0.3612 -0.0091  0.0152
34709W        W41309   8.983   3.120   3.028 -0.2230 -0.0598 -0.1049
34710W        W41310   6.226   3.161  32.560  0.3032  0.0085  0.0779
34711W        W41311   3.240   1.171  40.845  0.0452 -0.0591 -0.1591
34712W        W41312  19.662   3.636  29.121  0.0161 -0.1676  0.0902
34713W        W41313   0.422   1.335  35.041 -0.1612  0.0716  0.3586
34714W        W41314  14.372   4.920  43.914 -0.0589 -0.1396 -0.3035
34715W        W41315  17.820   6.296  18.398  0.1085  0.0706  0.1729
34716W        W41316   0.114   4.968  24.758 -0.0288  0.0563 -0.1504
34717W        W41317   7.261   2.107  36.216 -0.2601  0.3315 -0.0144
34718W        W41318  15.861   3.391  33.217 -0.1008  0.3113 -0.1292
34719W        W41319   5.923   5.469  33.732  0.0239  0.0290 -0.0286
34720W        W41320   4.721   3.768   4.169  0.2361 -0.0393  0.1090
34721W        W41321   2.283   0.317  34.008 -0.1559  0.0843  0.0757
34722W        W41322  15.128   2.788   1.113  0.0800 -0.2388  0.0727
34723W        W41323   7.189   2.296  32.729  0.3222  0.1807  0.0345
34724W        W41324  10.969   2.492  16.325 -0.0533  0.0660  0.1576
34725W        W41325  12.998   4.944  35.682 -0.0388 -0.0549 -0.0224
34726W        W41326   9.853   4.234   7.155  0.0192 -0.0566  0.2018
34727W        W41327   4.969   2.077  25.810 -0.3199 -0.0620 -0.2516
34728W        W41328  19.337   5.974   9.004 -0.0346  0.1762 -0.0281
34729W        W41329   3.340   2.749  21.507 -0.2249  0.1627 -0.0865
34730W        W41330   6.722   4.473  15.802 -0.0282 -0.3273  0.2215
34731W        W41331  15.961   3.893  31.130 -0.2411 -0.1663 -0.1701
34732W        W41332   0.722   1.482  28.907 -0.0953  0.0501  0.1656
34733W        W41333   4.373   3.997  28.723  0.0102  0.2107 -0.2401
34734W        W41334  16.023   0.587  20.604  0.0352 -0.0538 -0.1516
34735W        W41335   4.986   5.800  43.596  0.0560 -0.0271  0.0309
34736W        W41336  14.832   4.031  17.607  0.0518 -0.0565 -0.1419
34737W        W41337  14.714   4.515  39.289 -0.0741 -0.1824  0.0250
34738W        W41338   4.765   3.749   2.708 -0.0170  0.2679 -0.1139
34739W        W41339  20.353   1.197  35.421  0.0245 -0.0360 -0.2006
34740W        W41340  11.118   6.038  34.571  0.2569  0.1113 -0.2034
34741W        W41341  16.591   2.411  10.412 -0.1316  0.0736  0.0156
34742W        W41342  14.805   3.434  10.318 -0.0682 -0.0198  0.0649
34743W        W41343   5.035   4.222  42.153  0.2043 -0.0202 -0.2785
34744W        W41344   8.134   2.909  36.697  0.1343  0.1262  0.2494
34745W        W41345   7.881   6.269  39.888 -0.0324  0.0464 -0.0179
34746W        W41346   0.755   2.120  36.788 -0.0154 -0.1181 -0.1127
34747W        W41347   9.109   2.320   0.509 -0.2341  0.0415  0.1575
34748W        W41348   1.109   4.884  43.347 -0.1697  0.2993  0.1752
34749W        W41349  12.034   0.700  33.470 -0.2026  0.1492 -0.2290
34750W        W41350   0.358   2.835   3.988 -0.1868 -0.0286  0.3415
34751W        W41351   9.749   6.165   6.181  0.0226 -0.0803  0.1362
34752W        W41352  18.907   5.869  15.088 -0.1003 -0.0683  0.1000
34753W        W41353   6.100   2.528  15.295 -0.1365 -0.4747 -0.1687
34754W        W41354  13.556   0.780  28.502  0.2041  0.0256 -0.0270
34755W        W41355  18.260   5.112  13.281  0.3462 -0.0849  0.0339
34756W        W41356  17.966   5.934  20.056 -0.0557 -0.2163  0.0467
34757W        W41357  19.840   4.455  12.833 -0.1972 -0.0487  0.1488
34758W        W41358  20.884   2.307  43.664 -0.0548 -0.1850 -0.0934
34759W        W41359  14.346   0.410   0.936 -0.1332 -0.1593 -0.1541
34760W        W41360   3.402   5.748  23.065 -0.1741  0.0124  0.0987
34761W        W41361   6.848   2.234   5.558  0.0749  0.2778  0.1270
34762W        W41362  15.689   2.169  43.055  0.2737 -0.0142 -0.0503
34763W        W41363  17.018   6.501   2.923 -0.0873 -0.0258  0.0103
34764W        W41364  12.285   4.011   0.716  0.5145 -0.0099 -0.1940
34765W        W41365   4.597   3.219   5.395 -0.0106 -0.2263  0.2148
34766W        W41366  17.378   0.125   3.278 -0.2717 -0.0315 -0.2430
34767W        W41367   7.770   3.107  10.265  0.1186 -0.1639 -0.2081
34768W        W41368   5.944   2.967   6.833 -0.0516  0.4146 -0.0004
34769W        W41369  20.621   4.239  29.367 -0.0834 -0.0103 -0.3610
34770W        W41370  17.812   6.549   2.841 -0.0073 -0.1558  0.0004
34771W        W41371  19.828   1.764  43.277  0.2551  0.1538  0.0243
34772W        W41372  19.899   1.944  43.755 -0.0640 -0.0870 -0.1632
34773W        W41373   8.734   3.621  13.148 -0.1739  0.0635 -0.0482
34774W        W41374  19.065   3.826  31.490 -0.3677 -0.0562  0.4318
34775W        W41375   1.008   4.967  11.313  0.0983 -0.0412 -0.0624
34776W        W41376  18.783   2.549  12.369  0.1718  0.2762 -0.4061
34777W        W41377  18.664   2.210  30.593 -0.0774 -0.0027 -0.1751
34778W        W41378   6.032   4.203  23.521 -0.0902 -0.3248 -0.2431
34779W        W41379  14.971   0.799  31.897  0.3464 -0.1773 -0.1060
34780W        W41380  16.957   2.784  12.235 -0.0733 -0.2673 -0.0291
34781W        W41381  15.009   2.494  34.530  0.2555  0.0398  0.1505
34782W        W41382  17.111   4.081  32.499 -0.0174 -0.0398 -0.2026
34783W        W41383  14.534   1.182   5.963 -0.0504  0.1386  0.0657
34784W        W41384   8.941   2.319  11.431  0.1850  0.0154 -0.3497
34785W        W41385   2.817   1.317  43.117  0.1794 -0.0300 -0.1659
34786W        W41386   0.944   3.989  36.073  0.3385  0.2975  0.2075
34787W        W41387   0.208   1.433  33.499  0.2285  0.1485  0.0398
34788W        W41388  13.678   6.166  23.709  0.1571 -0.0755 -0.0001
34789W        W41389  12.465   5.658  12.304  0.1818 -0.2094 -0.1096
34790W        W41390   8.024   3.938   7.165 -0.1611 -0.1360 -0.0827
34791W        W41391  14.872   1.805   8.409 -0.1395  0.0579  0.1488
34792W        W41392   3.002   2.987  34.634 -0.0904 -0.1699 -0.0243
34793W        W41393  10.823   2.479  12.694 -0.1949  0.3033 -0.0077
34794W        W41394  16.125   0.261   3.404 -0.1908  0.1257 -0.1701
34795W        W41395  10.417   3.548  32.649  0.2417  0.1099 -0.0794
34796W        W41396   7.820   0.776  36.041 -0.3091 -0.0742  0.2259
34797W        W41397   4.482   6.440  25.971  0.1149 -0.0189 -0.1298
34798W        W41398   9.700   6.298   0.223 -0.1886  0.2822 -0.0797
34799W        W41399   5.147   5.583  38.827 -0.3866  0.0545  0.2566
34800W        W41400  15.009   3.436  36.837 -0.1202  0.1141 -0.1100
34801W        W41401  20.531   0.990  38.610 -0.2938  0.1748  0.1673
34802W        W41402  10.466   6.571  44.974 -0.2507 -0.0572  0.1333
34803W        W41403  14.400   0.095  16.584  0.2211  0.2256  0.0978
34804W        W41404  16.199   1.819  15.028  0.0685 -0.0048 -0.0692
34805W        W41405  18.443   5.467   9.244  0.1463  0.2107 -0.0556
34806W        W41406   7.033   6.607   7.056  0.2608 -0.3159  0.0824
34807W        W41407   1.619   6.396   7.116 -0.1691  0.0358 -0.1730
34808W        W41408   4.793   5.571  29.713  0.1499  0.1129 -0.1754
34809W        W41409   4.330   2.652  20.075 -0.0961  0.2242 -0.1480
34810W        W41410  19.625   4.806  34.539 -0.2271  0.1403 -0.0553
34811W        W41411  14.340   3.652  15.614 -0.1928  0.0991 -0.0374
34812W        W41412   7.121   2.879  25.120 -0.2419 -0.1608  0.1038
34813W        W41413  17.786   2.219   9.053  0.0238 -0.0330 -0.0485
34814W        W41414  21.164   0.399   3.829 -0.1744 -0.0234 -0.1174
34815W        W41415  18.384   3.341  40.499 -0.0799  0.1159  0.1695
34816W        W41416  15.905   5.393  40.735  0.1194  0.3242  0.0745
34817W        W41417  17.879   5.964  32.171  0.2186 -0.0407  0.0480
34818W        W41418   2.161   2.714  33.546 -0.1562  0.0150 -0.3134
34819W        W41419   6.531   6.354   0.357  0.0951 -0.3568 -0.3605
34820W        W41420  12.287   3.191  42.387  0.0481 -0.1091  0.0878
34821W        W41421   7.965   4.297   2.001 -0.1899  0.0180  0.3431
34822W        W41422   8.267   1.689  24.520 -0.0904  0.1014 -0.0439
34823W        W41423  16.244   1.304   7.862 -0.1718  0.0156  0.2802
34824W        W41424  10.381   3.486  41.990  0.1254 -0.1050  0.0593
34825W        W41425  10.584   2.991  35.029  0.0705  0.0746  0.0731
34826W        W41426   8.041   4.088   6.639  0.2187 -0.2003 -0.4136
34827W        W41427  16.116   3.467  19.208  0.0598 -0.1164 -0.0625
34828W        W41428   9.070   2.379  10.030  0.1550  0.0023 -0.2772
34829W        W41429  11.359   1.075   1.372 -0.0180 -0.1424 -0.2317
34830W        W41430   0.890   5.053  37.772  0.1116  0.0146 -0.1619
34831W        W41431   2.234   5.302  27.776 -0.0392 -0.0342 -0.1606
34832W        W41432  13.290   0.387  43.049  0.3853  0.1708  0.2500
34833W        W41433  16.504   0.984  30.509  0.1485  0.1925 -0.1271
34834W        W41434   0.254   2.359   5.663 -0.2225  0.2499 -0.1686
34835W        W41435   0.790   6.073  29.127 -0.0870 -0.2573 -0.1074
34836W        W41436   7.542   1.477  31.085  0.1652  0.0496 -0.0389
34837W        W41437   7.806   1.629  17.089 -0.0210 -0.0650  0.2054
34838W        W41438   9.788   0.648  14.139 -0.1070 -0.1054 -0.0038
34839W        W41439  12.073   3.957  13.988 -0.0888  0.3546  0.2168
34840W        W41440   4.466   6.122   7.895  0.0918  0.0908  0.2518
34841W        W41441   3.384   1.995  11.287  0.0991 -0.1487 -0.0719
34842W        W41442   4.582   0.716  41.307 -0.0329 -0.0620  0.0453
34843W        W41443  13.686   1.002  24.687  0.0171  0.0127 -0.0506
34844W        W41444   2.133   3.348  38.650 -0.1204 -0.3337 -0.1531
34845W        W41445  18.184   1.863  42.365 -0.1973  0.0556  0.0801
34846W        W41446  13.371   5.448  31.864 -0.0254 -0.0329  0.0339
34847W        W41447   3.310   2.720  39.098 -0.1356 -0.0843  0.1102
34848W        W41448   2.848   1.578   2.177 -0.4277 -0.0663 -0.2978
34849W        W41449   4.311   5.467  13.324  0.0044  0.1653  0.1693
34850W        W41450   7.496   0.292  36.000  0.1078 -0.3843 -0.1372
34851W        W41451   3.243   1.529  27.477  0.1130  0.0060  0.1215
34852W        W41452  10.388   2.966  38.699 -0.0135  0.3498 -0.4951
34853W        W41453  11.357   4.678  15.264  0.0627  0.0594  0.1591
34854W        W41454  13.616   0.722   8.492  0.1108 -0.1991 -0.2527
34855W        W41455   7.466   3.209  35.689  0.1309  0.0091  0.1425
34856W        W41456  20.962   1.273  38.937 -0.0161 -0.0390  0.0339
34857W        W41457  19.246   5.779   8.569 -0.0482  0.0009  0.1608
34858W        W41458   1.959   2.906  42.105 -0.0223  0.1476 -0.1548
34859W        W41459  11.323   6.016  40.743 -0.2673  0.1858 -0.2466
34860W        W41460   8.282   1.833   5.981  0.3896  0.0501 -0.0007
34861W        W41461  10.239   2.136   7.546  0.2130  0.0241  0.0279
34862W        W41462   2.436   2.378  39.862  0.0299  0.2335  0.3628
34863W        W41463  11.428   0.519  42.796  0.2314  0.1445  0.0862
34864W        W41464  15.835   4.393  40.118 -0.1095  0.0810  0.0814
34865W        W41465  15.271   6.453  15.966  0.1003 -0.0608  0.0195
34866W        W41466  12.013   2.512   9.271  0.0627  0.1159 -0.1709
34867W        W41467  10.503   4.005  39.116 -0.1536  0.2397  0.0312
34868W        W41468   2.716   3.222  39.459  0.6387 -0.0136 -0.0728
34869W        W41469   0.884   3.581   0.373  0.0209 -0.1988 -0.2052
34870W        W41470  16.439   5.307  14.798  0.1539  0.0820  0.0067
34871W        W41471  13.862   3.182  37.022 -0.0808 -0.1322  0.0358
34872W        W41472  17.721   1.078  42.370 -0.0539  0.0346 -0.0567
34873W        W41473  10.401   6.218   5.388  0.0192 -0.3182 -0.3545
34874W        W41474  18.087   6.343   9.074 -0.0819 -0.1967  0.0437
34875W        W41475   9.242   2.548  16.951 -0.1228 -0.1357  0.1415
34876W        W41476   0.011   3.484  10.754 -0.0866  0.2090  0.1009
34877W        W41477   9.050   0.118  31.883  0.1596 -0.1212 -0.1186
34878W        W41478  12.462   5.514   1.393 -0.2988  0.2085  0.2285
34879W        W41479   4.609   5.354  35.625 -0.1137 -0.2263  0.1459
34880W        W41480  17.421   1.991   0.976  0.1181 -0.2071 -0.1052
34881W        W41481   7.338   0.514   5.027 -0.2005  0.0709 -0.1595
34882W        W41482  14.736   3.307  29.000  0.1105 -0.1068 -0.2873
34883W        W41483  11.620   2.880  41.865  0.0647 -0.2031  0.0139
34884W        W41484  13.747   0.584   7.069  0.2199  0.1847  0.0202
34885W        W41485  10.539   5.596  31.830  0.0084  0.0071  0.0382
34886W        W41486  20.838   5.525   3.295 -0.2235 -0.2376  0.0760
34887W        W41487   5.477   6.153  30.929  0.0687  0.1156  0.0793
34888W        W41488  11.239   1.109  31.954  0.1166 -0.1855 -0.0479
34889W        W41489   5.290   6.230   2.598 -0.0435  0.0392  0.3575
34890W        W41490   1.971   3.596  10.623 -0.0625  0.1110 -0.1280
34891W        W41491  19.688   0.105  13.865  0.1748 -0.2117  0.0314
34892W        W41492  14.408   4.889  25.179 -0.1916 -0.0431 -0.2417
34893W        W41493  10.007   5.287  13.080  0.3635  0.0223 -0.1517
34894W        W41494  12.424   1.981  12.157  0.1524 -0.3049 -0.1007
34895W        W41495  11.044   6.302  11.835  0.1282  0.1362 -0.0395
34896W        W41496   0.691   2.663  43.652  0.1081 -0.2734  0.1328
34897W        W41497  20.560   3.356  34.233  0.1182 -0.1058  0.1355
34898W        W41498  16.102   0.445  21.899  0.2531 -0.1288 -0.0396
34899W        W41499   0.696   1.318  41.642 -0.0732 -0.1195  0.1575
34900W        W41500   9.111   4.231  31.967  0.0306  0.0352  0.1903
34901W        W41501   1.534   5.509  11.680 -0.2294 -0.0535 -0.1156
34902W        W41502  15.514   3.553  35.450  0.0832 -0.0840  0.1387
34903W        W41503   3.650   1.399  20.984 -0.1698  0.2250 -0.0856
34904W        W41504  18.702   1.265  19.013  0.0458  0.2376  0.0864
34905W        W41505  10.172   4.147  30.923 -0.1931 -0.2508 -0.2969
34906W        W41506   8.676   1.872   0.291 -0.1374 -0.0539 -0.1794
34907W        W41507  11.831   1.033   9.169  0.1514  0.4371  0.0881
34908W        W41508  11.785   3.420  12.681  0.2162  0.0038  0.0475
34909W        W41509   2.885   3.382  36.993  0.0431 -0.1817  0.1150
34910W        W41510  14.993   4.382  34.629  0.0257 -0.0095 -0.0479
34911W        W41511  17.232   2.570  38.345 -0.1539  0.2845  0.0203
34912W        W41512   5.192   3.370   8.067  0.1333  0.2645 -0.2411
34913W        W41513  15.456   3.603  17.685  0.1917 -0.3675  0.1035
34914W        W41514  19.338   2.667   2.840  0.0837  0.3000 -0.0940
34915W        W41515  14.022   6.476   2.209 -0.0102 -0.1473  0.0647
34916W        W41516  14.784   2.791   0.083 -0.1501 -0.1518 -0.0107
34917W        W41517  15.730   1.506   7.833  0.2496 -0.0072 -0.0996
34918W        W41518   1.194   6.210   7.315  0.2546 -0.0818 -0.1694
34919W        W41519  16.051   2.162  31.554 -0.0202 -0.0692 -0.2128
34920W        W41520  10.668   2.315  16.693 -0.0663  0.2349  0.2236
34921W        W41521  16.149   0.696   1.512 -0.1495 -0.1112  0.2396
34922W        W41522   0.772   0.892  24.768 -0.1371 -0.1663 -0.0549
34923W        W41523  14.284   5.305  11.849  0.0900 -0.0225  0.1033
34924W        W41524   6.488   3.645  31.597 -0.0275 -0.1344 -0.2357
34925W        W41525  11.383   3.528  13.000  0.1459  0.1202 -0.1121
34926W        W41526   0.445   5.410  40.415 -0.0471 -0.2212 -0.2687
34927W        W41527   0.590   0.885  26.707  0.2228 -0.0010 -0.0328
34928W        W41528   4.995   1.763   6.521  0.1086  0.3766  0.0385
34929W        W41529   5.877   2.101   6.801  0.0548  0.3827  0.2159
34930W        W41530   4.881   3.800   4.999 -0.3919  0.4435 -0.2648
34931W        W41531   4.127   0.092  22.834 -0.1273 -0.1525  0.0095
34932W        W41532  11.279   3.930  37.096  0.0771 -0.0045  0.0129
34933W        W41533  14.494   4.550  22.587  0.1320  0.1782 -0.0151
34934W        W41534  16.754   3.293   8.697 -0.0935  0.1563 -0.0420
34935W        W41535   5.938   1.870  33.805 -0.0239  0.0085 -0.0068
34936W        W41536  15.691   2.253  19.345  0.3848  0.1143 -0.2907
34937W        W41537  13.418   0.113  33.825  0.0938 -0.2486  0.0234
34938W        W41538  15.875   0.326  36.043  0.2118 -0.6398 -0.1832
34939W        W41539   8.657   1.319  42.820  0.0479  0.1298 -0.0770
34940W        W41540  16.329   0.441   2.398 -0.1286 -0.0270  0.0551
34941W        W41541  12.294   1.006  41.702  0.0227  0.2425  0.3057
34942W        W41542   4.943   3.832  38.774  0.2633 -0.2409  0.1702
34943W        W41543   3.772   4.356  19.675 -0.3258 -0.0290  0.1895
34944W        W41544  16.700   4.967  43.622  0.1042 -0.3406  0.2470
34945W        W41545  11.843   2.425  18.723  0.1235 -0.0418  0.4869
34946W        W41546   6.631   3.549  32.961 -0.1427  0.2314  0.1735
34947W        W41547   8.081   0.968  39.129 -0.1040  0.0581 -0.1292
34948W        W41548   3.447   0.419  29.944 -0.2333 -0.1208  0.1020
34949W        W41549   7.754   5.525  31.084  0.2518  0.0873 -0.0415
34950W        W41550  17.001   1.629  10.939 -0.2899  0.2667 -0.3980
34951W        W41551   8.040   1.762  25.380  0.0823 -0.0805  0.0768
34952W        W41552   0.373   0.853  41.311  0.1390  0.0377  0.0415
34953W        W41553   0.350   1.113  10.198 -0.2038  0.0790  0.2985
34954W        W41554   3.380   2.380  13.835  0.1102 -0.1777  0.2526
34955W        W41555  15.670   0.759   4.333  0.1406  0.6234 -0.1773
34956W        W41556   6.294   0.423  15.493 -0.2159  0.0562  0.1447
34957W        W41557  12.903   0.988  15.580  0.0446  0.1694 -0.1157
34958W        W41558   4.134   4.157  43.448 -0.2292 -0.1664  0.0631
34959W        W41559  16.427   1.419   1.067 -0.4276 -0.0095 -0.1425
34960W        W41560  16.292   6.540   6.427  0.0912  0.3535 -0.0002
34961W        W41561   6.208   2.914   2.848 -0.2265 -0.3797 -0.1456
34962W        W41562  20.957   4.743  16.461 -0.2299  0.0873  0.0820
34963W        W41563  16.676   6.101  44.921 -0.1678 -0.0734  0.1363
34964W        W41564  11.805   4.043  33.003 -0.5126 -0.0504 -0.2954
34965W        W41565   2.515   1.699  11.332 -0.1546  0.0601 -0.2442
34966W        W41566  14.356   3.184  11.825  0.4436 -0.1132  0.0080
34967W        W41567   3.083   4.828  33.395 -0.1120 -0.0053  0.3894
34968W        W41568   4.365   5.023  44.400 -0.4832 -0.0948  0.0490
34969W        W41569   8.162   3.305  13.732 -0.0369 -0.1155  0.0542
34970W        W41570   9.808   0.919  32.292 -0.0461  0.0448  0.1232
34971W        W41571   4.210   2.971  26.145  0.0767  0.0441 -0.1686
34972W        W41572   4.048   6.225  33.059  0.2047  0.1667  0.2136
34973W        W41573  20.535   0.978   7.869  0.1286  0.2691  0.1660
34974W        W41574  17.903   2.471  44.116  0.0773  0.0687  0.3143
34975W        W41575   0.233   2.221  40.709  0.3668  0.2733  0.3306
34976W        W41576   9.307   5.867  42.506  0.1288  0.3442  0.2720
34977W        W41577   6.818   1.002   0.103 -0.1210  0.4573  0.0868
34978W        W41578   3.004   2.821  23.484  0.1431  0.3941 -0.1968
34979W        W41579  12.838   6.566  35.284  0.1164  0.2198  0.4121
34980W        W41580  17.259   5.637  37.304  0.1614 -0.1586  0.2753
34981W        W41581  12.981   2.030  44.415  0.1321  0.0886  0.1208
34982W        W41582   5.068   3.405  37.680  0.3588 -0.0414 -0.0588
34983W        W41583  19.673   2.552  31.884  0.0959 -0.0909 -0.1869
34984W        W41584  14.094   2.457  38.602 -0.1157  0.1208  0.0082
34985W        W41585  19.989   1.058   6.648  0.1026 -0.0726  0.1469
34986W        W41586   3.270   4.081   7.079  0.2050 -0.1824  0.0879
34987W        W41587  19.812   3.329  44.838  0.1422  0.1627 -0.0283
34988W        W41588  13.881   6.465  14.258  0.0943 -0.3868  0.0785
34989W        W41589   1.538   3.286  34.619  0.0491  0.0907  0.1369
34990W        W41590  12.954   1.711   6.663 -0.0451  0.0595  0.0152
34991W        W41591  18.198   3.469  33.067  0.1884 -0.1288  0.0910
34992W        W41592   7.807   1.377   3.068  0.1273  0.0902  0.0897
34993W        W41593   6.552   2.733  44.896  0.0626  0.0570 -0.2152
34994W        W41594   6.299   0.865  28.608 -0.3149 -0.1099 -0.1500
34995W        W41595  20.809   5.651  38.025  0.2486  0.1779 -0.0751
34996W        W41596   2.365   5.717  10.364 -0.2523  0.3134 -0.3259
34997W        W41597   9.725   4.977  39.811 -0.0551 -0.0291  0.0577
34998W        W41598   5.723   1.434  11.206 -0.1444  0.1178 -0.0270
34999W        W41599  14.414   3.568  35.647  0.3424 -0.1436 -0.0568
35000W        W41600  20.773   3.408  15.965 -0.0290 -0.0178  0.0186
35001W        W41601   8.190   1.617   2.237  0.1197 -0.0217 -0.0962
35002W        W41602  14.885   3.327   4.901  0.0660 -0.1297 -0.2297
35003W        W41603  11.123   0.230  12.843  0.1046  0.0646 -0.0962
35004W        W41604  18.418   4.546  18.191 -0.2540  0.0728  0.0572
35005W        W41605   9.065   2.364  28.863 -0.0437 -0.0919  0.0778
35006W        W41606  14.560   5.339  24.737 -0.0116  0.0169 -0.1698
35007W        W41607   8.621   1.311   9.260 -0.2041  0.0682  0.0439
35008W        W41608   2.545   1.375   0.606  0.1429 -0.0595 -0.3359
35009W        W41609   2.246   1.580  30.871  0.3406  0.1162 -0.4002
35010W        W41610   8.230   4.732  36.796  0.3263  0.0431  0.1418
35011W        W41611  14.457   1.397  25.087 -0.2249  0.1707 -0.0165
35012W        W41612  13.753   2.527  31.719 -0.0831  0.2555 -0.2338
35013W        W41613  19.601   0.449   9.662  0.1972 -0.2613 -0.0265
35014W        W41614  18.812   5.178  34.606  0.0832 -0.0672 -0.1346
35015W        W41615   0.968   2.983   5.762 -0.1652  0.1725  0.0865
35016W        W41616   6.391   2.045  32.975 -0.0191 -0.1338 -0.4019
35017W        W41617  13.182   5.143  29.553  0.0047 -0.1970 -0.1342
35018W        W41618  19.566   4.954   2.239 -0.0550  0.0473  0.0673
35019W        W41619  14.683   1.366   0.819  0.1058 -0.0019  0.1514
35020W        W41620   5.120   4.585  31.594  0.0639  0.0279 -0.0316
35021W        W41621  16.159   6.114  41.293  0.1283 -0.1596 -0.0492
35022W        W41622  16.794   1.340  32.984 -0.3132  0.0147  0.1031
35023W        W41623   6.030   0.515   3.262  0.0430 -0.2144  0.0477
35024W        W41624  20.475   3.387  35.816 -0.0804 -0.0969 -0.0145
35025W        W41625   0.638   5.957  32.976  0.0844  0.1957  0.2526
35026W        W41626   8.475   1.682   7.710  0.0794  0.0796  0.3912
35027W        W41627  11.922   5.985  33.589  0.0302 -0.0278  0.1535
35028W        W41628  16.851   2.588  32.572  0.0274 -0.0754 -0.0003
35029W        W41629   8.860   6.080   9.014  0.0688 -0.1200  0.0218
35030W        W41630   0.542   0.395  41.802 -0.0631  0.0583  0.0412
35031W        W41631  16.005   2.432  30.054 -0.3231 -0.0404 -0.1218
35032W        W41632  10.490   0.650  15.729 -0.3038  0.1729  0.0653
35033W        W41633  19.290   6.472  12.001 -0.0410 -0.0529 -0.0148
35034W        W41634  14.452   4.496  21.628 -0.2830  0.0556 -0.0411
35035W        W41635   4.300   0.595  10.825  0.2120  0.0648 -0.0598
35036W        W41636   1.197   0.077   0.964 -0.2142 -0.2216 -0.1611
35037W        W41637  16.924   0.485  32.096 -0.1210  0.1263  0.0200
35038W        W41638   2.063   4.171  33.031  0.2657 -0.0028  0.0838
35039W        W41639  20.178   0.212   2.992 -0.2139 -0.0913  0.1494
35040W        W41640   1.373   2.081   1.452 -0.0452 -0.1869 -0.2008
35041W        W41641  16.724   0.663  19.291  0.0489  0.1213 -0.0527
35042W        W41642   3.298   4.362  34.387  0.2473 -0.1738  0.1373
35043W        W41643  12.991   3.708  23.571  0.2635  0.2197 -0.0461
35044W        W41644   7.808   0.255  35.224  0.0798 -0.4087  0.0619
35045W        W41645  18.381   3.760  45.154  0.2467  0.0144 -0.2854
35046W        W41646  20.409   0.444  32.396 -0.0825  0.1084 -0.2895
35047W        W41647  10.868   4.734  33.185  0.1860 -0.0071  0.2882
35048W        W41648   4.092   3.535  22.966 -0.1116 -0.0872 -0.0416
35049W        W41649  16.901   0.048  41.009 -0.0283  0.2380  0.1153
35050W        W41650  20.199   2.761  32.539  0.3009  0.1261 -0.1778
35051W        W41651  10.580   2.242   1.152  0.0821  0.1734 -0.1522
35052W        W41652  20.880   0.400  37.864  0.2274  0.3088 -0.0009
35053W        W41653   1.593   6.603  14.190 -0.2927 -0.1311 -0.0303
35054W        W41654   0.663   2.731   1.350 -0.2524 -0.2846  0.0224
35055W        W41655  11.717   3.128   6.268  0.3615  0.4049 -0.1288
35056W        W41656   9.964   3.405   9.126 -0.1353 -0.0163 -0.1597
35057W        W41657  10.536   6.513  37.800 -0.2478 -0.0215  0.1285
35058W        W41658  15.465   2.349  17.023  0.0926 -0.0337  0.0120
35059W        W41659  10.385   0.436  18.277  0.5451  0.0415 -0.0800
35060W        W41660  15.647   2.634  13.490  0.0713  0.3087 -0.0580
35061W        W41661  13.839   5.289   8.631 -0.1461  0.0303  0.2275
35062W        W41662  20.390   1.981  41.257 -0.0687  0.2817 -0.0541
35063W        W41663   4.649   5.446  12.164  0.2629  0.2168 -0.3250
35064W        W41664  12.578   1.034  22.007 -0.3720 -0.0248 -0.1669
35065W        W41665   4.268   6.576  36.546 -0.2624 -0.2119  0.1372
35066W        W41666  10.331   2.777  37.652 -0.1711 -0.0575 -0.0498
35067W        W41667   0.474   1.695   7.473 -0.0751  0.0227 -0.0593
35068W        W41668   6.819   5.249  37.736  0.3345  0.0427 -0.4049
35069W        W41669   2.344   6.307  30.081  0.2176 -0.1948  0.0877
35070W        W41670   4.712   5.163  39.603 -0.1100 -0.0638 -0.0860
35071W        W41671   5.650   4.684   1.426  0.1060 -0.0588 -0.0223
35072W        W41672   7.925   0.332   5.403  0.1131 -0.1829 -0.0053
35073W        W41673   0.195   3.606  29.857  0.0627  0.0418 -0.1097
35074W        W41674   2.238   1.079  33.221 -0.1218  0.0391 -0.2535
35075W        W41675   6.893   5.509   4.886  0.0715 -0.2195 -0.3519
35076W        W41676   0.808   3.718  26.747  0.3130 -0.1496 -0.0012
35077W        W41677   9.620   6.271  28.222  0.0288  0.3551 -0.2799
35078W        W41678   8.670   5.384   2.059  0.1473 -0.2193  0.0142
35079W        W41679  15.264   4.117  16.549 -0.0075 -0.1582 -0.0244
35080W        W41680  10.329   2.216  33.969 -0.0620 -0.0352  0.0739
35081W        W41681   4.212   3.698   7.043 -0.1234 -0.1451  0.2100
35082W        W41682  11.541   0.932  41.554  0.2370 -0.1409 -0.0864
35083W        W41683   5.564   5.266  14.386  0.0205  0.0234 -0.0866
35084W        W41684  19.575   0.022  39.068  0.0018  0.2616  0.2803
35085W        W41685  17.702   0.031  11.127 -0.4791 -0.2623 -0.1652
35086W        W41686  19.954   6.199  15.890 -0.1121  0.4260 -0.1653
35087W        W41687   3.199   3.506  37.402 -0.1418 -0.0501 -0.2001
35088W        W41688   7.184   0.484  29.012 -0.0026 -0.1030 -0.2840
35089W        W41689   8.339   1.772  28.034  0.2609 -0.0356 -0.0029
35090W        W41690   2.896   4.330  10.714 -0.3499  0.1468  0.0424
35091W        W41691   3.547   3.496   9.707 -0.0147  0.0301  0.1447
35092W        W41692   2.991   6.246  10.979 -0.0466  0.0412  0.1807
35093W        W41693  13.526   0.058  13.532 -0.0836  0.1459  0.1106
35094W        W41694  12.648   0.107  16.666 -0.0544  0.2434  0.0665
35095W        W41695   5.867   3.351  42.941 -0.2621 -0.3130 -0.2849
35096W        W41696   2.912   0.317  44.781 -0.1901  0.0164  0.0555
35097W        W41697   0.546   2.440   7.437  0.4118 -0.1721 -0.4751
35098W        W41698  18.855   0.706   1.037 -0.1241  0.3646  0.1031
35099W        W41699  20.978   0.563   9.090 -0.1341  0.2578 -0.2597
35100W        W41700  10.534   3.585   3.525  0.0714  0.1162  0.0616
35101W        W41701   8.309   4.949  31.997 -0.0915 -0.1316 -0.1123
35102W        W41702   0.434   0.109  10.676  0.2058  0.1479 -0.2423
35103W        W41703   9.095   6.432  41.165 -0.1203  0.0041  0.1816
35104W        W41704   6.209   0.927  37.386  0.0991 -0.1957  0.1072
35105W        W41705  19.022   2.011  34.870 -0.0199  0.0601  0.3096
35106W        W41706  15.351   5.015  13.623 -0.1251  0.1500  0.2279
35107W        W41707  19.221   5.773  44.600 -0.0089  0.3494 -0.2851
35108W        W41708   6.248   4.255   7.009  0.0370  0.0774 -0.2099
35109W        W41709   4.145   1.973  28.984 -0.2535 -0.2538  0.1242
35110W        W41710  11.000   0.651  33.534  0.0530  0.1612  0.1041
35111W        W41711  16.235   0.613  21.045 -0.2590  0.1125 -0.2482
35112W        W41712  14.895   4.455  23.481  0.0243  0.0323 -0.0450
35113W        W41713  12.413   6.441  38.148  0.2052 -0.1571  0.2196
35114W        W41714  13.267   5.594   4.528 -0.0673  0.1696 -0.0801
35115W        W41715  16.861   0.541  39.051 -0.2947 -0.1974 -0.1287
35116W        W41716   2.773   5.553  45.023  0.0739 -0.1132  0.3473
35117W        W41717   8.060   4.620  17.063 -0.0908 -0.1354  0.0604
35118W        W41718   1.292   1.806  31.354  0.6020 -0.0422  0.1225
35119W        W41719   9.724   3.779   4.053  0.1086 -0.2406  0.1666
35120W        W41720  10.423   5.369  35.786  0.2719 -0.0438 -0.1099
35121W        W41721  14.198   1.602  40.600  0.1864  0.3305  0.0488
35122W        W41722  11.834   3.645  44.860  0.0617 -0.2389  0.0259
35123W        W41723  11.223   0.179  33.575 -0.1756  0.2750  0.0708
35124W        W41724  14.458   0.213   8.329 -0.0037 -0.3468 -0.0039
35125W        W41725   9.779   3.563  16.262  0.0482 -0.0273 -0.0114
35126W        W41726  18.180   2.045  44.217  0.0083  0.1376 -0.1631
35127W        W41727   3.203   6.040  40.581  0.0586 -0.1415  0.0149
35128W        W41728   8.702   5.531  15.810  0.2788 -0.0136 -0.4163
35129W        W41729   4.002   4.444   7.518  0.0767  0.1088 -0.0356
35130W        W41730  14.978   3.720  44.710  0.2891 -0.1781 -0.2009
35131W        W41731   4.003   0.806   2.765  0.0422 -0.1553  0.3887
35132W        W41732   3.866   2.968  14.369 -0.0076  0.5621 -0.1214
35133W        W41733  17.266   5.816  12.972 -0.1659 -0.2305  0.1380
35134W        W41734   2.643   3.050  22.911 -0.0708  0.2641  0.1358
35135W        W41735   7.121   2.294  38.910 -0.0692 -0.1076 -0.1592
35136W        W41736   2.247   5.363  36.473 -0.1595  0.0978 -0.0519
35137W        W41737  14.310   6.241   7.220 -0.1739  0.1922  0.0447
35138W        W41738   8.831   1.597   8.220  0.3519 -0.0833  0.2761
35139W        W41739   2.316   0.662   7.524 -0.1486 -0.2707  0.2736
35140W        W41740   1.068   2.954  42.381 -0.0345 -0.0476  0.2717
35141W        W41741  19.883   3.387  38.829  0.0836  0.0554 -0.0492
35142W        W41742   1.818   6.047  21.996 -0.1887 -0.4047 -0.1982
35143W        W41743   3.105   4.783   1.186  0.0658  0.1200  0.0075
35144W        W41744   3.540   1.745  41.603  0.1249 -0.1363 -0.1196
35145W        W41745   6.580   4.202  13.787 -0.0213  0.0226 -0.1362
35146W        W41746  19.040   3.652  27.919 -0.2128  0.4385 -0.0941
35147W        W41747   0.517   3.283   5.623 -0.0757 -0.0347 -0.0474
35148W        W41748  20.437   4.561   8.124  0.0135 -0.2496  0.1041
35149W        W41749   1.284   1.528   3.684 -0.0845 -0.1374 -0.0538
35150W        W41750  20.589   2.233  44.578  0.0776 -0.1967 -0.1100
35151W        W41751  11.038   6.040  18.027 -0.0576  0.1182  0.2823
35152W        W41752  20.322   0.149  28.561  0.2291  0.0345 -0.1488
35153W        W41753   4.428   0.341  28.281 -0.0182  0.0109 -0.0645
35154W        W41754   5.101   2.025  35.764 -0.1856 -0.0005  0.0895
35155W        W41755  12.773   0.077   9.189 -0.0152  0.0280 -0.2227
35156W        W41756  15.129   1.333   8.726  0.0089 -0.2583  0.0257
35157W        W41757  17.650   5.194  10.712  0.2267 -0.3077 -0.0786
35158W        W41758   1.626   2.949   6.278  0.1136 -0.2166  0.2405
35159W        W41759  17.128   4.223  15.636  0.1900  0.0357  0.0432
35160W        W41760   1.560   2.016  34.649  0.2503 -0.1841 -0.2231
35161W        W41761   9.576   1.835   8.362  0.2593  0.0554  0.2699
35162W        W41762  11.999   2.888  38.414 -0.0951  0.0449 -0.0544
35163W        W41763   8.930   4.617  11.768  0.2793 -0.2322  0.0992
35164W        W41764  17.310   4.096  33.982  0.1347 -0.0099 -0.1389
35165W        W41765   9.654   2.824  17.179 -0.0735  0.1092 -0.1815
35166W        W41766   9.789   4.732   7.631 -0.2961 -0.0216  0.1172
35167W        W41767   4.488   2.646  29.367  0.0428 -0.0303 -0.2171
35168W        W41768  12.395   4.741  44.549  0.3571  0.2047  0.1461
35169W        W41769  17.523   4.084  17.214  0.0676 -0.2265  0.2347
35170W        W41770  19.508   5.391  39.844 -0.0057 -0.0931 -0.0622
35171W        W41771   7.875   4.554   8.718  0.1137 -0.0348 -0.0020
35172W        W41772   3.786   2.828   6.754 -0.2022 -0.0811 -0.1720
35173W        W41773  19.828   0.789  16.803 -0.4706 -0.3327  0.0786
35174W        W41774  13.580   2.524  15.789  0.1947 -0.3366 -0.1953
35175W        W41775  10.926   0.764  43.541  0.1518  0.1270 -0.0252
35176W        W41776  13.214   0.872  22.553 -0.1950  0.1357  0.0759
35177W        W41777   0.700   5.121  35.590 -0.0341 -0.0848  0.0802
35178W        W41778  10.043   2.834   1.331  0.1016 -0.0321  0.0857
35179W        W41779   8.918   0.815   9.278  0.1524 -0.0428  0.1187
35180W        W41780   6.789   4.715  28.015  0.1838  0.0954  0.2540
35181W        W41781  12.964   1.295  36.008  0.1923  0.0579  0.3160
35182W        W41782   9.261   0.169  38.709 -0.2058 -0.3110 -0.0405
35183W        W41783  18.789   3.482  15.554 -0.1049 -0.1570 -0.2824
35184W        W41784  16.946   0.062   4.245  0.0469 -0.0568 -0.2613
35185W        W41785  10.070   5.326  11.837 -0.0805  0.3372  0.1538
35186W        W41786   2.846   2.371   5.789 -0.2436  0.1890 -0.0449
35187W        W41787  15.268   2.149  41.126  0.0254  0.1054 -0.1415
35188W        W41788   4.602   4.558   5.022  0.0055 -0.0221 -0.0512
35189W        W41789   6.946   3.749  24.639  0.2274  0.1935 -0.0726
35190W        W41790   0.016   3.948  12.631  0.2057 -0.1367 -0.2143
35191W        W41791  14.196   2.348   0.966  0.1318  0.1708 -0.3711
35192W        W41792   2.887   6.571   3.943 -0.1014 -0.2742 -0.0974
35193W        W41793   8.099   4.820   2.739 -0.2152  0.4103 -0.0368
35194W        W41794  12.899   6.259   3.911  0.1976  0.1695 -0.0169
35195W        W41795   6.242   4.435  28.341 -0.1254 -0.0193  0.0680
35196W        W41796   5.249   5.795   1.587 -0.1285  0.0778 -0.1320
35197W        W41797   3.757   2.305  41.474  0.1675  0.3216 -0.1644
35198W        W41798  11.873   5.831  40.070 -0.0943 -0.0939  0.1095
35199W        W41799   6.893   5.195  33.766  0.0280 -0.2467  0.1606
35200W        W41800  12.371   1.366  38.611 -0.0475 -0.1016  0.1779
35201W        W41801  18.179   4.909   4.957 -0.1341 -0.1304 -0.0160
35202W        W41802  13.123   0.605   8.007 -0.0190 -0.1447 -0.1111
35203W        W41803  10.185   3.980   2.569  0.1186 -0.0949  0.3695
35204W        W41804  19.383   0.153   3.595  0.0435  0.0017  0.1599
35205W        W41805  11.393   5.747  29.052 -0.1448 -0.0151 -0.3336
35206W        W41806  10.596   4.957  11.816 -0.0409 -0.0352 -0.0336
35207W        W41807   7.905   1.976  26.989  0.0378 -0.0438  0.4846
35208W        W41808  15.089   3.652  24.468 -0.1092  0.2349  0.2222
35209W        W41809  12.547   5.728  35.047 -0.0912  0.0385 -0.0282
35210W        W41810   3.285   0.611  10.032  0.1285 -0.1467 -0.0423
35211W        W41811   5.789   2.134   7.904 -0.0276  0.0043  0.0231
35212W        W41812  21.012   6.063  15.901  0.0747  0.0409  0.2133
35213W        W41813  19.647   4.116  42.792 -0.1709  0.0028  0.1622
35214W        W41814   3.399   2.958  21.055  0.0687 -0.0689  0.1458
35215W        W41815  20.971   3.698  45.085  0.0831 -0.0443 -0.2167
35216W        W41816  11.904   3.622  32.715  0.2593  0.0200  0.2648
35217W        W41817   6.820   4.055   0.198  0.0389  0.0614 -0.2747
35218W        W41818   5.507   3.595  25.487 -0.1791 -0.1703  0.0004
35219W        W41819   8.792   3.458  35.680 -0.1388 -0.3809 -0.1278
35220W        W41820   0.822   2.560   0.856 -0.3365 -0.0729  0.0845
35221W        W41821   6.358   4.585  39.462  0.0204  0.1441 -0.0829
35222W        W41822   5.680   3.367  27.622 -0.0515 -0.0885 -0.0301
35223W        W41823  10.705   2.965  10.843  0.0134 -0.1233 -0.0421
35224W        W41824  14.537   2.259  18.158 -0.0231  0.1218 -0.1602
35225W        W41825  15.480   1.638  38.823  0.2911 -0.0254  0.0776
35226W        W41826  16.173   1.060  17.597  0.1232 -0.0655  0.0315
35227W        W41827  21.120   6.122  12.294 -0.0402  0.1727 -0.0016
35228W        W41828   0.842   2.178  43.812  0.2991 -0.1663 -0.3438
35229W        W41829  20.758   0.423  10.902  0.0057 -0.1757  0.2042
35230W        W41830   1.174   6.079  38.807 -0.1210 -0.1788 -0.0856
35231W        W41831   1.053   3.431  27.222 -0.3499  0.3470 -0.4729
35232W        W41832   3.743   1.206  11.501 -0.0211  0.1023  0.1371
35233W        W41833   3.481   6.255  40.195 -0.3391  0.1990 -0.2494
35234W        W41834  18.717   3.476   5.218  0.1414  0.2878  0.0724
35235W        W41835  16.060   3.927  13.097 -0.0473 -0.3172 -0.0277
35236W        W41836  20.394   4.269  25.234  0.1509 -0.2578 -0.0471
35237W        W41837   3.181   2.979   6.550  0.0273 -0.1624  0.1099
35238W        W41838  16.822   1.035   5.258 -0.2921  0.1164 -0.0153
35239W        W41839   7.165   2.736   9.856 -0.0702  0.3315  0.1522
35240W        W41840  11.103   6.383  21.670 -0.0963 -0.1252 -0.0405
35241W        W41841  10.320   0.773   9.146  0.3330 -0.0199  0.1805
35242W        W41842   0.547   4.573  32.410 -0.0597  0.0619 -0.1170
35243W        W41843  18.665   1.294  44.791  0.3553 -0.2304 -0.0848
35244W        W41844  19.709   2.529  17.133 -0.2574  0.1560  0.1753
35245W        W41845  10.228   2.317  14.388 -0.0578 -0.0499  0.0364
35246W        W41846  20.027   4.794   9.403  0.2849 -0.1023  0.0510
35247W        W41847   2.405   5.666  22.762 -0.0551 -0.1750 -0.1908
35248W        W41848   2.112   3.063   1.980  0.2937  0.2117  0.2417
35249W        W41849  14.116   1.054  30.749 -0.1660  0.1984  0.0048
35250W        W41850   0.014   5.916   5.266  0.2275 -0.0493  0.1985
35251W        W41851   8.924   4.157  12.166  0.1297 -0.1805 -0.0105
35252W        W41852  14.585   3.009  24.633  0.2940  0.1358 -0.5740
35253W        W41853   2.547   3.875  13.523  0.0117  0.2626 -0.0056
35254W        W41854  15.989   4.135  16.327 -0.1411 -0.1856 -0.1567
35255W        W41855   2.706   3.372  21.414  0.1757 -0.0644  0.2119
35256W        W41856   8.816   5.307  18.199 -0.2693 -0.0119 -0.0642
35257W        W41857   2.009   5.338  44.234 -0.2251  0.2814 -0.1341
35258W        W41858  19.229   1.064  35.758 -0.1193  0.3925  0.1236
35259W        W41859  14.987   3.084  16.189  0.1607 -0.0080 -0.4405
35260W        W41860  16.091   1.185  10.821 -0.2589  0.1073  0.2381
35261W        W41861  18.013   5.377   0.169 -0.0370 -0.0754 -0.1333
35262W        W41862   6.879   5.603  26.658  0.0046  0.1987  0.0489
35263W        W41863  18.425   5.900  35.376  0.3357  0.1427 -0.0012
35264W        W41864   8.959   4.472  42.163  0.0719  0.1120 -0.2803
35265W        W41865   9.952   3.237  29.823 -0.3802 -0.0806  0.1735
35266W        W41866   3.730   3.251  32.885 -0.0478  0.0704  0.1296
35267W        W41867   2.660   1.445  40.193  0.0303  0.2277 -0.3275
35268W        W41868   0.530   4.800   1.203  0.4710 -0.0730 -0.2642
35269W        W41869  14.887   2.703  13.736 -0.0984 -0.1134  0.2903
35270W        W41870  10.856   0.317   6.022  0.0391 -0.1157 -0.2886
35271W        W41871   0.176   4.344  36.473 -0.1541 -0.1791 -0.1673
35272W        W41872   3.327   1.722  30.827  0.0842 -0.2175 -0.2569
35273W        W41873  11.104   2.556   4.025  0.1541 -0.3832 -0.2612
35274W        W41874   0.195   6.215  36.642  0.0418 -0.1523  0.2571
35275W        W41875   2.897   1.460  11.926  0.1360 -0.2243  0.0701
35276W        W41876   7.698   2.907  31.344 -0.0687 -0.1239  0.3323
35277W        W41877  14.766   5.389  19.999 -0.2273  0.0046  0.0913
35278W        W41878   8.385   4.689  29.955  0.1142  0.4267  0.1425
35279W        W41879  16.088   3.119  31.030 -0.1768  0.3020 -0.2151
35280W        W41880   9.485   3.688  32.630 -0.2457  0.1136  0.0310
35281W        W41881   7.120   5.067  41.312 -0.0338  0.0584  0.2807
35282W        W41882   3.639   2.077   9.751  0.2474  0.2199  0.0419
35283W        W41883   0.444   1.649  10.385  0.0345 -0.1560 -0.1977
35284W        W41884   9.966   2.060  14.040  0.1344  0.0388  0.2318
35285W        W41885  15.278   2.388   9.497 -0.2181  0.0557 -0.4276
35286W        W41886   5.027   3.910  37.330 -0.0595 -0.1615 -0.2528
35287W        W41887  13.810   3.239  19.556 -0.1409  0.2559 -0.0051
35288W        W41888   7.251   5.311   7.410 -0.0145 -0.1978  0.1876
35289W        W41889   4.264   2.442  21.731  0.1466  0.3095  0.0896
35290W        W41890  20.874   5.639  35.287 -0.2412 -0.0680 -0.1459
35291W        W41891   9.317   0.685  37.503  0.0210  0.0932  0.0430
35292W        W41892   2.489   6.456  15.894  0.0379 -0.0719 -0.0835
35293W        W41893   8.434   0.038  36.019  0.2469  0.0978  0.1612
35294W        W41894   6.964   0.547   5.780  0.0709  0.3412 -0.1111
35295W        W41895  15.958   1.494  16.904  0.0010  0.0554  0.1820
35296W        W41896   5.655   2.136  31.938  0.4726 -0.2859 -0.3163
35297W        W41897   8.292   5.562  39.352 -0.2740  0.0691 -0.0254
35298W        W41898  12.227   3.084  39.271 -0.1073  0.1346 -0.1361
35299W        W41899   2.050   0.251  14.375 -0.3996 -0.4054  0.2591
35300W        W41900  14.657   5.438   3.391  0.0119  0.1078  0.0604
35301W        W41901  17.818   3.950   8.545 -0.1608 -0.0588  0.0255
35302W        W41902   8.167   5.508   4.378  0.1300 -0.3070 -0.2016
35303W        W41903  11.083   0.404  18.993 -0.2776  0.0009  0.2463
35304W        W41904   4.880   0.649  42.841  0.1537  0.1602 -0.0168
35305W        W41905   9.109   3.493  37.265 -0.0960  0.1380  0.1308
35306W        W41906  18.803   2.833   3.172  0.1413  0.1467  0.1630
35307W        W41907   7.216   3.507  11.877  0.0334  0.1058  0.0183
35308W        W41908  11.304   3.005  30.106 -0.0800 -0.1147  0.0682
35309W        W41909  13.424   0.963  37.658 -0.1903  0.1193 -0.3710
35310W        W41910  15.634   2.022  20.633  0.0088 -0.0702  0.0888
35311W        W41911   9.230   2.061  41.487 -0.0575  0.0214 -0.2790
35312W        W41912  20.486   4.887   1.256 -0.1626  0.2708  0.2192
35313W        W41913  12.463   3.770   9.621 -0.0455  0.2705 -0.1144
35314W        W41914  11.052   5.165  41.200 -0.0272 -0.0228 -0.1760
35315W        W41915  15.954   4.894  10.890  0.0335 -0.1727 -0.0988
35316W        W41916   4.550   1.177  25.702 -0.1437  0.2016 -0.2199
35317W        W41917   6.136   0.788  24.043  0.1089 -0.3290  0.1817
35318W        W41918  16.393   6.094  37.399 -0.4305  0.1955 -0.0044
35319W        W41919  16.740   0.477  31.244 -0.0484  0.0331  0.0384
35320W        W41920  17.342   0.335  13.848 -0.0335 -0.1202 -0.3066
35321W        W41921  12.533   4.929   7.026  0.3412 -0.3149  0.0604
35322W        W41922  11.543   4.445  41.428 -0.2120  0.3344 -0.1706
35323W        W41923  18.631   6.067  19.010 -0.1580 -0.0058 -0.1990
35324W        W41924  15.261   4.926  35.402 -0.3033 -0.0890 -0.1342
35325W        W41925   7.567   3.475  27.951  0.0682  0.0865  0.2355
35326W        W41926  13.955   3.505  43.802  0.1956 -0.0504  0.0191
35327W        W41927   0.700   4.699  23.936 -0.0525  0.2398 -0.0393
35328W        W41928   4.905   1.218  39.507  0.1772 -0.3145  0.1804
35329W        W41929   7.136   0.397  28.508  0.2205  0.2153 -0.2460
35330W        W41930  11.392   5.211  13.025 -0.1230  0.0727 -0.1471
35331W        W41931   7.128   0.094  43.367 -0.0086  0.1949 -0.1911
35332W        W41932  19.837   5.909  31.355 -0.0803  0.0909 -0.0448
35333W        W41933  16.214   1.688  35.697 -0.0587  0.0575 -0.2905
35334W        W41934  13.193   1.136  33.349 -0.0252 -0.1659  0.0191
35335W        W41935  15.651   0.850  14.439  0.0849  0.0838  0.0007
35336W        W41936   0.661   5.396  15.184  0.2392 -0.0681  0.1939
35337W        W41937  15.917   5.926  21.843 -0.1657 -0.0506 -0.2396
35338W        W41938   1.020   3.543   5.716  0.2171 -0.1082 -0.4659
35339W        W41939  15.119   2.998   3.707  0.0078 -0.1134  0.1274
35340W        W41940   2.424   1.793  11.897 -0.2976  0.3069  0.0939
35341W        W41941   9.081   5.235  10.420 -0.0229 -0.0705 -0.0143
35342W        W41942   9.804   1.425  28.844  0.0746 -0.1826  0.0060
35343W        W41943  19.547   2.941  44.975  0.0815 -0.1740  0.0398
35344W        W41944  15.731   2.146  16.621  0.2756  0.3550 -0.0537
35345W        W41945  12.017   6.271  17.021  0.1214  0.1146  0.2111
35346W        W41946   3.131   0.389  39.136 -0.0983  0.2624 -0.1126
35347W        W41947   1.578   6.598   0.214  0.1464 -0.2957 -0.0915
35348W        W41948  21.017   6.179  35.831  0.3757 -0.0434 -0.0453
35349W        W41949  17.583   2.935   1.570  0.0320 -0.1704  0.1447
35350W        W41950   4.270   3.454  36.330  0.1299  0.1869  0.1566
35351W        W41951  14.436   3.100  31.099 -0.1356 -0.0061  0.0484
35352W        W41952  16.122   0.560  10.545 -0.2125 -0.1107 -0.0923
35353W        W41953  12.827   6.155  38.521 -0.0143 -0.0441  0.0594
35354W        W41954   1.868   0.708  14.665  0.6282 -0.0592 -0.0791
35355W        W41955   0.088   2.058  44.964 -0.2139 -0.0616  0.0656
35356W        W41956  15.801   3.953  23.804 -0.0696 -0.2326  0.2077
35357W        W41957   6.594   2.729   3.613  0.0640 -0.2056 -0.0168
35358W        W41958   1.879   1.112  30.243 -0.0629 -0.2627  0.1254
35359W        W41959  14.509   5.669  30.744 -0.0721  0.2521  0.0972
35360W        W41960  16.639   5.965   3.584  0.0919  0.0317 -0.0492
35361W        W41961  11.710   4.389  11.263  0.0514 -0.0085 -0.2021
35362W        W41962   4.040   1.609  13.155  0.0925 -0.1232  0.0733
35363W        W41963  21.065   5.847  15.340  0.4554  0.1919  0.0227
35364W        W41964   2.865   3.646  25.071 -0.3689 -0.2241  0.0156
35365W        W41965  14.883   5.287   9.689 -0.1051 -0.2953 -0.1655
35366W        W41966  18.944   2.320  29.871  0.0050  0.1872  0.2539
35367W        W41967   6.902   2.503  26.633  0.2880 -0.1533  0.3587
35368W        W41968  19.838   0.782  28.046  0.0860  0.2492 -0.1451
35369W        W41969   4.781   1.987   3.602  0.1873  0.0061  0.1926
35370W        W41970  18.528   6.420   3.970 -0.0656  0.0883 -0.0679
35371W        W41971  15.914   0.527  12.350  0.0427  0.0408  0.0360
35372W        W41972   8.475   2.569  11.482 -0.0144  0.4052  0.0862
35373W        W41973  19.771   4.863  12.495  0.1906 -0.1687  0.0676
35374W        W41974   6.432   0.758  32.951  0.1569 -0.0290  0.1605
35375W        W41975  17.361   4.764  31.381  0.0275  0.0374  0.0105
35376W        W41976   9.777   3.132  12.667  0.0675  0.2751 -0.1086
35377W        W41977   0.836   5.283  28.114 -0.1861 -0.2724  0.0433
35378W        W41978   3.336   5.054  28.157 -0.2963 -0.1740  0.0705
35379W        W41979   4.085   1.804   4.855 -0.0110 -0.1179  0.0386
35380W        W41980   3.938   1.138   1.902 -0.5474 -0.1055  0.0275
35381W        W41981   5.755   3.416  39.857 -0.0161 -0.1222  0.2063
35382W        W41982  17.814   3.315   5.470  0.0909  0.3549 -0.0809
35383W        W41983   3.618   4.743  38.147 -0.0548  0.2119 -0.0064
35384W        W41984   0.877   3.472  16.251  0.1061  0.2279 -0.0828
35385W        W41985   6.515   5.324  29.291 -0.1529 -0.0447  0.1275
35386W        W41986   4.668   0.498   3.388  0.3530 -0.0415  0.0063
35387W        W41987   3.579   2.822  14.754  0.1410 -0.2179 -0.1227
35388W        W41988   9.629   2.182  11.527  0.0886 -0.0577 -0.1040
35389W        W41989  10.181   6.336  11.376  0.1423 -0.0806 -0.0324
35390W        W41990   1.351   3.988  31.177  0.0152 -0.3075  0.1047
35391W        W41991   8.965   4.640  43.244  0.1602  0.1420 -0.1661
35392W        W41992  10.667   2.107  42.612  0.0387 -0.0574 -0.0348
35393W        W41993   0.736   0.745  30.412  0.0213 -0.1817  0.2269
35394W        W41994  12.282   0.118  14.340 -0.0302  0.0220  0.2808
35395W        W41995  20.976   1.922  36.850  0.3253 -0.2464  0.0111
35396W        W41996   8.480   4.929  29.523 -0.0492  0.0992  0.0396
35397W        W41997  11.967   5.384   6.245  0.2010  0.0298 -0.2650
35398W        W41998  17.605   6.080  38.064 -0.0521 -0.0305  0.1196
35399W        W41999   5.707   5.177  44.727  0.4421  0.1201  0.2647
35400W        W42000  20.866   4.698  27.089 -0.2173 -0.3919 -0.0988
35401W        W42001  14.763   3.089   4.377  0.1502 -0.0029  0.2117
35402W        W42002  14.152   4.762  19.704 -0.0168  0.0102  0.1512
35403W        W42003   9.854   0.299  35.915  0.1927  0.1897 -0.0061
35404W        W42004  15.703   1.033  39.496 -0.0138  0.1170 -0.1677
35405W        W42005  16.839   4.229  10.163  0.0824 -0.0237 -0.2101
35406W        W42006  16.809   3.481   4.379 -0.0496 -0.0942 -0.0041
35407W        W42007   0.461   6.027  10.211  0.0634 -0.0603  0.1047
35408W        W42008  12.508   0.808  18.416  0.0548 -0.1126  0.2022
35409W        W42009   3.996   6.398  41.030 -0.1876 -0.0789  0.0567
35410W        W42010   1.048   0.055  14.402  0.2543 -0.0737  0.2293
35411W        W42011  13.222   3.522   8.187 -0.1147 -0.1279 -0.0978
35412W        W42012   3.570   1.827   7.985 -0.5616  0.1326 -0.1337
35413W        W42013  14.673   0.499   1.300  0.0759 -0.1723 -0.2961
35414W        W42014  14.429   6.596  39.767 -0.3730 -0.0595 -0.0008
35415W        W42015   5.547   3.007  26.620  0.1108 -0.0506  0.2400
35416W        W42016  17.879   3.240  29.250 -0.0627  0.2648  0.1394
35417W        W42017  19.234   6.507  41.934 -0.1069 -0.1814 -0.0665
35418W        W42018  18.817   4.691  37.951 -0.0650 -0.0366  0.2952
35419W        W42019  16.738   3.147  11.827  0.1396  0.3389 -0.0107
35420W        W42020   0.732   2.718  27.048  0.0557  0.0608 -0.2173
35421W        W42021  11.768   0.166   1.041 -0.3306  0.0806  0.2167
35422W        W42022   8.630   0.162  13.520 -0.0566  0.3549  0.0927
35423W        W42023   7.246   6.305  15.914  0.2040  0.2389  0.1853
35424W        W42024  16.526   0.330  15.244 -0.3441  0.0524 -0.4617
35425W        W42025   8.452   5.970  29.943  0.4508 -0.2892  0.0681
35426W        W42026  20.028   4.515   8.402  0.1647  0.3811  0.1695
35427W        W42027  20.812   3.228   9.596 -0.1140  0.1895  0.1147
35428W        W42028  13.327   5.056  20.962 -0.0983 -0.1537 -0.1162
35429W        W42029  15.154   0.647  18.476 -0.0704  0.0411  0.0980
35430W        W42030  13.095   4.557  14.944  0.1936  0.1330  0.1130
35431W        W42031   5.771   2.598   1.525 -0.0087 -0.2148  0.2053
35432W        W42032  16.169   5.189  37.116  0.1153  0.3303 -0.0401
35433W        W42033  13.429   4.083  29.868  0.2385  0.0509 -0.0087
35434W        W42034  18.279   4.486  14.973  0.1949 -0.1109 -0.0133
35435W        W42035  12.899   1.458  41.400  0.0676 -0.2335 -0.1148
35436W        W42036  19.336   5.512  35.590 -0.2324  0.3042 -0.0100
35437W        W42037  15.285   2.178  42.761 -0.1087 -0.0013  0.0704
35438W        W42038  17.227   6.369  18.046  0.0370  0.1116 -0.2830
35439W        W42039  14.569   5.612  11.007  0.0006  0.0257 -0.0067
35440W        W42040  16.363   3.914  22.057  0.1881  0.0835  0.1477
35441W        W42041   5.328   0.587  37.198  0.1950  0.2076  0.0177
35442W        W42042   2.862   4.391  33.213  0.3570  0.1132 -0.0258
35443W        W42043  17.892   2.368  30.733  0.2443 -0.0929  0.2373
35444W        W42044   4.936   1.986  10.609  0.0545 -0.1641  0.3256
35445W        W42045  13.614   4.031   7.826  0.0754  0.1821  0.2153
35446W        W42046  12.372   1.710  31.194  0.0489 -0.0716 -0.1130
35447W        W42047   4.032   0.084  28.308  0.2148  0.0878  0.3990
35448W        W42048  19.772   4.137   5.155 -0.1490 -0.0780 -0.1488
35449W        W42049  17.096   4.472  17.168  0.0459 -0.0025 -0.0883
35450W        W42050  20.827   5.501   4.676  0.1438  0.0833 -0.1720
35451W        W42051  16.357   6.182  21.761  0.3224 -0.0265 -0.2835
35452W        W42052   9.840   4.855  42.306 -0.3878  0.1127 -0.1627
35453W        W42053  18.273   3.449  31.074  0.1686 -0.3062  0.2638
35454W        W42054  12.918   0.046  19.306  0.2009  0.2662  0.5937
35455W        W42055   6.366   5.168  31.624  0.0509 -0.3053 -0.1339
35456W        W42056   6.704   0.272  36.470 -0.0283  0.0905  0.3260
35457W        W42057  13.529   3.617   6.520 -0.2844  0.1457  0.0470
35458W        W42058   6.841   5.813   3.292 -0.0286 -0.2478  0.0064
35459W        W42059   8.707   2.709  38.177  0.1722  0.1052  0.3092
35460W        W42060   0.205   1.281  31.500 -0.1004  0.3447 -0.0808
35461W        W42061  18.719   6.605  32.341 -0.0527 -0.3524 -0.1029
35462W        W42062   8.542   6.089  32.922  0.0017 -0.0625 -0.2661
35463W        W42063  11.620   0.241  16.617 -0.1721 -0.1187  0.0759
35464W        W42064  11.734   5.081  36.511  0.2513  0.1258  0.1794
35465W        W42065  20.717   3.122  13.591 -0.3438 -0.2564 -0.0172
35466W        W42066   8.132   1.029  13.856 -0.0782 -0.2621  0.2352
35467W        W42067  18.699   4.153  33.753 -0.0924  0.0583  0.2572
35468W        W42068  16.251   2.597  14.462 -0.1374 -0.1691  0.0086
35469W        W42069   6.704   1.818   7.744  0.2387  0.0156  0.0667
35470W        W42070  20.802   5.231  16.249 -0.0964 -0.2468  0.2140
35471W        W42071  15.393   3.632  21.013  0.2156 -0.0411  0.0209
35472W        W42072   4.761   2.321  24.473  0.0070  0.0478  0.1483
35473W        W42073  14.469   2.209  24.344 -0.0507 -0.2294 -0.0918
35474W        W42074   0.917   0.456  15.430  0.0281  0.0952  0.1516
35475W        W42075   2.699   3.384   5.781 -0.1460  0.0926  0.1813
35476W        W42076   0.527   0.489  35.111 -0.0101  0.1546 -0.0590
35477W        W42077   2.227   1.341  34.454  0.0506 -0.1237  0.0068
35478W        W42078   6.621   0.881  43.533  0.0589  0.1115 -0.0452
35479W        W42079  18.192   3.942  33.872 -0.0967  0.1502 -0.0262
35480W        W42080   0.886   1.573  12.383 -0.2082 -0.0514 -0.0227
35481W        W42081  14.908   6.243  40.307  0.1410 -0.0860  0.1624
35482W        W42082   3.932   2.601   9.667  0.2590  0.1697  0.0383
35483W        W42083   0.314   2.944   7.466 -0.2505 -0.0215 -0.1486
35484W        W42084   5.070   6.490  10.262 -0.0032 -0.0705 -0.0860
35485W        W42085   3.182   4.347  22.354 -0.0080  0.4047 -0.1746
35486W        W42086  13.956   2.959  20.025 -0.0304  0.1047  0.0507
35487W        W42087   6.163   5.599   7.685  0.1803 -0.0838 -0.2007
35488W        W42088   4.464   1.423  21.634 -0.2761 -0.0107 -0.0130
35489W        W42089   7.328   5.317  36.343  0.0833 -0.1177  0.1800
35490W        W42090  13.233   3.667  20.677 -0.0151 -0.3002  0.0175
35491W        W42091  12.441   4.833  20.655 -0.1737  0.1600 -0.1610
35492W        W42092   8.252   6.345  34.273  0.1155 -0.0211 -0.0812
35493W        W42093   1.390   4.390  34.515 -0.2620  0.2423 -0.3262
35494W        W42094  19.878   1.418  13.523  0.1470  0.0855 -0.0939
35495W        W42095  16.189   4.597  36.587 -0.0626 -0.4301  0.1995
35496W        W42096  11.373   3.115   3.372  0.1620 -0.1486 -0.1872
35497W        W42097   0.938   1.285  31.327  0.0016 -0.0057 -0.0165
35498W        W42098  16.178   0.908  12.563 -0.0588  0.2087  0.0482
35499W        W42099  10.720   1.275   0.302 -0.2222 -0.0135 -0.2853
35500W        W42100   8.671   6.556  41.632 -0.1663  0.0023 -0.1621
35501W        W42101   5.835   4.653   5.746  0.0558  0.1424  0.0238
35502W        W42102   6.646   0.220  15.918 -0.2024 -0.1499 -0.1021
35503W        W42103  15.762   4.914  41.533 -0.2501 -0.1697  0.2295
35504W        W42104   0.110   2.138  38.935 -0.0970  0.0897  0.0113
35505W        W42105  17.693   1.269  34.979  0.0229  0.2044 -0.2133
35506W        W42106  15.997   3.242  43.055  0.0268  0.1585 -0.1213
35507W        W42107   7.364   6.070  29.925 -0.0058  0.0359  0.1873
35508W        W42108   6.112   2.729  43.694  0.1090 -0.1662  0.0812
35509W        W42109  14.410   1.193  20.288 -0.5411 -0.1487  0.1487
35510W        W42110  11.071   4.042   8.898  0.0953  0.0929 -0.5119
35511W        W42111  14.551   6.283  36.640 -0.0577  0.0421 -0.0321
35512W        W42112  15.683   2.730  31.017 -0.0875  0.2260 -0.1766
35513W        W42113  10.639   1.741   3.752 -0.1335 -0.1883 -0.1842
35514W        W42114   7.341   3.807  37.898 -0.1239  0.3159  0.4927
35515W        W42115  18.078   6.265  14.726 -0.0290 -0.0478 -0.3575
35516W        W42116  13.209   1.249  45.152 -0.3670 -0.1532  0.1167
35517W        W42117  20.114   5.537  15.223 -0.1736 -0.0313  0.1118
35518W        W42118  17.204   2.392   4.905  0.0461 -0.2787 -0.0287
35519W        W42119   6.845   2.683   7.400 -0.0316  0.0274  0.3420
35520W        W42120   4.285   4.020   8.014 -0.2161  0.0132  0.0116
35521W        W42121   3.098   1.845  27.880 -0.0038  0.0692 -0.0279
35522W        W42122  19.939   2.265  38.488  0.2277  0.2915  0.0564
35523W        W42123  18.213   0.271  30.445  0.0786 -0.0691  0.1338
35524W        W42124  16.258   0.012   0.545  0.0044  0.0484  0.1399
35525W        W42125  15.959   4.612   5.868  0.0786  0.0241 -0.1670
35526W        W42126  11.906   4.311  29.272  0.0815  0.1550  0.0845
35527W        W42127   9.121   1.093  16.448  0.2573  0.0551  0.0382
35528W        W42128   2.106   5.222  40.314  0.2944 -0.2864 -0.1316
35529W        W42129  19.936   3.283  31.562 -0.1074 -0.0180 -0.0378
35530W        W42130  12.642   1.814  16.742 -0.1961 -0.2639 -0.0988
35531W        W42131  17.839   2.827  18.847  0.1662  0.1411 -0.3799
35532W        W42132  17.599   3.731  20.769  0.1416 -0.1450 -0.3995
35533W        W42133  10.328   4.350  29.210  0.1579  0.0242 -0.0059
35534W        W42134   1.408   0.179   3.866 -0.0184 -0.3275  0.0605
35535W        W42135  18.038   6.089  39.262  0.1015 -0.0895  0.1233
35536W        W42136   1.989   5.456  39.104  0.0648  0.5391  0.0755
35537W        W42137  16.767   3.405  30.548 -0.0764 -0.0367 -0.0961
35538W        W42138  16.166   4.957  14.948 -0.1729  0.0040  0.1372
35539W        W42139   7.292   2.495  13.404  0.5040 -0.0029 -0.2665
35540W        W42140  16.029   3.082  34.058 -0.1113  0.2400 -0.0437
35541W        W42141  19.202   6.034  38.514 -0.2996  0.2006  0.2715
35542W        W42142  19.336   4.942   7.465  0.0848 -0.2521  0.0615
35543W        W42143  18.988   5.348  35.027  0.0780 -0.0602 -0.3220
35544W        W42144   6.102   1.923  29.209  0.2994  0.1202  0.0547
35545W        W42145  11.224   3.898  39.600  0.0173 -0.3057  0.1574
35546W        W42146   7.323   3.734  13.760  0.0664  0.0211  0.1417
35547W        W42147  18.960   3.649  43.205  0.3307 -0.1208 -0.0919
35548W        W42148   1.774   1.749  29.584 -0.0349 -0.3365  0.1790
35549W        W42149  19.504   1.048   6.824 -0.1979  0.0044 -0.0275
35550W        W42150   5.403   6.576  32.779  0.2306 -0.2295  0.1480
35551W        W42151  20.387   5.303   0.933  0.0612  0.3917  0.1547
35552W        W42152   2.173   5.796  33.864 -0.0604  0.1805 -0.1220
35553W        W42153   7.230   2.474   9.035  0.0126  0.1045 -0.1363
35554W        W42154  14.792   0.308  35.911  0.2678 -0.1939  0.2366
35555W        W42155  11.864   0.205  21.424  0.4055  0.2762  0.0035
35556W        W42156   7.953   5.653   2.780 -0.1027 -0.0133 -0.1294
35557W        W42157  10.974   3.128  35.386  0.0547 -0.2462  0.1205
35558W        W42158  10.810   5.296  33.161  0.1497 -0.0735 -0.0716
35559W        W42159  18.929   6.054  30.386 -0.0784 -0.0364  0.0456
35560W        W42160  20.479   4.023  32.378  0.0444 -0.0910  0.1838
35561W        W42161   0.561   3.724  36.168 -0.1603 -0.1177 -0.2021
35562W        W42162   0.398   6.080  13.415  0.0007  0.1807  0.0012
35563W        W42163   1.547   0.872  12.818 -0.0691 -0.2137 -0.0313
35564W        W42164   5.221   0.586  10.836  0.1557 -0.3220 -0.0032
35565W        W42165   4.836   1.471  37.455  0.3684  0.1915  0.0967
35566W        W42166  16.298   6.418  17.689 -0.2554  0.0700  0.3290
35567W        W42167  19.183   2.884  29.968  0.3592 -0.1103 -0.2667
35568W        W42168   1.612   3.916  43.914  0.2877 -0.1526  0.0361
35569W        W42169  10.531   4.211   3.010 -0.1552 -0.1539 -0.0323
35570W        W42170  13.654   5.482  20.173  0.0910 -0.1773  0.0618
35571W        W42171   0.692   1.363  25.020 -0.0086  0.0214  0.3537
35572W        W42172  10.209   1.956  11.029  0.1993 -0.2244  0.1107
35573W        W42173  12.389   2.189  41.064 -0.2376  0.1322 -0.0503
35574W        W42174   4.883   0.376  38.537  0.1880  0.0947 -0.2637
35575W        W42175   3.690   4.087   0.035 -0.0945 -0.2914 -0.3736
35576W        W42176   0.299   4.871  10.244  0.0876 -0.2388  0.0157
35577W        W42177   1.649   5.952   2.649  0.1758  0.2006  0.0443
35578W        W42178  15.994   1.385  34.038 -0.0339 -0.0593  0.2119
35579W        W42179   6.824   3.424  43.418 -0.1344  0.0264  0.1533
35580W        W42180  20.567   3.684   0.617 -0.1677  0.0300  0.3200
35581W        W42181  18.445   3.255   3.255  0.0195  0.2502  0.1481
35582W        W42182  18.833   1.579  42.371 -0.0714  0.0415 -0.0931
35583W        W42183  18.163   5.235  16.811 -0.4227  0.0785 -0.0774
35584W        W42184  15.727   1.264  29.211  0.0068  0.0019  0.0868
35585W        W42185   7.631   0.769  12.625 -0.3074 -0.0871 -0.0958
35586W        W42186  20.274   3.144  34.626 -0.1933 -0.0443 -0.1202
35587W        W42187  20.126   1.280   0.072  0.3654 -0.0126  0.1994
35588W        W42188   9.499   5.041  44.570 -0.1191  0.4295  0.0474
35589W        W42189   7.594   4.328   1.649 -0.3898  0.1551 -0.1829
35590W        W42190   5.697   3.974  39.413 -0.0765  0.0710 -0.4052
35591W        W42191  11.121   3.534  13.473  0.1203  0.1891 -0.0032
35592W        W42192   9.094   2.133  26.788 -0.1842  0.0851 -0.1071
35593W        W42193   5.321   3.858  15.960 -0.0473  0.0329  0.0145
35594W        W42194   5.710   2.274  41.775  0.0152 -0.1782  0.1767
35595W        W42195  14.668   0.282  11.040  0.0486  0.3056 -0.0116
35596W        W42196   2.130   4.640  39.528  0.0381  0.0754 -0.1055
35597W        W42197   8.311   6.162  43.683  0.0652 -0.1328 -0.0699
35598W        W42198   1.349   4.952  39.591 -0.1457  0.3751  0.2617
35599W        W42199  13.471   1.384  43.278 -0.3144 -0.0240  0.0962
35600W        W42200   6.989   4.350  44.696 -0.2061 -0.0654  0.2394
35601W        W42201  12.168   6.604  18.625  0.3784  0.1824 -0.0800
35602W        W42202  21.159   5.615  43.331 -0.0957 -0.1567 -0.3655
35603W        W42203  16.032   2.740  42.888  0.0431  0.3943 -0.0474
35604W        W42204   8.983   5.950  13.685 -0.1799 -0.0362 -0.1163
35605W        W42205  19.516   0.358   5.999 -0.0530 -0.3675  0.0036
35606W        W42206  20.262   3.973  29.666  0.0481  0.3407  0.1001
35607W        W42207   7.628   6.384  41.238 -0.0337  0.0851 -0.0036
35608W        W42208  18.539   0.310  33.997  0.2156  0.0501 -0.0899
35609W        W42209  11.796   1.156   1.115 -0.2337  0.0443  0.2683
35610W        W42210   9.815   2.109  38.592 -0.1804  0.2764 -0.0109
35611W        W42211  11.930   5.824  29.331 -0.1341 -0.0683 -0.1892
35612W        W42212  14.987   2.935  20.868 -0.0948  0.0765 -0.1100
35613W        W42213  11.483   5.455  33.757  0.0657 -0.0925  0.1887
35614W        W42214  21.014   5.136  43.293  0.2619 -0.2905 -0.0759
35615W        W42215  10.875   6.129  34.137  0.2864 -0.1064  0.1155
35616W        W42216   4.027   5.362  29.909  0.0667 -0.0221 -0.0877
35617W        W42217   4.959   2.060  13.933  0.0526  0.1713 -0.2299
35618W        W42218  13.886   5.788  13.621  0.1039  0.2747  0.0999
35619W        W42219   9.138   6.052  26.575  0.1265  0.4103 -0.0132
35620W        W42220   6.258   2.072  13.217 -0.3448  0.3005 -0.4474
35621W        W42221   2.588   2.101   4.579 -0.0005  0.1349  0.0967
35622W        W42222  13.160   4.871  17.308 -0.1639 -0.2319 -0.1058
35623W        W42223  15.252   0.151  11.868  0.0459 -0.0799 -0.0888
35624W        W42224  20.129   5.021  32.363 -0.0912 -0.0152  0.0063
35625W        W42225  10.202   1.112   4.497 -0.0687  0.1948  0.0767
35626W        W42226   8.357   0.608   5.388 -0.1003 -0.1572 -0.0530
35627W        W42227  12.596   1.716  17.303  0.1843 -0.1187 -0.2162
35628W        W42228   0.679   6.294  14.861 -0.0293 -0.2740  0.0833
35629W        W42229  20.111   1.746   7.763 -0.2181  0.3882 -0.2265
35630W        W42230   9.641   0.736  35.676 -0.0460  0.0778 -0.2281
35631W        W42231  14.718   2.392  20.284 -0.0801 -0.0607 -0.1853
35632W        W42232  18.607   3.623   1.227  0.0638 -0.0392  0.1755
35633W        W42233   0.840   5.645   1.090  0.1930  0.0333  0.0191
35634W        W42234   8.411   2.677   6.892  0.1602 -0.0223 -0.2217
35635W        W42235   8.648   3.553  11.444  0.1038  0.0596  0.1522
35636W        W42236  20.142   1.221  13.107 -0.0674 -0.1163 -0.0733
35637W        W42237   2.774   0.629   5.124  0.0211 -0.4240 -0.1283
35638W        W42238  18.046   1.003  36.195  0.0055 -0.3749  0.0072
35639W        W42239  13.523   5.598   9.454  0.2477  0.3426  0.0064
35640W        W42240  13.244   1.400  14.725 -0.0813  0.0318 -0.3286
35641W        W42241  20.883   5.618   1.891 -0.1660 -0.0122  0.1413
35642W        W42242   8.337   0.397  35.265  0.1499 -0.0192 -0.1367
35643W        W42243  15.380   6.402  16.475 -0.2415  0.0440 -0.2437
35644W        W42244   2.338   4.433  31.672  0.0526 -0.2641 -0.1056
35645W        W42245  10.457   6.540  43.352  0.2969  0.1790  0.1701
35646W        W42246   0.855   2.618  31.389 -0.0609 -0.0027  0.1003
35647W        W42247  18.557   1.740  10.933 -0.0035  0.0835  0.0742
35648W        W42248   6.686   0.367  28.306 -0.0039 -0.1447 -0.0626
35649W        W42249   0.776   0.788   8.962 -0.5207  0.1457  0.0760
35650W        W42250   6.333   1.998  36.239 -0.2147 -0.2136 -0.1215
35651W        W42251   4.124   3.546  40.487 -0.2624 -0.0920  0.0513
35652W        W42252   1.647   0.358   6.871 -0.1197  0.1290 -0.0906
35653W        W42253  15.441   1.222  21.054  0.0034 -0.0687  0.0861
35654W        W42254   5.169   4.741   9.486  0.1571  0.0939 -0.2318
35655W        W42255   5.562   2.215   6.296 -0.4632 -0.0608 -0.1125
35656W        W42256   4.458   5.946  34.885  0.1323 -0.0754  0.0133
35657W        W42257  14.852   6.594  12.117  0.1046 -0.1432  0.0496
35658W        W42258   6.574   5.190  43.977 -0.0585 -0.0661 -0.2639
35659W        W42259   4.889   5.614  30.762 -0.1150  0.0651  0.3516
35660W        W42260  12.501   4.228  37.086  0.0191 -0.0610 -0.1699
35661W        W42261  16.980   2.103   4.544 -0.2643 -0.5289  0.1618
35662W        W42262   9.592   1.825  32.385  0.0132 -0.0396 -0.1167
35663W        W42263  11.802   1.660   7.774 -0.1261  0.1068  0.1429
35664W        W42264   7.565   5.603   1.798  0.1293 -0.0398  0.1265
35665W        W42265  10.727   3.149  28.593 -0.0596 -0.2009  0.0361
35666W        W42266  20.492   1.328  26.992  0.0121 -0.0696  0.1641
35667W        W42267   9.779   0.598  17.108 -0.0839 -0.4119  0.4168
35668W        W42268   8.137   2.749  10.075  0.0566 -0.2381  0.0380
35669W        W42269  16.005   1.067   8.921  0.0953 -0.1331  0.2650
35670W        W42270   1.656   2.791  26.600 -0.2033 -0.0017 -0.0649
35671W        W42271  12.863   4.319   0.228  0.3889  0.2517 -0.3008
35672W        W42272   6.986   3.042   3.397  0.1618 -0.0012  0.0741
35673W        W42273   1.357   0.583  42.842  0.2590  0.0859 -0.1319
35674W        W42274  16.149   2.570  40.034 -0.2773  0.4323 -0.2168
35675W        W42275   1.500   3.935  28.413 -0.1537 -0.0453  0.1441
35676W        W42276   7.135   3.428  40.999 -0.0062 -0.3283  0.0179
35677W        W42277   2.675   4.679  33.681  0.1342 -0.2947 -0.8296
35678W        W42278   9.984   0.910  10.485  0.0723  0.1675 -0.2707
35679W        W42279   9.935   5.714   1.513  0.0766 -0.2417  0.1403
35680W        W42280   2.970   5.921  35.224 -0.0653  0.1735 -0.0152
35681W        W42281   9.883   0.663  41.167 -0.0055 -0.1507  0.2183
35682W        W42282   8.307   1.838  31.159  0.1252  0.0146 -0.2525
35683W        W42283   8.532   4.330   7.478  0.5057 -0.0621 -0.3149
35684W        W42284  18.768   0.180  42.788 -0.0018 -0.1296  0.1873
35685W        W42285   2.931   2.978  30.106 -0.1784 -0.1462 -0.1533
35686W        W42286   2.611   2.102  26.185  0.4837  0.1176 -0.1252
35687W        W42287   2.342   5.960  25.952 -0.2607 -0.2398 -0.0355
35688W        W42288   9.229   0.377   8.051 -0.4069  0.0736  0.1195
35689W        W42289  12.904   4.185  36.367 -0.2368 -0.2081  0.0004
35690W        W42290   8.328   5.436  13.562  0.0442  0.0698  0.3163
35691W        W42291   9.659   6.291  44.293  0.1736  0.0178 -0.1769
35692W        W42292  14.583   6.324  20.176 -0.3609  0.1000  0.2393
35693W        W42293  18.083   2.519  33.282  0.0050 -0.1540  0.0771
35694W        W42294   7.746   1.017  38.739  0.0894  0.0081  0.1814
35695W        W42295   2.052   1.447   6.488 -0.0375  0.0438 -0.0598
35696W        W42296  10.493   2.584  33.221 -0.0998 -0.0626  0.1455
35697W        W42297  20.144   1.465  39.681  0.2165  0.2718 -0.2101
35698W        W42298   4.876   0.477   8.998 -0.0197  0.3536  0.0006
35699W        W42299  20.661   4.550  28.970 -0.0103 -0.3365  0.0394
35700W        W42300   6.444   3.721  26.206 -0.3227 -0.0340 -0.0007
35701W        W42301  15.015   1.933  28.787  0.2021 -0.0966 -0.3683
35702W        W42302  16.553   3.449  31.019  0.0356  0.2291 -0.1261
35703W        W42303  14.641   5.033   0.847  0.0298 -0.1074 -0.1327
35704W        W42304   9.788   3.056  42.344 -0.1478  0.0973  0.0220
35705ION     NA42305  12.964   0.869  21.961  0.1267 -0.2197 -0.4794
35706ION     NA42306  17.202   5.681  16.885  0.3275 -0.2128  0.0490
35707ION     NA42307   7.775   0.384   8.015 -0.0903  0.1982 -0.1465
35708ION     NA42308   0.155   4.730   9.869 -0.0224  0.3916 -0.0477
35709ION     NA42309  17.594   0.877  16.800  0.0080 -0.4963  0.0087
35710ION     NA42310   9.656   2.230  40.701 -0.2666  0.3320  0.2538
35711ION     NA42311   1.691   0.457   3.771 -0.5139 -0.0308  0.0104
35712ION     NA42312   7.967   3.370  27.895 -0.2321  0.0122  0.2280
35713ION     NA42313  17.980   2.509  16.654 -0.2079 -0.5383 -0.3400
35714ION     NA42314  18.775   3.372   6.379 -0.3751 -0.3934  0.1719
35715ION     NA42315   7.022   6.393  10.496  0.4278  0.1509  0.0260
35716ION     NA42316   2.993   3.880  33.507 -0.1749  0.4135  0.2790
35717ION     NA42317  16.128   4.001  35.103  0.3717  0.1051  0.3387
35718ION     NA42318   7.918   5.359  42.960  0.4217  0.1854 -0.2865
35719ION     NA42319   9.165   5.352  36.082 -0.3012  0.0769  0.1113
35720ION     NA42320   0.040   6.122   0.198 -0.2984 -0.1064 -0.1815
35721ION     NA42321   9.893   0.522  37.685  0.2346  0.4407  0.2393
35722ION     NA42322   3.533   1.937  30.489  0.1821  0.3423  0.0927
35723ION     NA42323  16.142   4.895  20.553 -0.1327  0.5988 -0.0685
35724ION     NA42324   8.271   0.069  39.285  0.1848  0.1291  0.4253
35725ION     NA42325   0.096   3.381  41.506 -0.0269  0.0373 -0.2344
35726ION     NA42326   1.971   6.495   8.257 -0.0787  0.0184 -0.1743
35727ION     NA42327  12.249   2.540   1.673 -0.2308 -0.1769 -0.0213
35728ION     NA42328   7.840   2.820   5.707 -0.0063 -0.0202 -0.0631
35729ION     NA42329  14.484   1.198  33.139  0.2036 -0.0512 -0.2257
35730ION     NA42330  18.489   5.953   8.553  0.2874  0.0710 -0.1283
35731ION     NA42331  19.400   1.046  14.796  0.2368  0.1406 -0.2323
35732ION     NA42332  16.424   2.708  30.860  0.1699  0.4068 -0.1440
35733ION     NA42333   7.035   3.616  15.216 -0.4710 -0.0619 -0.0496
35734ION     NA42334  11.061   3.411  40.354  0.3780  0.4738 -0.1452
35735ION     NA42335   0.431   2.525  24.915  0.3520  0.0968  0.2057
35736ION     NA42336  20.351   0.719   0.683  0.0442 -0.1251  0.4440
35737ION     NA42337   6.839   0.581  12.753  0.4334 -0.1920 -0.0971
35738ION     NA42338   5.809   4.274  27.799 -0.4326  0.3939  0.2432
35739ION     NA42339   7.204   0.067   1.490  0.0892 -0.3410 -0.1174
35740ION     NA42340   8.610   3.256   4.190  0.3794 -0.2051  0.0888
35741ION     NA42341  19.866   0.979   5.929  0.2101 -0.1538  0.0702
35742ION     NA42342  10.187   5.251  18.416  0.4262  0.0086  0.0358
35743ION     NA42343   5.792   4.850   3.966  0.3551 -0.2028 -0.0328
35744ION     NA42344   7.654   2.526  15.154  0.1354  0.0051  0.0051
35745ION     NA42345   9.760   4.483  38.031  0.5891  0.1478  0.2646
35746ION     NA42346  20.318   0.605  42.252  0.0359  0.0157 -0.3138
35747ION     NA42347   1.874   4.540   4.171 -0.0955 -0.3316 -0.3836
35748ION     NA42348  16.007   3.105  40.583  0.4529  0.2385 -0.2678
35749ION     NA42349  17.235   4.226  35.687  0.0002  0.0412  0.1602
35750ION     NA42350  18.020   4.323  35.107 -0.3158 -0.2828  0.2650
35751ION     NA42351   3.342   3.518  41.986  0.1018  0.2716 -0.0144
35752ION     NA42352   4.408   3.857  36.744 -0.0603  0.0280 -0.2654
35753ION     NA42353  11.267   5.962   3.459 -0.0004  0.3903  0.1982
35754ION     NA42354  13.636   2.507  30.033 -0.1525  0.2611 -0.0225
35755ION     NA42355   1.368   0.176  13.254  0.3091 -0.0165  0.2224
35756ION     NA42356   1.497   3.947  13.823  0.0008  0.2312 -0.3317
35757ION     NA42357  12.645   4.051   0.497  0.0728  0.1443  0.1733
35758ION     NA42358   6.584   5.963   6.040 -0.3686  0.6918  0.0043
35759ION     NA42359   0.934   1.805  28.169 -0.1030  0.0819  0.3938
35760ION     NA42360   7.569   0.374  44.180  0.4869 -0.0186 -0.2737
35761ION     NA42361  14.333   4.115   5.899 -0.2476 -0.1916  0.2407
35762ION     NA42362  15.738   2.818  21.640  0.3527 -0.2169 -0.0448
35763ION     NA42363   5.584   4.421  13.943 -0.3880 -0.2332 -0.2424
35764ION     NA42364   9.949   2.674  29.050 -0.2680 -0.6260 -0.0420
35765ION     NA42365  17.666   2.516  29.796  0.0241 -0.1679 -0.1746
35766ION     NA42366  14.459   4.153  44.674 -0.6147 -0.0676  0.0804
35767ION     NA42367   8.271   2.572  43.540 -0.0051 -0.0702  0.1568
35768ION     NA42368  16.448   3.761   4.618 -0.2068 -0.0336 -0.1095
35769ION     NA42369   6.241   6.457   1.083 -0.3711  0.0236  0.5566
35770ION     NA42370  10.175   2.311  29.700 -0.0075  0.3499  0.0019
35771ION     NA42371  14.584   1.273   9.284  0.3630  0.2713 -0.2551
35772ION     NA42372   2.933   1.075  22.570  0.0738 -0.0186  0.2737
35773ION     NA42373  15.605   2.258   8.354  0.5073 -0.0895 -0.0564
35774ION     NA42374   6.338   4.753   2.844  0.2066 -0.3969  0.2926
35775ION     NA42375   6.083   3.551   5.669  0.0093 -0.2408  0.0301
35776ION     NA42376  18.770   1.977   6.501  0.3268 -0.1413 -0.1869
35777ION     NA42377  21.075   0.011  36.641 -0.1258  0.1088  0.1563
35778ION     NA42378  18.892   1.971  32.758  0.1583  0.1515  0.3922
35779ION     NA42379  16.199   5.703  36.424 -0.1741 -0.1544  0.1683
35780ION     NA42380   6.290   0.484  24.339 -0.0335  0.7120 -0.0275
35781ION     NA42381   6.333   4.389  31.438  0.2453 -0.4683 -0.0180
35782ION     NA42382  16.308   6.452  14.075  0.5635  0.2576  0.0837
35783ION     NA42383   0.877   1.716  44.629  0.4418  0.2340  0.2137
35784ION     NA42384  13.363   2.745  18.171  0.0876 -0.0379 -0.3451
35785ION     NA42385  20.697   3.127  30.832  0.1564  0.0487  0.0037
35786ION     NA42386   5.285   2.308  29.949 -0.2971  0.1003 -0.2590
35787ION     NA42387  16.914   2.651  29.916  0.3376 -0.3283 -0.1357
35788ION     NA42388  12.268   2.770  11.085  0.0010 -0.2705 -0.1470
35789ION     NA42389  13.427   4.971   5.503 -0.0007 -0.2028 -0.2865
35790ION     NA42390  15.640   4.971  43.559  0.0315  0.2701  0.5248
35791ION     NA42391   1.480   5.358  30.926  0.0151  0.1301 -0.2611
35792ION     NA42392   0.476   4.182  27.310  0.3219  0.3913  0.2046
35793ION     NA42393   9.650   0.402   2.417  0.1712  0.0415 -0.2541
35794ION     NA42394  18.087   4.282   8.502 -0.1947 -0.0698 -0.4556
35795ION     NA42395   6.710   3.946  29.329 -0.0161  0.0236  0.0402
35796ION     NA42396  13.672   0.500   8.851  0.0619  0.3601  0.0206
35797ION     NA42397  14.337   4.738  37.297 -0.1402 -0.2543  0.2976
35798ION     NA42398   8.848   0.618  33.699 -0.1563  0.3363  0.3524
35799ION     NA42399  10.244   3.455   9.456 -0.3310  0.1452 -0.1462
35800ION     NA42400  13.190   3.409  22.741 -0.0622  0.0734 -0.1239
35801ION     NA42401  18.897   0.725  39.270 -0.0882  0.2717  0.0192
35802ION     NA42402  11.773   0.718   4.657  0.0294  0.0187 -0.3601
35803ION     NA42403   2.951   2.687  37.288  0.0287 -0.2634 -0.2214
35804ION     NA42404  15.335   6.144   9.990  0.3222 -0.1240 -0.0899
35805ION     NA42405   1.069   4.772  29.617  0.5267 -0.3560  0.0145
35806ION     NA42406   3.338   3.934  12.136  0.0026 -0.4357 -0.2463
35807ION     NA42407  19.907   5.840  41.916  0.1105  0.5443  0.2422
35808ION     NA42408   7.881   4.253  27.039  0.0907  0.1206  0.6016
35809ION     NA42409  11.278   4.666  15.993 -0.1991 -0.1466 -0.1355
35810ION     NA42410   4.986   0.229  27.110  0.2532  0.1371 -0.1050
35811ION     NA42411   6.366   2.148  38.040  0.3054  0.0223  0.0047
35812ION     NA42412   4.178   1.369  14.362  0.2721 -0.2991  0.1031
35813ION     NA42413  17.233   5.715  43.027  0.1669 -0.3444 -0.2409
35814ION     NA42414  10.752   0.373  35.826  0.0212 -0.1733  0.3260
35815ION     NA42415   9.565   5.213  27.346 -0.0281 -0.3305  0.3920
35816ION     NA42416  11.347   2.973  44.907 -0.0366  0.3829  0.1100
35817ION     NA42417  11.171   0.436  14.427  0.4055 -0.3152 -0.3301
35818ION     NA42418   7.472   0.081  40.935 -0.1924 -0.1603 -0.0776
35819ION     NA42419   6.531   2.731  12.545  0.0701  0.2603  0.3643
35820ION     NA42420   7.465   2.428  40.432 -0.4895  0.2190  0.3364
35821ION     NA42421   9.420   3.522  15.393 -0.2566 -0.2752 -0.2020
35822ION     NA42422  13.670   3.040  11.661 -0.1867 -0.1254  0.4962
35823ION     NA42423   1.365   0.258  40.604 -0.3804  0.4462  0.2283
35824ION     NA42424  15.959   0.724  36.980  0.2632 -0.2777 -0.0742
35825ION     NA42425  13.118   0.604  13.744  0.0005 -0.1359 -0.4948
35826ION     NA42426  10.664   1.782   3.239  0.1698 -0.3039  0.0264
35827ION     NA42427   5.197   1.579   0.617  0.2885  0.0408 -0.0211
35828ION     NA42428  19.448   2.159  14.797 -0.2412 -0.1291 -0.1460
35829ION     NA42429   1.067   1.837  10.033 -0.1619  0.2714 -0.3047
35830ION     NA42430  10.577   3.104  41.903 -0.3034  0.0152 -0.2925
35831ION     NA42431  14.306   2.540   4.182 -0.3286 -0.0536  0.2336
35832ION     NA42432  17.625   0.125  21.493  0.3252 -0.2189 -0.2781
35833ION     NA42433   8.655   3.597  16.898  0.1682 -0.1523  0.1661
35834ION     NA42434   2.237   6.268  35.348  0.2451  0.1282 -0.1931
35835ION     NA42435   0.453   4.106  28.018 -0.2828 -0.1874 -0.3893
35836ION     NA42436   9.707   3.020  26.939 -0.2565 -0.1166 -0.2727
35837ION     NA42437   0.191   3.542  42.332  0.0661  0.3203  0.1656
35838ION     NA42438   3.119   0.252   7.729  0.4928  0.0297 -0.1747
35839ION     NA42439  14.426   0.968  23.249 -0.1839  0.1701  0.3160
35840ION     NA42440  16.145   0.321  19.755 -0.4656  0.1014 -0.5097
35841ION     NA42441   7.222   5.226  40.958  0.4071  0.0869  0.3463
35842ION     NA42442   6.750   0.810   8.194 -0.0990 -0.3058 -0.2830
35843ION     NA42443  15.359   6.546  39.591  0.1179  0.0587  0.6564
35844ION     NA42444   5.930   1.576  33.507 -0.3272  0.3993 -0.4311
35845ION     NA42445  12.032   4.243  44.292  0.2670  0.1727 -0.5660
35846ION     NA42446  14.405   5.568  37.000 -0.2455  0.5901 -0.4639
35847ION     NA42447   6.109   0.083  12.529  0.1638  0.1643 -0.2420
35848ION     NA42448  19.796   4.568   1.653 -0.1104 -0.2002  0.0183
35849ION     NA42449   7.098   5.070  37.973  0.4721  0.5789 -0.3761
35850ION     CL42450  17.380   5.044   2.328 -0.2467  0.3330 -0.1067
35851ION     CL42451   6.933   1.752   0.541  0.2690  0.0509 -0.0904
35852ION     CL42452   1.405   2.352  34.229  0.0692 -0.2159  0.3420
35853ION     CL42453  16.949   6.331  43.314  0.1010 -0.6231 -0.4626
35854ION     CL42454  19.735   4.573   9.155 -0.2801 -0.1765  0.4259
35855ION     CL42455   3.299   3.643  13.048 -0.5722 -0.3143 -0.1766
35856ION     CL42456  14.688   6.011  15.332  0.1399 -0.0964  0.4587
35857ION     CL42457   4.602   1.615   9.776 -0.2040 -0.2555 -0.2944
35858ION     CL42458  18.814   2.965  39.797  0.2868  0.2397  0.4556
35859ION     CL42459  11.745   5.971  14.339  0.2689  0.0763  0.0903
35860ION     CL42460  16.966   0.253  15.285 -0.1777  0.0694  0.1503
35861ION     CL42461  17.520   0.856  14.967 -0.5426 -0.4548  0.0875
35862ION     CL42462   9.849   0.752  14.868 -0.0451 -0.1652  0.1619
35863ION     CL42463  10.686   4.895  14.092  0.0756  0.0404 -0.1138
35864ION     CL42464  19.521   2.614  43.635  0.0210 -0.3021 -0.1121
35865ION     CL42465  17.753   2.306  16.873  0.0519  0.1283 -0.0879
35866ION     CL42466   7.078   4.682  44.187  0.3065  0.0777  0.3566
35867ION     CL42467   8.638   1.297  17.331  0.0134  0.0200 -0.3054
35868ION     CL42468  19.531   6.473   9.257  0.2556 -0.0592  0.0355
35869ION     CL42469   4.756   1.169  33.915 -0.3890  0.1724 -0.0425
35870ION     CL42470   8.930   6.209   4.144 -0.3830 -0.2422 -0.1680
35871ION     CL42471  11.493   2.902  40.151 -0.2353 -0.1947 -0.1802
35872ION     CL42472  16.127   4.018  15.577 -0.1461  0.1895  0.2368
35873ION     CL42473   9.170   1.256  35.182  0.0829 -0.0291  0.2651
35874ION     CL42474  11.386   4.392  20.248 -0.0257  0.2071  0.2013
35875ION     CL42475   5.675   2.795  24.222 -0.2324  0.5702 -0.1892
35876ION     CL42476   3.144   4.927  23.536  0.2238 -0.1990  0.1918
35877ION     CL42477  16.667   1.332  41.650 -0.0383 -0.3475  0.3599
35878ION     CL42478   4.952   5.358  33.461  0.0187  0.5039 -0.0591
35879ION     CL42479   6.840   4.007  40.666 -0.2606 -0.1991 -0.2207
35880ION     CL42480   3.316   6.458  38.962  0.3086 -0.0946 -0.3593
35881ION     CL42481  14.249   5.679  34.070  0.3481 -0.0691  0.5334
35882ION     CL42482  18.234   5.268  33.567  0.2182  0.0343 -0.2917
35883ION     CL42483   8.021   5.133  41.520 -0.2674 -0.0742 -0.0467
35884ION     CL42484  18.508   0.265  10.546 -0.2392 -0.1112  0.1230
35885ION     CL42485  20.616   6.119  42.551  0.0697 -0.0637 -0.3139
35886ION     CL42486   9.639   5.341  41.829 -0.7196  0.2343  0.2580
35887ION     CL42487   6.442   2.312   3.245  0.4558 -0.3094  0.0364
35888ION     CL42488  20.754   5.367  32.050  0.2921  0.2481 -0.0666
35889ION     CL42489   6.507   4.777   3.939  0.4939 -0.1648 -0.2081
35890ION     CL42490  18.095   0.553  34.937 -0.0318  0.2920 -0.0913
35891ION     CL42491  10.446   2.716  41.895  0.2059  0.2744  0.1204
35892ION     CL42492  13.656   2.022  32.178  0.0544 -0.1434  0.3720
35893ION     CL42493   4.040   0.756  39.557  0.2603 -0.0760 -0.1206
35894ION     CL42494  19.878   4.708  41.557 -0.1353  0.0812 -0.0529
35895ION     CL42495   7.992   4.102  33.389 -0.5013 -0.3310 -0.1125
35896ION     CL42496   8.341   0.111  16.882 -0.4003  0.2827 -0.1823
35897ION     CL42497   9.780   2.452  29.705  0.3486 -0.0775  0.1446
35898ION     CL42498  16.654   0.652   3.700 -0.0772 -0.3070  0.0167
35899ION     CL42499  13.249   5.533   5.856 -0.3425  0.1819 -0.0456
35900ION     CL42500   6.952   4.411  33.745  0.2326 -0.0969  0.0591
35901ION     CL42501  18.110   0.143   2.642 -0.0464  0.0292 -0.1615
35902ION     CL42502  16.167   0.233   4.199  0.5406  0.0736 -0.3848
35903ION     CL42503  15.245   1.986  31.658  0.0596 -0.3747  0.3081
35904ION     CL42504   8.200   0.995  36.080 -0.4822 -0.1771  0.0836
35905ION     CL42505  13.843   1.649   1.346 -0.2037  0.0509 -0.0261
35906ION     CL42506   5.903   5.407  12.332 -0.2051 -0.1732 -0.2665
35907ION     CL42507   3.554   3.431   0.786 -0.0138  0.1591 -0.1685
35908ION     CL42508  11.084   0.820  13.982 -0.1539  0.0008  0.2409
35909ION     CL42509   9.325   4.728  14.744  0.1848  0.1733  0.1920
35910ION     CL42510  14.378   6.404  41.148 -0.2312  0.0052  0.0329
35911ION     CL42511   7.800   0.253  16.173 -0.0353 -0.1223  0.3563
35912ION     CL42512  13.624   2.943  37.987  0.2096  0.3148 -0.2727
35913ION     CL42513  15.301   4.239   0.245 -0.1838  0.0456  0.0355
35914ION     CL42514  14.092   6.400  19.612  0.3047  0.1015  0.1175
35915ION     CL42515   7.713   4.862  25.426  0.0296  0.2280 -0.0342
35916ION     CL42516  20.044   2.810  39.356 -0.2380 -0.2035  0.0792
35917ION     CL42517   2.042   4.501  37.774 -0.1960 -0.0459 -0.0435
35918ION     CL42518  13.437   0.072  34.814  0.1732 -0.3924  0.2570
35919ION     CL42519   2.998   6.042  32.501  0.3091  0.0615  0.2998
35920ION     CL42520   2.162   3.774   0.935 -0.3223  0.1638  0.5666
35921ION     CL42521  15.332   2.996  23.179  0.0701 -0.1694  0.2366
35922ION     CL42522  17.654   3.531   4.503 -0.1375  0.2462 -0.5548
35923ION     CL42523  12.582   0.424  12.331 -0.3803  0.2533 -0.0805
35924ION     CL42524   7.566   1.787  30.796 -0.0348  0.2850  0.4508
35925ION     CL42525  11.437   4.068   4.345  0.3106 -0.0571  0.0320
35926ION     CL42526  18.569   2.591  36.608  0.3692 -0.2500  0.0662
35927ION     CL42527  17.002   0.024  11.242 -0.5089  0.2103  0.4714
35928ION     CL42528  11.498   3.381  44.945  0.3268  0.0301  0.1934
35929ION     CL42529  12.595   4.236  15.396 -0.0556  0.0833 -0.1124
35930ION     CL42530   6.515   5.220  13.383 -0.2515  0.0517 -0.2045
35931ION     CL42531  19.553   4.712   1.872 -0.0859  0.1374  0.0603
35932ION     CL42532  12.680   2.816   1.314 -0.0686 -0.2910 -0.2779
35933ION     CL42533  18.329   2.385   2.030 -0.1848 -0.4947  0.3092
35934ION     CL42534   6.203   4.792  36.195  0.3223  0.2664 -0.1521
35935ION     CL42535  13.679   2.142  37.206 -0.1464 -0.2391  0.3702
35936ION     CL42536  20.185   0.590   6.547  0.0863 -0.3119 -0.2315
35937ION     CL42537  17.840   5.989  16.096 -0.2410 -0.2002 -0.1620
35938ION     CL42538  17.791   5.689  28.813  0.2353  0.1372  0.2954
35939ION     CL42539  14.155   0.466  37.418 -0.1281 -0.4408  0.1710
35940ION     CL42540  17.180   3.055  20.984  0.1626 -0.1079 -0.5242
35941ION     CL42541   4.865   4.881  44.483 -0.0823  0.1468  0.7343
35942ION     CL42542  18.520   3.750   8.679  0.0346 -0.4557 -0.0649
35943ION     CL42543  10.940   5.092   2.632 -0.0678  0.0799  0.1913
35944ION     CL42544   1.368   1.317   9.817  0.0647  0.3783 -0.0548
35945ION     CL42545   6.506   5.432  26.720  0.1778 -0.1954  0.0320
35946ION     CL42546  18.272   2.444  34.984  0.2397  0.0331  0.3590
35947ION     CL42547  10.561   3.701  39.416 -0.3159  0.1446 -0.1835
35948ION     CL42548  19.480   6.309   3.904  0.1576  0.1679  0.2570
35949ION     CL42549  18.508   6.328  33.085 -0.0589  0.5341 -0.7930
35950ION     CL42550   3.971   4.067  12.673  0.2898  0.6345  0.0656
35951ION     CL42551  13.511   0.198  17.431  0.2709  0.1779  0.2734
35952ION     CL42552  20.512   6.259   9.600 -0.4746  0.5086 -0.1505
35953ION     CL42553   9.969   1.393   9.891  0.0501 -0.0521  0.3254
35954ION     CL42554  15.357   3.641  35.061 -0.3652  0.3292 -0.8175
35955ION     CL42555   6.964   6.368   6.708 -0.0256  0.2113  0.2164
35956ION     CL42556   6.846   3.778  28.088 -0.1723 -0.0295  0.0457
35957ION     CL42557  18.194   2.289  16.045  0.2213 -0.0245 -0.1100
35958ION     CL42558  16.393   4.276  21.685 -0.1587 -0.1528 -0.3151
35959ION     CL42559   0.853   4.699  36.458  0.1407 -0.2940 -0.0447
35960ION     CL42560  17.954   0.532   5.320  0.1285  0.0997  0.4740
35961ION     CL42561  17.427   3.703  43.185 -0.1348  0.1440  0.1062
35962ION     CL42562  12.295   2.906  11.409  0.1027  0.2862  0.2142
35963ION     CL42563   9.588   3.178  34.691  0.2311  0.4465  0.1886
35964ION     CL42564   1.780   3.447  37.517  0.2871 -0.4995  0.0172
35965ION     CL42565  17.603   1.688  20.253  0.1095  0.2766 -0.4403
35966ION     CL42566   5.925   6.090  38.187 -0.1165  0.2081 -0.2878
35967ION     CL42567   3.165   1.481  21.613  0.0743 -0.0087  0.1515
35968ION     CL42568   8.337   3.245  10.226  0.1158  0.0161  0.2731
35969ION     CL42569  19.641   0.184  17.219 -0.1248 -0.1816  0.0993
35970ION     CL42570   5.130   2.359  28.150 -0.1111 -0.5161  0.3323
35971ION     CL42571   0.627   4.112  27.615 -0.2646  0.1599 -0.1649
35972ION     CL42572   4.205   6.545  33.355  0.0045 -0.3996 -0.2401
35973ION     CL42573   4.596   1.153  26.622 -0.0206  0.2261  0.5362
35974ION     CL42574   7.484   4.587  13.844  0.1837 -0.0377 -0.4182
35975ION     CL42575   2.756   0.870   9.671 -0.2582  0.0649 -0.0152
35976ION     CL42576  19.573   2.573  42.317  0.2341 -0.0991  0.1462
35977ION     CL42577   1.511   6.320  38.956 -0.0799  0.0210 -0.4312
35978ION     CL42578   9.856   0.719   3.363  0.1566  0.1129  0.1589
35979ION     CL42579   3.527   1.947   1.948 -0.2265  0.1589 -0.2899
35980ION     CL42580  16.226   4.271  36.331 -0.0603  0.4563  0.0444
35981ION     CL42581  11.261   2.668   0.070  0.2907  0.0303  0.3178
35982ION     CL42582  10.620   3.615  19.328 -0.4899  0.0245 -0.1209
35983ION     CL42583   6.862   6.295   1.314 -0.3624  0.0147  0.1364
35984ION     CL42584   3.758   1.803   4.622  0.4463  0.2426  0.2793
35985ION     CL42585   0.631   5.352   7.713  0.0289 -0.1097  0.4014
35986ION     CL42586   3.653   1.677  30.201  0.0874  0.1949  0.2738
35987ION     CL42587   8.962   6.605   1.202  0.2443 -0.3524  0.1955
35988ION     CL42588   2.167   4.868  15.390 -0.0136  0.1491  0.2725
35989ION     CL42589   4.563   4.604  28.178 -0.1628  0.3820  0.1001
35990ION     CL42590  20.484   1.706   3.009 -0.5620 -0.0539 -0.1557
35991ION     CL42591  17.327   2.868  29.592  0.2520 -0.6317  0.0181
35992ION     CL42592   3.365   1.841  29.429  0.3552 -0.0912 -0.2289
35993ION     CL42593   1.976   0.061  13.577  0.0073 -0.1868  0.2340
35994ION     CL42594  12.182   1.493  41.072 -0.0228 -0.0617  0.2162
35995DPPC   NC342595  21.083   2.039  25.062 -0.0245 -0.0736 -0.2518
35995DPPC   PO442596  20.829   1.834  24.853  0.1623  0.1350 -0.5365
35995DPPC   GL142597  20.616   2.048  24.538 -0.1425  0.1098  0.0258
35995DPPC   GL242598  20.746   1.914  24.328 -0.1165  0.0199  0.0967
35995DPPC   C1A42599  20.275   1.892  24.540  0.3675 -0.0373  0.1020
35995DPPC   C2A42600  19.896   1.858  24.311 -0.0617 -0.0718  0.2616
35995DPPC   C3A42601  19.603   1.848  23.947  0.2553 -0.2077 -0.0009
35995DPPC   C4A42602  19.347   1.746  23.519  0.0513  0.1456  0.3710
35995DPPC   C1B42603  20.446   1.849  24.130  0.0485  0.2162  0.5332
35995DPPC   C2B42604  20.134   1.823  23.829 -0.2186  0.2952 -0.2104
35995DPPC   C3B42605  19.846   1.804  23.496  0.2205  0.1052  0.0535
35995DPPC   C4B42606  19.589   1.772  23.014  0.0998  0.1870  0.2070
35996DPPC   NC342607  20.672   2.667  24.818 -0.2880 -0.1921 -0.4028
35996DPPC   PO442608  20.469   2.336  24.853 -0.0311 -0.1019  0.0011
35996DPPC   GL142609  20.040   2.296  24.869  0.2743  0.1108 -0.5290
35996DPPC   GL242610  20.114   2.637  24.847 -0.2780 -0.1355  0.1936
35996DPPC   C1A42611  19.822   2.315  24.606 -0.0033 -0.0675  0.0291
35996DPPC   C2A42612  19.618   2.304  24.255  0.1715  0.3833  0.1266
35996DPPC   C3A42613  19.413   2.335  23.843 -0.1819  0.1196 -0.2492
35996DPPC   C4A42614  19.090   2.214  23.457  0.1550  0.0316  0.1131
35996DPPC   C1B42615  20.154   2.714  24.473  0.1715 -0.1963 -0.5945
35996DPPC   C2B42616  19.978   2.703  24.046 -0.1891 -0.2837 -0.2015
35996DPPC   C3B42617  19.679   2.726  23.676 -0.1643 -0.0922  0.1178
35996DPPC   C4B42618  19.352   2.668  23.307 -0.2828  0.1237 -0.0925
35997DPPC   NC342619   2.075   0.286  21.759 -0.0320 -0.3066 -0.0146
35997DPPC   PO442620   1.923  -0.069  21.821  0.1724  0.1284  0.0836
35997DPPC   GL142621   1.705  -0.171  21.458  0.1944  0.2134  0.1410
35997DPPC   GL242622   1.498   0.109  21.533 -0.1860  0.0699  0.0140
35997DPPC   C1A42623   1.709  -0.402  21.142 -0.0071  0.0748 -0.0378
35997DPPC   C2A42624   1.578  -0.479  20.740 -0.1157 -0.0659  0.0135
35997DPPC   C3A42625   1.245  -0.437  20.364  0.1856 -0.0407 -0.2278
35997DPPC   C4A42626   0.922  -0.412  20.015  0.1782  0.0931 -0.1405
35997DPPC   C1B42627   1.203   0.069  21.342  0.0237  0.1594  0.2074
35997DPPC   C2B42628   0.909   0.079  21.021  0.3915 -0.1516  0.0014
35997DPPC   C3B42629   0.583   0.097  20.643 -0.2179  0.1144  0.0824
35997DPPC   C4B42630   0.321   0.055  20.273 -0.1647  0.2089 -0.2932
35998DPPC   NC342631   1.698   0.957  22.594  0.2941 -0.3525  0.1417
35998DPPC   PO442632   1.671   1.073  22.224 -0.1850 -0.0110  0.0962
35998DPPC   GL142633   1.401   1.107  21.873  0.0155  0.1870  0.1899
35998DPPC   GL242634   1.254   1.214  22.069  0.0244  0.3189 -0.3257
35998DPPC   C1A42635   1.225   0.799  21.681 -0.2812  0.0074  0.1355
35998DPPC   C2A42636   1.041   0.551  21.372  0.1950 -0.0192 -0.1422
35998DPPC   C3A42637   0.710   0.566  21.033  0.0258 -0.0604 -0.0092
35998DPPC   C4A42638   0.386   0.614  20.673 -0.0635 -0.0034  0.0707
35998DPPC   C1B42639   0.971   1.234  21.829  0.0417  0.3614 -0.1632
35998DPPC   C2B42640   0.858   1.088  21.481  0.0010  0.0116 -0.1426
35998DPPC   C3B42641   0.576   1.058  21.092 -0.0870 -0.0657  0.0621
35998DPPC   C4B42642   0.241   1.139  20.739 -0.3861 -0.1881  0.1963
35999DPPC   NC342643  19.835   3.532  26.148 -0.1980 -0.0262 -0.0519
35999DPPC   PO442644  20.056   3.452  25.818  0.3456  0.1298 -0.3006
35999DPPC   GL142645  19.863   3.387  25.478 -0.3676 -0.1042  0.1462
35999DPPC   GL242646  19.939   3.136  25.444  0.0408  0.1842  0.2002
35999DPPC   C1A42647  19.713   3.525  25.153 -0.0194 -0.0263  0.1361
35999DPPC   C2A42648  19.560   3.674  24.842 -0.1116  0.0826  0.1464
35999DPPC   C3A42649  19.301   3.718  24.473  0.2170  0.3126 -0.1999
35999DPPC   C4A42650  18.932   3.648  24.144  0.2444  0.0407 -0.4223
35999DPPC   C1B42651  19.822   3.043  25.097 -0.0576 -0.4841 -0.2812
35999DPPC   C2B42652  19.745   2.849  24.730  0.1874 -0.2283  0.0469
35999DPPC   C3B42653  19.503   2.780  24.297  0.1892 -0.1296  0.1192
35999DPPC   C4B42654  19.179   2.786  23.906 -0.2321 -0.0896 -0.1578
36000DPPC   NC342655   0.556   6.189  23.354  0.1634  0.0937  0.1816
36000DPPC   PO442656   0.598   6.603  23.387  0.2511 -0.3953 -0.3291
36000DPPC   GL142657   0.244   6.645  23.120  0.0056 -0.0923 -0.2865
36000DPPC   GL242658   0.187   6.391  23.111 -0.0581 -0.1195 -0.3265
36000DPPC   C1A42659  -0.002   6.856  23.008 -0.1467  0.0296 -0.0465
36000DPPC   C2A42660  -0.217   7.113  22.696 -0.0057  0.2427 -0.2438
36000DPPC   C3A42661  -0.534   7.173  22.341  0.0274 -0.0606  0.0379
36000DPPC   C4A42662  -0.791   7.232  21.974  0.2508 -0.2274  0.2205
36000DPPC   C1B42663  -0.040   6.275  22.805  0.1915 -0.0585  0.2175
36000DPPC   C2B42664  -0.107   6.233  22.368  0.0668  0.0997 -0.2004
36000DPPC   C3B42665  -0.396   6.247  21.992  0.3892  0.0684 -0.1028
36000DPPC   C4B42666  -0.774   6.192  21.614 -0.0471  0.0728  0.0103
36001DPPC   NC342667   2.209   5.298  21.357 -0.1961 -0.2379 -0.1459
36001DPPC   PO442668   2.212   5.704  21.270 -0.0694 -0.1586  0.2262
36001DPPC   GL142669   1.892   5.738  21.012 -0.2951  0.0157  0.1281
36001DPPC   GL242670   2.077   5.807  20.825  0.1116  0.0989 -0.1506
36001DPPC   C1A42671   1.650   5.682  20.753 -0.0226  0.0265 -0.2191
36001DPPC   C2A42672   1.450   5.697  20.392  0.0535 -0.0703 -0.2351
36001DPPC   C3A42673   1.065   5.752  20.072  0.0281  0.2192 -0.0059
36001DPPC   C4A42674   0.800   5.753  19.692  0.0726 -0.0137 -0.1994
36001DPPC   C1B42675   2.164   5.612  20.507  0.3731 -0.1411  0.1336
36001DPPC   C2B42676   1.885   5.634  20.203 -0.0222  0.2631  0.0921
36001DPPC   C3B42677   1.547   5.571  19.867 -0.2620 -0.3488  0.3553
36001DPPC   C4B42678   1.226   5.590  19.464  0.4244 -0.0919  0.3200
36002DPPC   NC342679   1.030   6.420  22.637 -0.2632  0.1219  0.0106
36002DPPC   PO442680   0.963   6.795  22.784 -0.1141 -0.1406 -0.1984
36002DPPC   GL142681   0.638   6.971  22.572  0.1419 -0.0115  0.1497
36002DPPC   GL242682   0.574   6.681  22.435 -0.0356 -0.4513 -0.4109
36002DPPC   C1A42683   0.268   7.007  22.606 -0.2776  0.1909  0.0113
36002DPPC   C2A42684  -0.002   7.015  22.277  0.2933  0.1055  0.1165
36002DPPC   C3A42685  -0.349   7.037  21.902  0.2376 -0.0044 -0.1360
36002DPPC   C4A42686  -0.601   6.985  21.542 -0.1201  0.0340 -0.3170
36002DPPC   C1B42687   0.308   6.627  22.207  0.0367  0.2773 -0.0754
36002DPPC   C2B42688   0.003   6.608  21.969 -0.0596 -0.1587  0.3016
36002DPPC   C3B42689  -0.254   6.560  21.593  0.0446  0.0818 -0.1317
36002DPPC   C4B42690  -0.590   6.602  21.223  0.0712 -0.1128 -0.3089
36003DPPC   NC342691   1.196   6.549  23.183  0.0489 -0.1930  0.1747
36003DPPC   PO442692   0.964   6.265  23.092  0.0506 -0.2524 -0.1040
36003DPPC   GL142693   0.649   6.211  22.863 -0.0964 -0.4870 -0.5396
36003DPPC   GL242694   0.621   6.540  22.862  0.0120 -0.2529  0.4425
36003DPPC   C1A42695   0.611   6.212  22.479  0.2148  0.1786 -0.2343
36003DPPC   C2A42696   0.396   6.112  22.153  0.1174 -0.0805  0.1587
36003DPPC   C3A42697   0.040   6.147  21.812  0.0475 -0.2208 -0.0174
36003DPPC   C4A42698  -0.294   6.088  21.443  0.1577 -0.0613 -0.3432
36003DPPC   C1B42699   0.284   6.537  22.639 -0.0136  0.0113 -0.1025
36003DPPC   C2B42700  -0.107   6.659  22.583 -0.0529  0.0432  0.0398
36003DPPC   C3B42701  -0.441   6.661  22.284  0.0600 -0.2863 -0.0699
36003DPPC   C4B42702  -0.778   6.623  21.897 -0.1278 -0.0621  0.0834
36004DPPC   NC342703   0.229   4.266  23.780 -0.1194 -0.2557 -0.0133
36004DPPC   PO442704  -0.059   4.319  24.025 -0.0689  0.1160 -0.1114
36004DPPC   GL142705  -0.198   3.983  23.873 -0.0595 -0.1445 -0.3338
36004DPPC   GL242706  -0.430   3.946  24.107 -0.0317  0.0433 -0.2841
36004DPPC   C1A42707  -0.383   3.967  23.567  0.2396 -0.0991 -0.3202
36004DPPC   C2A42708  -0.672   3.902  23.263  0.0405  0.1150 -0.0678
36004DPPC   C3A42709  -0.970   3.832  22.885 -0.1994 -0.0483  0.2740
36004DPPC   C4A42710  -1.296   3.849  22.444 -0.1351  0.3782 -0.3631
36004DPPC   C1B42711  -0.684   3.943  23.880 -0.3656  0.0743  0.1948
36004DPPC   C2B42712  -1.016   3.940  23.618 -0.0755 -0.0385  0.0550
36004DPPC   C3B42713  -1.266   3.961  23.232  0.1943 -0.1649  0.3949
36004DPPC   C4B42714  -1.628   3.980  22.894 -0.5115 -0.2139  0.4306
36005DPPC   NC342715  20.996   5.463  24.618  0.0868 -0.0569 -0.2071
36005DPPC   PO442716  20.683   5.509  24.807 -0.1836 -0.0054 -0.0958
36005DPPC   GL142717  20.411   5.547  24.481  0.2203 -0.0894  0.2413
36005DPPC   GL242718  20.373   5.239  24.541  0.1207  0.0451 -0.2259
36005DPPC   C1A42719  20.253   5.628  24.140 -0.0528 -0.0661 -0.1025
36005DPPC   C2A42720  20.085   5.672  23.779  0.1477 -0.0961  0.1875
36005DPPC   C3A42721  19.787   5.711  23.382 -0.1481  0.0688 -0.1322
36005DPPC   C4A42722  19.446   5.626  23.054 -0.2271  0.1423 -0.2121
36005DPPC   C1B42723  20.135   5.157  24.294  0.2153 -0.2349 -0.2755
36005DPPC   C2B42724  19.795   5.276  24.024 -0.1038  0.0148  0.0891
36005DPPC   C3B42725  19.462   5.286  23.722  0.1270 -0.1120 -0.1644
36005DPPC   C4B42726  19.268   5.291  23.333 -0.1481 -0.0057  0.2110
36006DPPC   NC342727  21.130   6.413  24.953 -0.0349 -0.0332 -0.2468
36006DPPC   PO442728  20.778   6.247  25.026 -0.0966 -0.0028  0.4299
36006DPPC   GL142729  20.460   6.103  24.938  0.1701 -0.3321  0.1468
36006DPPC   GL242730  20.531   5.943  24.686  0.0331  0.0306 -0.2847
36006DPPC   C1A42731  20.106   6.092  24.808 -0.4125  0.3120  0.1942
36006DPPC   C2A42732  19.870   6.137  24.490 -0.1467 -0.0110 -0.2960
36006DPPC   C3A42733  19.606   6.221  24.056  0.1588  0.1836  0.1134
36006DPPC   C4A42734  19.311   6.268  23.708  0.0939  0.3834 -0.0184
36006DPPC   C1B42735  20.290   5.993  24.407 -0.0387 -0.4028  0.1741
36006DPPC   C2B42736  20.073   6.099  24.049 -0.0859  0.0564  0.1775
36006DPPC   C3B42737  19.848   6.137  23.606 -0.2228 -0.2304  0.4650
36006DPPC   C4B42738  19.524   6.149  23.250 -0.0873  0.0258  0.3574
36007DPPC   NC342739   0.148   2.394  24.257  0.0015  0.1214 -0.1551
36007DPPC   PO442740   0.156   2.665  24.569 -0.3202 -0.0041  0.0655
36007DPPC   GL142741  -0.203   2.774  24.513  0.0866 -0.3878  0.2490
36007DPPC   GL242742  -0.239   2.582  24.312  0.0099 -0.3127  0.2543
36007DPPC   C1A42743  -0.522   2.908  24.396 -0.3264 -0.3546 -0.3281
36007DPPC   C2A42744  -0.797   3.002  24.108 -0.1835 -0.2105  0.2312
36007DPPC   C3A42745  -1.096   3.047  23.732  0.5102 -0.2471  0.2745
36007DPPC   C4A42746  -1.359   3.053  23.267 -0.2909 -0.1400  0.3572
36007DPPC   C1B42747  -0.558   2.462  24.233 -0.1267  0.0960 -0.0336
36007DPPC   C2B42748  -0.897   2.248  24.108 -0.0485 -0.1079  0.0172
36007DPPC   C3B42749  -1.275   2.264  23.771  0.2351  0.0706 -0.3100
36007DPPC   C4B42750  -1.594   2.190  23.398 -0.2800  0.0289 -0.1221
36008DPPC   NC342751   2.280   5.865  22.269  0.1689  0.0839 -0.0337
36008DPPC   PO442752   1.996   5.597  22.250 -0.2126 -0.0768  0.3116
36008DPPC   GL142753   1.668   5.519  21.942  0.1288  0.1583 -0.0176
36008DPPC   GL242754   1.500   5.298  22.133 -0.0959  0.4341  0.2480
36008DPPC   C1A42755   1.436   5.458  21.651 -0.2216 -0.1303  0.0946
36008DPPC   C2A42756   1.132   5.378  21.362 -0.3960 -0.3139  0.0227
36008DPPC   C3A42757   0.864   5.386  21.022 -0.0293 -0.0150 -0.0075
36008DPPC   C4A42758   0.567   5.429  20.618 -0.1009 -0.3050 -0.1471
36008DPPC   C1B42759   1.190   5.505  22.084  0.2172 -0.0628 -0.0575
36008DPPC   C2B42760   0.884   5.434  21.820 -0.0628 -0.1519 -0.2063
36008DPPC   C3B42761   0.577   5.503  21.427 -0.1367  0.0147  0.0975
36008DPPC   C4B42762   0.332   5.517  21.095  0.2161  0.0633  0.1712
36009DPPC   NC342763  20.540   1.458  24.981  0.1171  0.1126 -0.0335
36009DPPC   PO442764  20.745   1.365  24.618 -0.3017 -0.4099 -0.1143
36009DPPC   GL142765  20.468   1.392  24.368  0.2805 -0.0383  0.2540
36009DPPC   GL242766  20.581   1.207  24.074 -0.3479 -0.0952  0.3607
36009DPPC   C1A42767  20.075   1.416  24.261 -0.0235  0.0807 -0.2058
36009DPPC   C2A42768  19.790   1.373  23.920 -0.0018 -0.0339  0.2767
36009DPPC   C3A42769  19.509   1.319  23.577  0.0060 -0.0290 -0.1877
36009DPPC   C4A42770  19.234   1.384  23.177 -0.0902  0.1610  0.0807
36009DPPC   C1B42771  20.310   1.376  23.869  0.0004  0.0535  0.0791
36009DPPC   C2B42772  20.104   1.379  23.526 -0.1921 -0.2893  0.1404
36009DPPC   C3B42773  19.879   1.338  23.127 -0.0673 -0.2354  0.1294
36009DPPC   C4B42774  19.477   1.381  22.744 -0.0265  0.1854  0.2579
36010DPPC   NC342775   1.085   3.333  23.566 -0.0914 -0.1732  0.1937
36010DPPC   PO442776   1.158   3.145  23.259  0.3627  0.2466  0.1606
36010DPPC   GL142777   0.868   3.016  22.993  0.4243  0.1297 -0.3642
36010DPPC   GL242778   0.678   2.907  23.147  0.1783 -0.3936  0.2161
36010DPPC   C1A42779   0.738   3.015  22.639  0.0209 -0.2345  0.1549
36010DPPC   C2A42780   0.576   2.978  22.263  0.0059  0.1999 -0.0759
36010DPPC   C3A42781   0.287   2.968  21.876  0.3535  0.0795  0.1021
36010DPPC   C4A42782  -0.005   2.954  21.452 -0.2381 -0.2702  0.1377
36010DPPC   C1B42783   0.358   2.809  22.946  0.1141  0.3276 -0.1344
36010DPPC   C2B42784   0.001   2.732  22.747 -0.0043  0.1544  0.0674
36010DPPC   C3B42785  -0.310   2.760  22.395 -0.1197  0.2103  0.0043
36010DPPC   C4B42786  -0.610   2.712  22.012  0.1249 -0.1560  0.0791
36011DPPC   NC342787   1.281   5.541  22.764 -0.0273 -0.1844  0.1617
36011DPPC   PO442788   1.230   5.141  22.693 -0.0507 -0.0705  0.0589
36011DPPC   GL142789   0.930   5.186  22.415 -0.1300 -0.2365  0.1006
36011DPPC   GL242790   0.763   5.375  22.567 -0.0703  0.1348  0.4279
36011DPPC   C1A42791   0.653   5.141  22.096 -0.3187  0.0753 -0.1265
36011DPPC   C2A42792   0.495   5.148  21.707 -0.1944  0.1548 -0.1154
36011DPPC   C3A42793   0.161   5.150  21.373  0.0053  0.1130 -0.0743
36011DPPC   C4A42794  -0.145   5.075  21.010 -0.0552  0.2651 -0.0680
36011DPPC   C1B42795   0.645   5.566  22.297  0.0711  0.2989 -0.0881
36011DPPC   C2B42796   0.427   5.609  21.964 -0.1184  0.6673 -0.1219
36011DPPC   C3B42797   0.118   5.668  21.552 -0.3195  0.0139 -0.0198
36011DPPC   C4B42798  -0.189   5.573  21.225  0.0398  0.2796  0.3095
36012DPPC   NC342799  20.534   5.026  24.934 -0.4544 -0.0274  0.0173
36012DPPC   PO442800  20.768   4.749  24.707  0.1625 -0.2036  0.2290
36012DPPC   GL142801  20.514   4.665  24.299  0.1692 -0.0401  0.2695
36012DPPC   GL242802  20.341   4.543  24.476 -0.0505  0.1537 -0.2192
36012DPPC   C1A42803  20.192   4.725  24.168 -0.1190 -0.0942  0.1392
36012DPPC   C2A42804  19.902   4.826  23.881 -0.2433 -0.0467 -0.1013
36012DPPC   C3A42805  19.608   4.849  23.454 -0.0464 -0.1131 -0.3188
36012DPPC   C4A42806  19.334   4.826  23.060  0.0004  0.2499  0.1630
36012DPPC   C1B42807  20.033   4.430  24.407 -0.2895 -0.1822  0.0667
36012DPPC   C2B42808  19.775   4.400  24.120  0.0209 -0.0291 -0.1812
36012DPPC   C3B42809  19.438   4.518  23.769  0.0619  0.1232 -0.1609
36012DPPC   C4B42810  19.132   4.505  23.385  0.0757  0.3179  0.1505
36013DPPC   NC342811   2.084   4.708  21.730  0.2207  0.1254 -0.0817
36013DPPC   PO442812   1.820   4.653  22.019  0.3188  0.0209  0.4913
36013DPPC   GL142813   1.368   4.515  22.069  0.2112  0.3185  0.1447
36013DPPC   GL242814   1.541   4.329  22.020  0.2331 -0.2704 -0.1677
36013DPPC   C1A42815   1.087   4.633  21.879  0.0105  0.0413  0.2022
36013DPPC   C2A42816   0.674   4.664  21.788 -0.0839 -0.1531 -0.0283
36013DPPC   C3A42817   0.367   4.722  21.438  0.1009 -0.1925 -0.1414
36013DPPC   C4A42818   0.114   4.668  21.021  0.1788  0.0469 -0.1535
36013DPPC   C1B42819   1.336   4.187  21.749  0.0740 -0.3144  0.1081
36013DPPC   C2B42820   1.148   4.078  21.392 -0.1492 -0.1490  0.0520
36013DPPC   C3B42821   0.829   4.094  21.072  0.0089  0.2448 -0.0898
36013DPPC   C4B42822   0.522   4.096  20.692  0.0527  0.2881  0.2287
36014DPPC   NC342823   2.866   4.939  20.361  0.0125  0.0811  0.4200
36014DPPC   PO442824   2.686   5.207  20.596  0.2075  0.0794 -0.2494
36014DPPC   GL142825   2.419   5.113  20.541  0.0563  0.0006  0.1558
36014DPPC   GL242826   2.413   4.926  20.308 -0.2307 -0.0173  0.2979
36014DPPC   C1A42827   2.097   5.232  20.433 -0.1327  0.1846  0.1697
36014DPPC   C2A42828   1.851   5.145  20.099 -0.0649 -0.1359  0.1166
36014DPPC   C3A42829   1.626   5.084  19.734 -0.1459 -0.0641  0.0878
36014DPPC   C4A42830   1.294   5.079  19.332  0.0533 -0.2711 -0.0698
36014DPPC   C1B42831   2.119   4.797  20.123 -0.1176  0.0762  0.0165
36014DPPC   C2B42832   1.910   4.661  19.787  0.0485 -0.2365  0.1723
36014DPPC   C3B42833   1.640   4.661  19.411 -0.1313  0.1083  0.0237
36014DPPC   C4B42834   1.330   4.643  19.054  0.1689 -0.0488 -0.2024
36015DPPC   NC342835   3.929   4.940  19.548 -0.2129 -0.0581  0.1240
36015DPPC   PO442836   3.824   5.185  19.193 -0.1232 -0.0546  0.2169
36015DPPC   GL142837   3.488   5.040  18.988  0.1063  0.3353  0.1190
36015DPPC   GL242838   3.672   4.999  18.734 -0.0646 -0.0812  0.0361
36015DPPC   C1A42839   3.336   4.757  18.877  0.0164  0.1851  0.1897
36015DPPC   C2A42840   3.059   4.452  18.793  0.2268 -0.1041  0.1529
36015DPPC   C3A42841   2.799   4.380  18.410 -0.1291 -0.0029 -0.2396
36015DPPC   C4A42842   2.525   4.410  18.063  0.1372  0.2049  0.1609
36015DPPC   C1B42843   3.583   5.237  18.430  0.0444  0.2830  0.1316
36015DPPC   C2B42844   3.677   5.494  18.081 -0.0602 -0.1301  0.1128
36015DPPC   C3B42845   3.913   5.605  17.671  0.4157  0.0708 -0.2141
36015DPPC   C4B42846   4.056   5.589  17.261 -0.0835  0.0648 -0.2985
36016DPPC   NC342847   1.312   4.534  22.610  0.3984 -0.1908  0.3518
36016DPPC   PO442848   1.467   4.818  22.391  0.0020  0.0801  0.2998
36016DPPC   GL142849   1.131   4.830  22.266  0.1027 -0.2476 -0.2042
36016DPPC   GL242850   1.194   5.038  22.014 -0.5062 -0.3806 -0.0503
36016DPPC   C1A42851   0.767   4.771  22.272 -0.2041  0.3635  0.1043
36016DPPC   C2A42852   0.364   4.746  22.195 -0.0636  0.0684  0.1222
36016DPPC   C3A42853   0.024   4.760  21.806  0.0289  0.2684 -0.0926
36016DPPC   C4A42854  -0.335   4.720  21.491 -0.0301 -0.2625 -0.1461
36016DPPC   C1B42855   1.005   5.036  21.698 -0.0762  0.1477 -0.0723
36016DPPC   C2B42856   0.761   5.073  21.323  0.0278  0.2004  0.0319
36016DPPC   C3B42857   0.439   5.064  20.956  0.2262  0.0553  0.0554
36016DPPC   C4B42858   0.118   4.992  20.620 -0.1648 -0.1010 -0.1315
36017DPPC   NC342859   1.859   3.525  22.674 -0.0757 -0.1421  0.1072
36017DPPC   PO442860   1.542   3.291  22.659  0.6243 -0.1124 -0.2471
36017DPPC   GL142861   1.237   3.259  22.357 -0.0603  0.0237  0.4053
36017DPPC   GL242862   1.171   2.983  22.468 -0.1020  0.4115  0.2460
36017DPPC   C1A42863   0.930   3.355  22.230 -0.1492 -0.1143 -0.0659
36017DPPC   C2A42864   0.726   3.374  21.895  0.2458 -0.0286 -0.1120
36017DPPC   C3A42865   0.367   3.356  21.519 -0.0826 -0.1142  0.0567
36017DPPC   C4A42866   0.084   3.353  21.108  0.1545  0.0424 -0.3078
36017DPPC   C1B42867   1.012   2.911  22.097  0.4691  0.1517 -0.2116
36017DPPC   C2B42868   0.778   2.904  21.750  0.4022  0.0039  0.0784
36017DPPC   C3B42869   0.489   2.831  21.398  0.1116  0.1330  0.1772
36017DPPC   C4B42870   0.190   2.868  20.992  0.0117 -0.1088  0.1195
36018DPPC   NC342871   1.245   0.860  23.388 -0.1757  0.0183 -0.0337
36018DPPC   PO442872   1.154   0.864  23.019 -0.0366  0.0222 -0.1172
36018DPPC   GL142873   0.891   0.683  22.713 -0.0653  0.0063  0.0995
36018DPPC   GL242874   0.758   0.993  22.834 -0.3219 -0.4222  0.1091
36018DPPC   C1A42875   0.574   0.774  22.541 -0.1457 -0.2205 -0.0162
36018DPPC   C2A42876   0.397   0.759  22.166  0.2610  0.2080  0.3379
36018DPPC   C3A42877   0.107   0.754  21.819  0.2650 -0.1676  0.0478
36018DPPC   C4A42878  -0.227   0.754  21.439  0.1053  0.4406  0.0198
36018DPPC   C1B42879   0.581   1.256  22.618 -0.0738 -0.0340 -0.0951
36018DPPC   C2B42880   0.295   1.297  22.340  0.1792  0.1493 -0.2501
36018DPPC   C3B42881  -0.045   1.317  21.944  0.1921  0.1298 -0.3100
36018DPPC   C4B42882  -0.325   1.297  21.495 -0.0881  0.4381 -0.4773
36019DPPC   NC342883   1.745   6.158  23.020 -0.3234 -0.0752 -0.2873
36019DPPC   PO442884   1.414   6.023  22.819  0.0512 -0.0684 -0.0720
36019DPPC   GL142885   1.109   5.971  22.476  0.2155 -0.3258 -0.0266
36019DPPC   GL242886   0.983   5.936  22.686 -0.0423  0.1108  0.0715
36019DPPC   C1A42887   0.926   5.925  22.174 -0.3378 -0.2551 -0.3864
36019DPPC   C2A42888   0.827   6.105  21.825 -0.1256 -0.2012 -0.1093
36019DPPC   C3A42889   0.529   6.014  21.521 -0.2451 -0.0677 -0.1215
36019DPPC   C4A42890   0.190   5.966  21.173  0.1857 -0.0198 -0.0243
36019DPPC   C1B42891   0.713   5.771  22.695  0.0996 -0.1845 -0.0396
36019DPPC   C2B42892   0.290   5.756  22.521 -0.1103  0.2390 -0.0125
36019DPPC   C3B42893  -0.039   5.744  22.104  0.2109 -0.2302  0.0358
36019DPPC   C4B42894  -0.427   5.709  21.717 -0.0817  0.3509  0.0579
36020DPPC   NC342895  19.724   0.859  25.900 -0.2112  0.1270 -0.1457
36020DPPC   PO442896  19.465   1.158  25.836 -0.1163  0.0373  0.0736
36020DPPC   GL142897  19.366   1.321  25.518  0.3261 -0.2317 -0.0002
36020DPPC   GL242898  19.564   1.504  25.418  0.1078  0.3664  0.1540
36020DPPC   C1A42899  19.085   1.242  25.313 -0.1579 -0.2161 -0.4163
36020DPPC   C2A42900  18.910   1.172  24.915 -0.0043  0.1850 -0.0253
36020DPPC   C3A42901  18.623   1.183  24.476 -0.1210 -0.0203 -0.2359
36020DPPC   C4A42902  18.269   1.125  24.081  0.2515  0.0877  0.0775
36020DPPC   C1B42903  19.335   1.548  25.127  0.1220  0.0214 -0.0068
36020DPPC   C2B42904  19.152   1.602  24.717 -0.1256  0.0221 -0.3210
36020DPPC   C3B42905  18.913   1.575  24.362 -0.0197  0.1080 -0.0826
36020DPPC   C4B42906  18.645   1.568  23.970  0.1299 -0.1234  0.1243
36021DPPC   NC342907   0.628   3.771  24.222 -0.0461 -0.1468 -0.1352
36021DPPC   PO442908   0.280   3.846  24.044  0.0506 -0.1413 -0.0422
36021DPPC   GL142909   0.004   3.699  23.628 -0.0098 -0.0879  0.0195
36021DPPC   GL242910   0.147   3.938  23.504 -0.1676  0.0396  0.0472
36021DPPC   C1A42911  -0.198   3.438  23.482  0.3314 -0.3805  0.0066
36021DPPC   C2A42912  -0.485   3.321  23.200  0.0021  0.2088  0.0281
36021DPPC   C3A42913  -0.822   3.356  22.823  0.0677 -0.1865  0.0163
36021DPPC   C4A42914  -1.154   3.343  22.402  0.1909  0.2761  0.1332
36021DPPC   C1B42915  -0.081   4.212  23.452 -0.1994 -0.0899  0.1397
36021DPPC   C2B42916  -0.340   4.250  23.132 -0.0258  0.0096 -0.0339
36021DPPC   C3B42917  -0.651   4.166  22.726 -0.2627 -0.0913 -0.0229
36021DPPC   C4B42918  -0.908   4.179  22.328  0.0657  0.4422 -0.1110
36022DPPC   NC342919  21.013   4.732  24.254  0.0551 -0.3067 -0.2389
36022DPPC   PO442920  21.016   5.112  24.304 -0.2874 -0.0540 -0.0285
36022DPPC   GL142921  20.706   5.045  24.030 -0.2691 -0.0506  0.0486
36022DPPC   GL242922  20.508   5.129  24.170 -0.2289 -0.0559 -0.1042
36022DPPC   C1A42923  20.539   4.889  23.805 -0.0126  0.0673 -0.1663
36022DPPC   C2A42924  20.269   4.773  23.531 -0.1725 -0.4084  0.1428
36022DPPC   C3A42925  19.998   4.759  23.135  0.2867 -0.0198 -0.2062
36022DPPC   C4A42926  19.701   4.722  22.809  0.1608  0.0178 -0.1286
36022DPPC   C1B42927  20.252   5.228  23.929 -0.1893 -0.1458  0.2475
36022DPPC   C2B42928  19.990   5.195  23.560 -0.0939 -0.0041 -0.0739
36022DPPC   C3B42929  19.776   5.249  23.109 -0.2105  0.1443 -0.0042
36022DPPC   C4B42930  19.438   5.256  22.732 -0.0124  0.3251  0.0643
36023DPPC   NC342931   2.928   2.284  21.482 -0.0824 -0.3895  0.0802
36023DPPC   PO442932   2.533   2.409  21.477 -0.1032 -0.0781  0.2553
36023DPPC   GL142933   2.093   2.589  21.433  0.2668  0.0281 -0.1882
36023DPPC   GL242934   2.089   2.284  21.235 -0.2219  0.1597 -0.0921
36023DPPC   C1A42935   1.775   2.647  21.264  0.0010  0.0515  0.2882
36023DPPC   C2A42936   1.444   2.706  21.015 -0.4401 -0.1233  0.1309
36023DPPC   C3A42937   1.134   2.644  20.616  0.0624 -0.0761 -0.0413
36023DPPC   C4A42938   0.914   2.633  20.217 -0.0211  0.0140  0.0776
36023DPPC   C1B42939   1.978   2.444  20.887  0.0498  0.2322  0.1228
36023DPPC   C2B42940   1.778   2.514  20.562 -0.0080  0.0554  0.0918
36023DPPC   C3B42941   1.438   2.486  20.136 -0.0134  0.0122 -0.1506
36023DPPC   C4B42942   1.168   2.493  19.748  0.1060  0.2224  0.1294
36024DPPC   NC342943   2.792   4.325  21.071  0.2717 -0.3846  0.0518
36024DPPC   PO442944   2.441   4.384  21.192 -0.0120  0.0180 -0.0734
36024DPPC   GL142945   2.104   4.546  21.017  0.0074  0.0819 -0.0461
36024DPPC   GL242946   1.986   4.539  21.299  0.2897  0.3099 -0.1247
36024DPPC   C1A42947   1.844   4.436  20.773  0.2315  0.0336  0.4534
36024DPPC   C2A42948   1.547   4.378  20.480  0.0679  0.2071 -0.0588
36024DPPC   C3A42949   1.155   4.337  20.139  0.0901  0.1791 -0.1278
36024DPPC   C4A42950   0.845   4.351  19.777  0.0572  0.2343  0.2180
36024DPPC   C1B42951   1.675   4.320  21.126  0.3848 -0.4291 -0.0681
36024DPPC   C2B42952   1.286   4.479  20.962 -0.0862  0.3139  0.3771
36024DPPC   C3B42953   0.938   4.458  20.616 -0.4978 -0.1026  0.0482
36024DPPC   C4B42954   0.585   4.452  20.252 -0.4621 -0.0568  0.0607
36025DPPC   NC342955   0.348   1.883  23.763  0.2828  0.2178  0.3557
36025DPPC   PO442956   0.318   2.258  23.752 -0.1785 -0.0844 -0.2963
36025DPPC   GL142957   0.247   2.119  23.342  0.2306 -0.1603 -0.0015
36025DPPC   GL242958   0.167   1.851  23.366  0.0695 -0.3647  0.1919
36025DPPC   C1A42959  -0.048   2.198  23.101 -0.1929 -0.0186 -0.2159
36025DPPC   C2A42960  -0.321   2.343  22.819 -0.2878  0.0397  0.2169
36025DPPC   C3A42961  -0.677   2.344  22.477 -0.0543  0.1302  0.3932
36025DPPC   C4A42962  -0.963   2.400  22.084  0.0585 -0.0098  0.0352
36025DPPC   C1B42963  -0.027   1.718  23.065  0.0824 -0.2157  0.1624
36025DPPC   C2B42964  -0.263   1.806  22.658 -0.0493 -0.0590 -0.0817
36025DPPC   C3B42965  -0.519   1.865  22.304 -0.1156 -0.0896  0.1575
36025DPPC   C4B42966  -0.845   1.863  21.960 -0.1428 -0.0416 -0.0756
36026DPPC   NC342967   2.383   1.252  20.906 -0.1910  0.0172 -0.1610
36026DPPC   PO442968   2.329   0.863  20.953 -0.0520  0.3890 -0.0169
36026DPPC   GL142969   1.827   0.798  20.998 -0.0224 -0.1184 -0.3729
36026DPPC   GL242970   1.869   0.524  20.941  0.1430  0.1604 -0.0459
36026DPPC   C1A42971   1.537   0.842  20.799  0.2892 -0.0831 -0.1114
36026DPPC   C2A42972   1.258   0.842  20.520 -0.2298 -0.1670  0.0467
36026DPPC   C3A42973   0.976   0.822  20.142 -0.0645  0.2171  0.0258
36026DPPC   C4A42974   0.681   0.815  19.743  0.2646  0.1124  0.0424
36026DPPC   C1B42975   1.696   0.350  20.632 -0.2728 -0.3425 -0.1268
36026DPPC   C2B42976   1.430   0.343  20.326  0.1223  0.2962  0.0398
36026DPPC   C3B42977   1.117   0.366  19.959 -0.1547  0.3877 -0.1017
36026DPPC   C4B42978   0.853   0.370  19.545  0.1465  0.1043 -0.1555
36027DPPC   NC342979  20.189   3.836  25.454  0.0954 -0.3060  0.2259
36027DPPC   PO442980  20.312   3.488  25.323  0.1965  0.0578 -0.0878
36027DPPC   GL142981  20.111   3.367  25.006  0.3662 -0.0718  0.1000
36027DPPC   GL242982  20.407   3.446  24.846 -0.0360 -0.2646 -0.1621
36027DPPC   C1A42983  19.823   3.352  24.781 -0.1881 -0.0724 -0.0750
36027DPPC   C2A42984  19.494   3.262  24.534  0.1247  0.3862 -0.2716
36027DPPC   C3A42985  19.189   3.209  24.199 -0.4578  0.2197 -0.1385
36027DPPC   C4A42986  18.912   3.236  23.775 -0.1120 -0.2581 -0.2474
36027DPPC   C1B42987  20.179   3.583  24.564 -0.0418  0.0625 -0.2875
36027DPPC   C2B42988  19.791   3.610  24.357  0.0756 -0.1792 -0.1749
36027DPPC   C3B42989  19.419   3.597  24.035 -0.0494 -0.0632  0.1796
36027DPPC   C4B42990  19.106   3.603  23.574 -0.0677 -0.3045  0.2048
36028DPPC   NC342991   2.295   1.899  21.500  0.1730  0.2529 -0.0724
36028DPPC   PO442992   2.246   1.594  21.245  0.1985  0.0056 -0.0212
36028DPPC   GL142993   2.049   1.613  20.855 -0.2113 -0.0265 -0.0147
36028DPPC   GL242994   1.857   1.669  21.000  0.0634 -0.1466 -0.0060
36028DPPC   C1A42995   1.964   1.271  20.748  0.0502 -0.0442 -0.2080
36028DPPC   C2A42996   1.704   1.148  20.461  0.0775 -0.0664  0.3241
36028DPPC   C3A42997   1.378   1.178  20.157 -0.2725  0.1201  0.2026
36028DPPC   C4A42998   1.087   1.112  19.782 -0.0939 -0.1819  0.1271
36028DPPC   C1B42999   1.620   1.651  20.731  0.1894  0.0713 -0.1977
36028DPPC   C2B43000   1.397   1.672  20.384 -0.3313 -0.1039 -0.0523
36028DPPC   C3B43001   1.104   1.630  20.009  0.0123  0.0338  0.2877
36028DPPC   C4B43002   0.766   1.721  19.630  0.1384  0.2348  0.2388
36029DPPC   NC343003   1.078   4.289  23.160 -0.0702  0.0610 -0.1906
36029DPPC   PO443004   1.160   4.126  22.841 -0.3060  0.1415 -0.0431
36029DPPC   GL143005   0.800   4.120  22.594  0.0079  0.1221 -0.1138
36029DPPC   GL243006   0.959   3.911  22.415  0.1220 -0.2300  0.1541
36029DPPC   C1A43007   0.512   3.934  22.422  0.1050 -0.0881  0.0786
36029DPPC   C2A43008   0.147   3.929  22.205  0.2166 -0.3200 -0.1863
36029DPPC   C3A43009  -0.110   3.900  21.855  0.2237  0.1282  0.2973
36029DPPC   C4A43010  -0.369   3.976  21.479  0.1735 -0.1261  0.0716
36029DPPC   C1B43011   0.736   3.792  22.141  0.0921  0.0641  0.2618
36029DPPC   C2B43012   0.536   3.817  21.846 -0.3194 -0.2184  0.3518
36029DPPC   C3B43013   0.223   3.846  21.504  0.0011  0.0160 -0.3154
36029DPPC   C4B43014  -0.076   3.861  21.097 -0.2605  0.0027  0.0143
36030DPPC   NC343015  21.085   0.842  24.652  0.1395  0.2587 -0.1067
36030DPPC   PO443016  20.903   0.965  24.369  0.0720 -0.0981  0.1918
36030DPPC   GL143017  20.601   0.674  24.181 -0.0169  0.1645  0.2320
36030DPPC   GL243018  20.751   0.717  23.902 -0.1432  0.0828  0.0391
36030DPPC   C1A43019  20.294   0.869  24.019 -0.2298 -0.0021 -0.0932
36030DPPC   C2A43020  20.018   0.880  23.760 -0.1745  0.0955  0.1154
36030DPPC   C3A43021  19.727   0.909  23.413  0.2364 -0.0299 -0.2673
36030DPPC   C4A43022  19.401   0.889  23.108 -0.2651 -0.1243  0.1962
36030DPPC   C1B43023  20.456   0.725  23.660 -0.0824  0.3599 -0.2440
36030DPPC   C2B43024  20.214   0.713  23.366 -0.1099 -0.0363 -0.0911
36030DPPC   C3B43025  19.870   0.760  22.981  0.0381 -0.1906 -0.5004
36030DPPC   C4B43026  19.597   0.869  22.636  0.2555 -0.1367  0.1099
36031DPPC   NC343027  20.005   2.207  25.305  0.0863 -0.1078 -0.0165
36031DPPC   PO443028  19.959   1.782  25.324 -0.1509 -0.0154 -0.1458
36031DPPC   GL143029  19.777   1.709  25.067  0.0431  0.1895 -0.0963
36031DPPC   GL243030  19.721   1.961  24.944 -0.2647  0.4174 -0.0336
36031DPPC   C1A43031  19.624   1.519  24.793 -0.1606  0.1943 -0.0980
36031DPPC   C2A43032  19.596   1.421  24.403  0.0085 -0.1607 -0.1769
36031DPPC   C3A43033  19.275   1.444  24.008 -0.2188 -0.0059 -0.2805
36031DPPC   C4A43034  18.942   1.463  23.603 -0.1283  0.1791  0.1296
36031DPPC   C1B43035  19.565   1.911  24.649 -0.2420 -0.0015 -0.0997
36031DPPC   C2B43036  19.283   1.936  24.334 -0.1727 -0.0595 -0.0505
36031DPPC   C3B43037  19.061   1.907  23.915 -0.3212 -0.0682  0.1915
36031DPPC   C4B43038  18.672   1.939  23.595  0.0004  0.0290  0.2810
36032DPPC   NC343039   0.886   4.967  23.430 -0.3407 -0.0386 -0.0453
36032DPPC   PO443040   0.478   4.940  23.535  0.0223 -0.1390 -0.0754
36032DPPC   GL143041   0.190   5.056  23.239  0.2443 -0.1863  0.1959
36032DPPC   GL243042   0.400   5.238  23.110 -0.0866 -0.3160 -0.3379
36032DPPC   C1A43043  -0.171   5.030  23.174 -0.0465  0.1249 -0.1408
36032DPPC   C2A43044  -0.350   5.023  22.863 -0.3584 -0.0087  0.4205
36032DPPC   C3A43045  -0.593   4.987  22.424  0.1015  0.3077 -0.1581
36032DPPC   C4A43046  -0.966   5.034  22.084  0.0043  0.1952  0.0630
36032DPPC   C1B43047   0.384   5.319  22.794 -0.1849 -0.1933 -0.0079
36032DPPC   C2B43048   0.289   5.257  22.357  0.0946  0.0165  0.2220
36032DPPC   C3B43049   0.070   5.263  21.950  0.0094 -0.1131 -0.0758
36032DPPC   C4B43050  -0.297   5.216  21.633 -0.2566  0.1525  0.1123
36033DPPC   NC343051   3.017   2.791  20.865 -0.0226  0.0063 -0.2255
36033DPPC   PO443052   2.709   2.720  20.589 -0.0833 -0.0321 -0.0690
36033DPPC   GL143053   2.358   2.599  20.574  0.3027  0.0008  0.2243
36033DPPC   GL243054   2.207   2.789  20.565 -0.0801 -0.3957  0.0927
36033DPPC   C1A43055   2.180   2.311  20.377  0.1526 -0.1654  0.1334
36033DPPC   C2A43056   1.953   2.450  20.077  0.0250 -0.1449  0.1663
36033DPPC   C3A43057   1.624   2.398  19.683  0.0513 -0.2144  0.0678
36033DPPC   C4A43058   1.319   2.432  19.267 -0.0373  0.1226  0.0952
36033DPPC   C1B43059   1.980   2.850  20.344 -0.0463  0.4931  0.2207
36033DPPC   C2B43060   1.710   2.911  20.099 -0.2758 -0.1864  0.0479
36033DPPC   C3B43061   1.425   2.901  19.683  0.1629 -0.0596 -0.0307
36033DPPC   C4B43062   1.161   2.944  19.289  0.0719 -0.0709 -0.1075
36034DPPC   NC343063   1.363   2.864  22.870  0.2693 -0.0089  0.3654
36034DPPC   PO443064   1.126   2.652  23.139  0.1665 -0.0449 -0.0539
36034DPPC   GL143065   1.002   2.634  22.755 -0.1500 -0.3561 -0.2317
36034DPPC   GL243066   0.769   2.516  22.833  0.0544 -0.1427 -0.0594
36034DPPC   C1A43067   0.913   2.556  22.428  0.1283  0.1671  0.1637
36034DPPC   C2A43068   0.653   2.504  22.128 -0.0378  0.1603 -0.0328
36034DPPC   C3A43069   0.469   2.500  21.758  0.0086  0.0180 -0.0054
36034DPPC   C4A43070   0.136   2.426  21.382 -0.1905  0.0788  0.1728
36034DPPC   C1B43071   0.510   2.605  22.565  0.3302  0.2809 -0.1687
36034DPPC   C2B43072   0.218   2.655  22.250 -0.0513 -0.0479 -0.0863
36034DPPC   C3B43073  -0.123   2.614  21.863  0.0011  0.0078 -0.2079
36034DPPC   C4B43074  -0.398   2.555  21.468  0.0734 -0.0501  0.0367
36035DPPC   NC343075   1.076   2.356  23.958 -0.3296  0.3815  0.2513
36035DPPC   PO443076   0.813   2.115  23.719  0.0460 -0.2062 -0.3109
36035DPPC   GL143077   0.690   2.258  23.296  0.1328  0.5899  0.0819
36035DPPC   GL243078   0.601   1.960  23.330  0.0558  0.1755 -0.2711
36035DPPC   C1A43079   0.412   2.363  23.033 -0.3328 -0.1388  0.0559
36035DPPC   C2A43080   0.159   2.280  22.700 -0.0814 -0.0234 -0.1473
36035DPPC   C3A43081  -0.149   2.313  22.311  0.1633 -0.0059 -0.3165
36035DPPC   C4A43082  -0.474   2.232  21.937  0.1583  0.0708 -0.1480
36035DPPC   C1B43083   0.462   1.875  22.986 -0.3246 -0.5515  0.0762
36035DPPC   C2B43084   0.293   1.771  22.641 -0.2582 -0.6297  0.1150
36035DPPC   C3B43085   0.020   1.733  22.212 -0.0649 -0.0858  0.0103
36035DPPC   C4B43086  -0.334   1.734  21.873  0.3366  0.0570 -0.2109
36036DPPC   NC343087   2.395   2.731  21.808 -0.0261 -0.2475  0.0188
36036DPPC   PO443088   2.130   2.400  21.854 -0.1764  0.3204  0.1494
36036DPPC   GL143089   1.791   2.312  21.627 -0.0368 -0.0153  0.3881
36036DPPC   GL243090   1.892   2.090  21.572 -0.3466 -0.3331  0.0612
36036DPPC   C1A43091   1.437   2.399  21.460 -0.0367  0.2692 -0.1509
36036DPPC   C2A43092   1.158   2.314  21.110  0.1831 -0.0371  0.2541
36036DPPC   C3A43093   0.819   2.265  20.758  0.0550 -0.2421  0.0027
36036DPPC   C4A43094   0.556   2.222  20.337  0.1424  0.0786  0.0195
36036DPPC   C1B43095   1.690   2.070  21.275 -0.0842  0.3311  0.2091
36036DPPC   C2B43096   1.527   2.086  20.886 -0.2740 -0.1386  0.3933
36036DPPC   C3B43097   1.241   2.203  20.478 -0.3243 -0.0875 -0.0699
36036DPPC   C4B43098   0.976   2.147  20.082 -0.1536  0.1597  0.0847
36037DPPC   NC343099  21.093   3.979  24.364 -0.0055 -0.1707 -0.3547
36037DPPC   PO443100  21.116   3.625  24.545 -0.0772 -0.0718  0.1047
36037DPPC   GL143101  21.046   3.339  24.223  0.8193 -0.3862 -0.0966
36037DPPC   GL243102  21.102   3.573  24.040 -0.0674 -0.2288 -0.1178
36037DPPC   C1A43103  20.779   3.170  23.982 -0.1329  0.1522 -0.1402
36037DPPC   C2A43104  20.589   3.048  23.633 -0.1279 -0.1406 -0.1011
36037DPPC   C3A43105  20.304   2.934  23.265 -0.0308  0.0294  0.0236
36037DPPC   C4A43106  20.035   2.956  22.807  0.1384  0.0385 -0.1485
36037DPPC   C1B43107  20.748   3.578  23.896  0.1683  0.0574  0.3150
36037DPPC   C2B43108  20.492   3.547  23.601 -0.0247  0.1540 -0.0603
36037DPPC   C3B43109  20.130   3.452  23.283 -0.1611  0.0564  0.1894
36037DPPC   C4B43110  19.849   3.445  22.875  0.0708 -0.4798 -0.1308
36038DPPC   NC343111   0.065   3.149  24.682 -0.1915 -0.3471  0.1342
36038DPPC   PO443112  -0.191   3.044  24.973 -0.1895 -0.6261  0.0966
36038DPPC   GL143113  -0.513   3.116  24.789 -0.2270 -0.1794  0.2300
36038DPPC   GL243114  -0.439   3.356  24.562 -0.0966  0.1626 -0.0683
36038DPPC   C1A43115  -0.825   3.033  24.679 -0.0171  0.3364 -0.3131
36038DPPC   C2A43116  -1.100   3.187  24.432 -0.3127  0.2421 -0.1386
36038DPPC   C3A43117  -1.426   3.154  24.070  0.0507 -0.1059  0.0988
36038DPPC   C4A43118  -1.751   3.161  23.648 -0.1079  0.1492  0.2604
36038DPPC   C1B43119  -0.729   3.494  24.303 -0.1282  0.2023 -0.0140
36038DPPC   C2B43120  -1.020   3.543  24.008 -0.1498 -0.0770  0.1051
36038DPPC   C3B43121  -1.352   3.517  23.679 -0.2427 -0.2035  0.1063
36038DPPC   C4B43122  -1.604   3.628  23.269 -0.0336  0.3038  0.1984
36039DPPC   NC343123   1.529   4.739  23.357  0.1303 -0.0756 -0.2249
36039DPPC   PO443124   1.205   4.770  23.107 -0.1559 -0.0825 -0.0942
36039DPPC   GL143125   0.960   4.807  22.766  0.2880 -0.3780  0.1289
36039DPPC   GL243126   0.878   4.521  22.736  0.3100  0.0538  0.1221
36039DPPC   C1A43127   0.585   4.929  22.706 -0.1554 -0.3348 -0.0132
36039DPPC   C2A43128   0.190   4.810  22.704 -0.2026 -0.1558  0.1906
36039DPPC   C3A43129  -0.114   4.840  22.318  0.4150 -0.0019 -0.1786
36039DPPC   C4A43130  -0.460   4.917  21.978 -0.0604 -0.1749 -0.1203
36039DPPC   C1B43131   0.538   4.479  22.607 -0.2820 -0.3635 -0.0477
36039DPPC   C2B43132   0.206   4.341  22.477 -0.0070  0.0244  0.0938
36039DPPC   C3B43133  -0.089   4.416  22.133  0.0532  0.1240  0.3632
36039DPPC   C4B43134  -0.384   4.381  21.812  0.0789 -0.0224  0.1791
36040DPPC   NC343135   1.368   0.626  22.664 -0.3641  0.2758  0.1641
36040DPPC   PO443136   1.392   0.326  22.396  0.1816 -0.0806 -0.0069
36040DPPC   GL143137   1.052   0.120  22.292  0.1808 -0.1097 -0.0540
36040DPPC   GL243138   0.980   0.416  22.301 -0.2197  0.1937 -0.0772
36040DPPC   C1A43139   0.817   0.024  22.001  0.2144  0.1329  0.1803
36040DPPC   C2A43140   0.501  -0.138  21.769  0.1063 -0.0157 -0.0967
36040DPPC   C3A43141   0.229  -0.145  21.381 -0.0219 -0.0526 -0.0049
36040DPPC   C4A43142  -0.111  -0.112  21.114 -0.3294 -0.2788  0.2900
36040DPPC   C1B43143   0.665   0.417  22.144  0.0278  0.2009 -0.2552
36040DPPC   C2B43144   0.387   0.348  21.845  0.1757  0.0323  0.1585
36040DPPC   C3B43145   0.102   0.332  21.474 -0.1407 -0.1229  0.0540
36040DPPC   C4B43146  -0.254   0.328  21.097 -0.0979  0.0706  0.2984
36041DPPC   NC343147  20.535   4.965  25.620  0.2053 -0.3762 -0.2248
36041DPPC   PO443148  20.607   4.728  25.308 -0.2665 -0.3722 -0.3604
36041DPPC   GL143149  20.339   4.612  24.878 -0.1188  0.0227 -0.0092
36041DPPC   GL243150  20.164   4.656  25.077 -0.0969 -0.1038  0.2379
36041DPPC   C1A43151  20.087   4.858  24.655  0.1992 -0.2642 -0.1369
36041DPPC   C2A43152  19.792   4.889  24.360 -0.1218 -0.2198 -0.0111
36041DPPC   C3A43153  19.418   4.923  24.028 -0.1404 -0.0930  0.3341
36041DPPC   C4A43154  19.091   4.936  23.623 -0.0183  0.1689  0.0680
36041DPPC   C1B43155  19.843   4.576  24.968 -0.0601  0.0192 -0.1912
36041DPPC   C2B43156  19.608   4.520  24.656  0.1774  0.0428  0.0104
36041DPPC   C3B43157  19.284   4.471  24.298  0.0530 -0.0531 -0.0342
36041DPPC   C4B43158  18.985   4.622  23.975 -0.1329  0.2293  0.1470
36042DPPC   NC343159   0.193   0.107  23.710  0.0045  0.2577  0.2387
36042DPPC   PO443160   0.153  -0.264  23.613  0.0062 -0.1116  0.3103
36042DPPC   GL143161  -0.169  -0.310  23.368 -0.1538 -0.0618  0.0110
36042DPPC   GL243162  -0.129   0.033  23.385  0.2870  0.0168  0.2118
36042DPPC   C1A43163  -0.382  -0.385  23.139 -0.2138 -0.0400  0.0264
36042DPPC   C2A43164  -0.535  -0.357  22.728  0.1482 -0.0411  0.0143
36042DPPC   C3A43165  -0.840  -0.286  22.333 -0.1003 -0.4059  0.0799
36042DPPC   C4A43166  -1.157  -0.314  21.936 -0.1209  0.0092 -0.1891
36042DPPC   C1B43167  -0.411   0.099  23.137 -0.1514 -0.0395  0.0113
36042DPPC   C2B43168  -0.573   0.131  22.765  0.0749 -0.1667 -0.2240
36042DPPC   C3B43169  -0.927   0.250  22.366  0.0961 -0.1831 -0.1122
36042DPPC   C4B43170  -1.203   0.318  22.003  0.2751 -0.1616  0.0993
36043DPPC   NC343171   2.713   1.449  21.250 -0.0708  0.2502 -0.1509
36043DPPC   PO443172   2.800   1.544  20.892  0.0002 -0.1028  0.0925
36043DPPC   GL143173   2.448   1.627  20.711 -0.0149 -0.0823  0.2038
36043DPPC   GL243174   2.374   1.915  20.857 -0.0109 -0.3743  0.5781
36043DPPC   C1A43175   2.244   1.557  20.424 -0.0351  0.1535 -0.1462
36043DPPC   C2A43176   1.941   1.605  20.173 -0.2385 -0.2071  0.1743
36043DPPC   C3A43177   1.587   1.607  19.848 -0.0250  0.3743  0.3928
36043DPPC   C4A43178   1.239   1.506  19.484 -0.1984 -0.2483 -0.2017
36043DPPC   C1B43179   2.049   1.978  20.686  0.1104 -0.2907 -0.2613
36043DPPC   C2B43180   1.789   2.054  20.359 -0.1266 -0.0476  0.5668
36043DPPC   C3B43181   1.459   2.030  20.010  0.0810  0.0053 -0.2797
36043DPPC   C4B43182   1.169   1.992  19.613 -0.1379  0.0078  0.1827
36044DPPC   NC343183  20.487   5.760  25.210 -0.2286 -0.0482 -0.2745
36044DPPC   PO443184  20.599   5.392  25.308  0.0073  0.0260 -0.3837
36044DPPC   GL143185  20.225   5.362  25.029 -0.1850 -0.0135  0.3916
36044DPPC   GL243186  20.226   5.598  24.922  0.2382  0.4428  0.6013
36044DPPC   C1A43187  19.969   5.197  24.855  0.0837 -0.0073  0.3436
36044DPPC   C2A43188  19.690   5.343  24.560 -0.0451  0.0806  0.2678
36044DPPC   C3A43189  19.334   5.383  24.185  0.2507 -0.2456  0.4040
36044DPPC   C4A43190  18.999   5.410  23.803  0.5895  0.1121  0.2240
36044DPPC   C1B43191  20.035   5.725  24.586  0.3648  0.2913  0.0683
36044DPPC   C2B43192  19.811   5.712  24.243  0.0048 -0.2081  0.1145
36044DPPC   C3B43193  19.556   5.749  23.817  0.0639  0.0653 -0.0552
36044DPPC   C4B43194  19.241   5.773  23.473  0.0706 -0.0509 -0.2921
36045DPPC   NC343195   1.323   2.274  22.862 -0.0835 -0.1993 -0.1189
36045DPPC   PO443196   1.493   2.078  22.565 -0.1926 -0.1488  0.2186
36045DPPC   GL143197   1.166   1.837  22.441 -0.0361  0.1309  0.3855
36045DPPC   GL243198   1.012   2.107  22.427  0.1562 -0.3005  0.0186
36045DPPC   C1A43199   1.087   1.580  22.150  0.1460 -0.0621  0.2474
36045DPPC   C2A43200   0.834   1.628  21.827 -0.1270  0.2350  0.1688
36045DPPC   C3A43201   0.578   1.516  21.389  0.1098  0.2322  0.0157
36045DPPC   C4A43202   0.219   1.541  21.043 -0.2636 -0.0158  0.1472
36045DPPC   C1B43203   0.780   2.069  22.184  0.2340 -0.0217 -0.1742
36045DPPC   C2B43204   0.586   2.050  21.844 -0.1274  0.0116 -0.0452
36045DPPC   C3B43205   0.339   2.003  21.460 -0.0309  0.0561  0.2520
36045DPPC   C4B43206   0.022   1.972  21.078 -0.3089 -0.0036 -0.0492
36046DPPC   NC343207   0.653   3.932  23.447 -0.0774 -0.0688  0.1450
36046DPPC   PO443208   0.612   3.696  23.717 -0.3526 -0.3584  0.2281
36046DPPC   GL143209   0.548   3.456  23.425  0.0515  0.0205  0.3257
36046DPPC   GL243210   0.722   3.356  23.242 -0.0075 -0.0363  0.0184
36046DPPC   C1A43211   0.178   3.539  23.265  0.0969  0.0280 -0.1247
36046DPPC   C2A43212  -0.159   3.745  23.129 -0.1525  0.0245 -0.0927
36046DPPC   C3A43213  -0.470   3.697  22.749 -0.2511  0.2362 -0.0686
36046DPPC   C4A43214  -0.829   3.710  22.374 -0.0410 -0.0633 -0.2140
36046DPPC   C1B43215   0.481   3.301  22.939 -0.2010  0.4438  0.2192
36046DPPC   C2B43216   0.277   3.143  22.613 -0.0423  0.1364  0.1408
36046DPPC   C3B43217  -0.003   3.091  22.264 -0.2467  0.0072  0.0326
36046DPPC   C4B43218  -0.301   3.090  21.984 -0.0928  0.1705  0.0800
36047DPPC   NC343219   0.104   1.284  24.382 -0.1480 -0.1309 -0.3255
36047DPPC   PO443220   0.294   1.401  24.063  0.0674 -0.1782  0.1510
36047DPPC   GL143221  -0.124   1.377  23.994  0.0531 -0.0991  0.4657
36047DPPC   GL243222  -0.254   1.526  24.142 -0.3103  0.0101 -0.1327
36047DPPC   C1A43223  -0.345   1.224  23.747 -0.2129  0.0844  0.0006
36047DPPC   C2A43224  -0.626   1.115  23.438 -0.0048 -0.1958  0.3601
36047DPPC   C3A43225  -0.841   1.134  23.060  0.3245  0.5154  0.2586
36047DPPC   C4A43226  -1.155   1.137  22.656 -0.2487 -0.0715  0.1246
36047DPPC   C1B43227  -0.419   1.641  23.897  0.1988  0.0545  0.2098
36047DPPC   C2B43228  -0.648   1.668  23.565  0.2819  0.0806  0.3764
36047DPPC   C3B43229  -0.889   1.608  23.153  0.0434 -0.1187 -0.1775
36047DPPC   C4B43230  -1.164   1.629  22.737  0.3032  0.1011  0.3471
36048DPPC   NC343231   2.340   3.215  21.742  0.0493  0.0795 -0.3409
36048DPPC   PO443232   1.985   3.061  21.795 -0.1032  0.1056 -0.0582
36048DPPC   GL143233   1.792   2.774  21.641  0.0539 -0.3029  0.5844
36048DPPC   GL243234   1.687   2.617  21.900 -0.2227 -0.0465  0.1700
36048DPPC   C1A43235   1.437   2.867  21.509  0.0448 -0.3948  0.0873
36048DPPC   C2A43236   1.085   2.835  21.361 -0.3014  0.1243 -0.1512
36048DPPC   C3A43237   0.820   2.749  20.967 -0.0322  0.0299 -0.2184
36048DPPC   C4A43238   0.570   2.700  20.570  0.0837  0.4264 -0.1154
36048DPPC   C1B43239   1.308   2.596  21.945  0.1682  0.1933 -0.0189
36048DPPC   C2B43240   0.991   2.428  21.712  0.0910  0.0158  0.0278
36048DPPC   C3B43241   0.628   2.372  21.352 -0.4295 -0.1083 -0.1104
36048DPPC   C4B43242   0.340   2.326  20.960  0.0944 -0.1143  0.0438
36049DPPC   NC343243   2.889   5.795  20.561 -0.2285  0.1687 -0.1462
36049DPPC   PO443244   2.937   5.933  20.198  0.1712 -0.2755  0.1516
36049DPPC   GL143245   2.637   5.823  19.876  0.1955  0.1106  0.3080
36049DPPC   GL243246   2.861   5.746  19.708 -0.0736 -0.1995 -0.4742
36049DPPC   C1A43247   2.414   5.905  19.597  0.0455  0.1305  0.1582
36049DPPC   C2A43248   2.152   5.878  19.248  0.1924 -0.1845 -0.1984
36049DPPC   C3A43249   1.920   5.880  18.833  0.2140  0.3624 -0.0287
36049DPPC   C4A43250   1.608   5.885  18.440 -0.3707 -0.1507  0.2184
36049DPPC   C1B43251   2.747   5.752  19.376 -0.3875 -0.1031  0.0222
36049DPPC   C2B43252   2.562   5.756  19.013 -0.0688  0.2773 -0.3666
36049DPPC   C3B43253   2.320   5.726  18.606  0.0349 -0.0071  0.0407
36049DPPC   C4B43254   2.047   5.807  18.242  0.0683 -0.0719 -0.1009
36050DPPC   NC343255   3.133   1.495  20.078 -0.1129  0.0110  0.0171
36050DPPC   PO443256   3.153   1.625  19.707 -0.1337 -0.0349 -0.0407
36050DPPC   GL143257   2.778   1.488  19.731 -0.1796  0.2131  0.2180
36050DPPC   GL243258   2.862   1.251  19.660 -0.0276 -0.0379  0.0617
36050DPPC   C1A43259   2.422   1.480  19.727  0.0351 -0.0729  0.1277
36050DPPC   C2A43260   2.004   1.482  19.597 -0.0992  0.0770  0.0982
36050DPPC   C3A43261   1.683   1.469  19.187 -0.0329  0.1484 -0.1215
36050DPPC   C4A43262   1.452   1.477  18.729 -0.3013 -0.0385 -0.0497
36050DPPC   C1B43263   2.662   1.267  19.381  0.1226  0.3575  0.0480
36050DPPC   C2B43264   2.378   1.439  19.158 -0.0733 -0.4855 -0.1560
36050DPPC   C3B43265   2.071   1.396  18.796 -0.0698 -0.1175  0.1715
36050DPPC   C4B43266   1.821   1.330  18.379 -0.0716 -0.0261  0.0329
36051DPPC   NC343267   2.735   6.515  21.361 -0.0837  0.1132 -0.0351
36051DPPC   PO443268   2.353   6.549  21.411  0.0039 -0.1907  0.0840
36051DPPC   GL143269   2.041   6.534  21.078  0.0389 -0.0958 -0.4130
36051DPPC   GL243270   1.836   6.739  21.166 -0.0792 -0.0114 -0.3042
36051DPPC   C1A43271   1.933   6.427  20.732  0.1481 -0.2255  0.0436
36051DPPC   C2A43272   1.684   6.533  20.369  0.0716 -0.1699 -0.3223
36051DPPC   C3A43273   1.357   6.514  20.022  0.2552  0.2691  0.1634
36051DPPC   C4A43274   1.129   6.518  19.628 -0.3693 -0.0023 -0.0336
36051DPPC   C1B43275   1.507   6.601  21.016  0.0129  0.0604 -0.0619
36051DPPC   C2B43276   1.312   6.625  20.674  0.4266 -0.0807  0.1016
36051DPPC   C3B43277   0.997   6.601  20.299 -0.0708 -0.1231  0.1086
36051DPPC   C4B43278   0.675   6.666  19.944 -0.2921 -0.3701 -0.0955
36052DPPC   NC343279  20.948   0.401  24.890 -0.1402  0.1329  0.2966
36052DPPC   PO443280  20.729   0.470  24.569  0.1111  0.1831 -0.0075
36052DPPC   GL143281  20.506   0.225  24.318  0.0748 -0.2829 -0.0601
36052DPPC   GL243282  20.691   0.292  24.047 -0.2397  0.0051 -0.1395
36052DPPC   C1A43283  20.150   0.351  24.241 -0.0253  0.1326  0.1686
36052DPPC   C2A43284  19.791   0.510  24.116 -0.0158  0.0689  0.0632
36052DPPC   C3A43285  19.484   0.518  23.673 -0.3233 -0.0378 -0.0380
36052DPPC   C4A43286  19.117   0.463  23.371  0.0261  0.1316  0.0001
36052DPPC   C1B43287  20.342   0.394  23.873  0.1696 -0.0753  0.1182
36052DPPC   C2B43288  19.999   0.391  23.641 -0.0064  0.0797  0.0407
36052DPPC   C3B43289  19.696   0.420  23.238  0.2098  0.1018 -0.0989
36052DPPC   C4B43290  19.360   0.425  22.858 -0.2636 -0.2135 -0.1118
36053DPPC   NC343291   3.323   5.048  20.638 -0.0256 -0.2367  0.0382
36053DPPC   PO443292   3.146   5.360  20.415 -0.1517 -0.0163 -0.2464
36053DPPC   GL143293   2.794   5.331  20.139  0.0281 -0.0597  0.1427
36053DPPC   GL243294   2.628   5.531  20.256  0.1785  0.4524  0.2682
36053DPPC   C1A43295   2.664   5.378  19.768 -0.0692 -0.4810 -0.0890
36053DPPC   C2A43296   2.435   5.422  19.442  0.0293 -0.1433 -0.0298
36053DPPC   C3A43297   2.170   5.410  19.017 -0.1120  0.0088  0.3396
36053DPPC   C4A43298   1.796   5.445  18.651  0.0655 -0.1694 -0.1466
36053DPPC   C1B43299   2.340   5.511  20.048 -0.2370  0.0251  0.0552
36053DPPC   C2B43300   2.080   5.465  19.748 -0.3335  0.1664 -0.1349
36053DPPC   C3B43301   1.757   5.461  19.382  0.0224 -0.0885  0.1315
36053DPPC   C4B43302   1.433   5.453  19.039  0.0325 -0.2155 -0.0845
36054DPPC   NC343303   2.484   4.717  20.801  0.1394  0.2537 -0.0058
36054DPPC   PO443304   2.681   4.466  20.555 -0.1273  0.0500 -0.0480
36054DPPC   GL143305   2.537   4.311  20.223  0.0513  0.3495 -0.1242
36054DPPC   GL243306   2.331   4.159  20.261 -0.1861  0.0793  0.1778
36054DPPC   C1A43307   2.473   4.557  19.953 -0.0625 -0.1021 -0.0891
36054DPPC   C2A43308   2.349   4.604  19.532  0.0878 -0.2405  0.0537
36054DPPC   C3A43309   2.074   4.499  19.177  0.1721 -0.0701  0.0950
36054DPPC   C4A43310   1.752   4.571  18.833 -0.0323  0.1104 -0.0201
36054DPPC   C1B43311   2.161   4.149  19.894 -0.6771 -0.0979  0.0668
36054DPPC   C2B43312   1.935   4.201  19.556 -0.3772 -0.0535 -0.0849
36054DPPC   C3B43313   1.676   4.186  19.216 -0.3083  0.0246 -0.0902
36054DPPC   C4B43314   1.422   4.186  18.820  0.1235 -0.0089 -0.0782
36055DPPC   NC343315   0.238   3.325  23.725 -0.0997  0.2175 -0.2116
36055DPPC   PO443316   0.007   3.013  23.680  0.0703  0.3645  0.2792
36055DPPC   GL143317  -0.132   2.592  23.837  0.1606 -0.0455  0.1381
36055DPPC   GL243318  -0.089   2.398  23.569 -0.4652 -0.3303  0.0301
36055DPPC   C1A43319  -0.515   2.640  23.807 -0.0786 -0.0198 -0.2337
36055DPPC   C2A43320  -0.896   2.570  23.654  0.1781 -0.0258 -0.2266
36055DPPC   C3A43321  -1.188   2.531  23.293 -0.1861  0.0859 -0.1534
36055DPPC   C4A43322  -1.513   2.499  22.894  0.0834  0.1041  0.1062
36055DPPC   C1B43323  -0.397   2.362  23.342 -0.1792  0.1976 -0.3459
36055DPPC   C2B43324  -0.701   2.443  23.173  0.0046  0.1960  0.0278
36055DPPC   C3B43325  -1.020   2.476  22.809 -0.0212 -0.1831 -0.0149
36055DPPC   C4B43326  -1.278   2.441  22.439  0.0505 -0.4383 -0.1296
36056DPPC   NC343327   1.381   3.713  22.489 -0.0486  0.2306 -0.1660
36056DPPC   PO443328   1.375   4.069  22.348  0.1054  0.3258 -0.1614
36056DPPC   GL143329   1.092   4.202  22.065 -0.1973  0.1132  0.1787
36056DPPC   GL243330   0.966   4.400  22.274 -0.2934  0.1060  0.2138
36056DPPC   C1A43331   0.852   4.205  21.818  0.1669  0.2855  0.4317
36056DPPC   C2A43332   0.592   4.193  21.476 -0.2870 -0.1640  0.2179
36056DPPC   C3A43333   0.269   4.183  21.085  0.2070  0.1166  0.0264
36056DPPC   C4A43334   0.010   4.260  20.718  0.0132 -0.0773  0.1721
36056DPPC   C1B43335   0.628   4.346  22.167 -0.2023 -0.4597  0.6521
36056DPPC   C2B43336   0.327   4.293  21.898  0.0451 -0.1065 -0.2236
36056DPPC   C3B43337   0.012   4.290  21.492  0.1133  0.1211 -0.0273
36056DPPC   C4B43338  -0.314   4.290  21.084 -0.1151  0.0755 -0.0068
36057DPPC   NC343339   1.445   0.692  22.038  0.1293  0.2908 -0.1563
36057DPPC   PO443340   1.604   0.350  21.918 -0.2837 -0.2151  0.0074
36057DPPC   GL143341   1.287   0.024  21.975  0.2182  0.0838  0.2849
36057DPPC   GL243342   1.160   0.341  21.875  0.1261 -0.2008  0.3166
36057DPPC   C1A43343   1.088  -0.116  21.705 -0.0306  0.0328 -0.3612
36057DPPC   C2A43344   0.834  -0.234  21.403  0.0505  0.2338 -0.0659
36057DPPC   C3A43345   0.539  -0.240  21.044  0.1868 -0.1633  0.1285
36057DPPC   C4A43346   0.227  -0.237  20.702  0.3672 -0.0029  0.0092
36057DPPC   C1B43347   0.874   0.285  21.664 -0.0093  0.0255 -0.1821
36057DPPC   C2B43348   0.625   0.210  21.384 -0.5768 -0.2635  0.0789
36057DPPC   C3B43349   0.318   0.211  21.053 -0.3604 -0.0494 -0.0918
36057DPPC   C4B43350   0.014   0.242  20.653 -0.0252 -0.1519  0.1792
36058DPPC   NC343351   1.644   1.648  22.897 -0.1245 -0.1470  0.1085
36058DPPC   PO443352   1.279   1.770  22.990 -0.5252 -0.0526 -0.0359
36058DPPC   GL143353   0.916   1.831  22.976  0.0389 -0.0787 -0.0035
36058DPPC   GL243354   0.836   2.104  22.920 -0.2252  0.2260 -0.0367
36058DPPC   C1A43355   0.845   1.669  22.638  0.3059 -0.0619  0.0091
36058DPPC   C2A43356   0.654   1.672  22.260 -0.0704 -0.1826  0.5718
36058DPPC   C3A43357   0.345   1.628  21.900  0.1603  0.0965 -0.1847
36058DPPC   C4A43358   0.039   1.625  21.549  0.0402  0.0761  0.0784
36058DPPC   C1B43359   0.617   2.187  22.602  0.0867 -0.3620 -0.0468
36058DPPC   C2B43360   0.349   2.135  22.246 -0.1769  0.1682  0.2800
36058DPPC   C3B43361   0.070   2.133  21.880 -0.3139 -0.1837 -0.2425
36058DPPC   C4B43362  -0.259   2.050  21.465  0.0740  0.1090 -0.0162
36059DPPC   NC343363   1.932   5.143  22.110  0.2856 -0.0587 -0.0280
36059DPPC   PO443364   2.167   5.240  21.845 -0.3272  0.0247 -0.1993
36059DPPC   GL143365   1.864   5.119  21.599  0.1627  0.0952  0.0377
36059DPPC   GL243366   1.624   5.068  21.697  0.1576  0.3096 -0.3617
36059DPPC   C1A43367   1.830   5.004  21.261 -0.2604 -0.0761 -0.2126
36059DPPC   C2A43368   1.658   4.839  20.917 -0.0433  0.0046 -0.1784
36059DPPC   C3A43369   1.291   4.853  20.585  0.1115 -0.3642 -0.0734
36059DPPC   C4A43370   1.035   4.817  20.222  0.0940  0.1349  0.0428
36059DPPC   C1B43371   1.355   4.986  21.409 -0.0825  0.2636 -0.1832
36059DPPC   C2B43372   1.112   4.929  21.072 -0.0689  0.1192 -0.1745
36059DPPC   C3B43373   0.819   4.914  20.702 -0.1325 -0.2057 -0.2644
36059DPPC   C4B43374   0.518   4.928  20.334 -0.4283  0.0161  0.1075
36060DPPC   NC343375   2.318   0.991  21.888  0.2265 -0.1090 -0.0695
36060DPPC   PO443376   1.982   0.761  21.931  0.2531 -0.0248 -0.1151
36060DPPC   GL143377   1.655   0.665  21.578 -0.2575  0.0086  0.2054
36060DPPC   GL243378   1.608   0.917  21.563 -0.1051  0.1592  0.1294
36060DPPC   C1A43379   1.523   0.514  21.272 -0.0704 -0.0558  0.0572
36060DPPC   C2A43380   1.311   0.438  20.937 -0.0437  0.0472 -0.0646
36060DPPC   C3A43381   0.993   0.396  20.636  0.0412  0.2008 -0.0764
36060DPPC   C4A43382   0.665   0.426  20.259  0.0418 -0.1697 -0.0002
36060DPPC   C1B43383   1.327   0.909  21.286 -0.0368  0.6728  0.1147
36060DPPC   C2B43384   1.098   0.943  20.987 -0.0287 -0.2748  0.1908
36060DPPC   C3B43385   0.801   0.936  20.663  0.1477 -0.1491  0.0217
36060DPPC   C4B43386   0.491   0.924  20.256 -0.0991  0.1911 -0.0594
36061DPPC   NC343387   0.310   5.105  23.930  0.0926 -0.0186 -0.1742
36061DPPC   PO443388   0.212   4.732  23.894 -0.1254 -0.3263 -0.1710
36061DPPC   GL143389  -0.093   4.864  23.830  0.0270 -0.1470  0.1572
36061DPPC   GL243390  -0.126   5.129  23.696 -0.0543  0.2788 -0.1029
36061DPPC   C1A43391  -0.289   4.662  23.597 -0.3093  0.0116 -0.1762
36061DPPC   C2A43392  -0.523   4.676  23.225 -0.3211 -0.0632  0.3882
36061DPPC   C3A43393  -0.783   4.635  22.790  0.3225 -0.0038 -0.2579
36061DPPC   C4A43394  -1.017   4.605  22.397 -0.2803  0.0307  0.0959
36061DPPC   C1B43395  -0.455   5.081  23.500  0.0000  0.3291 -0.0377
36061DPPC   C2B43396  -0.767   5.123  23.201 -0.0265 -0.2149 -0.2004
36061DPPC   C3B43397  -0.974   5.088  22.784 -0.0341 -0.0069  0.0527
36061DPPC   C4B43398  -1.323   5.105  22.456  0.1374  0.6073 -0.0529
36062DPPC   NC343399  20.759   5.570  25.721 -0.0052 -0.2078 -0.2256
36062DPPC   PO443400  20.384   5.549  25.753  0.0608 -0.0342 -0.1516
36062DPPC   GL143401  20.091   5.413  25.436  0.1104  0.0304 -0.1107
36062DPPC   GL243402  20.115   5.116  25.487 -0.1722 -0.1520  0.1280
36062DPPC   C1A43403  19.738   5.432  25.333  0.2721  0.0692 -0.1460
36062DPPC   C2A43404  19.409   5.571  25.109  0.0875  0.0415  0.2254
36062DPPC   C3A43405  19.207   5.488  24.672 -0.0583 -0.3154  0.1016
36062DPPC   C4A43406  18.827   5.536  24.315 -0.4159 -0.4231  0.0505
36062DPPC   C1B43407  19.883   4.947  25.246  0.1163  0.1609  0.1240
36062DPPC   C2B43408  19.590   4.982  24.945  0.0376 -0.1079  0.1857
36062DPPC   C3B43409  19.275   4.936  24.575 -0.4638  0.0918  0.1198
36062DPPC   C4B43410  18.934   5.048  24.228 -0.1178  0.1125 -0.1051
36063DPPC   NC343411  21.105   1.693  24.501 -0.1295 -0.1027 -0.0517
36063DPPC   PO443412  21.210   1.957  24.218  0.1518 -0.2664 -0.1561
36063DPPC   GL143413  21.029   2.091  23.881  0.0842  0.2402  0.0132
36063DPPC   GL243414  20.848   2.160  24.010  0.0032 -0.0439  0.1122
36063DPPC   C1A43415  20.902   1.941  23.548  0.4189 -0.4049  0.1012
36063DPPC   C2A43416  20.687   1.937  23.194 -0.1296 -0.0177 -0.2070
36063DPPC   C3A43417  20.456   1.942  22.780 -0.2335  0.2072 -0.3160
36063DPPC   C4A43418  20.166   2.020  22.415 -0.1796  0.0645  0.0870
36063DPPC   C1B43419  20.562   2.165  23.751 -0.0299  0.1038 -0.3117
36063DPPC   C2B43420  20.277   2.083  23.455 -0.1183  0.3699  0.2403
36063DPPC   C3B43421  19.992   2.044  23.039  0.1501 -0.2013  0.0387
36063DPPC   C4B43422  19.747   2.039  22.669  0.1378 -0.1625  0.0451
36064DPPC   NC343423   0.606   1.525  23.185 -0.0132 -0.1643  0.3055
36064DPPC   PO443424   0.466   1.467  23.533  0.1758  0.1057  0.0631
36064DPPC   GL143425   0.142   1.386  23.614  0.2056 -0.1350  0.1684
36064DPPC   GL243426  -0.021   1.649  23.714 -0.1386  0.0317  0.1353
36064DPPC   C1A43427   0.060   1.152  23.323 -0.0862 -0.1368 -0.0196
36064DPPC   C2A43428  -0.136   0.946  22.969 -0.0033 -0.0654  0.0503
36064DPPC   C3A43429  -0.467   0.993  22.689 -0.0967 -0.0846  0.0796
36064DPPC   C4A43430  -0.759   1.014  22.265 -0.2024 -0.1383 -0.0682
36064DPPC   C1B43431  -0.239   1.536  23.410  0.0774 -0.0945  0.1153
36064DPPC   C2B43432  -0.406   1.398  23.041  0.1972  0.3302 -0.3392
36064DPPC   C3B43433  -0.668   1.416  22.647  0.0354  0.1636  0.0623
36064DPPC   C4B43434  -0.963   1.491  22.332  0.3841  0.1459  0.0410
36065DPPC   NC343435   2.424   3.947  22.020 -0.1579  0.0220  0.1141
36065DPPC   PO443436   2.387   3.667  21.670 -0.1190 -0.1046  0.0006
36065DPPC   GL143437   1.989   3.496  21.550  0.1188  0.2638 -0.0042
36065DPPC   GL243438   1.829   3.654  21.748  0.0386  0.3340 -0.1851
36065DPPC   C1A43439   1.812   3.601  21.225  0.2073  0.0502 -0.1503
36065DPPC   C2A43440   1.687   3.512  20.845 -0.1019 -0.0726  0.1175
36065DPPC   C3A43441   1.329   3.484  20.531  0.0742  0.0798  0.0601
36065DPPC   C4A43442   1.015   3.512  20.194 -0.1651  0.1556 -0.0828
36065DPPC   C1B43443   1.477   3.744  21.639  0.2056 -0.0364  0.4415
36065DPPC   C2B43444   1.295   3.606  21.278 -0.1779  0.2208  0.2576
36065DPPC   C3B43445   0.914   3.633  20.931  0.0802 -0.3372 -0.1491
36065DPPC   C4B43446   0.609   3.585  20.586 -0.2979  0.0820 -0.0625
36066DPPC   NC343447   1.543   3.037  22.038  0.1937  0.1546  0.2523
36066DPPC   PO443448   1.620   3.431  22.114 -0.0011  0.1737  0.2864
36066DPPC   GL143449   1.224   3.381  21.902  0.3181  0.0964  0.1946
36066DPPC   GL243450   1.165   3.669  22.049  0.1281  0.3451 -0.2399
36066DPPC   C1A43451   1.070   3.348  21.593 -0.3138  0.2064 -0.2250
36066DPPC   C2A43452   0.862   3.264  21.284  0.1040  0.2893 -0.0820
36066DPPC   C3A43453   0.599   3.169  20.956 -0.0401  0.0979  0.0447
36066DPPC   C4A43454   0.240   3.227  20.613  0.1823 -0.1609 -0.0321
36066DPPC   C1B43455   1.012   3.758  21.743  0.0883  0.0834  0.2088
36066DPPC   C2B43456   0.792   3.750  21.416  0.0554 -0.2899  0.1768
36066DPPC   C3B43457   0.432   3.654  21.115 -0.0701 -0.1395 -0.0392
36066DPPC   C4B43458   0.134   3.730  20.643  0.0888  0.1662  0.2031
36067DPPC   NC343459   1.845   3.862  22.289 -0.0555  0.1259  0.0744
36067DPPC   PO443460   1.906   4.082  21.939 -0.2513  0.0870  0.1007
36067DPPC   GL143461   1.740   4.176  21.591 -0.2276  0.1268  0.1771
36067DPPC   GL243462   1.709   4.440  21.629  0.0488  0.3115  0.0380
36067DPPC   C1A43463   1.608   3.969  21.311 -0.1019  0.1701 -0.1254
36067DPPC   C2A43464   1.413   3.976  20.924 -0.0425  0.0553  0.0597
36067DPPC   C3A43465   1.111   4.015  20.529  0.1160 -0.1101  0.0145
36067DPPC   C4A43466   0.801   3.957  20.151  0.0479  0.2341  0.0273
36067DPPC   C1B43467   1.419   4.543  21.414 -0.5856  0.3285 -0.0090
36067DPPC   C2B43468   1.017   4.564  21.411  0.3188 -0.0522  0.0931
36067DPPC   C3B43469   0.692   4.632  21.093 -0.0772  0.0106 -0.2237
36067DPPC   C4B43470   0.447   4.602  20.703  0.1631  0.3399 -0.0667
36068DPPC   NC343471   2.476   0.014  20.928 -0.2804 -0.1198  0.1009
36068DPPC   PO443472   2.711   0.193  20.628 -0.0948 -0.0737  0.0658
36068DPPC   GL143473   2.516   0.264  20.304 -0.2821 -0.0282  0.0950
36068DPPC   GL243474   2.713   0.177  20.068  0.1299 -0.2397  0.1763
36068DPPC   C1A43475   2.099   0.304  20.210  0.0384  0.3280  0.1658
36068DPPC   C2A43476   1.738   0.226  19.980 -0.1938  0.1783  0.0075
36068DPPC   C3A43477   1.473   0.307  19.630 -0.0179 -0.2700 -0.0783
36068DPPC   C4A43478   1.222   0.301  19.193  0.0092 -0.1927  0.1641
36068DPPC   C1B43479   2.443   0.225  19.875 -0.0099  0.4018  0.3906
36068DPPC   C2B43480   2.093   0.235  19.641  0.2091  0.0998 -0.0986
36068DPPC   C3B43481   1.922   0.240  19.251  0.1917 -0.2212 -0.2703
36068DPPC   C4B43482   1.589   0.215  18.851  0.0793  0.2985  0.0523
36069DPPC   NC343483   1.376   3.639  22.951  0.2778 -0.1473  0.2433
36069DPPC   PO443484   1.083   3.754  23.161  0.3259  0.0076  0.1327
36069DPPC   GL143485   0.781   3.798  22.838  0.0191  0.1783  0.0345
36069DPPC   GL243486   0.615   3.702  23.037  0.3408 -0.1932  0.0627
36069DPPC   C1A43487   0.667   3.537  22.571  0.0868  0.1355  0.0503
36069DPPC   C2A43488   0.462   3.474  22.276 -0.2164  0.3916 -0.1171
36069DPPC   C3A43489   0.154   3.517  21.913 -0.0808  0.0769 -0.0583
36069DPPC   C4A43490  -0.169   3.489  21.604  0.1370  0.2388  0.2282
36069DPPC   C1B43491   0.298   3.724  22.902  0.2896 -0.1001 -0.2697
36069DPPC   C2B43492   0.061   3.609  22.605  0.3025 -0.0680  0.0565
36069DPPC   C3B43493  -0.241   3.511  22.345 -0.0747 -0.0204  0.1965
36069DPPC   C4B43494  -0.516   3.586  21.934  0.3701  0.1726 -0.0590
36070DPPC   NC343495   2.646   6.377  20.267  0.0147  0.0276  0.1530
36070DPPC   PO443496   2.619   6.268  20.633 -0.2289 -0.0991 -0.1520
36070DPPC   GL143497   2.346   6.080  20.570  0.2109  0.3030  0.0757
36070DPPC   GL243498   2.464   5.946  20.315  0.3684  0.4486  0.0834
36070DPPC   C1A43499   2.016   6.082  20.419  0.0826 -0.0050  0.0936
36070DPPC   C2A43500   1.711   6.068  20.125  0.3160 -0.0154 -0.0383
36070DPPC   C3A43501   1.335   6.072  19.779  0.1842  0.0005  0.1193
36070DPPC   C4A43502   1.088   6.034  19.330 -0.2173  0.0555  0.2200
36070DPPC   C1B43503   2.215   5.987  20.065  0.1028  0.3074  0.0109
36070DPPC   C2B43504   2.008   6.030  19.731  0.1331 -0.1695 -0.2256
36070DPPC   C3B43505   1.652   5.962  19.391  0.2320 -0.1490  0.1176
36070DPPC   C4B43506   1.395   5.965  19.005 -0.0871 -0.4810  0.1572
36071DPPC   NC343507  20.804   3.587  24.985  0.0722  0.1213  0.2897
36071DPPC   PO443508  20.534   3.873  25.003 -0.1746 -0.0649  0.2364
36071DPPC   GL143509  20.266   4.187  24.790  0.2177  0.1968 -0.3843
36071DPPC   GL243510  20.276   4.022  24.557  0.0906 -0.1966 -0.0489
36071DPPC   C1A43511  19.878   4.197  24.744 -0.0652 -0.1056 -0.0701
36071DPPC   C2A43512  19.658   4.045  24.437 -0.1230  0.2403  0.0444
36071DPPC   C3A43513  19.269   4.039  24.111 -0.2097 -0.3445 -0.0110
36071DPPC   C4A43514  18.955   4.150  23.721  0.0211  0.0411 -0.2098
36071DPPC   C1B43515  20.072   3.991  24.295 -0.0093  0.2246  0.4761
36071DPPC   C2B43516  19.810   3.919  23.945 -0.0180 -0.0606  0.0297
36071DPPC   C3B43517  19.470   3.973  23.616 -0.2610  0.2225 -0.1054
36071DPPC   C4B43518  19.123   3.972  23.273 -0.1549  0.1095  0.1781
36072DPPC   NC343519   3.288   0.995  20.754  0.0607 -0.0171 -0.0048
36072DPPC   PO443520   2.976   1.137  20.571  0.0854  0.0211  0.0939
36072DPPC   GL143521   2.648   1.003  20.259 -0.1559 -0.0209  0.0597
36072DPPC   GL243522   2.497   1.045  20.478  0.1485 -0.0936 -0.0188
36072DPPC   C1A43523   2.521   1.098  19.938  0.0847  0.2093 -0.5297
36072DPPC   C2A43524   2.329   1.050  19.570 -0.2891  0.1740  0.0219
36072DPPC   C3A43525   2.033   1.018  19.185 -0.1021 -0.1236 -0.1992
36072DPPC   C4A43526   1.734   1.025  18.830  0.2066  0.0731 -0.0511
36072DPPC   C1B43527   2.196   1.111  20.289  0.0176 -0.0958  0.2654
36072DPPC   C2B43528   1.932   1.095  19.983  0.2490 -0.2735  0.2465
36072DPPC   C3B43529   1.610   1.125  19.637 -0.2195  0.0707 -0.2798
36072DPPC   C4B43530   1.333   1.128  19.143  0.0539  0.0871 -0.0588
36073DPPC   NC343531   0.100   5.561  23.856 -0.0150 -0.0891  0.0241
36073DPPC   PO443532   0.246   5.418  23.526 -0.2774  0.4061  0.1780
36073DPPC   GL143533  -0.016   5.512  23.238  0.1545  0.1617 -0.1311
36073DPPC   GL243534  -0.241   5.575  23.357  0.0312  0.2568 -0.0703
36073DPPC   C1A43535  -0.046   5.382  22.881 -0.1841  0.1168  0.0362
36073DPPC   C2A43536  -0.204   5.390  22.474 -0.0795  0.1627  0.1219
36073DPPC   C3A43537  -0.487   5.390  22.093  0.2375 -0.0339 -0.1651
36073DPPC   C4A43538  -0.921   5.453  21.778 -0.1156 -0.2514  0.0368
36073DPPC   C1B43539  -0.428   5.468  23.092 -0.0737 -0.4177 -0.2453
36073DPPC   C2B43540  -0.613   5.445  22.777  0.1833  0.0540  0.0224
36073DPPC   C3B43541  -0.937   5.450  22.393 -0.2639  0.3481  0.2421
36073DPPC   C4B43542  -1.303   5.379  22.016  0.2089 -0.0810  0.0011
36074DPPC   NC343543  20.717   4.298  24.828 -0.0500  0.1540 -0.0624
36074DPPC   PO443544  20.692   4.265  24.429 -0.2043 -0.2222 -0.2056
36074DPPC   GL143545  20.428   4.289  24.085  0.1457  0.1895  0.1227
36074DPPC   GL243546  20.670   4.353  23.904  0.0185 -0.2947  0.2573
36074DPPC   C1A43547  20.197   4.422  23.855  0.3113 -0.3383 -0.0109
36074DPPC   C2A43548  19.880   4.395  23.609 -0.1601  0.1203  0.2642
36074DPPC   C3A43549  19.583   4.388  23.266 -0.0538 -0.0618  0.0631
36074DPPC   C4A43550  19.319   4.418  22.833  0.3875 -0.1601 -0.0950
36074DPPC   C1B43551  20.454   4.345  23.528 -0.3282 -0.5147  0.3120
36074DPPC   C2B43552  20.214   4.319  23.166 -0.1019 -0.4026 -0.1835
36074DPPC   C3B43553  19.978   4.251  22.779 -0.0258  0.0865  0.1267
36074DPPC   C4B43554  19.719   4.318  22.418 -0.3483 -0.0815  0.2890
36075DPPC   NC343555   2.060   6.153  21.525 -0.1723  0.4077  0.0178
36075DPPC   PO443556   2.171   5.831  21.781  0.1148  0.3620  0.4329
36075DPPC   GL143557   1.863   5.555  21.560 -0.4011 -0.2152 -0.1976
36075DPPC   GL243558   1.717   5.847  21.530 -0.2930  0.2483  0.4597
36075DPPC   C1A43559   1.726   5.381  21.298  0.1785 -0.0873 -0.0931
36075DPPC   C2A43560   1.445   5.304  20.995  0.0212 -0.0202 -0.0694
36075DPPC   C3A43561   1.113   5.360  20.615  0.0237  0.1010 -0.1611
36075DPPC   C4A43562   0.807   5.289  20.205 -0.0297 -0.1128 -0.2084
36075DPPC   C1B43563   1.539   5.829  21.192  0.0639 -0.2019  0.0564
36075DPPC   C2B43564   1.196   5.810  20.915  0.0084  0.1629  0.0807
36075DPPC   C3B43565   0.905   5.824  20.531  0.1101 -0.2614 -0.1293
36075DPPC   C4B43566   0.547   5.752  20.198 -0.0403 -0.2140  0.0598
36076DPPC   NC343567   2.371   2.672  21.040 -0.1460  0.1994 -0.0892
36076DPPC   PO443568   2.369   2.945  21.347  0.0817  0.3987 -0.0901
36076DPPC   GL143569   1.998   2.963  21.099  0.2616 -0.1710  0.1731
36076DPPC   GL243570   1.829   3.093  21.283  0.0770  0.2513  0.2573
36076DPPC   C1A43571   1.843   2.974  20.763  0.0738 -0.1844 -0.4533
36076DPPC   C2A43572   1.520   2.963  20.544  0.1777 -0.0933 -0.2027
36076DPPC   C3A43573   1.256   3.037  20.188  0.1808  0.2478  0.3098
36076DPPC   C4A43574   0.972   3.029  19.800 -0.0765  0.0465  0.1756
36076DPPC   C1B43575   1.531   3.145  21.087 -0.0340  0.0765 -0.3293
36076DPPC   C2B43576   1.171   3.158  20.879 -0.1398 -0.2390  0.2424
36076DPPC   C3B43577   0.824   3.109  20.512 -0.1145 -0.2055 -0.2518
36076DPPC   C4B43578   0.551   3.115  20.126  0.0335 -0.1887  0.0309
36077DPPC   NC343579   1.805   2.252  22.179  0.1998 -0.0808  0.0359
36077DPPC   PO443580   1.716   1.907  22.008 -0.0156 -0.1630 -0.1547
36077DPPC   GL143581   1.397   1.789  21.845 -0.0289 -0.3145  0.2433
36077DPPC   GL243582   1.414   1.514  21.795 -0.2408 -0.0294 -0.0297
36077DPPC   C1A43583   1.108   1.948  21.740  0.0985 -0.1041 -0.0744
36077DPPC   C2A43584   0.847   1.930  21.390 -0.1821  0.0298 -0.1686
36077DPPC   C3A43585   0.595   1.892  20.991  0.1834  0.0181 -0.0008
36077DPPC   C4A43586   0.296   1.936  20.657  0.2508  0.1497  0.3140
36077DPPC   C1B43587   1.162   1.429  21.543 -0.1860  0.2446 -0.1886
36077DPPC   C2B43588   0.979   1.432  21.132  0.2762  0.1741 -0.4210
36077DPPC   C3B43589   0.678   1.417  20.752 -0.1065 -0.1266  0.2120
36077DPPC   C4B43590   0.388   1.519  20.417  0.1414 -0.0886 -0.1698
36078DPPC   NC343591  20.406   0.928  24.470 -0.1814 -0.2486 -0.2279
36078DPPC   PO443592  20.332   1.037  24.855 -0.0250 -0.0838  0.1133
36078DPPC   GL143593  19.928   0.921  24.836  0.1559  0.2870  0.1296
36078DPPC   GL243594  19.923   1.077  24.546 -0.2943 -0.0892 -0.1143
36078DPPC   C1A43595  19.766   0.640  24.639 -0.2997 -0.0573 -0.1396
36078DPPC   C2A43596  19.370   0.620  24.469  0.0471 -0.5551  0.0031
36078DPPC   C3A43597  19.095   0.599  24.069 -0.2444  0.1955  0.3043
36078DPPC   C4A43598  18.797   0.656  23.695 -0.0338 -0.0576  0.0590
36078DPPC   C1B43599  19.680   1.019  24.338  0.3603  0.1569  0.0185
36078DPPC   C2B43600  19.465   0.970  23.959 -0.0925  0.1738  0.2337
36078DPPC   C3B43601  19.154   0.970  23.615 -0.0047 -0.0940 -0.1163
36078DPPC   C4B43602  18.868   0.940  23.227  0.1514 -0.0620 -0.1402
36079DPPC   NC343603   2.526   3.792  21.147  0.1675  0.1790  0.1510
36079DPPC   PO443604   2.484   4.026  20.800  0.1675  0.0495 -0.1604
36079DPPC   GL143605   2.173   4.183  20.694 -0.0368 -0.3531 -0.2487
36079DPPC   GL243606   2.208   4.458  20.514  0.0449 -0.1413  0.0974
36079DPPC   C1A43607   1.831   4.024  20.662  0.1315 -0.0690 -0.1701
36079DPPC   C2A43608   1.584   3.866  20.380 -0.2424  0.1612 -0.0164
36079DPPC   C3A43609   1.299   3.860  20.002 -0.0522 -0.1252 -0.0957
36079DPPC   C4A43610   1.077   3.879  19.584 -0.0726 -0.2522  0.0101
36079DPPC   C1B43611   1.965   4.324  20.241 -0.1046  0.3668  0.0628
36079DPPC   C2B43612   1.655   4.243  19.993  0.0650  0.0094  0.0017
36079DPPC   C3B43613   1.357   4.241  19.665 -0.2034 -0.0384  0.2145
36079DPPC   C4B43614   1.038   4.233  19.207  0.1386  0.1209  0.1316
36080DPPC   NC343615  21.135   0.465  24.258 -0.1123 -0.0600  0.1613
36080DPPC   PO443616  21.097   0.079  24.117 -0.1243  0.0809 -0.0225
36080DPPC   GL143617  20.880  -0.259  23.767  0.1474 -0.0471  0.2051
36080DPPC   GL243618  20.702  -0.257  24.013 -0.0045  0.1497 -0.2286
36080DPPC   C1A43619  20.647  -0.174  23.534 -0.5927 -0.0636  0.4063
36080DPPC   C2A43620  20.397  -0.164  23.186 -0.3478  0.0049  0.1798
36080DPPC   C3A43621  20.171  -0.134  22.784  0.3664 -0.1253 -0.0757
36080DPPC   C4A43622  19.839  -0.090  22.380 -0.2861  0.1251 -0.1538
36080DPPC   C1B43623  20.401  -0.107  23.935 -0.2792 -0.2117  0.2759
36080DPPC   C2B43624  20.136  -0.065  23.614 -0.0934  0.0907  0.0114
36080DPPC   C3B43625  19.832  -0.097  23.255 -0.0905 -0.1556 -0.4668
36080DPPC   C4B43626  19.574  -0.143  22.824 -0.1177  0.1950 -0.2912
36081DPPC   NC343627  20.022   0.309  25.184  0.0192 -0.1352  0.4165
36081DPPC   PO443628  19.736   0.384  25.487 -0.0910 -0.0061 -0.0666
36081DPPC   GL143629  19.477   0.727  25.553 -0.0019 -0.2626 -0.1704
36081DPPC   GL243630  19.649   0.946  25.490 -0.0040 -0.0948  0.3433
36081DPPC   C1A43631  19.252   0.818  25.259 -0.5495  0.1299  0.1515
36081DPPC   C2A43632  19.105   0.730  24.890 -0.0224 -0.2050  0.2426
36081DPPC   C3A43633  18.882   0.692  24.506 -0.0023  0.1138 -0.0754
36081DPPC   C4A43634  18.567   0.729  24.136 -0.1171  0.1950  0.1725
36081DPPC   C1B43635  19.538   1.144  25.157 -0.2239 -0.2667 -0.0353
36081DPPC   C2B43636  19.416   1.109  24.764  0.1963  0.0318  0.0451
36081DPPC   C3B43637  19.158   1.104  24.363  0.0402  0.2751 -0.1014
36081DPPC   C4B43638  18.850   1.139  23.948 -0.0846  0.1956 -0.1971
36082DPPC   NC343639   1.601   1.580  22.353 -0.3221 -0.0382 -0.1652
36082DPPC   PO443640   1.351   1.327  22.560  0.2647 -0.0916  0.0042
36082DPPC   GL143641   0.993   1.192  22.410 -0.1185 -0.4739 -0.0110
36082DPPC   GL243642   1.131   0.916  22.397 -0.1898  0.0123  0.1771
36082DPPC   C1A43643   0.721   1.150  22.216  0.1945 -0.0498  0.1786
36082DPPC   C2A43644   0.451   1.146  21.871 -0.0042 -0.1259 -0.1336
36082DPPC   C3A43645   0.212   1.153  21.420 -0.1590 -0.2048 -0.1524
36082DPPC   C4A43646  -0.113   1.149  21.062  0.1352  0.0917 -0.3303
36082DPPC   C1B43647   0.980   0.754  22.071  0.0070  0.3475  0.0860
36082DPPC   C2B43648   0.747   0.711  21.739 -0.0170  0.2299 -0.1700
36082DPPC   C3B43649   0.454   0.711  21.458 -0.1067  0.1373 -0.0530
36082DPPC   C4B43650   0.148   0.703  21.090 -0.3207  0.1832  0.0863
36083DPPC   NC343651   0.394   5.681  24.691  0.0333  0.1749  0.0505
36083DPPC   PO443652   0.140   5.714  24.377  0.1734 -0.0858  0.0677
36083DPPC   GL143653  -0.306   5.740  24.170  0.0341 -0.1293 -0.0759
36083DPPC   GL243654  -0.344   5.510  24.152 -0.1375 -0.1761  0.0119
36083DPPC   C1A43655  -0.593   5.938  23.945  0.0114  0.0446  0.2398
36083DPPC   C2A43656  -0.813   6.056  23.594  0.0335 -0.1067  0.0927
36083DPPC   C3A43657  -1.105   6.019  23.164 -0.0121  0.2135  0.0614
36083DPPC   C4A43658  -1.458   6.038  22.790 -0.1272 -0.0952  0.1273
36083DPPC   C1B43659  -0.446   5.457  23.831 -0.2475  0.1487 -0.2202
36083DPPC   C2B43660  -0.663   5.498  23.530 -0.0583  0.0813  0.3020
36083DPPC   C3B43661  -0.983   5.549  23.156  0.2600 -0.0737  0.0847
36083DPPC   C4B43662  -1.305   5.586  22.727 -0.1598  0.0656 -0.0519
36084DPPC   NC343663   3.096   0.084  20.355  0.1339 -0.1315  0.1301
36084DPPC   PO443664   3.070  -0.163  20.036  0.0288  0.1716  0.0184
36084DPPC   GL143665   2.795  -0.357  19.855 -0.0467  0.0677 -0.2400
36084DPPC   GL243666   2.849  -0.435  19.535 -0.0135 -0.2033 -0.0856
36084DPPC   C1A43667   2.460  -0.286  19.721 -0.0606  0.0113  0.1281
36084DPPC   C2A43668   2.200  -0.189  19.389  0.0676  0.3487 -0.0449
36084DPPC   C3A43669   1.877  -0.201  19.006  0.3916  0.0896  0.1963
36084DPPC   C4A43670   1.620  -0.213  18.574 -0.0657  0.1020 -0.0495
36084DPPC   C1B43671   2.562  -0.425  19.308  0.1557 -0.1705  0.2448
36084DPPC   C2B43672   2.368  -0.421  18.918  0.3035  0.0508  0.1753
36084DPPC   C3B43673   2.133  -0.379  18.494 -0.1767 -0.0363 -0.3532
36084DPPC   C4B43674   1.853  -0.354  18.096  0.1587  0.0907  0.0328
36085DPPC   NC343675   0.574   5.595  23.949 -0.4104  0.1860 -0.0592
36085DPPC   PO443676   0.426   5.913  23.785 -0.1223 -0.0003 -0.2601
36085DPPC   GL143677  -0.075   5.927  23.672  0.0222 -0.0171 -0.1670
36085DPPC   GL243678   0.116   5.874  23.373 -0.0737  0.0772 -0.0532
36085DPPC   C1A43679  -0.406   5.939  23.442 -0.1181  0.0607 -0.3614
36085DPPC   C2A43680  -0.647   5.869  23.107  0.1530 -0.0026  0.2389
36085DPPC   C3A43681  -0.937   5.930  22.694 -0.1821  0.0655  0.1100
36085DPPC   C4A43682  -1.300   5.916  22.290 -0.0837 -0.0722  0.0549
36085DPPC   C1B43683  -0.048   5.869  23.040  0.3096  0.0499 -0.3213
36085DPPC   C2B43684  -0.208   5.830  22.683  0.1537 -0.0798 -0.0094
36085DPPC   C3B43685  -0.482   5.835  22.314 -0.2685  0.1197  0.1687
36085DPPC   C4B43686  -0.876   5.891  22.047  0.3991  0.2003  0.0904
36086DPPC   NC343687   3.033   5.184  21.381  0.1170 -0.0508  0.0547
36086DPPC   PO443688   2.655   5.186  21.186 -0.0117  0.3184 -0.1083
36086DPPC   GL143689   2.260   5.063  20.990  0.1229  0.1026 -0.1411
36086DPPC   GL243690   2.233   5.305  20.953 -0.0418 -0.0266  0.1649
36086DPPC   C1A43691   2.063   4.864  20.761 -0.3012 -0.0202 -0.1121
36086DPPC   C2A43692   1.816   4.785  20.450  0.0325 -0.0828 -0.1380
36086DPPC   C3A43693   1.508   4.711  20.073  0.2130  0.1166 -0.3552
36086DPPC   C4A43694   1.155   4.713  19.709 -0.0843 -0.3782 -0.0360
36086DPPC   C1B43695   1.934   5.309  20.806 -0.0784 -0.3841  0.0426
36086DPPC   C2B43696   1.635   5.239  20.541  0.1366 -0.3820 -0.2017
36086DPPC   C3B43697   1.357   5.246  20.187 -0.1757  0.0454 -0.2942
36086DPPC   C4B43698   1.131   5.253  19.788 -0.0189  0.0403 -0.0845
36087DPPC   NC343699   0.657   0.249  23.809 -0.2584 -0.0419  0.1857
36087DPPC   PO443700   0.399   0.538  23.892  0.1485  0.0195  0.0337
36087DPPC   GL143701  -0.043   0.563  23.793 -0.2958  0.0090  0.1438
36087DPPC   GL243702   0.004   0.797  23.617 -0.2766  0.2273 -0.1213
36087DPPC   C1A43703  -0.273   0.364  23.639 -0.2629  0.0959 -0.2265
36087DPPC   C2A43704  -0.632   0.290  23.470  0.1351  0.2962  0.0451
36087DPPC   C3A43705  -0.965   0.295  23.096  0.0259 -0.2444 -0.1452
36087DPPC   C4A43706  -1.333   0.330  22.763 -0.0352  0.0937 -0.1852
36087DPPC   C1B43707  -0.172   0.663  23.317  0.1447 -0.0024 -0.1946
36087DPPC   C2B43708  -0.548   0.666  23.074 -0.2275 -0.2323  0.1264
36087DPPC   C3B43709  -0.872   0.681  22.699  0.0474  0.0826  0.1230
36087DPPC   C4B43710  -1.240   0.696  22.342 -0.1584 -0.0140 -0.0882
36088DPPC   NC343711  20.160   6.403  25.893 -0.3110  0.1866 -0.1613
36088DPPC   PO443712  20.083   6.644  25.550 -0.1175  0.1442  0.2468
36088DPPC   GL143713  19.790   6.529  25.374 -0.0728 -0.0254 -0.0257
36088DPPC   GL243714  19.829   6.256  25.286  0.2294 -0.2543  0.2002
36088DPPC   C1A43715  19.574   6.720  25.076  0.0814  0.2888 -0.0539
36088DPPC   C2A43716  19.275   6.862  24.852  0.1268  0.1284 -0.0725
36088DPPC   C3A43717  19.015   6.792  24.430 -0.0437  0.1723  0.0798
36088DPPC   C4A43718  18.702   6.802  24.125  0.1329  0.0027  0.2218
36088DPPC   C1B43719  19.642   6.287  24.919  0.0325 -0.1450 -0.2662
36088DPPC   C2B43720  19.408   6.377  24.609 -0.1929 -0.2713 -0.0260
36088DPPC   C3B43721  19.151   6.340  24.162  0.3813  0.3067 -0.0566
36088DPPC   C4B43722  18.806   6.380  23.834 -0.0950 -0.2098  0.1069
36089DPPC   NC343723   0.600   4.696  23.084 -0.0840  0.0218  0.2231
36089DPPC   PO443724   0.660   4.481  23.427  0.0726  0.0414 -0.0680
36089DPPC   GL143725   0.255   4.368  23.291  0.0633  0.1653 -0.0928
36089DPPC   GL243726   0.168   4.624  23.354  0.0175 -0.1545  0.2140
36089DPPC   C1A43727   0.096   4.273  22.921  0.2718  0.3791 -0.3362
36089DPPC   C2A43728  -0.183   4.127  22.632  0.0448  0.0585  0.2445
36089DPPC   C3A43729  -0.420   4.001  22.228 -0.0441 -0.1373 -0.1489
36089DPPC   C4A43730  -0.710   4.037  21.828  0.0825 -0.1161 -0.2494
36089DPPC   C1B43731  -0.067   4.612  23.102  0.1478  0.0907  0.0850
36089DPPC   C2B43732  -0.280   4.575  22.740 -0.2021  0.1863 -0.0821
36089DPPC   C3B43733  -0.556   4.512  22.318 -0.2829  0.1755 -0.1558
36089DPPC   C4B43734  -0.852   4.498  21.962  0.0740 -0.0562  0.0771
36090DPPC   NC343735  19.898   5.581  25.870 -0.0677  0.0578  0.0536
36090DPPC   PO443736  19.941   5.949  25.998  0.0111 -0.1019  0.0137
36090DPPC   GL143737  19.559   6.150  25.866 -0.0965  0.2741  0.5990
36090DPPC   GL243738  19.736   6.289  25.744 -0.0412  0.3551  0.2484
36090DPPC   C1A43739  19.178   6.137  25.767  0.2780 -0.1306  0.1976
36090DPPC   C2A43740  18.895   6.052  25.464 -0.0586 -0.0898  0.1757
36090DPPC   C3A43741  18.616   6.072  25.019 -0.0998 -0.2329 -0.0005
36090DPPC   C4A43742  18.284   6.081  24.593 -0.1599 -0.1306 -0.2870
36090DPPC   C1B43743  19.455   6.514  25.635  0.1585  0.0407  0.0245
36090DPPC   C2B43744  19.227   6.459  25.236  0.2622  0.0545 -0.2375
36090DPPC   C3B43745  18.939   6.437  24.823 -0.0533  0.3079  0.2204
36090DPPC   C4B43746  18.635   6.424  24.461  0.0381  0.0104  0.1336
36091DPPC   NC343747   0.625   0.388  23.042  0.0640  0.0428  0.0472
36091DPPC   PO443748   0.718   0.712  23.211  0.2598  0.0410  0.0448
36091DPPC   GL143749   0.395   1.109  23.096 -0.3900 -0.1895  0.0636
36091DPPC   GL243750   0.340   0.835  22.973 -0.0470  0.2809  0.4197
36091DPPC   C1A43751   0.169   1.296  22.866  0.1953  0.3346 -0.3876
36091DPPC   C2A43752  -0.140   1.334  22.585  0.5292  0.2233 -0.1648
36091DPPC   C3A43753  -0.459   1.398  22.215 -0.0521 -0.0201 -0.0282
36091DPPC   C4A43754  -0.715   1.395  21.821 -0.0192 -0.0709  0.1998
36091DPPC   C1B43755   0.142   0.814  22.625  0.0658  0.2030 -0.2752
36091DPPC   C2B43756  -0.112   0.911  22.319 -0.0269 -0.0976 -0.0554
36091DPPC   C3B43757  -0.395   0.935  21.883  0.2642 -0.0409 -0.0595
36091DPPC   C4B43758  -0.773   0.951  21.584  0.0119  0.1047  0.1684
36092DPPC   NC343759   1.817   1.229  21.778  0.2039 -0.0861 -0.0677
36092DPPC   PO443760   1.874   1.604  21.669 -0.0496 -0.2997  0.0008
36092DPPC   GL143761   1.577   1.708  21.436  0.1686 -0.1958  0.3010
36092DPPC   GL243762   1.553   1.405  21.372  0.0137  0.1063 -0.1625
36092DPPC   C1A43763   1.278   1.800  21.238  0.1639  0.0236  0.2906
36092DPPC   C2A43764   1.102   1.847  20.882 -0.1107 -0.1298 -0.1116
36092DPPC   C3A43765   0.890   1.813  20.473  0.1220 -0.1047  0.2837
36092DPPC   C4A43766   0.613   1.820  20.042  0.0254 -0.2590 -0.0394
36092DPPC   C1B43767   1.457   1.319  21.016 -0.0899 -0.1261 -0.1249
36092DPPC   C2B43768   1.195   1.325  20.664 -0.0322  0.2814  0.0326
36092DPPC   C3B43769   0.853   1.331  20.328  0.0960 -0.2062  0.3496
36092DPPC   C4B43770   0.563   1.332  19.926  0.0549 -0.0134 -0.3391
36093DPPC   NC343771   0.829   2.578  23.577 -0.3600 -0.4845  0.0179
36093DPPC   PO443772   0.670   2.992  23.608 -0.3513 -0.5271 -0.2339
36093DPPC   GL143773   0.298   3.040  23.275 -0.2422 -0.0001 -0.3709
36093DPPC   GL243774   0.328   2.722  23.351 -0.2151 -0.2732  0.2174
36093DPPC   C1A43775  -0.047   3.109  23.035 -0.1152 -0.1713 -0.8176
36093DPPC   C2A43776  -0.292   3.214  22.792  0.0744 -0.3120  0.2283
36093DPPC   C3A43777  -0.580   3.196  22.384 -0.0845 -0.1838 -0.0345
36093DPPC   C4A43778  -0.809   3.219  21.933 -0.1184 -0.0515 -0.1035
36093DPPC   C1B43779   0.017   2.607  23.166 -0.1541 -0.0079  0.0599
36093DPPC   C2B43780  -0.330   2.781  23.186  0.1281 -0.2989  0.3634
36093DPPC   C3B43781  -0.640   2.811  22.796  0.3930  0.1002 -0.0608
36093DPPC   C4B43782  -0.931   2.823  22.379 -0.0902  0.6655 -0.0538
36094DPPC   NC343783   1.680   6.531  22.220  0.3915 -0.3627 -0.0175
36094DPPC   PO443784   1.398   6.288  22.294 -0.0357  0.1083 -0.1440
36094DPPC   GL143785   1.417   5.993  21.938  0.3404 -0.1282  0.4773
36094DPPC   GL243786   1.486   6.257  21.783  0.1913 -0.4070 -0.0078
36094DPPC   C1A43787   1.176   5.812  21.704 -0.1744 -0.0650  0.0112
36094DPPC   C2A43788   0.962   5.875  21.336  0.0415  0.3015  0.3074
36094DPPC   C3A43789   0.663   5.860  20.975  0.4377 -0.0092  0.1213
36094DPPC   C4A43790   0.325   5.899  20.672  0.1810  0.2735 -0.1934
36094DPPC   C1B43791   1.302   6.188  21.457 -0.0124  0.0531  0.3758
36094DPPC   C2B43792   1.200   6.279  21.065  0.3279 -0.1025  0.0462
36094DPPC   C3B43793   0.922   6.289  20.726  0.0043 -0.1667  0.0340
36094DPPC   C4B43794   0.549   6.227  20.347  0.1093  0.2325 -0.0775
36095DPPC   NC343795  19.748   0.513  18.793  0.1242  0.0515  0.2599
36095DPPC   PO443796  19.687   0.444  19.162 -0.1728 -0.0709  0.0520
36095DPPC   GL143797  19.906   0.665  19.422  0.0985  0.3478 -0.2902
36095DPPC   GL243798  20.078   0.758  19.198  0.1672 -0.1548  0.1893
36095DPPC   C1A43799  20.070   0.691  19.711 -0.2014  0.0047  0.1482
36095DPPC   C2A43800  20.354   0.669  20.016  0.1963 -0.0265 -0.1005
36095DPPC   C3A43801  20.690   0.761  20.316 -0.0427 -0.0102  0.1192
36095DPPC   C4A43802  21.023   0.742  20.690 -0.0837 -0.1386  0.1633
36095DPPC   C1B43803  20.358   0.691  19.283 -0.1227 -0.2205 -0.1181
36095DPPC   C2B43804  20.636   0.623  19.554 -0.2320  0.4439  0.0416
36095DPPC   C3B43805  20.956   0.591  19.918 -0.5013  0.1154  0.0902
36095DPPC   C4B43806  21.253   0.589  20.284 -0.1495  0.0244 -0.1682
36096DPPC   NC343807  17.014   4.326  22.720 -0.0355  0.1207 -0.1712
36096DPPC   PO443808  16.884   4.574  22.439  0.3835 -0.1130 -0.0406
36096DPPC   GL143809  17.105   4.861  22.668 -0.2446  0.1088 -0.1992
36096DPPC   GL243810  16.930   4.963  22.954  0.2000  0.2986  0.0673
36096DPPC   C1A43811  17.422   4.825  22.804  0.1859  0.1373  0.1064
36096DPPC   C2A43812  17.667   4.674  23.121  0.1354 -0.1611  0.0838
36096DPPC   C3A43813  17.974   4.597  23.506 -0.0991  0.3467 -0.2718
36096DPPC   C4A43814  18.247   4.693  23.893 -0.0728  0.3665  0.0744
36096DPPC   C1B43815  17.141   4.808  23.169 -0.0807 -0.0437  0.0714
36096DPPC   C2B43816  17.354   4.741  23.545  0.1419 -0.0309 -0.3129
36096DPPC   C3B43817  17.691   4.782  23.932  0.0618  0.1365  0.2051
36096DPPC   C4B43818  18.043   4.852  24.306 -0.0829  0.0860 -0.0118
36097DPPC   NC343819  17.976   6.138  20.537 -0.2825 -0.0116  0.1504
36097DPPC   PO443820  17.996   5.846  20.832  0.1429  0.2717  0.0415
36097DPPC   GL143821  18.417   5.729  20.837  0.3362  0.2974 -0.1843
36097DPPC   GL243822  18.364   5.687  21.113 -0.1308 -0.2953 -0.0520
36097DPPC   C1A43823  18.690   5.654  20.586 -0.2039 -0.1764  0.1287
36097DPPC   C2A43824  19.016   5.526  20.739  0.1250 -0.2736 -0.0180
36097DPPC   C3A43825  19.249   5.481  21.231  0.0168 -0.2106  0.1247
36097DPPC   C4A43826  19.530   5.441  21.575 -0.0795 -0.1001 -0.0497
36097DPPC   C1B43827  18.667   5.679  21.340  0.0862 -0.3467 -0.2328
36097DPPC   C2B43828  18.950   5.602  21.618 -0.0116 -0.1570 -0.3547
36097DPPC   C3B43829  19.260   5.579  21.934  0.1809  0.2103 -0.3559
36097DPPC   C4B43830  19.494   5.591  22.344 -0.1477  0.2910 -0.1959
36098DPPC   NC343831  18.091   3.306  20.810  0.1662 -0.1704 -0.3603
36098DPPC   PO443832  18.088   3.696  20.962 -0.2306  0.0304 -0.1372
36098DPPC   GL143833  18.317   3.516  21.266  0.0213 -0.2209 -0.0521
36098DPPC   GL243834  18.111   3.673  21.412 -0.2127 -0.2478 -0.0664
36098DPPC   C1A43835  18.649   3.446  21.349  0.1605 -0.0969  0.0089
36098DPPC   C2A43836  18.818   3.396  21.718 -0.0315  0.0322 -0.2467
36098DPPC   C3A43837  19.130   3.429  22.000 -0.0726  0.1302  0.0860
36098DPPC   C4A43838  19.458   3.440  22.360  0.0217  0.0231 -0.1751
36098DPPC   C1B43839  18.401   3.714  21.648 -0.0189  0.0801 -0.1299
36098DPPC   C2B43840  18.730   3.911  21.769 -0.0344  0.1040  0.0555
36098DPPC   C3B43841  19.077   3.944  22.052  0.2326 -0.0614 -0.1995
36098DPPC   C4B43842  19.377   3.978  22.458 -0.0219  0.0593 -0.1884
36099DPPC   NC343843  17.220   3.033  22.156 -0.1155 -0.0790  0.0431
36099DPPC   PO443844  17.195   3.439  22.225  0.1018  0.2422 -0.0837
36099DPPC   GL143845  17.458   3.536  22.497  0.1565  0.1815 -0.0868
36099DPPC   GL243846  17.399   3.250  22.596 -0.2847 -0.2791  0.2481
36099DPPC   C1A43847  17.716   3.740  22.573  0.2479  0.1435 -0.3087
36099DPPC   C2A43848  17.950   3.783  22.904  0.0565 -0.1369  0.0673
36099DPPC   C3A43849  18.302   3.713  23.297  0.0372 -0.1306  0.1095
36099DPPC   C4A43850  18.605   3.734  23.703 -0.2178  0.0524 -0.3628
36099DPPC   C1B43851  17.502   3.332  22.953 -0.0104 -0.0464  0.0608
36099DPPC   C2B43852  17.787   3.343  23.240  0.1844 -0.0936 -0.0621
36099DPPC   C3B43853  18.077   3.336  23.573 -0.1607  0.0564 -0.0630
36099DPPC   C4B43854  18.405   3.212  23.948 -0.0781  0.2047  0.0324
36100DPPC   NC343855  19.457   5.803  19.170  0.1652  0.1012 -0.0769
36100DPPC   PO443856  19.843   5.733  19.048 -0.1853  0.1347 -0.1334
36100DPPC   GL143857  19.973   5.682  19.390  0.0544 -0.0070  0.0703
36100DPPC   GL243858  20.134   5.411  19.288 -0.1952 -0.3670 -0.3518
36100DPPC   C1A43859  20.147   5.875  19.675 -0.2491  0.2872 -0.3354
36100DPPC   C2A43860  20.374   6.003  19.991  0.0892  0.1427  0.1582
36100DPPC   C3A43861  20.674   6.036  20.309  0.2189 -0.1046  0.1966
36100DPPC   C4A43862  20.985   5.990  20.720  0.0493  0.1951 -0.1552
36100DPPC   C1B43863  20.346   5.426  19.560  0.6715 -0.0977  0.0115
36100DPPC   C2B43864  20.572   5.553  19.866  0.0423 -0.0164 -0.1027
36100DPPC   C3B43865  20.883   5.549  20.285 -0.1848  0.1699 -0.2914
36100DPPC   C4B43866  21.186   5.460  20.688 -0.0164 -0.1754  0.3314
36101DPPC   NC343867  18.982   0.198  19.305 -0.2051 -0.1037  0.4633
36101DPPC   PO443868  19.142   0.538  19.209 -0.0484  0.0570  0.5970
36101DPPC   GL143869  19.480   0.672  19.491 -0.1569  0.2396 -0.6226
36101DPPC   GL243870  19.482   0.914  19.423  0.2143  0.2816 -0.3432
36101DPPC   C1A43871  19.709   0.496  19.753 -0.0222 -0.1154 -0.0199
36101DPPC   C2A43872  19.965   0.333  20.044  0.1701  0.2318 -0.0597
36101DPPC   C3A43873  20.287   0.390  20.388 -0.0146 -0.0145  0.1188
36101DPPC   C4A43874  20.631   0.384  20.691 -0.2717 -0.0620 -0.3123
36101DPPC   C1B43875  19.760   0.979  19.659 -0.2693  0.2887 -0.0152
36101DPPC   C2B43876  20.043   1.095  19.927  0.1094  0.1395 -0.1498
36101DPPC   C3B43877  20.366   1.141  20.288 -0.1535  0.1481 -0.0593
36101DPPC   C4B43878  20.674   1.147  20.666 -0.1828 -0.0867 -0.2176
36102DPPC   NC343879  18.830   2.313  19.388  0.0785 -0.1185 -0.0271
36102DPPC   PO443880  19.109   2.291  19.657  0.0052 -0.0737  0.0467
36102DPPC   GL143881  19.466   2.305  19.887  0.2987  0.3407  0.0548
36102DPPC   GL243882  19.278   2.446  20.074 -0.1499 -0.4590 -0.2802
36102DPPC   C1A43883  19.797   2.218  19.948  0.0896  0.2913  0.1429
36102DPPC   C2A43884  20.000   2.138  20.290 -0.1370  0.0989  0.2924
36102DPPC   C3A43885  20.252   2.123  20.682  0.2833  0.0707  0.0045
36102DPPC   C4A43886  20.581   2.092  21.016  0.0383  0.5433 -0.1090
36102DPPC   C1B43887  19.521   2.313  20.343  0.2667  0.1717  0.3574
36102DPPC   C2B43888  19.703   2.234  20.723 -0.2274  0.1893  0.0092
36102DPPC   C3B43889  20.038   2.243  21.110  0.1032 -0.0845  0.1040
36102DPPC   C4B43890  20.337   2.248  21.544 -0.2061  0.1801 -0.0309
36103DPPC   NC343891  18.763   6.213  19.453  0.1538  0.0975  0.1892
36103DPPC   PO443892  19.034   5.947  19.380 -0.0114 -0.2416  0.0867
36103DPPC   GL143893  19.252   5.998  19.774  0.1689 -0.1509 -0.2094
36103DPPC   GL243894  19.405   5.758  19.621  0.1842  0.0680 -0.2549
36103DPPC   C1A43895  19.314   6.098  20.106 -0.0663  0.2019  0.1738
36103DPPC   C2A43896  19.437   6.225  20.469  0.0532  0.0815 -0.2891
36103DPPC   C3A43897  19.781   6.181  20.789  0.0498 -0.2211 -0.1773
36103DPPC   C4A43898  20.113   6.269  21.208 -0.1060 -0.0433  0.0926
36103DPPC   C1B43899  19.740   5.647  19.755  0.2212 -0.1263  0.0857
36103DPPC   C2B43900  20.084   5.582  20.043 -0.4300 -0.0054 -0.0699
36103DPPC   C3B43901  20.381   5.618  20.442 -0.3668 -0.1022  0.1364
36103DPPC   C4B43902  20.592   5.668  20.829 -0.2264  0.1039 -0.1704
36104DPPC   NC343903  17.494   2.726  20.918  0.0207 -0.0647  0.0244
36104DPPC   PO443904  17.906   2.837  20.916  0.1236  0.0045 -0.2354
36104DPPC   GL143905  18.203   2.809  21.265  0.1620 -0.1117  0.2549
36104DPPC   GL243906  18.363   3.063  21.226  0.2334  0.1344 -0.1096
36104DPPC   C1A43907  18.516   2.612  21.245  0.0202 -0.0100 -0.3317
36104DPPC   C2A43908  18.903   2.543  21.306  0.0536 -0.0033 -0.0131
36104DPPC   C3A43909  19.239   2.452  21.665 -0.0555  0.1495 -0.0168
36104DPPC   C4A43910  19.601   2.486  22.012  0.0127 -0.0842 -0.0939
36104DPPC   C1B43911  18.640   2.997  21.491  0.0784 -0.0664 -0.0636
36104DPPC   C2B43912  19.004   2.935  21.656  0.0923 -0.0236  0.0441
36104DPPC   C3B43913  19.349   2.907  21.962  0.3001 -0.1745  0.2896
36104DPPC   C4B43914  19.666   2.965  22.348  0.0477  0.2316 -0.1350
36105DPPC   NC343915  16.447   2.937  22.276  0.1204  0.1852  0.1945
36105DPPC   PO443916  16.761   2.786  22.172 -0.0692  0.1786  0.1994
36105DPPC   GL143917  17.204   2.598  22.170  0.0757 -0.2607 -0.3647
36105DPPC   GL243918  17.140   2.703  22.511 -0.1851 -0.3133  0.2250
36105DPPC   C1A43919  17.507   2.395  22.372  0.1387 -0.1557 -0.3525
36105DPPC   C2A43920  17.741   2.337  22.717 -0.1323 -0.0331  0.0054
36105DPPC   C3A43921  18.115   2.319  23.011  0.0469 -0.1371 -0.0417
36105DPPC   C4A43922  18.421   2.304  23.359  0.1063 -0.0630  0.2046
36105DPPC   C1B43923  17.450   2.783  22.679 -0.0387  0.1138  0.0268
36105DPPC   C2B43924  17.767   2.871  22.893 -0.1683  0.1370 -0.1972
36105DPPC   C3B43925  18.096   2.896  23.266  0.0996 -0.1091 -0.1420
36105DPPC   C4B43926  18.453   2.769  23.605  0.1213  0.2884 -0.0221
36106DPPC   NC343927  17.599   4.629  21.059 -0.0864  0.2239  0.1004
36106DPPC   PO443928  17.595   4.579  21.448 -0.1693  0.0124 -0.1387
36106DPPC   GL143929  17.942   4.618  21.708  0.3201 -0.1863  0.2823
36106DPPC   GL243930  17.834   4.948  21.747 -0.0257  0.3242  0.0947
36106DPPC   C1A43931  17.998   4.607  22.053  0.1206 -0.0072  0.4322
36106DPPC   C2A43932  18.262   4.520  22.304  0.1309 -0.0502  0.1652
36106DPPC   C3A43933  18.572   4.420  22.605  0.2956  0.1177 -0.0830
36106DPPC   C4A43934  18.844   4.479  22.996  0.0005 -0.0425 -0.0449
36106DPPC   C1B43935  17.983   5.020  22.089 -0.1823  0.1171 -0.0754
36106DPPC   C2B43936  18.246   4.979  22.446  0.1112  0.0436  0.1691
36106DPPC   C3B43937  18.492   4.923  22.791 -0.2158 -0.1778 -0.0620
36106DPPC   C4B43938  18.832   4.935  23.193  0.1092  0.1180 -0.1142
36107DPPC   NC343939  18.020   1.564  20.141  0.1479 -0.1850  0.0076
36107DPPC   PO443940  18.408   1.699  20.216 -0.0598  0.1023  0.0302
36107DPPC   GL143941  18.772   1.471  20.477 -0.0830  0.0026  0.1296
36107DPPC   GL243942  18.733   1.739  20.664 -0.0206 -0.0222 -0.2728
36107DPPC   C1A43943  19.106   1.374  20.563 -0.1537 -0.0717 -0.0136
36107DPPC   C2A43944  19.464   1.379  20.712 -0.1275  0.1188 -0.1295
36107DPPC   C3A43945  19.786   1.394  21.100 -0.0838 -0.2214  0.2502
36107DPPC   C4A43946  20.141   1.405  21.439  0.1827 -0.2079 -0.0054
36107DPPC   C1B43947  18.995   1.621  20.947  0.3311  0.0175 -0.0938
36107DPPC   C2B43948  19.300   1.522  21.211 -0.1127 -0.2310  0.2559
36107DPPC   C3B43949  19.650   1.527  21.540 -0.3058 -0.0447 -0.2444
36107DPPC   C4B43950  19.945   1.545  21.938  0.1895  0.2451  0.0762
36108DPPC   NC343951  18.428   5.604  20.006  0.2190 -0.3064 -0.0196
36108DPPC   PO443952  18.380   5.231  20.110 -0.1529 -0.3694 -0.0895
36108DPPC   GL143953  18.589   5.028  20.488 -0.0693 -0.0375  0.0829
36108DPPC   GL243954  18.493   5.266  20.595 -0.2095 -0.0200 -0.1974
36108DPPC   C1A43955  18.914   5.040  20.619  0.0781 -0.1985 -0.0049
36108DPPC   C2A43956  19.198   5.026  20.941  0.4160  0.1604  0.0431
36108DPPC   C3A43957  19.549   5.015  21.274 -0.1656 -0.0289 -0.1835
36108DPPC   C4A43958  19.875   4.999  21.656 -0.1851 -0.1048 -0.2856
36108DPPC   C1B43959  18.634   5.157  20.896  0.3263  0.1191  0.3083
36108DPPC   C2B43960  18.811   5.190  21.252 -0.1488  0.2825 -0.2221
36108DPPC   C3B43961  19.122   5.095  21.580  0.1727 -0.2690 -0.0273
36108DPPC   C4B43962  19.443   5.105  21.991 -0.2182  0.0426  0.3712
36109DPPC   NC343963  19.297   3.717  19.170  0.1394  0.2465 -0.2588
36109DPPC   PO443964  19.331   4.115  19.126  0.1680  0.3349 -0.0873
36109DPPC   GL143965  19.560   4.081  19.437  0.4519 -0.0532 -0.1836
36109DPPC   GL243966  19.468   4.153  19.691  0.1569 -0.2472 -0.0462
36109DPPC   C1A43967  19.838   4.329  19.432 -0.0367 -0.0003 -0.0059
36109DPPC   C2A43968  20.227   4.327  19.485  0.0737 -0.1356  0.1664
36109DPPC   C3A43969  20.577   4.280  19.820  0.2235 -0.4494 -0.3211
36109DPPC   C4A43970  20.814   4.166  20.202  0.0389  0.1049 -0.2429
36109DPPC   C1B43971  19.556   4.122  20.070 -0.0983 -0.1002  0.0927
36109DPPC   C2B43972  19.843   4.001  20.367 -0.1692 -0.3209 -0.2586
36109DPPC   C3B43973  20.164   3.912  20.717  0.3322  0.2013 -0.0956
36109DPPC   C4B43974  20.483   3.880  21.076  0.1666  0.0484 -0.2397
36110DPPC   NC343975  18.601   2.144  20.308  0.1775  0.3290 -0.1097
36110DPPC   PO443976  18.364   2.005  20.614 -0.0642  0.0948  0.1520
36110DPPC   GL143977  18.447   1.996  21.026 -0.1176 -0.3480  0.0627
36110DPPC   GL243978  18.567   1.728  21.063  0.2598  0.3845  0.0990
36110DPPC   C1A43979  18.549   2.179  21.286 -0.1874  0.0365 -0.1391
36110DPPC   C2A43980  18.818   2.081  21.532  0.0057 -0.0454 -0.0195
36110DPPC   C3A43981  19.089   2.068  21.911  0.3348 -0.3217  0.2563
36110DPPC   C4A43982  19.449   2.048  22.270 -0.1097 -0.2127  0.2011
36110DPPC   C1B43983  18.788   1.657  21.362 -0.1653  0.2395  0.4423
36110DPPC   C2B43984  19.026   1.638  21.683  0.2919  0.2232  0.1421
36110DPPC   C3B43985  19.364   1.608  21.953  0.2328 -0.1349 -0.0271
36110DPPC   C4B43986  19.690   1.645  22.307  0.2309  0.0866 -0.2113
36111DPPC   NC343987  19.678   4.922  18.041  0.4463 -0.2697 -0.1072
36111DPPC   PO443988  20.025   4.824  18.225  0.4917  0.0679 -0.2052
36111DPPC   GL143989  20.311   4.805  18.584 -0.1945  0.2066 -0.1749
36111DPPC   GL243990  20.111   4.929  18.767 -0.5904 -0.2003 -0.1037
36111DPPC   C1A43991  20.617   4.629  18.743  0.0285  0.1440  0.0320
36111DPPC   C2A43992  20.917   4.484  19.024  0.0667 -0.0152  0.1391
36111DPPC   C3A43993  21.181   4.477  19.396 -0.0885  0.0039  0.1593
36111DPPC   C4A43994  21.484   4.456  19.748 -0.0534 -0.1562 -0.3073
36111DPPC   C1B43995  20.148   4.904  19.121  0.1407 -0.0405 -0.0407
36111DPPC   C2B43996  20.352   5.031  19.379  0.0012  0.0726  0.1295
36111DPPC   C3B43997  20.639   5.065  19.768  0.0201  0.1408  0.0930
36111DPPC   C4B43998  20.965   5.036  20.170  0.0072  0.1740  0.2545
36112DPPC   NC343999  17.291   3.532  21.676 -0.0413  0.0231 -0.2705
36112DPPC   PO444000  17.556   3.224  21.712  0.2913  0.0151 -0.0607
36112DPPC   GL144001  17.711   3.117  22.076 -0.1469 -0.0287 -0.1116
36112DPPC   GL244002  17.962   3.003  22.014  0.2588  0.2731 -0.1240
36112DPPC   C1A44003  17.765   3.189  22.416  0.2798  0.0077 -0.1308
36112DPPC   C2A44004  17.943   3.316  22.709 -0.0745 -0.0814 -0.0920
36112DPPC   C3A44005  18.278   3.268  23.042  0.0393 -0.3447 -0.1549
36112DPPC   C4A44006  18.561   3.191  23.410  0.3926 -0.1982 -0.2673
36112DPPC   C1B44007  18.178   3.164  22.230  0.0785 -0.0638  0.3224
36112DPPC   C2B44008  18.458   3.094  22.464  0.0142 -0.0640 -0.4207
36112DPPC   C3B44009  18.751   3.145  22.842  0.0523  0.0534  0.1267
36112DPPC   C4B44010  19.121   3.203  23.197 -0.0204 -0.2239 -0.0398
36113DPPC   NC344011  17.730   0.849  20.754 -0.1072  0.3486 -0.1594
36113DPPC   PO444012  17.986   0.529  20.811 -0.0472 -0.1813 -0.0967
36113DPPC   GL144013  18.363   0.411  20.993  0.4792  0.3591 -0.0114
36113DPPC   GL244014  18.322   0.102  20.900  0.4797 -0.5548 -0.2901
36113DPPC   C1A44015  18.644   0.370  21.254 -0.0570 -0.1450  0.1940
36113DPPC   C2A44016  18.901   0.345  21.589  0.0750  0.1100  0.0678
36113DPPC   C3A44017  19.160   0.326  21.964 -0.1723  0.0091 -0.1126
36113DPPC   C4A44018  19.549   0.304  22.345  0.0884  0.0319  0.0013
36113DPPC   C1B44019  18.602  -0.099  20.979 -0.2248  0.0305 -0.2197
36113DPPC   C2B44020  18.901  -0.103  21.241  0.0484  0.0776  0.0390
36113DPPC   C3B44021  19.158  -0.101  21.596 -0.2470 -0.1746 -0.1883
36113DPPC   C4B44022  19.480  -0.114  21.998 -0.3312 -0.1700 -0.0900
36114DPPC   NC344023  17.649   6.076  21.089 -0.1880 -0.3319  0.0659
36114DPPC   PO444024  17.541   6.381  21.296 -0.4438  0.2479 -0.1345
36114DPPC   GL144025  17.960   6.460  21.523 -0.0462  0.0242 -0.5042
36114DPPC   GL244026  17.892   6.199  21.700  0.4244 -0.2604 -0.2037
36114DPPC   C1A44027  18.295   6.578  21.440 -0.0542  0.0698  0.2170
36114DPPC   C2A44028  18.606   6.587  21.729 -0.4322 -0.0353  0.0643
36114DPPC   C3A44029  18.910   6.497  22.066  0.2235 -0.1858  0.0202
36114DPPC   C4A44030  19.204   6.569  22.448  0.1727 -0.1214 -0.0293
36114DPPC   C1B44031  18.208   6.265  21.891 -0.3392 -0.0408 -0.0882
36114DPPC   C2B44032  18.509   6.195  22.126  0.0019 -0.0434 -0.1888
36114DPPC   C3B44033  18.863   6.197  22.507 -0.1019  0.0582 -0.0270
36114DPPC   C4B44034  19.192   6.110  22.838  0.0618 -0.1537  0.0702
36115DPPC   NC344035  18.185   5.275  20.999  0.1717 -0.0205 -0.0450
36115DPPC   PO444036  17.884   5.058  20.983 -0.1577 -0.1439  0.1680
36115DPPC   GL144037  18.020   4.941  21.310 -0.1061  0.1922 -0.0641
36115DPPC   GL244038  17.917   5.261  21.402 -0.0267  0.1700 -0.3472
36115DPPC   C1A44039  18.210   4.939  21.592  0.1612  0.1598  0.2372
36115DPPC   C2A44040  18.385   4.856  21.946 -0.0745  0.1111  0.0790
36115DPPC   C3A44041  18.698   4.809  22.253  0.0836 -0.1719 -0.0545
36115DPPC   C4A44042  18.961   4.849  22.650  0.0680  0.2927 -0.4165
36115DPPC   C1B44043  18.231   5.496  21.451 -0.0239  0.0684  0.0465
36115DPPC   C2B44044  18.531   5.282  21.623 -0.0775  0.1151  0.4153
36115DPPC   C3B44045  18.854   5.218  21.961  0.1962 -0.2357 -0.0813
36115DPPC   C4B44046  19.151   5.224  22.355  0.0845 -0.0516  0.1525
36116DPPC   NC344047   5.217   1.043  16.176 -0.2514 -0.0853  0.0845
36116DPPC   PO444048   4.885   0.818  16.197 -0.1387 -0.1534  0.1799
36116DPPC   GL144049   4.645   1.002  16.505 -0.2317 -0.0007  0.0214
36116DPPC   GL244050   4.423   0.836  16.423 -0.1669  0.3517  0.0690
36116DPPC   C1A44051   4.614   1.200  16.787  0.2458 -0.0608  0.2908
36116DPPC   C2A44052   4.370   1.152  17.117 -0.0893  0.0839  0.1601
36116DPPC   C3A44053   4.149   1.230  17.566  0.1776  0.0197  0.0498
36116DPPC   C4A44054   3.868   1.277  17.993  0.0791 -0.0267 -0.3483
36116DPPC   C1B44055   4.201   0.864  16.727  0.0866  0.2789 -0.2134
36116DPPC   C2B44056   3.966   0.803  17.084  0.0124 -0.2570  0.0196
36116DPPC   C3B44057   3.681   0.861  17.421 -0.1632 -0.1825  0.0629
36116DPPC   C4B44058   3.564   0.908  17.912 -0.2126 -0.0688 -0.0776
36117DPPC   NC344059  18.204   4.162  20.768 -0.0126 -0.1860  0.0266
36117DPPC   PO444060  18.439   3.925  20.533  0.0589 -0.1447  0.2309
36117DPPC   GL144061  18.848   3.921  20.614  0.3954 -0.1295 -0.0282
36117DPPC   GL244062  18.938   4.068  20.349  0.2061  0.1683  0.3062
36117DPPC   C1A44063  19.068   4.071  20.917  0.2211 -0.1434  0.2284
36117DPPC   C2A44064  19.343   4.108  21.207  0.0253 -0.1294 -0.2431
36117DPPC   C3A44065  19.627   4.118  21.643  0.2627 -0.2484  0.1374
36117DPPC   C4A44066  19.944   4.134  21.994 -0.0190  0.0183  0.1244
36117DPPC   C1B44067  19.291   4.126  20.387 -0.0821 -0.0973  0.2762
36117DPPC   C2B44068  19.527   4.075  20.721  0.4099  0.2714  0.2014
36117DPPC   C3B44069  19.797   4.054  21.033  0.1889 -0.2715 -0.0364
36117DPPC   C4B44070  20.083   3.969  21.393 -0.2540  0.0611  0.0106
36118DPPC   NC344071  18.427   1.191  20.344  0.0438 -0.0691 -0.1224
36118DPPC   PO444072  18.171   0.920  20.511 -0.3106  0.1037 -0.1491
36118DPPC   GL144073  18.189   0.915  20.933 -0.2803  0.1084 -0.1035
36118DPPC   GL244074  18.077   1.153  20.938 -0.1699 -0.2382  0.1975
36118DPPC   C1A44075  18.427   0.896  21.216 -0.2287 -0.5326  0.3735
36118DPPC   C2A44076  18.694   0.787  21.514  0.4088  0.1894 -0.2620
36118DPPC   C3A44077  18.943   0.773  21.869 -0.1430  0.1079 -0.0427
36118DPPC   C4A44078  19.291   0.820  22.233  0.0341  0.1280  0.1206
36118DPPC   C1B44079  18.203   1.205  21.294 -0.1985  0.0962 -0.3810
36118DPPC   C2B44080  18.520   1.335  21.545 -0.3653 -0.0465  0.1055
36118DPPC   C3B44081  18.770   1.208  21.978  0.0160 -0.2359 -0.0607
36118DPPC   C4B44082  19.107   1.266  22.291 -0.4161  0.0032  0.1660
36119DPPC   NC344083  20.175   0.664  17.167  0.3618  0.2423  0.0436
36119DPPC   PO444084  20.306   0.540  17.547  0.0642 -0.0578  0.1384
36119DPPC   GL144085  20.617   0.534  17.805  0.2666  0.0677 -0.1265
36119DPPC   GL244086  20.786   0.452  17.568 -0.0484  0.0672  0.2599
36119DPPC   C1A44087  20.856   0.514  18.074 -0.0768 -0.1883 -0.3399
36119DPPC   C2A44088  21.025   0.464  18.440  0.1846 -0.0470  0.0010
36119DPPC   C3A44089  21.344   0.460  18.832 -0.3020  0.1263  0.0836
36119DPPC   C4A44090  21.677   0.434  19.202  0.2646 -0.0677  0.2433
36119DPPC   C1B44091  21.126   0.324  17.683  0.2320 -0.2757  0.1998
36119DPPC   C2B44092  21.381   0.362  17.981 -0.1475 -0.0029  0.1222
36119DPPC   C3B44093  21.753   0.357  18.356 -0.1919 -0.1587  0.0119
36119DPPC   C4B44094  21.985   0.338  18.819 -0.0376 -0.0985 -0.3670
36120DPPC   NC344095   0.164   6.432  17.036  0.0711  0.1182  0.0184
36120DPPC   PO444096  -0.133   6.673  17.183  0.0589 -0.2961  0.0328
36120DPPC   GL144097  -0.088   6.512  17.541  0.0021  0.2504 -0.1986
36120DPPC   GL244098   0.173   6.513  17.565  0.3250  0.0373  0.3687
36120DPPC   C1A44099  -0.149   6.246  17.760  0.2568 -0.2673  0.0517
36120DPPC   C2A44100   0.055   6.103  18.114 -0.3029  0.3852 -0.3106
36120DPPC   C3A44101   0.384   6.128  18.483 -0.0095  0.0968  0.1878
36120DPPC   C4A44102   0.725   6.164  18.810  0.1007 -0.2631 -0.0012
36120DPPC   C1B44103   0.291   6.460  17.871 -0.2117 -0.2009 -0.2370
36120DPPC   C2B44104   0.581   6.479  18.133  0.0977  0.3627 -0.1501
36120DPPC   C3B44105   0.793   6.537  18.515 -0.0254  0.0621  0.0865
36120DPPC   C4B44106   1.142   6.480  18.846 -0.1898  0.2001 -0.1310
36121DPPC   NC344107  19.578   6.601  18.598  0.2307  0.2149  0.3757
36121DPPC   PO444108  19.398   6.802  18.898  0.3051  0.0314 -0.2803
36121DPPC   GL144109  19.465   6.655  19.277  0.1193 -0.0367 -0.2903
36121DPPC   GL244110  19.364   6.852  19.510 -0.1673 -0.0840  0.0068
36121DPPC   C1A44111  19.787   6.586  19.445  0.0842 -0.1338 -0.1791
36121DPPC   C2A44112  20.140   6.826  19.584  0.0141  0.1088  0.0802
36121DPPC   C3A44113  20.507   6.852  19.917  0.3138 -0.0269 -0.1859
36121DPPC   C4A44114  20.890   6.828  20.234  0.0347  0.0880  0.1395
36121DPPC   C1B44115  19.478   6.648  19.789 -0.1796  0.2997 -0.0461
36121DPPC   C2B44116  19.677   6.512  20.171 -0.4829 -0.2114 -0.1434
36121DPPC   C3B44117  19.918   6.579  20.539  0.0746 -0.1861  0.1770
36121DPPC   C4B44118  20.217   6.650  20.818 -0.1650  0.0764  0.2103
36122DPPC   NC344119  20.540   5.258  17.542  0.1073 -0.0680  0.2512
36122DPPC   PO444120  20.854   5.014  17.571  0.0495 -0.1685 -0.0621
36122DPPC   GL144121  21.141   4.808  17.798  0.1090  0.0653  0.1440
36122DPPC   GL244122  20.910   4.678  17.900  0.3362  0.3903  0.0171
36122DPPC   C1A44123  21.228   4.865  18.138 -0.2447  0.3068 -0.1093
36122DPPC   C2A44124  21.505   4.786  18.406  0.1685 -0.0144 -0.1857
36122DPPC   C3A44125  21.767   4.815  18.825  0.2264 -0.3526 -0.0346
36122DPPC   C4A44126  22.034   4.721  19.223 -0.2454 -0.0905 -0.0986
36122DPPC   C1B44127  20.897   4.520  18.148 -0.3910 -0.3273 -0.4892
36122DPPC   C2B44128  21.129   4.438  18.495 -0.1144 -0.0716 -0.2414
36122DPPC   C3B44129  21.417   4.449  18.865 -0.0834  0.1128 -0.0222
36122DPPC   C4B44130  21.692   4.370  19.271 -0.1060 -0.0848 -0.1186
36123DPPC   NC344131  17.170   5.776  21.667  0.3911  0.0427 -0.0775
36123DPPC   PO444132  17.516   5.928  21.525  0.0378 -0.0722 -0.4407
36123DPPC   GL144133  17.909   5.772  21.553  0.0289  0.0528  0.2603
36123DPPC   GL244134  18.061   5.939  21.314  0.1187  0.4268  0.1806
36123DPPC   C1A44135  18.015   5.863  21.910  0.2291 -0.2752  0.1315
36123DPPC   C2A44136  18.170   5.840  22.329  0.1397 -0.0207  0.1223
36123DPPC   C3A44137  18.536   5.844  22.657  0.1772 -0.0279 -0.0326
36123DPPC   C4A44138  18.855   5.814  23.005 -0.1245  0.2250 -0.1027
36123DPPC   C1B44139  18.255   5.993  21.609 -0.1448  0.4494  0.1212
36123DPPC   C2B44140  18.463   5.709  21.848  0.2483  0.0485 -0.2109
36123DPPC   C3B44141  18.766   5.729  22.193 -0.4319 -0.3092 -0.1386
36123DPPC   C4B44142  19.090   5.711  22.539  0.0863 -0.0222 -0.2457
36124DPPC   NC344143  19.798   1.763  18.629  0.0114 -0.0036  0.0885
36124DPPC   PO444144  19.777   1.804  19.028 -0.0120 -0.0232 -0.3645
36124DPPC   GL144145  20.116   1.603  19.304 -0.1979  0.1179  0.0417
36124DPPC   GL244146  19.910   1.347  19.125 -0.1881 -0.0199 -0.1501
36124DPPC   C1A44147  20.162   1.408  19.635  0.1184 -0.2682 -0.0514
36124DPPC   C2A44148  20.457   1.450  19.889  0.0093  0.0616  0.2008
36124DPPC   C3A44149  20.786   1.478  20.199 -0.0151 -0.1218  0.1601
36124DPPC   C4A44150  21.070   1.531  20.576  0.0689  0.2070 -0.1438
36124DPPC   C1B44151  20.256   1.154  19.275  0.2997 -0.1107  0.1428
36124DPPC   C2B44152  20.422   1.010  19.650  0.0497 -0.0482 -0.2423
36124DPPC   C3B44153  20.757   1.044  19.938 -0.3108 -0.0517  0.0011
36124DPPC   C4B44154  21.111   1.083  20.294  0.1339  0.0748  0.1494
36125DPPC   NC344155  18.902   6.275  19.997  0.4096 -0.1672  0.0716
36125DPPC   PO444156  18.797   6.603  19.848  0.1613 -0.1279  0.0735
36125DPPC   GL144157  19.080   6.869  19.893  0.1003 -0.2905 -0.0717
36125DPPC   GL244158  19.095   6.661  20.193 -0.0260  0.0484  0.2796
36125DPPC   C1A44159  19.390   6.979  20.063  0.0387  0.1973 -0.0935
36125DPPC   C2A44160  19.623   7.054  20.398  0.1637  0.2253 -0.1083
36125DPPC   C3A44161  19.948   7.034  20.781  0.0263  0.2146  0.0059
36125DPPC   C4A44162  20.269   7.032  21.136 -0.0962  0.1713  0.0641
36125DPPC   C1B44163  19.281   6.715  20.492  0.0157  0.1092 -0.3031
36125DPPC   C2B44164  19.507   6.691  20.779 -0.3640 -0.1499 -0.0411
36125DPPC   C3B44165  19.829   6.688  21.146 -0.0451  0.1425 -0.1202
36125DPPC   C4B44166  20.108   6.686  21.551  0.2261  0.0028  0.0173
36126DPPC   NC344167  19.766   4.122  18.745 -0.0862 -0.0228 -0.1505
36126DPPC   PO444168  19.904   4.488  18.610 -0.1463 -0.0717  0.0004
36126DPPC   GL144169  20.179   4.403  18.940 -0.2390 -0.2517  0.3171
36126DPPC   GL244170  20.249   4.138  18.979  0.3164  0.1837 -0.1894
36126DPPC   C1A44171  20.490   4.592  19.142  0.1361 -0.0315  0.2476
36126DPPC   C2A44172  20.725   4.599  19.466 -0.1777  0.0520  0.0848
36126DPPC   C3A44173  20.983   4.590  19.888 -0.2596 -0.2927 -0.0098
36126DPPC   C4A44174  21.192   4.588  20.289 -0.1784 -0.1094 -0.3473
36126DPPC   C1B44175  20.627   4.146  19.078  0.0127  0.0842 -0.0649
36126DPPC   C2B44176  20.855   4.079  19.420  0.2717  0.0763  0.0505
36126DPPC   C3B44177  21.085   4.062  19.822  0.1721  0.0976 -0.0715
36126DPPC   C4B44178  21.375   4.149  20.168 -0.1464  0.2037  0.1134
36127DPPC   NC344179  19.107   6.428  18.953  0.0382 -0.0534  0.1346
36127DPPC   PO444180  19.392   6.255  19.149  0.2499  0.2993 -0.0057
36127DPPC   GL144181  19.558   6.140  19.430  0.1715  0.2267 -0.0860
36127DPPC   GL244182  19.849   6.101  19.338 -0.0798  0.1144 -0.0310
36127DPPC   C1A44183  19.685   6.089  19.781  0.4677 -0.0935 -0.1630
36127DPPC   C2A44184  19.895   6.061  20.118  0.0178 -0.0821  0.0584
36127DPPC   C3A44185  20.147   6.131  20.492  0.1938 -0.0600  0.1384
36127DPPC   C4A44186  20.480   6.157  20.872  0.0984  0.2060 -0.1046
36127DPPC   C1B44187  19.991   6.272  19.637  0.1756 -0.0412 -0.0286
36127DPPC   C2B44188  20.139   6.434  20.015 -0.5800  0.5155 -0.2471
36127DPPC   C3B44189  20.483   6.468  20.424  0.0840 -0.1321  0.1077
36127DPPC   C4B44190  20.799   6.516  20.699 -0.4980  0.2829 -0.0539
36128DPPC   NC344191  17.978   3.021  20.478  0.1798 -0.0623  0.0599
36128DPPC   PO444192  18.352   3.071  20.356 -0.1080  0.2841 -0.2127
36128DPPC   GL144193  18.611   3.166  20.660  0.0467 -0.4657 -0.2023
36128DPPC   GL244194  18.578   3.469  20.627 -0.2837 -0.0357  0.2530
36128DPPC   C1A44195  18.746   3.113  21.028  0.0804  0.2910  0.1106
36128DPPC   C2A44196  19.055   3.283  21.230  0.0522  0.1319 -0.3983
36128DPPC   C3A44197  19.441   3.267  21.595  0.3855 -0.1629  0.2556
36128DPPC   C4A44198  19.758   3.240  21.948  0.1898  0.0183 -0.3915
36128DPPC   C1B44199  18.681   3.590  20.922 -0.0817  0.1631 -0.1566
36128DPPC   C2B44200  18.865   3.821  21.266 -0.2076  0.2274  0.0680
36128DPPC   C3B44201  19.255   3.795  21.613 -0.1002  0.1967 -0.0899
36128DPPC   C4B44202  19.535   3.802  21.997 -0.3287 -0.1410  0.4363
36129DPPC   NC344203  20.366   3.560  17.640 -0.3617  0.1229 -0.2567
36129DPPC   PO444204  20.397   3.292  17.936  0.0689  0.3438 -0.0376
36129DPPC   GL144205  20.758   3.202  18.029 -0.1440 -0.1544 -0.0523
36129DPPC   GL244206  20.747   2.898  17.953  0.0703  0.3658 -0.0668
36129DPPC   C1A44207  20.853   3.129  18.350 -0.0033 -0.0718 -0.1298
36129DPPC   C2A44208  21.178   3.120  18.622 -0.0698  0.3907 -0.0513
36129DPPC   C3A44209  21.436   3.125  19.025 -0.0679  0.1831 -0.0113
36129DPPC   C4A44210  21.849   3.075  19.314 -0.0174  0.3119 -0.0569
36129DPPC   C1B44211  21.068   2.805  17.935 -0.0537  0.0955  0.1341
36129DPPC   C2B44212  21.364   2.978  18.166 -0.1533  0.2627 -0.3548
36129DPPC   C3B44213  21.743   3.029  18.526 -0.0591 -0.0880  0.3105
36129DPPC   C4B44214  22.090   2.962  18.876 -0.0320 -0.2904 -0.0272
36130DPPC   NC344215  17.558   4.321  21.896 -0.0504  0.0896  0.2149
36130DPPC   PO444216  17.260   4.050  21.930  0.0368  0.2039  0.1575
36130DPPC   GL144217  17.551   3.894  22.246 -0.2583  0.3031  0.0235
36130DPPC   GL244218  17.619   3.565  22.107 -0.0594  0.3920 -0.0893
36130DPPC   C1A44219  17.828   4.119  22.329 -0.1146  0.1190  0.0171
36130DPPC   C2A44220  18.126   4.101  22.594  0.0480 -0.3571  0.3605
36130DPPC   C3A44221  18.404   4.115  22.985  0.0791 -0.1758 -0.2086
36130DPPC   C4A44222  18.631   4.044  23.346 -0.1345 -0.2309  0.0666
36130DPPC   C1B44223  17.968   3.627  22.247  0.1897 -0.0472 -0.1626
36130DPPC   C2B44224  18.275   3.645  22.493 -0.2322 -0.1513  0.0296
36130DPPC   C3B44225  18.568   3.638  22.822  0.3856 -0.3143 -0.1389
36130DPPC   C4B44226  18.787   3.577  23.180  0.0928  0.1168 -0.0192
36131DPPC   NC344227  16.739   4.915  22.019 -0.1830  0.3333  0.3110
36131DPPC   PO444228  17.099   5.051  22.209  0.1380  0.1003  0.0669
36131DPPC   GL144229  17.508   4.889  22.299 -0.1979  0.0686 -0.0806
36131DPPC   GL244230  17.537   5.132  22.515 -0.1042  0.0147  0.4023
36131DPPC   C1A44231  17.812   4.707  22.454  0.0652  0.1896 -0.0860
36131DPPC   C2A44232  18.017   4.597  22.804  0.0673 -0.0920  0.2743
36131DPPC   C3A44233  18.353   4.583  23.131  0.2903 -0.3513  0.0586
36131DPPC   C4A44234  18.632   4.583  23.555  0.0411 -0.2174 -0.3896
36131DPPC   C1B44235  17.802   5.074  22.734 -0.1227 -0.1345  0.0123
36131DPPC   C2B44236  18.093   5.058  23.064 -0.1394 -0.1123 -0.1994
36131DPPC   C3B44237  18.372   5.060  23.432  0.1681 -0.0141  0.4203
36131DPPC   C4B44238  18.621   4.990  23.843 -0.1800  0.0836  0.0222
36132DPPC   NC344239  16.882   5.371  21.814 -0.1865  0.0343  0.1507
36132DPPC   PO444240  16.658   5.423  22.171 -0.1601  0.0960 -0.1290
36132DPPC   GL144241  16.893   5.479  22.491  0.1275 -0.4321  0.0778
36132DPPC   GL244242  17.058   5.311  22.547 -0.2436 -0.2219  0.0992
36132DPPC   C1A44243  17.020   5.717  22.730  0.0875 -0.1691 -0.0492
36132DPPC   C2A44244  17.275   5.719  23.083  0.1026 -0.1172 -0.1259
36132DPPC   C3A44245  17.518   5.665  23.452 -0.2346 -0.0364 -0.2390
36132DPPC   C4A44246  17.905   5.652  23.810 -0.0278  0.0179  0.3821
36132DPPC   C1B44247  17.262   5.250  22.846  0.3340  0.1495  0.1895
36132DPPC   C2B44248  17.527   5.193  23.165 -0.2819 -0.0010  0.2929
36132DPPC   C3B44249  17.822   5.168  23.540 -0.3292  0.0877  0.0888
36132DPPC   C4B44250  18.159   5.157  23.905  0.2742  0.0765  0.0572
36133DPPC   NC344251  17.264   1.672  21.045 -0.0134  0.3249  0.2204
36133DPPC   PO444252  17.661   1.807  21.101 -0.1909  0.2479 -0.0170
36133DPPC   GL144253  17.877   1.714  21.448  0.0511  0.0305  0.1088
36133DPPC   GL244254  17.975   1.999  21.327  0.0435 -0.1881 -0.2632
36133DPPC   C1A44255  18.057   1.469  21.670  0.0173  0.1178  0.0310
36133DPPC   C2A44256  18.289   1.353  21.995  0.0810 -0.2867  0.1195
36133DPPC   C3A44257  18.561   1.324  22.402  0.1618  0.0522 -0.0052
36133DPPC   C4A44258  18.937   1.365  22.788  0.2125  0.1365  0.1478
36133DPPC   C1B44259  18.243   1.880  21.569  0.0715  0.0801 -0.2073
36133DPPC   C2B44260  18.574   1.736  21.815  0.1189 -0.0816  0.2761
36133DPPC   C3B44261  18.863   1.689  22.194  0.0739 -0.0082 -0.0401
36133DPPC   C4B44262  19.157   1.786  22.631  0.2681  0.0748 -0.0819
36134DPPC   NC344263  17.895   0.033  20.690  0.4362  0.2016  0.2384
36134DPPC   PO444264  18.012  -0.231  20.988 -0.0814 -0.3064 -0.1529
36134DPPC   GL144265  18.308  -0.384  21.012 -0.1785 -0.2171 -0.0124
36134DPPC   GL244266  18.375  -0.465  20.734 -0.0603 -0.2603 -0.0757
36134DPPC   C1A44267  18.536  -0.517  21.262  0.1394  0.3798 -0.2205
36134DPPC   C2A44268  18.776  -0.541  21.624  0.0817 -0.2461  0.3155
36134DPPC   C3A44269  19.089  -0.515  21.956 -0.3642  0.0326 -0.0090
36134DPPC   C4A44270  19.368  -0.518  22.365 -0.0379  0.3139 -0.0307
36134DPPC   C1B44271  18.699  -0.599  20.839 -0.1164 -0.1295  0.0465
36134DPPC   C2B44272  18.988  -0.597  21.102 -0.1158  0.0401 -0.0238
36134DPPC   C3B44273  19.301  -0.601  21.516 -0.0497  0.2502 -0.4459
36134DPPC   C4B44274  19.694  -0.736  21.855 -0.0671 -0.1601  0.0328
36135DPPC   NC344275  17.274   0.719  21.936 -0.0189 -0.1667 -0.0198
36135DPPC   PO444276  17.299   0.395  21.808  0.1085  0.0240  0.1975
36135DPPC   GL144277  17.632   0.162  21.994 -0.0852 -0.2573 -0.2894
36135DPPC   GL244278  17.789   0.115  21.838  0.2894  0.0715  0.1746
36135DPPC   C1A44279  17.793   0.206  22.279 -0.2197  0.3457 -0.2663
36135DPPC   C2A44280  18.042   0.192  22.576 -0.1479 -0.0118 -0.0404
36135DPPC   C3A44281  18.420   0.181  22.874 -0.1384  0.0519  0.1343
36135DPPC   C4A44282  18.760   0.129  23.321  0.3573 -0.3478 -0.1641
36135DPPC   C1B44283  18.154   0.115  21.864 -0.3794  0.1502 -0.3735
36135DPPC   C2B44284  18.377   0.048  22.209  0.0446  0.0555  0.3975
36135DPPC   C3B44285  18.710   0.046  22.529  0.0915  0.1084  0.0009
36135DPPC   C4B44286  19.012   0.053  22.897  0.2708 -0.0586 -0.0629
36136DPPC   NC344287  20.263   0.042  18.281 -0.2139 -0.2440 -0.0324
36136DPPC   PO444288  19.993   0.269  18.449  0.0106 -0.2008 -0.1836
36136DPPC   GL144289  20.390   0.313  18.657  0.1287  0.2473 -0.0974
36136DPPC   GL244290  20.367   0.086  18.718  0.1240  0.1018 -0.0536
36136DPPC   C1A44291  20.609   0.476  18.845  0.0668  0.0535 -0.0780
36136DPPC   C2A44292  20.922   0.547  19.079 -0.0705  0.3520 -0.0538
36136DPPC   C3A44293  21.235   0.548  19.500 -0.0596 -0.0834  0.0449
36136DPPC   C4A44294  21.542   0.451  19.865  0.3747  0.0602 -0.0681
36136DPPC   C1B44295  20.611  -0.097  18.897 -0.1999 -0.5360 -0.1831
36136DPPC   C2B44296  20.875  -0.187  19.202  0.1119 -0.2081 -0.0245
36136DPPC   C3B44297  21.105  -0.304  19.584 -0.0960  0.0293 -0.2162
36136DPPC   C4B44298  21.480  -0.342  19.893  0.0852 -0.2822 -0.0546
36137DPPC   NC344299  17.511   2.080  21.490 -0.0360  0.0626 -0.0741
36137DPPC   PO444300  17.323   1.707  21.527 -0.2181 -0.0203  0.0189
36137DPPC   GL144301  17.509   1.534  21.857  0.1332 -0.1980 -0.0625
36137DPPC   GL244302  17.737   1.850  21.894  0.0225 -0.2007 -0.0442
36137DPPC   C1A44303  17.575   1.358  22.182 -0.1076  0.0362 -0.4960
36137DPPC   C2A44304  17.936   1.393  22.418 -0.0666 -0.0997 -0.0270
36137DPPC   C3A44305  18.253   1.403  22.828 -0.1608  0.1614 -0.2051
36137DPPC   C4A44306  18.617   1.388  23.150 -0.2908 -0.2061 -0.0375
36137DPPC   C1B44307  18.050   1.755  22.052 -0.0535 -0.1033  0.1958
36137DPPC   C2B44308  18.389   1.799  22.324  0.1430 -0.1972  0.1706
36137DPPC   C3B44309  18.686   1.811  22.685 -0.0154 -0.1289 -0.2121
36137DPPC   C4B44310  18.904   1.820  23.144 -0.1424 -0.3354 -0.0614
36138DPPC   NC344311  20.620   0.029  17.426  0.0487  0.1334 -0.0283
36138DPPC   PO444312  20.331   0.044  17.722 -0.3118 -0.2066  0.0097
36138DPPC   GL144313  20.645   0.105  18.038  0.2312 -0.1552  0.0718
36138DPPC   GL244314  20.869   0.051  17.866 -0.1697 -0.0935 -0.3187
36138DPPC   C1A44315  20.734   0.108  18.388  0.0646 -0.0040 -0.0559
36138DPPC   C2A44316  20.961   0.103  18.753 -0.1159  0.2027 -0.1561
36138DPPC   C3A44317  21.232   0.135  19.177 -0.1149  0.2854 -0.1893
36138DPPC   C4A44318  21.569   0.023  19.517  0.3848 -0.2670 -0.1028
36138DPPC   C1B44319  21.073  -0.038  18.095 -0.0266  0.2882 -0.1870
36138DPPC   C2B44320  21.341   0.039  18.448 -0.0986  0.0746  0.0175
36138DPPC   C3B44321  21.654  -0.040  18.854 -0.0015  0.3461 -0.2491
36138DPPC   C4B44322  21.988  -0.042  19.220  0.1575  0.2773 -0.3366
36139DPPC   NC344323  16.935   1.662  21.823  0.0538  0.2464  0.3279
36139DPPC   PO444324  16.771   1.797  22.142 -0.2319 -0.0771  0.0557
36139DPPC   GL144325  17.090   1.794  22.501 -0.2921  0.4037  0.0694
36139DPPC   GL244326  17.150   2.072  22.446  0.1089  0.0092 -0.4291
36139DPPC   C1A44327  17.363   1.543  22.647 -0.0490 -0.2577  0.1158
36139DPPC   C2A44328  17.718   1.519  22.830  0.0728 -0.0475 -0.0870
36139DPPC   C3A44329  17.997   1.506  23.195  0.1104 -0.0996 -0.3175
36139DPPC   C4A44330  18.283   1.594  23.546 -0.2267  0.1256  0.4253
36139DPPC   C1B44331  17.443   1.990  22.685  0.0121 -0.0259 -0.1373
36139DPPC   C2B44332  17.630   1.995  23.054 -0.2066 -0.0263  0.1246
36139DPPC   C3B44333  17.987   2.011  23.393  0.2126 -0.2169  0.0269
36139DPPC   C4B44334  18.279   2.020  23.795  0.2423  0.0126  0.0132
36140DPPC   NC344335  19.603   3.326  18.537  0.0697 -0.0685 -0.1244
36140DPPC   PO444336  19.650   3.610  18.793 -0.2761 -0.1268  0.1382
36140DPPC   GL144337  19.753   3.785  19.161  0.0254  0.2392  0.2322
36140DPPC   GL244338  19.829   3.480  19.248 -0.2000  0.4834 -0.3445
36140DPPC   C1A44339  20.065   3.940  19.314  0.1798  0.3477  0.3296
36140DPPC   C2A44340  20.375   3.811  19.510  0.1415 -0.1376  0.1241
36140DPPC   C3A44341  20.685   3.747  19.845  0.1391  0.2493  0.0065
36140DPPC   C4A44342  20.989   3.706  20.187 -0.1988 -0.2042 -0.0780
36140DPPC   C1B44343  20.014   3.446  19.590 -0.1213  0.1124 -0.2376
36140DPPC   C2B44344  20.282   3.404  19.939  0.1055  0.3013 -0.0200
36140DPPC   C3B44345  20.593   3.332  20.291  0.3527  0.1520  0.0779
36140DPPC   C4B44346  20.927   3.363  20.661  0.1126 -0.2051 -0.2035
36141DPPC   NC344347  20.844   3.536  17.435 -0.1936 -0.1419 -0.0240
36141DPPC   PO444348  20.737   3.956  17.458  0.0242  0.3568  0.0685
36141DPPC   GL144349  21.151   4.031  17.645 -0.0769 -0.1098 -0.2816
36141DPPC   GL244350  20.925   4.175  17.783 -0.1434  0.3675 -0.1391
36141DPPC   C1A44351  21.311   3.768  17.856  0.2052 -0.1446 -0.0897
36141DPPC   C2A44352  21.628   3.838  18.116  0.0259  0.1775 -0.1391
36141DPPC   C3A44353  21.958   3.864  18.460 -0.0246 -0.0469 -0.2291
36141DPPC   C4A44354  22.189   3.772  18.877  0.1725  0.1208  0.0085
36141DPPC   C1B44355  21.164   4.106  18.104  0.2164 -0.1551 -0.2092
36141DPPC   C2B44356  21.328   4.018  18.482  0.1071 -0.3566  0.0644
36141DPPC   C3B44357  21.610   3.953  18.910  0.2190  0.1861  0.1346
36141DPPC   C4B44358  21.858   3.857  19.279 -0.1429 -0.1277  0.0243
36142DPPC   NC344359  18.086   1.624  21.011  0.0220 -0.1526 -0.0323
36142DPPC   PO444360  18.333   1.506  20.687 -0.0434 -0.2722 -0.0105
36142DPPC   GL144361  18.519   1.262  20.965  0.2371 -0.4106 -0.1577
36142DPPC   GL244362  18.751   1.164  20.760 -0.1819 -0.0446  0.0698
36142DPPC   C1A44363  18.806   1.216  21.183 -0.3198  0.0751 -0.0368
36142DPPC   C2A44364  19.023   1.182  21.503  0.0085 -0.2296 -0.0727
36142DPPC   C3A44365  19.342   1.154  21.853 -0.0672 -0.1163  0.1305
36142DPPC   C4A44366  19.694   1.165  22.217 -0.0622  0.1267 -0.0402
36142DPPC   C1B44367  19.130   1.078  20.902 -0.1654  0.0597  0.1140
36142DPPC   C2B44368  19.456   1.020  21.145 -0.0793  0.0875 -0.1033
36142DPPC   C3B44369  19.678   1.062  21.534 -0.0660 -0.1362  0.0630
36142DPPC   C4B44370  20.035   1.062  21.881  0.3357  0.2216 -0.0319
36143DPPC   NC344371  19.459   1.913  19.642  0.0171  0.1449 -0.2181
36143DPPC   PO444372  19.134   1.756  19.769  0.1902  0.1168  0.1605
36143DPPC   GL144373  19.269   1.715  20.104 -0.2047  0.1972  0.1883
36143DPPC   GL244374  19.387   1.974  20.159  0.4194  0.0757  0.2525
36143DPPC   C1A44375  19.489   1.442  20.215 -0.1652  0.0574 -0.1519
36143DPPC   C2A44376  19.855   1.341  20.393 -0.1929 -0.0729 -0.3523
36143DPPC   C3A44377  20.194   1.319  20.714 -0.0442  0.1854  0.0076
36143DPPC   C4A44378  20.500   1.239  21.160 -0.1460  0.1625  0.1191
36143DPPC   C1B44379  19.627   1.914  20.407 -0.1801  0.2904  0.3256
36143DPPC   C2B44380  19.911   1.752  20.696 -0.0831 -0.2364  0.0254
36143DPPC   C3B44381  20.216   1.722  21.056 -0.3009 -0.0013  0.1328
36143DPPC   C4B44382  20.492   1.762  21.430  0.2622 -0.1009  0.0379
36144DPPC   NC344383  18.390   2.797  20.806 -0.0765  0.3808  0.3484
36144DPPC   PO444384  18.490   2.593  20.493 -0.2706 -0.3191 -0.1116
36144DPPC   GL144385  18.811   2.510  20.660  0.3901 -0.1134  0.0590
36144DPPC   GL244386  18.692   2.371  20.859 -0.0727 -0.1535  0.1515
36144DPPC   C1A44387  19.049   2.762  20.877 -0.0604 -0.1525  0.1442
36144DPPC   C2A44388  19.300   2.876  21.202  0.1041  0.0725  0.1021
36144DPPC   C3A44389  19.665   2.847  21.515  0.0868 -0.2248  0.0247
36144DPPC   C4A44390  20.042   2.838  21.888  0.1647  0.0653 -0.3769
36144DPPC   C1B44391  18.873   2.048  20.922  0.3123  0.0111  0.1589
36144DPPC   C2B44392  19.158   1.986  21.219  0.1256  0.0870 -0.1627
36144DPPC   C3B44393  19.483   2.047  21.607  0.0839 -0.2340  0.0454
36144DPPC   C4B44394  19.865   2.055  21.947 -0.0324  0.2918  0.0851
36145DPPC   NC344395  16.875   2.284  22.033 -0.2710 -0.1804  0.2334
36145DPPC   PO444396  16.991   2.207  21.658  0.1781  0.0881 -0.1015
36145DPPC   GL144397  17.279   2.037  21.865 -0.3474 -0.0843 -0.4101
36145DPPC   GL244398  17.526   2.202  21.906 -0.0397 -0.1459 -0.2694
36145DPPC   C1A44399  17.362   1.853  22.123 -0.2287  0.0355 -0.0455
36145DPPC   C2A44400  17.701   1.845  22.368  0.1061 -0.0644 -0.5223
36145DPPC   C3A44401  18.065   1.843  22.746 -0.0244  0.0306  0.0284
36145DPPC   C4A44402  18.408   1.871  23.109  0.1638 -0.0299  0.0777
36145DPPC   C1B44403  17.788   2.229  22.093 -0.0166 -0.1012  0.0508
36145DPPC   C2B44404  18.074   2.232  22.348 -0.1118 -0.2061  0.0343
36145DPPC   C3B44405  18.446   2.288  22.613  0.1596  0.1296 -0.1560
36145DPPC   C4B44406  18.795   2.308  22.981  0.3188 -0.1395 -0.1361
36146DPPC   NC344407  18.806   0.561  19.658  0.0835  0.0601 -0.0408
36146DPPC   PO444408  19.063   0.835  19.651  0.1536  0.0282 -0.1165
36146DPPC   GL144409  19.339   0.847  19.982  0.2774  0.2592  0.0081
36146DPPC   GL244410  19.123   0.692  20.159  0.1509 -0.0653  0.2702
36146DPPC   C1A44411  19.653   0.956  20.118  0.0656 -0.3215  0.1665
36146DPPC   C2A44412  19.985   0.848  20.338  0.0946 -0.0409  0.0247
36146DPPC   C3A44413  20.265   0.797  20.713  0.0130  0.0539 -0.0586
36146DPPC   C4A44414  20.641   0.760  21.064  0.2288 -0.1408 -0.2829
36146DPPC   C1B44415  19.170   0.517  20.465 -0.2843  0.0785 -0.0981
36146DPPC   C2B44416  19.388   0.580  20.832 -0.0718  0.0391  0.2665
36146DPPC   C3B44417  19.707   0.534  21.238  0.0983  0.0841 -0.0595
36146DPPC   C4B44418  20.060   0.605  21.536 -0.2258  0.0619 -0.2719
36147DPPC   NC344419   3.221   0.624  15.654  0.2488  0.0338 -0.2215
36147DPPC   PO444420   3.188   0.399  15.988  0.0870 -0.4132  0.2114
36147DPPC   GL144421   3.378   0.306  16.389  0.2216 -0.2118  0.0775
36147DPPC   GL244422   3.462   0.633  16.340 -0.0509  0.1150  0.3001
36147DPPC   C1A44423   3.126   0.150  16.550 -0.2010 -0.1938 -0.5359
36147DPPC   C2A44424   2.818   0.090  16.851  0.1857 -0.2342  0.2377
36147DPPC   C3A44425   2.521  -0.213  17.076 -0.4456  0.1053 -0.2512
36147DPPC   C4A44426   2.110  -0.305  17.336  0.1134  0.0875  0.1222
36147DPPC   C1B44427   3.228   0.884  16.429  0.0519 -0.0477 -0.4277
36147DPPC   C2B44428   3.065   1.208  16.667 -0.0124  0.1933  0.1597
36147DPPC   C3B44429   2.708   1.445  16.535 -0.0894  0.2697  0.1673
36147DPPC   C4B44430   2.296   1.263  16.348  0.0498  0.0239 -0.2295
36148DPPC   NC344431  19.653   0.949  18.993  0.1802 -0.1553 -0.0294
36148DPPC   PO444432  19.909   1.100  18.734  0.1441 -0.0735  0.0756
36148DPPC   GL144433  20.118   1.471  18.783 -0.1990 -0.1759 -0.0312
36148DPPC   GL244434  20.294   1.324  18.638  0.1776  0.1329 -0.0731
36148DPPC   C1A44435  20.436   1.542  18.973 -0.0914  0.0492 -0.1988
36148DPPC   C2A44436  20.667   1.484  19.291  0.0659  0.1161 -0.2426
36148DPPC   C3A44437  20.935   1.473  19.620  0.1976 -0.0909 -0.2626
36148DPPC   C4A44438  21.269   1.435  19.984 -0.1783  0.0466 -0.0311
36148DPPC   C1B44439  20.479   1.091  18.824 -0.3446  0.2462  0.0054
36148DPPC   C2B44440  20.731   1.010  19.132 -0.1941 -0.0676 -0.0934
36148DPPC   C3B44441  21.005   1.006  19.508 -0.0813 -0.0946  0.1063
36148DPPC   C4B44442  21.349   0.932  19.864  0.0722  0.2032  0.0246
36149DPPC   NC344443  16.162   2.614  23.056 -0.1310 -0.1535 -0.0032
36149DPPC   PO444444  16.407   2.295  22.919 -0.2342 -0.0728 -0.3276
36149DPPC   GL144445  16.702   2.136  23.132  0.0126 -0.1319  0.0238
36149DPPC   GL244446  16.729   1.874  23.154 -0.1768  0.0183  0.2565
36149DPPC   C1A44447  16.944   2.393  23.238 -0.1121  0.2724  0.1564
36149DPPC   C2A44448  17.217   2.596  23.458  0.2062  0.3014 -0.0238
36149DPPC   C3A44449  17.519   2.596  23.809 -0.2829 -0.2247  0.1276
36149DPPC   C4A44450  17.776   2.561  24.168  0.0376  0.0816 -0.0489
36149DPPC   C1B44451  16.963   1.691  23.397  0.1808 -0.0762  0.2369
36149DPPC   C2B44452  17.236   1.721  23.724 -0.1761 -0.0743  0.0872
36149DPPC   C3B44453  17.521   1.706  24.083 -0.0849  0.0253  0.0728
36149DPPC   C4B44454  17.804   1.685  24.518 -0.0627 -0.1428  0.2005
36150DPPC   NC344455  20.221   5.730  17.183  0.3265 -0.2945 -0.1267
36150DPPC   PO444456  20.608   5.732  17.346  0.0277  0.2016 -0.3523
36150DPPC   GL144457  20.762   5.699  17.786  0.2692  0.0921  0.1555
36150DPPC   GL244458  21.015   5.591  17.699  0.1875 -0.2910  0.1553
36150DPPC   C1A44459  20.896   5.828  18.124 -0.0025 -0.0191  0.2319
36150DPPC   C2A44460  21.055   5.807  18.503  0.1575  0.1447  0.0739
36150DPPC   C3A44461  21.417   5.798  18.873  0.1875 -0.0657  0.0932
36150DPPC   C4A44462  21.784   5.782  19.249  0.0404 -0.3461 -0.2523
36150DPPC   C1B44463  21.261   5.665  17.903 -0.2894  0.0091  0.0030
36150DPPC   C2B44464  21.500   5.626  18.263  0.0145  0.0034 -0.0718
36150DPPC   C3B44465  21.862   5.702  18.558 -0.2867 -0.1413 -0.1689
36150DPPC   C4B44466  22.151   5.639  18.972  0.0375 -0.0202 -0.1035
36151DPPC   NC344467  20.335   2.938  18.229 -0.0558 -0.1094 -0.0505
36151DPPC   PO444468  20.144   2.576  18.349  0.0521  0.0383  0.2290
36151DPPC   GL144469  20.240   2.773  18.742 -0.0790 -0.0255 -0.2372
36151DPPC   GL244470  20.206   2.625  18.889 -0.0658  0.5047 -0.2485
36151DPPC   C1A44471  20.489   2.995  18.831  0.1897 -0.2132 -0.2407
36151DPPC   C2A44472  20.752   3.231  19.036 -0.0481  0.2525 -0.2018
36151DPPC   C3A44473  21.093   3.166  19.358 -0.1339  0.2274 -0.1226
36151DPPC   C4A44474  21.483   3.150  19.677  0.0414  0.2675  0.2064
36151DPPC   C1B44475  20.506   2.636  19.094  0.6289  0.2783  0.3511
36151DPPC   C2B44476  20.732   2.833  19.388  0.1717 -0.0771 -0.1835
36151DPPC   C3B44477  21.071   2.784  19.792 -0.0826 -0.1307 -0.3688
36151DPPC   C4B44478  21.361   2.748  20.186  0.0723  0.2137 -0.2825
36152DPPC   NC344479  16.175   1.922  22.535 -0.1341  0.1165  0.2650
36152DPPC   PO444480  16.367   1.518  22.501 -0.0003 -0.1491 -0.1961
36152DPPC   GL144481  16.768   1.362  22.576  0.2473  0.0830  0.0901
36152DPPC   GL244482  16.725   1.570  22.856  0.1730  0.2117  0.3954
36152DPPC   C1A44483  17.040   1.192  22.706 -0.2562 -0.1578  0.0703
36152DPPC   C2A44484  17.358   1.178  22.945 -0.0624  0.2713 -0.1092
36152DPPC   C3A44485  17.661   1.145  23.313 -0.2831 -0.1195  0.0351
36152DPPC   C4A44486  17.921   1.100  23.685  0.8734 -0.0949  0.1998
36152DPPC   C1B44487  17.099   1.567  22.969 -0.0432 -0.0353 -0.3655
36152DPPC   C2B44488  17.404   1.605  23.295 -0.2989 -0.1757 -0.2010
36152DPPC   C3B44489  17.764   1.658  23.644 -0.0941 -0.0156  0.0389
36152DPPC   C4B44490  18.098   1.593  24.021 -0.0450 -0.3915 -0.0879
36153DPPC   NC344491  16.669   1.948  22.628 -0.2118 -0.2262  0.0528
36153DPPC   PO444492  16.807   2.338  22.581 -0.1404 -0.1689  0.1743
36153DPPC   GL144493  17.160   2.309  22.848 -0.1547  0.0083 -0.3906
36153DPPC   GL244494  17.078   1.975  22.884 -0.1925 -0.2451  0.1526
36153DPPC   C1A44495  17.397   2.462  23.068 -0.2803  0.1478  0.1262
36153DPPC   C2A44496  17.715   2.493  23.320 -0.1012  0.1977  0.0332
36153DPPC   C3A44497  18.019   2.527  23.624  0.0688 -0.0503  0.3148
36153DPPC   C4A44498  18.329   2.446  24.023 -0.0761  0.3073  0.1312
36153DPPC   C1B44499  17.185   2.027  23.258  0.0933  0.0987  0.1859
36153DPPC   C2B44500  17.468   2.146  23.603 -0.3724  0.0150  0.0019
36153DPPC   C3B44501  17.812   2.094  23.904  0.0270 -0.4041  0.1893
36153DPPC   C4B44502  18.107   2.099  24.318  0.1964 -0.1213 -0.2360
36154DPPC   NC344503  19.013   3.237  19.345  0.1508 -0.0126 -0.0009
36154DPPC   PO444504  19.404   3.302  19.452 -0.1396  0.0595  0.0185
36154DPPC   GL144505  19.716   3.073  19.583  0.5232  0.0047 -0.2628
36154DPPC   GL244506  19.514   2.827  19.643  0.3560 -0.4102 -0.3454
36154DPPC   C1A44507  20.045   2.977  19.636  0.2184  0.0762 -0.0435
36154DPPC   C2A44508  20.357   2.911  19.805 -0.2551  0.0497 -0.0734
36154DPPC   C3A44509  20.714   2.853  20.175  0.2308 -0.1542 -0.2005
36154DPPC   C4A44510  21.022   2.813  20.587 -0.1007  0.2662 -0.1160
36154DPPC   C1B44511  19.634   2.762  19.971 -0.1918 -0.0298  0.5257
36154DPPC   C2B44512  19.851   2.649  20.311 -0.2889 -0.1187 -0.2734
36154DPPC   C3B44513  20.150   2.650  20.682  0.1382  0.1328 -0.0114
36154DPPC   C4B44514  20.448   2.595  21.038 -0.2329 -0.2698 -0.0795
36155DPPC   NC344515  17.494   5.721  22.007 -0.1830  0.0091 -0.2438
36155DPPC   PO444516  17.173   5.532  22.167 -0.0637 -0.1943 -0.0332
36155DPPC   GL144517  17.448   5.632  22.543 -0.2092 -0.0971  0.0755
36155DPPC   GL244518  17.299   5.898  22.481 -0.1985  0.2822 -0.0700
36155DPPC   C1A44519  17.664   5.667  22.849 -0.4149 -0.0271 -0.1582
36155DPPC   C2A44520  17.904   5.529  23.172 -0.1879 -0.1561  0.3602
36155DPPC   C3A44521  18.234   5.565  23.481 -0.1269 -0.0046 -0.0576
36155DPPC   C4A44522  18.536   5.480  23.865 -0.2251  0.2492 -0.1388
36155DPPC   C1B44523  17.427   6.027  22.792 -0.0506 -0.1830 -0.2522
36155DPPC   C2B44524  17.646   6.047  23.113 -0.2049  0.0763  0.0656
36155DPPC   C3B44525  17.939   5.967  23.407  0.2601 -0.0846  0.1839
36155DPPC   C4B44526  18.302   5.971  23.777 -0.4502  0.0750  0.3549
36156DPPC   NC344527  17.722   3.502  21.253 -0.0637  0.2261  0.1255
36156DPPC   PO444528  17.945   3.200  21.363 -0.1687 -0.0265 -0.4128
36156DPPC   GL144529  18.226   3.133  21.640  0.1264 -0.1361 -0.0105
36156DPPC   GL244530  18.264   2.892  21.718 -0.3415  0.0645 -0.1123
36156DPPC   C1A44531  18.378   3.328  21.874  0.2843 -0.0162 -0.0165
36156DPPC   C2A44532  18.598   3.482  22.149  0.0259 -0.2453  0.0802
36156DPPC   C3A44533  18.931   3.497  22.479  0.0096  0.0901  0.3980
36156DPPC   C4A44534  19.221   3.544  22.879 -0.2673  0.0759  0.6228
36156DPPC   C1B44535  18.532   2.958  21.928 -0.7524 -0.3229  0.2746
36156DPPC   C2B44536  18.838   3.045  22.137  0.0962  0.0976 -0.3006
36156DPPC   C3B44537  19.163   3.056  22.492  0.0334 -0.0659  0.1975
36156DPPC   C4B44538  19.483   3.030  22.824 -0.1921  0.0006 -0.2375
36157DPPC   NC344539  17.036   3.935  21.373 -0.1860  0.2803  0.0662
36157DPPC   PO444540  17.420   3.933  21.377  0.0343  0.2040 -0.1183
36157DPPC   GL144541  17.760   3.903  21.587 -0.1221 -0.0630 -0.1017
36157DPPC   GL244542  17.681   3.894  21.812  0.0288  0.0728  0.2087
36157DPPC   C1A44543  18.046   4.078  21.584 -0.2543 -0.0498 -0.0540
36157DPPC   C2A44544  18.334   4.304  21.696 -0.0205 -0.5191 -0.5694
36157DPPC   C3A44545  18.703   4.350  21.996  0.1413  0.1125 -0.2047
36157DPPC   C4A44546  19.044   4.449  22.358  0.4452  0.1206  0.0649
36157DPPC   C1B44547  17.993   3.942  21.972  0.2030 -0.0230  0.2969
36157DPPC   C2B44548  18.370   3.983  22.055  0.1486 -0.1943 -0.2676
36157DPPC   C3B44549  18.613   3.995  22.416 -0.3340  0.4425  0.3705
36157DPPC   C4B44550  18.962   4.058  22.706 -0.0018 -0.0926 -0.2200
36158DPPC   NC344551  18.418   4.809  19.857 -0.2835 -0.2333  0.1053
36158DPPC   PO444552  18.375   4.711  20.217  0.2301 -0.0181  0.0684
36158DPPC   GL144553  18.496   4.477  20.558 -0.2379  0.1838 -0.0036
36158DPPC   GL244554  18.796   4.514  20.407  0.1081 -0.0124  0.4008
36158DPPC   C1A44555  18.611   4.386  20.871  0.3327  0.5124  0.3387
36158DPPC   C2A44556  18.732   4.306  21.270 -0.0411  0.0275  0.0069
36158DPPC   C3A44557  19.061   4.285  21.657  0.3242 -0.1248 -0.1505
36158DPPC   C4A44558  19.399   4.295  22.040 -0.3012 -0.0054 -0.5671
36158DPPC   C1B44559  19.130   4.552  20.559  0.0119  0.0263 -0.3741
36158DPPC   C2B44560  19.409   4.521  20.844  0.0476  0.0864 -0.2642
36158DPPC   C3B44561  19.704   4.555  21.167 -0.1656  0.1447 -0.1413
36158DPPC   C4B44562  20.009   4.425  21.533 -0.4282 -0.1117 -0.1713
36159DPPC   NC344563  20.005   6.176  18.925  0.1482  0.1852 -0.1828
36159DPPC   PO444564  20.008   6.382  18.603 -0.0171  0.0903 -0.1509
36159DPPC   GL144565  19.956   6.738  18.884  0.0317  0.3165 -0.1214
36159DPPC   GL244566  19.891   6.565  19.061  0.1488  0.2861  0.2666
36159DPPC   C1A44567  20.188   6.947  19.014  0.1458  0.0623  0.0725
36159DPPC   C2A44568  20.492   6.844  19.231 -0.0002 -0.1610  0.0401
36159DPPC   C3A44569  20.856   6.790  19.530 -0.1409  0.2782 -0.0843
36159DPPC   C4A44570  21.199   6.724  19.885  0.1124 -0.2251 -0.1374
36159DPPC   C1B44571  20.206   6.442  19.265  0.3622 -0.0446  0.0143
36159DPPC   C2B44572  20.467   6.442  19.575  0.0287 -0.0616  0.2020
36159DPPC   C3B44573  20.733   6.380  19.970  0.1850  0.1316 -0.0026
36159DPPC   C4B44574  21.146   6.362  20.219 -0.3357 -0.3385  0.2129
36160DPPC   NC344575  16.817   4.059  22.222  0.0192  0.2130 -0.1166
36160DPPC   PO444576  17.122   3.939  22.404 -0.0685  0.1721  0.0946
36160DPPC   GL144577  17.318   3.891  22.695 -0.2025 -0.0450 -0.2073
36160DPPC   GL244578  17.188   3.936  22.904  0.0819 -0.3124  0.3046
36160DPPC   C1A44579  17.610   4.174  22.766 -0.2401 -0.2790 -0.0095
36160DPPC   C2A44580  17.876   4.241  23.111  0.0385 -0.0092  0.1491
36160DPPC   C3A44581  18.174   4.178  23.460  0.2282 -0.0771  0.1508
36160DPPC   C4A44582  18.449   4.157  23.916  0.1145  0.2355  0.2422
36160DPPC   C1B44583  17.437   3.859  23.144 -0.1236 -0.0722 -0.1167
36160DPPC   C2B44584  17.781   3.818  23.431 -0.0045 -0.0237  0.0551
36160DPPC   C3B44585  18.050   3.811  23.830 -0.2945 -0.0556  0.1359
36160DPPC   C4B44586  18.399   3.686  24.161 -0.1525  0.0071 -0.0955
36161DPPC   NC344587  18.093   5.044  20.549  0.0381  0.0726 -0.0743
36161DPPC   PO444588  18.083   4.668  20.705  0.0675  0.3342  0.1766
36161DPPC   GL144589  18.309   4.816  21.044  0.2900 -0.0339 -0.4562
36161DPPC   GL244590  18.512   4.789  20.905  0.3922  0.1630 -0.0111
36161DPPC   C1A44591  18.505   4.789  21.366 -0.0140 -0.1253  0.0831
36161DPPC   C2A44592  18.783   4.757  21.675  0.0390  0.0057  0.0336
36161DPPC   C3A44593  19.106   4.756  21.978  0.1610  0.0828 -0.0789
36161DPPC   C4A44594  19.461   4.747  22.327 -0.0468 -0.2019 -0.3098
36161DPPC   C1B44595  18.846   4.756  21.080 -0.3167  0.1492 -0.0353
36161DPPC   C2B44596  19.160   4.679  21.290  0.0740  0.3645 -0.0342
36161DPPC   C3B44597  19.490   4.589  21.610 -0.2341 -0.1684  0.0047
36161DPPC   C4B44598  19.808   4.650  21.988  0.2262  0.0126  0.0558
36162DPPC   NC344599  20.755   2.505  17.684  0.0271 -0.1816  0.0386
36162DPPC   PO444600  20.484   2.528  17.930  0.2572  0.0809  0.0186
36162DPPC   GL144601  20.708   2.595  18.258 -0.0377 -0.0187 -0.0529
36162DPPC   GL244602  20.569   2.506  18.522  0.3797  0.0223  0.2834
36162DPPC   C1A44603  21.040   2.636  18.315 -0.0167  0.1624  0.0791
36162DPPC   C2A44604  21.317   2.664  18.597  0.2629  0.0083 -0.1236
36162DPPC   C3A44605  21.649   2.665  18.949  0.0230 -0.3623  0.0753
36162DPPC   C4A44606  21.980   2.580  19.346 -0.1526  0.0102  0.0273
36162DPPC   C1B44607  20.810   2.683  18.728  0.1112  0.1122  0.1734
36162DPPC   C2B44608  21.068   2.733  19.064  0.1128 -0.1836  0.4337
36162DPPC   C3B44609  21.383   2.737  19.373  0.0935  0.1623  0.0894
36162DPPC   C4B44610  21.698   2.625  19.744 -0.0010  0.2789  0.0901
36163DPPC   NC344611  18.868   3.288  20.148  0.0553  0.0481 -0.1413
36163DPPC   PO444612  19.112   3.391  19.868  0.6601  0.0090 -0.0854
36163DPPC   GL144613  19.478   3.189  19.945  0.1030  0.3661 -0.0026
36163DPPC   GL244614  19.388   3.121  20.197  0.0936 -0.0341 -0.2660
36163DPPC   C1A44615  19.870   3.118  20.031  0.0320 -0.1695 -0.5741
36163DPPC   C2A44616  20.214   3.005  20.283 -0.0453 -0.0130  0.0404
36163DPPC   C3A44617  20.518   2.998  20.696  0.1818 -0.3141 -0.2421
36163DPPC   C4A44618  20.884   2.949  21.066  0.1354 -0.0105  0.0903
36163DPPC   C1B44619  19.670   3.077  20.483  0.0228  0.3985  0.3127
36163DPPC   C2B44620  19.994   3.158  20.746  0.1121 -0.1280  0.0730
36163DPPC   C3B44621  20.366   3.188  21.154  0.1421  0.0056  0.2164
36163DPPC   C4B44622  20.650   3.043  21.523  0.2346  0.1009 -0.2024
36164DPPC   NC344623  17.055   6.304  22.432 -0.2283  0.2376  0.0303
36164DPPC   PO444624  17.214   6.143  22.122  0.3011  0.1867  0.0855
36164DPPC   GL144625  17.614   6.162  22.186 -0.0806 -0.0657 -0.1064
36164DPPC   GL244626  17.739   6.364  22.078 -0.1922  0.0477  0.3480
36164DPPC   C1A44627  17.745   5.983  22.509 -0.0172 -0.0065  0.1508
36164DPPC   C2A44628  18.067   5.955  22.802  0.3564 -0.1224 -0.1850
36164DPPC   C3A44629  18.393   5.944  23.117 -0.0261  0.3080 -0.2188
36164DPPC   C4A44630  18.672   5.876  23.486 -0.2541 -0.0805 -0.1227
36164DPPC   C1B44631  18.020   6.338  22.266 -0.1014  0.2203  0.0169
36164DPPC   C2B44632  18.333   6.330  22.593 -0.2431 -0.0123 -0.1087
36164DPPC   C3B44633  18.634   6.280  22.919 -0.1118  0.0345  0.1597
36164DPPC   C4B44634  19.006   6.252  23.270 -0.0743  0.2904 -0.0644
36165DPPC   NC344635  17.180   2.594  21.378  0.0598  0.0021 -0.0186
36165DPPC   PO444636  17.370   2.566  21.750  0.2938  0.0498 -0.1614
36165DPPC   GL144637  17.699   2.669  22.039  0.1478 -0.2601 -0.3907
36165DPPC   GL244638  17.634   2.758  22.257  0.2814 -0.0297 -0.0339
36165DPPC   C1A44639  18.032   2.578  21.966  0.1708  0.1337  0.0923
36165DPPC   C2A44640  18.381   2.625  22.142 -0.0284 -0.2905  0.0492
36165DPPC   C3A44641  18.725   2.671  22.571  0.0082 -0.2671  0.0536
36165DPPC   C4A44642  19.080   2.735  22.874  0.0406  0.3073 -0.4099
36165DPPC   C1B44643  17.978   2.654  22.383  0.0909  0.3350  0.1071
36165DPPC   C2B44644  18.201   2.750  22.742  0.0829 -0.2363  0.2389
36165DPPC   C3B44645  18.600   2.739  23.100  0.2128 -0.0436  0.1015
36165DPPC   C4B44646  18.919   2.859  23.477  0.4373  0.0162 -0.1294
36166DPPC   NC344647  18.446   3.476  20.095  0.1650  0.3887  0.1342
36166DPPC   PO444648  18.726   3.735  20.147 -0.0055  0.1244 -0.1056
36166DPPC   GL144649  19.203   3.634  20.219 -0.1627 -0.1290 -0.0901
36166DPPC   GL244650  19.052   3.520  20.491 -0.2129 -0.2047  0.1427
36166DPPC   C1A44651  19.497   3.542  20.381 -0.1233  0.0046  0.1014
36166DPPC   C2A44652  19.730   3.607  20.728  0.0481  0.0367  0.2223
36166DPPC   C3A44653  20.017   3.579  21.021 -0.3149 -0.1484 -0.0413
36166DPPC   C4A44654  20.352   3.562  21.450 -0.0334 -0.4168  0.1051
36166DPPC   C1B44655  19.180   3.657  20.757 -0.0765  0.3362  0.3507
36166DPPC   C2B44656  19.341   3.620  21.160 -0.2331  0.1338  0.2495
36166DPPC   C3B44657  19.725   3.652  21.521  0.1166  0.2420  0.0268
36166DPPC   C4B44658  20.070   3.623  21.856  0.1197 -0.1353  0.0140
36167DPPC   NC344659   6.913   1.735  16.208  0.1204 -0.1159 -0.0506
36167DPPC   PO444660   6.734   1.902  16.525  0.0172  0.0090  0.0462
36167DPPC   GL144661   6.836   1.669  16.863 -0.2682 -0.2806  0.1723
36167DPPC   GL244662   6.856   1.937  17.050  0.1358  0.2039 -0.3872
36167DPPC   C1A44663   6.764   1.504  17.220 -0.3055 -0.2849 -0.0861
36167DPPC   C2A44664   6.583   1.301  17.506 -0.1451 -0.0270 -0.1350
36167DPPC   C3A44665   6.373   0.960  17.733  0.0092  0.1477  0.0817
36167DPPC   C4A44666   6.223   0.675  18.102  0.0433  0.1004  0.1832
36167DPPC   C1B44667   6.572   1.866  17.230 -0.0774 -0.0884 -0.0657
36167DPPC   C2B44668   6.264   1.698  17.469  0.2653  0.1957  0.2880
36167DPPC   C3B44669   6.136   1.397  17.786 -0.0307 -0.2995 -0.0624
36167DPPC   C4B44670   5.877   0.972  17.825  0.0653 -0.1343 -0.1100
36168DPPC   NC344671  20.426   4.625  18.199 -0.0609 -0.3249 -0.0841
36168DPPC   PO444672  20.530   4.909  17.949 -0.5483 -0.1560 -0.4766
36168DPPC   GL144673  20.845   5.131  18.070 -0.0604 -0.4088  0.0699
36168DPPC   GL244674  20.832   4.906  18.324  0.0021 -0.0020 -0.1156
36168DPPC   C1A44675  21.204   5.265  18.161  0.3022  0.1246 -0.1411
36168DPPC   C2A44676  21.433   5.282  18.550  0.0360 -0.0782  0.2254
36168DPPC   C3A44677  21.692   5.302  18.940  0.1477 -0.0742 -0.1155
36168DPPC   C4A44678  21.966   5.252  19.354 -0.0826  0.1018  0.0545
36168DPPC   C1B44679  21.083   4.963  18.570  0.1039 -0.2229 -0.1831
36168DPPC   C2B44680  21.282   4.912  18.960 -0.0168  0.3542 -0.0842
36168DPPC   C3B44681  21.574   4.842  19.326 -0.1072 -0.2896  0.2751
36168DPPC   C4B44682  21.837   4.891  19.745  0.1687  0.0946 -0.1741
36169DPPC   NC344683  17.812   2.794  21.623  0.3234  0.0196  0.0097
36169DPPC   PO444684  17.769   2.516  21.342  0.1313 -0.0485 -0.0965
36169DPPC   GL144685  18.041   2.376  21.493  0.3312  0.0306  0.1473
36169DPPC   GL244686  17.960   2.177  21.706  0.0658  0.4078 -0.2112
36169DPPC   C1A44687  18.379   2.462  21.631  0.2174 -0.1497 -0.1729
36169DPPC   C2A44688  18.774   2.532  21.778 -0.1783 -0.0804  0.3155
36169DPPC   C3A44689  19.026   2.572  22.146  0.0486  0.1790  0.0378
36169DPPC   C4A44690  19.382   2.578  22.527 -0.0695 -0.2425  0.1160
36169DPPC   C1B44691  18.283   2.094  21.907 -0.1898  0.0935 -0.1665
36169DPPC   C2B44692  18.664   2.197  22.186  0.1981 -0.1977 -0.1929
36169DPPC   C3B44693  19.025   2.227  22.496 -0.0427 -0.0187  0.2326
36169DPPC   C4B44694  19.262   2.154  22.931 -0.0147  0.2093  0.1593
36170DPPC   NC344695  19.372   1.249  19.693  0.1534  0.0158  0.1412
36170DPPC   PO444696  19.410   1.522  19.346  0.0184 -0.0701 -0.1409
36170DPPC   GL144697  19.737   1.564  19.558 -0.1888  0.0585 -0.2421
36170DPPC   GL244698  19.747   1.435  19.808  0.1784 -0.2243  0.1532
36170DPPC   C1A44699  19.985   1.862  19.586 -0.0559 -0.1234 -0.4157
36170DPPC   C2A44700  20.251   1.958  19.869  0.1735 -0.4308 -0.2507
36170DPPC   C3A44701  20.570   1.991  20.271  0.0482  0.1740  0.1254
36170DPPC   C4A44702  20.900   2.052  20.621 -0.0073  0.4257  0.1105
36170DPPC   C1B44703  19.988   1.610  19.996  0.0333 -0.0206  0.1261
36170DPPC   C2B44704  20.229   1.645  20.280 -0.2063 -0.0833 -0.0061
36170DPPC   C3B44705  20.558   1.662  20.631 -0.2960  0.3127  0.0179
36170DPPC   C4B44706  20.796   1.582  21.058 -0.0375 -0.0444  0.0421
36171DPPC   NC344707   5.000   0.423  15.991 -0.2272 -0.1824 -0.1022
36171DPPC   PO444708   4.660   0.200  15.998 -0.2400 -0.1810  0.1363
36171DPPC   GL144709   4.521   0.351  16.386  0.0949  0.0709 -0.1928
36171DPPC   GL244710   4.742   0.435  16.423  0.6654  0.1039  0.0856
36171DPPC   C1A44711   4.290   0.239  16.588 -0.0443  0.0079 -0.0717
36171DPPC   C2A44712   4.167   0.312  17.025  0.1837  0.3742  0.0737
36171DPPC   C3A44713   3.942   0.387  17.452 -0.0006 -0.1631 -0.0194
36171DPPC   C4A44714   3.800   0.360  17.930  0.0315 -0.1847 -0.0859
36171DPPC   C1B44715   4.713   0.601  16.741  0.1856  0.0883 -0.3371
36171DPPC   C2B44716   4.583   0.711  17.109  0.0615  0.0479  0.0726
36171DPPC   C3B44717   4.347   0.752  17.502  0.0167  0.0242  0.1354
36171DPPC   C4B44718   4.048   0.805  17.876 -0.1823  0.0121  0.0286
36172DPPC   NC344719  19.761   5.155  19.035  0.1139 -0.0285  0.1666
36172DPPC   PO444720  20.062   5.365  18.839 -0.1414  0.2587  0.1368
36172DPPC   GL144721  20.455   5.521  18.790  0.3223 -0.0694  0.3235
36172DPPC   GL244722  20.270   5.788  18.822  0.0108 -0.2305 -0.0864
36172DPPC   C1A44723  20.519   5.442  19.112 -0.0291 -0.3218 -0.2849
36172DPPC   C2A44724  20.791   5.448  19.386  0.1912  0.2619 -0.0292
36172DPPC   C3A44725  21.086   5.471  19.803  0.0666  0.0477  0.0031
36172DPPC   C4A44726  21.362   5.332  20.231  0.0580 -0.2159 -0.0014
36172DPPC   C1B44727  20.404   5.978  19.115 -0.1559  0.3057 -0.0822
36172DPPC   C2B44728  20.675   5.971  19.443 -0.1883 -0.1713 -0.2105
36172DPPC   C3B44729  20.918   5.915  19.837  0.1309  0.0531  0.0244
36172DPPC   C4B44730  21.244   5.899  20.191 -0.1486 -0.0019 -0.1192
36173DPPC   NC344731  18.002   6.421  19.850  0.0428  0.1613  0.0554
36173DPPC   PO444732  18.084   6.510  20.223 -0.2008  0.3234 -0.0803
36173DPPC   GL144733  18.402   6.521  20.484  0.3947  0.0676  0.0090
36173DPPC   GL244734  18.595   6.471  20.256 -0.1273  0.1406  0.2211
36173DPPC   C1A44735  18.605   6.788  20.649 -0.3348 -0.1017  0.1589
36173DPPC   C2A44736  18.958   6.892  20.846  0.0948 -0.0604 -0.2371
36173DPPC   C3A44737  19.263   6.832  21.239  0.1996  0.2671  0.1259
36173DPPC   C4A44738  19.540   6.831  21.643 -0.0159 -0.0634 -0.2663
36173DPPC   C1B44739  18.826   6.386  20.539  0.1602 -0.1157  0.4454
36173DPPC   C2B44740  19.105   6.353  20.773 -0.0325  0.1507  0.1673
36173DPPC   C3B44741  19.397   6.295  21.138  0.5593 -0.2399 -0.1308
36173DPPC   C4B44742  19.674   6.316  21.567  0.3375 -0.1209 -0.0143
36174DPPC   NC344743  17.645   1.316  21.502 -0.2504  0.1549  0.1797
36174DPPC   PO444744  17.700   1.245  21.111  0.1925 -0.1609  0.0225
36174DPPC   GL144745  17.865   0.925  21.391  0.2134 -0.2909  0.2747
36174DPPC   GL244746  17.896   0.729  21.257  0.2230  0.1625 -0.0164
36174DPPC   C1A44747  18.146   0.949  21.673 -0.0174  0.0597  0.2456
36174DPPC   C2A44748  18.384   0.848  21.994  0.2673 -0.1666 -0.0950
36174DPPC   C3A44749  18.771   0.886  22.340 -0.1617 -0.0038 -0.1885
36174DPPC   C4A44750  19.093   0.846  22.720  0.2670 -0.3042 -0.0638
36174DPPC   C1B44751  18.143   0.504  21.439  0.1262  0.2285  0.2248
36174DPPC   C2B44752  18.420   0.461  21.714 -0.1690  0.2458  0.0490
36174DPPC   C3B44753  18.682   0.458  22.101 -0.1442 -0.1260  0.1900
36174DPPC   C4B44754  19.034   0.435  22.441  0.0424  0.0312  0.3036
36175DPPC   NC344755  19.913   1.366  18.340 -0.4542  0.0062 -0.0491
36175DPPC   PO444756  20.075   1.291  17.992  0.0944 -0.2903 -0.0186
36175DPPC   GL144757  20.350   1.053  18.321 -0.2149 -0.0145  0.2620
36175DPPC   GL244758  20.505   1.241  18.265  0.3972  0.0937  0.3767
36175DPPC   C1A44759  20.681   0.864  18.440  0.2687 -0.2794 -0.0297
36175DPPC   C2A44760  20.973   0.865  18.687  0.0658  0.1481 -0.4293
36175DPPC   C3A44761  21.231   0.898  19.006 -0.0122 -0.0361 -0.0884
36175DPPC   C4A44762  21.558   0.916  19.329  0.1366 -0.2616 -0.2003
36175DPPC   C1B44763  20.772   1.299  18.483 -0.0338 -0.1538  0.0723
36175DPPC   C2B44764  20.897   1.372  18.841  0.1288  0.1499 -0.1970
36175DPPC   C3B44765  21.199   1.378  19.187 -0.0817 -0.0159  0.0318
36175DPPC   C4B44766  21.520   1.415  19.525 -0.0019 -0.0177 -0.0696
36176DPPC   NC344767  18.910   5.510  19.585 -0.2506  0.0923 -0.0044
36176DPPC   PO444768  18.857   5.811  19.839 -0.3439  0.0177 -0.1187
36176DPPC   GL144769  18.970   5.752  20.256  0.3582  0.0380  0.0359
36176DPPC   GL244770  19.213   5.657  20.040  0.0157  0.2543 -0.0666
36176DPPC   C1A44771  19.104   5.936  20.569 -0.2411 -0.0540 -0.3560
36176DPPC   C2A44772  19.413   5.823  20.820  0.2073  0.2036  0.0911
36176DPPC   C3A44773  19.713   5.846  21.248 -0.1588 -0.0570 -0.0513
36176DPPC   C4A44774  20.050   5.843  21.550  0.1656 -0.0444 -0.1305
36176DPPC   C1B44775  19.481   5.752  20.284 -0.1567  0.0621  0.0906
36176DPPC   C2B44776  19.804   5.739  20.512 -0.0093 -0.2619 -0.3357
36176DPPC   C3B44777  20.097   5.768  20.871 -0.0487  0.0199 -0.1201
36176DPPC   C4B44778  20.423   5.850  21.248  0.1372 -0.1787  0.4284
36177DPPC   NC344779  18.584   4.248  20.115  0.0977  0.0493  0.3503
36177DPPC   PO444780  18.861   4.474  19.906 -0.2392 -0.1021 -0.0124
36177DPPC   GL144781  19.226   4.702  19.881  0.1448 -0.3455 -0.0205
36177DPPC   GL244782  19.306   4.467  20.142 -0.2067 -0.1573  0.0763
36177DPPC   C1A44783  19.582   4.588  19.832 -0.1325 -0.0481 -0.2113
36177DPPC   C2A44784  19.935   4.389  19.947  0.0101 -0.1567  0.0713
36177DPPC   C3A44785  20.268   4.340  20.284 -0.0630 -0.2019 -0.0264
36177DPPC   C4A44786  20.552   4.352  20.683  0.2335 -0.1791  0.1290
36177DPPC   C1B44787  19.555   4.486  20.424 -0.0945 -0.1870 -0.1140
36177DPPC   C2B44788  19.857   4.420  20.690  0.2115 -0.2741 -0.0549
36177DPPC   C3B44789  20.205   4.415  21.049 -0.0160  0.4222 -0.0490
36177DPPC   C4B44790  20.484   4.350  21.429  0.2464  0.0132 -0.2095
36178DPPC   NC344791  17.166   0.095  21.426 -0.2074  0.0159  0.0537
36178DPPC   PO444792  17.383   0.403  21.268  0.0702 -0.1218 -0.2149
36178DPPC   GL144793  17.650   0.530  21.615 -0.2419  0.2431  0.5298
36178DPPC   GL244794  17.499   0.833  21.578  0.2742  0.0594 -0.0554
36178DPPC   C1A44795  17.942   0.498  21.821  0.0531  0.2609 -0.1000
36178DPPC   C2A44796  18.151   0.475  22.184 -0.0846  0.1428 -0.0950
36178DPPC   C3A44797  18.468   0.502  22.491 -0.0751  0.0289 -0.0105
36178DPPC   C4A44798  18.778   0.550  22.916 -0.0075 -0.0413  0.0331
36178DPPC   C1B44799  17.742   0.966  21.796 -0.1480 -0.2444 -0.0125
36178DPPC   C2B44800  17.961   0.986  22.105  0.0594 -0.2537  0.2081
36178DPPC   C3B44801  18.216   0.980  22.506 -0.4095 -0.0914 -0.2316
36178DPPC   C4B44802  18.543   0.968  22.834 -0.1319  0.2805  0.1134
36179DPPC   NC344803  18.777   2.525  19.944  0.1590  0.2614  0.1211
36179DPPC   PO444804  18.625   2.874  19.961  0.2394  0.0079  0.1190
36179DPPC   GL144805  18.825   2.921  20.410 -0.1854 -0.1467 -0.2414
36179DPPC   GL244806  18.950   2.777  20.304  0.3229  0.1584  0.0199
36179DPPC   C1A44807  19.070   3.100  20.616  0.2548  0.0724  0.5070
36179DPPC   C2A44808  19.395   3.224  20.807  0.0947 -0.1153 -0.1103
36179DPPC   C3A44809  19.701   3.250  21.128  0.0176  0.1263 -0.0949
36179DPPC   C4A44810  20.026   3.192  21.523 -0.1838 -0.2132 -0.2115
36179DPPC   C1B44811  19.278   2.708  20.471 -0.1358 -0.1527  0.4933
36179DPPC   C2B44812  19.642   2.742  20.781  0.1634 -0.2014  0.2265
36179DPPC   C3B44813  20.009   2.835  21.126 -0.3162  0.0285  0.0104
36179DPPC   C4B44814  20.288   2.750  21.478 -0.2313  0.1776  0.0406
36180DPPC   NC344815  18.635   1.650  19.797  0.1043 -0.3786  0.0522
36180DPPC   PO444816  18.673   2.034  19.807  0.1933 -0.0099  0.0731
36180DPPC   GL144817  18.985   2.077  20.067 -0.0408 -0.0189  0.1643
36180DPPC   GL244818  18.867   1.790  20.163 -0.1211 -0.1055  0.1641
36180DPPC   C1A44819  19.044   2.271  20.420  0.2032  0.0347 -0.2134
36180DPPC   C2A44820  19.218   2.365  20.787 -0.2680  0.1365  0.1532
36180DPPC   C3A44821  19.497   2.422  21.207 -0.0603 -0.2923 -0.0131
36180DPPC   C4A44822  19.841   2.415  21.563  0.0574 -0.1684  0.2926
36180DPPC   C1B44823  19.112   1.849  20.428  0.1717 -0.1049 -0.4259
36180DPPC   C2B44824  19.324   1.877  20.747  0.0010  0.0485  0.0363
36180DPPC   C3B44825  19.664   1.939  21.111  0.2791 -0.0285  0.0477
36180DPPC   C4B44826  20.018   1.899  21.487  0.0461  0.2006 -0.0747
36181DPPC   NC344827  17.501   5.092  21.325  0.4240 -0.0060 -0.1756
36181DPPC   PO444828  17.302   5.313  21.553  0.1699 -0.1453 -0.0912
36181DPPC   GL144829  17.664   5.383  21.769 -0.1416 -0.1883  0.1812
36181DPPC   GL244830  17.539   5.300  22.007  0.2905  0.3014 -0.0983
36181DPPC   C1A44831  18.003   5.422  21.819 -0.1547 -0.0827 -0.0393
36181DPPC   C2A44832  18.327   5.359  22.103  0.4055 -0.1511  0.2336
36181DPPC   C3A44833  18.678   5.273  22.466  0.0756  0.3096 -0.3012
36181DPPC   C4A44834  18.963   5.317  22.899 -0.0157  0.1984  0.0094
36181DPPC   C1B44835  17.844   5.448  22.273  0.1184  0.0176 -0.3724
36181DPPC   C2B44836  18.098   5.467  22.639  0.0394  0.0833  0.3330
36181DPPC   C3B44837  18.471   5.398  22.944 -0.0871  0.1505  0.1278
36181DPPC   C4B44838  18.747   5.419  23.354  0.1046  0.1987  0.0549
36182DPPC   NC344839  20.010   6.177  17.769  0.1572 -0.3657 -0.2965
36182DPPC   PO444840  20.154   6.101  18.142  0.1155  0.1669 -0.1880
36182DPPC   GL144841  20.384   6.194  18.432  0.1617  0.1219 -0.4047
36182DPPC   GL244842  20.589   6.331  18.238  0.5361 -0.0328  0.3572
36182DPPC   C1A44843  20.607   6.061  18.721  0.1596 -0.0715 -0.2202
36182DPPC   C2A44844  20.825   5.808  18.974 -0.0117 -0.2199  0.2030
36182DPPC   C3A44845  21.121   5.800  19.379 -0.2374  0.0989 -0.1179
36182DPPC   C4A44846  21.415   5.814  19.757  0.0539 -0.0697  0.1455
36182DPPC   C1B44847  20.869   6.320  18.459 -0.3436 -0.0202 -0.0152
36182DPPC   C2B44848  21.164   6.284  18.767  0.1675 -0.0852 -0.1588
36182DPPC   C3B44849  21.481   6.280  19.177 -0.1706  0.0506  0.0023
36182DPPC   C4B44850  21.835   6.189  19.563  0.2075  0.0964 -0.4181
36183DPPC   NC344851  19.128   4.023  19.931  0.1087 -0.3452 -0.2392
36183DPPC   PO444852  19.132   3.816  19.610 -0.0400 -0.0474 -0.1829
36183DPPC   GL144853  19.604   3.707  19.614  0.0247  0.4891 -0.2327
36183DPPC   GL244854  19.505   3.666  19.930 -0.1999  0.1826 -0.4283
36183DPPC   C1A44855  19.854   3.935  19.777 -0.0057  0.3475 -0.1436
36183DPPC   C2A44856  20.166   3.895  20.033  0.0113  0.1132 -0.0161
36183DPPC   C3A44857  20.469   3.812  20.357 -0.0238 -0.0899  0.3222
36183DPPC   C4A44858  20.809   3.948  20.703  0.0043  0.0153  0.2868
36183DPPC   C1B44859  19.824   3.583  20.076 -0.0644 -0.0471 -0.0142
36183DPPC   C2B44860  20.099   3.446  20.406  0.3826  0.1199 -0.0452
36183DPPC   C3B44861  20.449   3.492  20.766 -0.0772 -0.0719  0.0895
36183DPPC   C4B44862  20.759   3.441  21.159  0.0632 -0.1400  0.0524
36184DPPC   NC344863  20.380   3.714  18.264  0.2444  0.1526  0.1429
36184DPPC   PO444864  20.051   3.781  18.528 -0.2028  0.3885 -0.3308
36184DPPC   GL144865  20.226   3.712  18.921 -0.1089  0.0826 -0.0912
36184DPPC   GL244866  20.477   3.761  18.775  0.1322 -0.0857 -0.0047
36184DPPC   C1A44867  20.237   3.516  19.219  0.0292 -0.2563  0.3842
36184DPPC   C2A44868  20.518   3.319  19.462 -0.1609 -0.1883 -0.0963
36184DPPC   C3A44869  20.800   3.208  19.802 -0.0307 -0.1597 -0.0290
36184DPPC   C4A44870  21.125   3.223  20.164  0.0417 -0.1808  0.1168
36184DPPC   C1B44871  20.768   3.742  19.039  0.0030  0.1331 -0.2020
36184DPPC   C2B44872  20.973   3.633  19.393  0.0219  0.1964  0.1721
36184DPPC   C3B44873  21.226   3.585  19.777 -0.4176  0.0164  0.0194
36184DPPC   C4B44874  21.484   3.570  20.184 -0.1757 -0.0867  0.1362
36185DPPC   NC344875  19.599   2.331  18.895  0.0849  0.2837 -0.0520
36185DPPC   PO444876  19.898   2.258  18.666  0.0474  0.1874 -0.0950
36185DPPC   GL144877  20.159   1.991  18.865 -0.4943 -0.0408  0.0162
36185DPPC   GL244878  20.304   2.206  18.670  0.0127  0.1483 -0.1936
36185DPPC   C1A44879  20.372   1.948  19.135 -0.0233 -0.0602 -0.0063
36185DPPC   C2A44880  20.539   1.984  19.483 -0.1104  0.2046 -0.3449
36185DPPC   C3A44881  20.879   1.901  19.871  0.2608 -0.2542  0.0155
36185DPPC   C4A44882  21.231   1.874  20.159 -0.2296 -0.0096 -0.1834
36185DPPC   C1B44883  20.583   2.266  18.859  0.2276  0.0325  0.0540
36185DPPC   C2B44884  20.823   2.267  19.195  0.0022 -0.2202 -0.1653
36185DPPC   C3B44885  21.086   2.313  19.628  0.3326  0.0493 -0.1111
36185DPPC   C4B44886  21.365   2.276  20.013 -0.0264  0.0366  0.1887
36186DPPC   NC344887  20.394   5.686  18.330 -0.2433 -0.1940  0.0309
36186DPPC   PO444888  20.540   5.421  18.029  0.1981  0.2257 -0.0042
36186DPPC   GL144889  20.787   5.356  18.406  0.1209  0.1334  0.2803
36186DPPC   GL244890  20.550   5.228  18.440  0.1693 -0.3013  0.5532
36186DPPC   C1A44891  20.892   5.381  18.735  0.3331 -0.1301  0.2814
36186DPPC   C2A44892  21.140   5.411  19.034  0.2966  0.0334  0.2952
36186DPPC   C3A44893  21.462   5.447  19.384 -0.1956 -0.0325 -0.0306
36186DPPC   C4A44894  21.651   5.399  19.830  0.0428 -0.3629 -0.0049
36186DPPC   C1B44895  20.686   5.024  18.690  0.1330 -0.1528 -0.1536
36186DPPC   C2B44896  20.772   4.974  19.050 -0.2656 -0.1585  0.0887
36186DPPC   C3B44897  21.106   5.016  19.446 -0.4586  0.0261 -0.2131
36186DPPC   C4B44898  21.351   4.971  19.844 -0.1060  0.0970  0.2055
36187DPPC   NC344899  18.399   0.219  19.976 -0.3254  0.0780 -0.0753
36187DPPC   PO444900  18.684   0.442  20.134 -0.2490  0.1442 -0.2891
36187DPPC   GL144901  18.638   0.786  20.388 -0.2454 -0.5600  0.2970
36187DPPC   GL244902  18.538   0.618  20.619  0.3309 -0.2285 -0.2514
36187DPPC   C1A44903  18.963   0.987  20.434  0.0663  0.2576  0.1833
36187DPPC   C2A44904  19.377   0.962  20.489  0.0153 -0.2261  0.0019
36187DPPC   C3A44905  19.781   0.960  20.778  0.0754 -0.0779  0.0258
36187DPPC   C4A44906  20.090   0.980  21.181  0.2155 -0.0360  0.0601
36187DPPC   C1B44907  18.729   0.767  20.883 -0.0067  0.1691 -0.1945
36187DPPC   C2B44908  19.012   0.661  21.153 -0.2951  0.0304 -0.0316
36187DPPC   C3B44909  19.299   0.731  21.566 -0.2638 -0.4153  0.1863
36187DPPC   C4B44910  19.643   0.708  21.863 -0.1294  0.2582  0.0917
36188DPPC   NC344911  19.621   3.064  19.112 -0.0378 -0.0652  0.0247
36188DPPC   PO444912  19.824   2.722  19.130  0.2248 -0.4147 -0.1511
36188DPPC   GL144913  20.197   2.647  19.388  0.1251 -0.0353  0.2548
36188DPPC   GL244914  19.969   2.588  19.593  0.1580  0.0710 -0.1498
36188DPPC   C1A44915  20.439   2.437  19.558 -0.1827 -0.1433 -0.0428
36188DPPC   C2A44916  20.674   2.370  19.875 -0.1783  0.3573 -0.1230
36188DPPC   C3A44917  20.932   2.383  20.216 -0.1182 -0.1959  0.1721
36188DPPC   C4A44918  21.262   2.359  20.529 -0.1711 -0.2557  0.4251
36188DPPC   C1B44919  20.089   2.537  19.935  0.0121  0.0274 -0.2581
36188DPPC   C2B44920  20.337   2.461  20.231 -0.1382  0.1709  0.2378
36188DPPC   C3B44921  20.620   2.507  20.589 -0.4276 -0.0044 -0.0164
36188DPPC   C4B44922  20.984   2.451  20.898  0.0010 -0.0557  0.0341
36189DPPC   NC344923  19.247   5.137  18.846 -0.2771  0.3871 -0.0224
36189DPPC   PO444924  19.148   5.420  19.085 -0.3974  0.1988 -0.1208
36189DPPC   GL144925  19.348   5.346  19.480  0.0486 -0.0587 -0.2530
36189DPPC   GL244926  19.619   5.420  19.397 -0.2114  0.0472  0.2888
36189DPPC   C1A44927  19.394   5.331  19.837 -0.1398 -0.1159 -0.2935
36189DPPC   C2A44928  19.667   5.322  20.125 -0.0691  0.1586 -0.1511
36189DPPC   C3A44929  19.976   5.258  20.490  0.1344 -0.3534 -0.0276
36189DPPC   C4A44930  20.250   5.256  20.879 -0.4118 -0.2258 -0.2260
36189DPPC   C1B44931  19.893   5.143  19.511  0.0533 -0.2428  0.1409
36189DPPC   C2B44932  20.150   5.141  19.849  0.2469 -0.1858 -0.2890
36189DPPC   C3B44933  20.431   5.182  20.179 -0.0101  0.1027 -0.1398
36189DPPC   C4B44934  20.709   5.198  20.587 -0.3032  0.2135 -0.2182
36190DPPC   NC344935  19.253   4.509  19.449 -0.1202  0.1512  0.0297
36190DPPC   PO444936  19.273   4.844  19.287  0.0470  0.0449 -0.2846
36190DPPC   GL144937  19.650   4.812  19.449  0.1424 -0.0777  0.3927
36190DPPC   GL244938  19.460   4.944  19.614  0.0831 -0.3749 -0.1377
36190DPPC   C1A44939  20.004   4.743  19.616 -0.1028 -0.0025 -0.4193
36190DPPC   C2A44940  20.344   4.706  19.879  0.0855  0.1510 -0.0279
36190DPPC   C3A44941  20.568   4.737  20.285 -0.2735 -0.0623  0.0909
36190DPPC   C4A44942  20.880   4.736  20.662  0.0334 -0.2329  0.1504
36190DPPC   C1B44943  19.726   4.943  19.915  0.1275 -0.3427 -0.0948
36190DPPC   C2B44944  19.954   4.774  20.250  0.2309  0.1667 -0.1777
36190DPPC   C3B44945  20.232   4.763  20.680 -0.1326 -0.1313 -0.3253
36190DPPC   C4B44946  20.585   4.825  21.050  0.3109  0.0057 -0.2104
36191DPPC   NC344947   0.708   5.042  15.999  0.1169 -0.0801 -0.1072
36191DPPC   PO444948   1.074   4.960  15.924  0.0390  0.0136 -0.0798
36191DPPC   GL144949   1.248   4.883  16.331  0.0376  0.2152  0.1682
36191DPPC   GL244950   1.189   5.195  16.306 -0.1048 -0.0030 -0.0290
36191DPPC   C1A44951   1.325   4.990  16.697  0.0026  0.1912 -0.1420
36191DPPC   C2A44952   1.446   5.190  17.014 -0.0304 -0.1143  0.0083
36191DPPC   C3A44953   1.658   5.465  17.412 -0.0780  0.0024  0.0047
36191DPPC   C4A44954   1.787   5.664  17.755  0.2692 -0.1041 -0.3314
36191DPPC   C1B44955   1.088   5.383  16.656  0.0921 -0.1995 -0.4781
36191DPPC   C2B44956   1.192   5.608  17.009 -0.0096 -0.0231  0.1113
36191DPPC   C3B44957   1.344   5.971  17.271 -0.1377  0.2455 -0.1314
36191DPPC   C4B44958   1.589   6.242  17.566  0.0381 -0.0246  0.0819
36192DPPC   NC344959  20.539   4.427  17.761 -0.0105 -0.2297  0.3589
36192DPPC   PO444960  20.554   4.136  18.071 -0.2807 -0.0198  0.2199
36192DPPC   GL144961  20.833   4.144  18.387 -0.0588  0.1443 -0.2333
36192DPPC   GL244962  20.825   3.816  18.340  0.0257 -0.1968 -0.2196
36192DPPC   C1A44963  20.934   4.134  18.737  0.2971 -0.0243 -0.2998
36192DPPC   C2A44964  21.132   4.039  19.019 -0.1024 -0.0772 -0.0064
36192DPPC   C3A44965  21.363   4.009  19.393  0.0936  0.1491 -0.4435
36192DPPC   C4A44966  21.662   3.959  19.768  0.1576  0.1633  0.1011
36192DPPC   C1B44967  20.960   3.676  18.661  0.1177  0.0210  0.2927
36192DPPC   C2B44968  21.180   3.516  18.947  0.2494  0.3074 -0.1330
36192DPPC   C3B44969  21.499   3.485  19.334 -0.1473 -0.0174 -0.0923
36192DPPC   C4B44970  21.855   3.501  19.669  0.0182 -0.1125  0.0758
36193DPPC   NC344971  19.849   2.128  18.222 -0.0655 -0.0731  0.1970
36193DPPC   PO444972  19.949   1.835  17.999 -0.3267  0.0482 -0.2390
36193DPPC   GL144973  20.319   1.632  18.311 -0.0243  0.3061  0.1442
36193DPPC   GL244974  20.186   1.813  18.443  0.2546  0.1560  0.2746
36193DPPC   C1A44975  20.677   1.697  18.244  0.1504 -0.2832 -0.1816
36193DPPC   C2A44976  20.990   1.699  18.447  0.2294  0.1484  0.2053
36193DPPC   C3A44977  21.337   1.777  18.810  0.2314 -0.0291 -0.1011
36193DPPC   C4A44978  21.603   1.785  19.237  0.2613  0.0206  0.2271
36193DPPC   C1B44979  20.487   1.817  18.647 -0.3112 -0.0252  0.0267
36193DPPC   C2B44980  20.761   1.863  18.924 -0.2324 -0.1188  0.0238
36193DPPC   C3B44981  21.095   1.836  19.280  0.0067  0.0751  0.0690
36193DPPC   C4B44982  21.328   1.858  19.688 -0.1182 -0.0336 -0.4217
36194DPPC   NC344983  18.856   4.916  20.165 -0.0139  0.0695  0.1129
36194DPPC   PO444984  18.908   5.296  20.082 -0.1601 -0.0079  0.2238
36194DPPC   GL144985  19.276   5.335  20.333 -0.0048  0.2252 -0.0313
36194DPPC   GL244986  19.272   4.965  20.328  0.2545  0.2098 -0.0919
36194DPPC   C1A44987  19.497   5.383  20.647  0.0011 -0.1253  0.2537
36194DPPC   C2A44988  19.670   5.458  20.949  0.1601  0.0174 -0.1067
36194DPPC   C3A44989  20.047   5.373  21.295 -0.0425  0.0503  0.0237
36194DPPC   C4A44990  20.508   5.339  21.323  0.0617 -0.1734  0.1578
36194DPPC   C1B44991  19.460   4.889  20.572 -0.1239 -0.0232  0.2816
36194DPPC   C2B44992  19.776   4.954  20.861 -0.0553 -0.0731  0.0094
36194DPPC   C3B44993  20.077   4.869  21.168  0.0272  0.0188  0.0356
36194DPPC   C4B44994  20.373   4.932  21.515 -0.1757 -0.1276 -0.1195
36195W        W44995   5.866   4.987  35.942 -0.2285 -0.0354  0.0444
36196W        W44996  18.129   2.607  43.658 -0.0340  0.0805  0.1202
36197W        W44997  19.272   4.535  17.249 -0.1687 -0.1634 -0.0123
36198W        W44998  15.389   4.536  44.568  0.0878  0.1307 -0.0526
36199W        W44999  18.099   4.915  40.170  0.1225 -0.0869  0.0806
36200W        W45000   1.282   1.410  45.151 -0.0962 -0.0447 -0.0312
36201W        W45001   4.535   5.343   2.766 -0.1408 -0.2224  0.2147
36202W        W45002  17.522   4.312   2.607 -0.1063 -0.0139 -0.1653
36203W        W45003  14.817   3.383   2.417  0.0115 -0.0250  0.1330
36204W        W45004   0.511   5.617  43.219 -0.3763  0.1528  0.0333
36205W        W45005   8.013   3.154  11.919 -0.0963  0.0236  0.3323
36206W        W45006  19.341   3.122  29.513 -0.0577  0.0747  0.2935
36207W        W45007  12.205   5.017  38.766 -0.2179  0.3946 -0.1030
36208W        W45008   9.609   4.121  30.807  0.0084 -0.0852 -0.0147
36209W        W45009  14.552   5.452  34.336  0.1456  0.2242  0.1251
36210W        W45010  20.593   2.483  35.848 -0.2142  0.0499 -0.1916
36211W        W45011  18.774   4.994  42.380  0.0646 -0.1626 -0.1334
36212W        W45012  21.079   0.898  35.638  0.0358  0.1117  0.0873
36213W        W45013  12.494   4.434  42.118  0.0136  0.1245 -0.1674
36214W        W45014  12.120   1.868  36.181  0.2918 -0.1948 -0.5093
36215W        W45015  21.002   1.499  28.918 -0.1399  0.0933 -0.2804
36216W        W45016   3.884   1.934  25.744  0.2707 -0.2378 -0.1854
36217W        W45017   0.191   5.343  43.677 -0.1130 -0.2465 -0.0984
36218W        W45018   8.136   5.860  33.329  0.2544 -0.0752  0.0899
36219W        W45019   4.543   3.829  40.515 -0.0097 -0.0534  0.0270
36220W        W45020   6.445   0.066   7.986  0.2503  0.1338 -0.1789
36221W        W45021  15.397   6.190  19.394  0.0865 -0.0390 -0.2122
36222W        W45022  13.079   1.759  32.877  0.0136  0.4094 -0.2298
36223W        W45023  20.120   5.650  41.559  0.3995 -0.0091  0.0029
36224W        W45024   7.553   6.043  25.901  0.1542  0.1755 -0.2356
36225W        W45025   6.457   3.269  35.796  0.0350 -0.2670 -0.3361
36226W        W45026   0.746   5.471  12.050  0.0721  0.1319 -0.3513
36227W        W45027  12.459   1.105  20.091 -0.0115 -0.0997 -0.0537
36228W        W45028   1.965   0.170  23.592  0.4507  0.0700  0.2300
36229W        W45029   1.047   6.015  14.086 -0.2098 -0.0410 -0.1103
36230W        W45030  16.526   4.180  41.634 -0.0958  0.1055  0.2860
36231W        W45031  14.052   6.106  34.617 -0.2106 -0.0010  0.1512
36232W        W45032  15.828   1.076  36.341  0.3119  0.2085  0.1715
36233W        W45033  10.231   3.411  42.508 -0.0102 -0.0370  0.1256
36234W        W45034  10.855   6.495  13.777  0.1617 -0.1678  0.0219
36235W        W45035  16.391   2.620  18.026 -0.1978  0.2779 -0.1777
36236W        W45036  11.996   1.256   5.917  0.0366  0.0901  0.3805
36237W        W45037   6.403   5.951   7.386  0.0882 -0.0204 -0.0747
36238W        W45038  19.826   1.772  32.664 -0.0103 -0.0850 -0.1172
36239W        W45039   2.706   2.027  12.387 -0.0828 -0.0308  0.0187
36240W        W45040  20.191   2.857  41.308 -0.1574 -0.2466 -0.2065
36241W        W45041   9.449   0.562  32.756  0.1815  0.2986 -0.0277
36242W        W45042  11.841   5.572  40.474 -0.2647  0.0147 -0.1906
36243W        W45043  18.634   0.439  10.136 -0.1393  0.0205  0.3088
36244W        W45044   4.817   0.887  40.866 -0.1252 -0.4241 -0.1193
36245W        W45045  20.437   4.857  28.587 -0.1159 -0.0987 -0.1534
36246W        W45046  15.780   6.373  21.445 -0.1002  0.0048  0.1293
36247W        W45047   6.053   6.056  31.988 -0.1457  0.0280  0.0625
36248W        W45048   4.168   3.749  44.510  0.1554  0.2891  0.0399
36249W        W45049  11.744   3.549  44.352  0.1808  0.0224 -0.1779
36250W        W45050  14.412   0.307  32.090 -0.1483 -0.0428 -0.3509
36251W        W45051  16.184   2.383  17.621 -0.2587  0.0243 -0.0114
36252W        W45052   7.126   4.463   8.024 -0.1717 -0.0903  0.2287
36253W        W45053  16.870   6.168  17.723  0.0601 -0.0833 -0.0456
36254W        W45054  13.930   1.768  30.434  0.0917 -0.1305 -0.0816
36255W        W45055  14.624   4.103  32.031 -0.1641  0.0354 -0.0810
36256W        W45056   5.190   4.914  42.372 -0.1588  0.0927 -0.0240
36257W        W45057   8.724   4.704  35.572 -0.0392  0.1580  0.2408
36258W        W45058   3.464   3.805  29.084 -0.0208  0.2655 -0.0985
36259W        W45059  13.463   6.448   8.255 -0.0528  0.1166  0.0808
36260W        W45060   9.276   3.223  26.886  0.1818  0.0192  0.4699
36261W        W45061   0.100   1.082  39.949  0.0290 -0.0966  0.1630
36262W        W45062   5.492   0.678  11.556  0.2297 -0.4092 -0.0405
36263W        W45063   0.318   1.678  41.630  0.2161 -0.3316 -0.1911
36264W        W45064   0.621   4.422   1.787  0.3645 -0.3562 -0.1379
36265W        W45065  16.700   3.896  43.098 -0.2527 -0.0514  0.1779
36266W        W45066   8.844   5.112  38.713  0.4145  0.1331 -0.0449
36267W        W45067   4.650   2.092   4.102  0.0199  0.0247 -0.1813
36268W        W45068  12.464   0.484  21.392 -0.0607  0.1482 -0.1058
36269W        W45069  20.241   2.787   8.037  0.3205 -0.1190 -0.1646
36270W        W45070  14.400   5.560  24.263 -0.1413  0.0315  0.1491
36271W        W45071  15.669   3.013  35.758  0.1866 -0.1482  0.0878
36272W        W45072   3.091   4.700  26.027  0.2835  0.0321  0.1946
36273W        W45073   1.061   1.431  40.463 -0.0108  0.0836 -0.1948
36274W        W45074   3.214   2.547   8.901  0.1970  0.1096  0.1909
36275W        W45075   7.233   6.567  25.881 -0.1472 -0.1337 -0.0938
36276W        W45076   2.213   1.916  40.115  0.0054 -0.1511  0.3893
36277W        W45077   5.191   3.966   7.583  0.0833  0.0112 -0.0008
36278W        W45078   1.973   2.751  32.649  0.1213 -0.0604 -0.0377
36279W        W45079   5.442   3.133  21.074 -0.0553  0.1101 -0.2106
36280W        W45080  15.453   0.176  44.537 -0.0855  0.1444  0.1295
36281W        W45081   9.986   2.407  28.723 -0.1214 -0.1663  0.1822
36282W        W45082  11.544   5.552  31.046  0.1225 -0.2154  0.0582
36283W        W45083   8.030   2.124  40.035 -0.0807  0.0198  0.0099
36284W        W45084   6.765   3.613  31.118  0.2327 -0.2720  0.1921
36285W        W45085  15.387   5.844  41.826  0.3071 -0.0477  0.2406
36286W        W45086  14.372   4.091   4.117 -0.0879 -0.0648  0.1282
36287W        W45087   8.219   4.779  40.495  0.0399  0.3000  0.0614
36288W        W45088  15.667   2.500  42.632 -0.1475  0.3080  0.1829
36289W        W45089  15.263   2.073   1.885 -0.3065 -0.0674  0.1751
36290W        W45090  20.255   5.517  32.738  0.2056  0.1513  0.1373
36291W        W45091  12.239   0.280  39.834 -0.2273  0.1025  0.1225
36292W        W45092  16.266   5.078   0.751  0.1227  0.0739 -0.0722
36293W        W45093  11.175   4.420  37.843 -0.0663  0.0358 -0.1251
36294W        W45094  20.425   0.842  38.120 -0.1605 -0.1599 -0.0331
36295W        W45095  11.732   5.609  14.671 -0.0779  0.2344  0.1509
36296W        W45096  17.735   3.842   2.011  0.2211 -0.1450  0.0813
36297W        W45097  17.486   1.672  40.177 -0.1967 -0.0983 -0.0827
36298W        W45098   9.571   2.776  18.061  0.0012 -0.2289  0.1506
36299W        W45099   2.277   6.046  32.536 -0.0066 -0.0232  0.1538
36300W        W45100  14.853   5.795  35.518  0.0846  0.3907 -0.0416
36301W        W45101  12.959   5.155  10.777  0.1160 -0.0348  0.1622
36302W        W45102  19.533   2.210  37.268 -0.2455 -0.1337 -0.0819
36303W        W45103  19.967   2.860   6.704 -0.2143 -0.2246 -0.0419
36304W        W45104  19.237   6.044  35.512  0.0561  0.1267  0.2031
36305W        W45105   4.911   4.513  37.455 -0.0394 -0.1495  0.0934
36306W        W45106  18.026   3.975  17.118  0.0242  0.0585  0.1721
36307W        W45107   5.274   6.132  37.097  0.0667  0.0635 -0.0573
36308W        W45108   1.905   4.704  44.013 -0.0695  0.1128 -0.1977
36309W        W45109   8.396   3.417  40.467  0.0570  0.1161  0.0566
36310W        W45110  13.735   1.661  12.241 -0.2023  0.1652 -0.0861
36311W        W45111   7.326   2.652   4.367 -0.0505 -0.3754  0.1078
36312W        W45112  14.664   2.931   7.300  0.1198  0.0941  0.1830
36313W        W45113  10.816   4.670  34.698 -0.0154 -0.0515 -0.2067
36314W        W45114   1.413   1.293  12.195 -0.1743 -0.4525  0.3142
36315W        W45115   8.834   0.228  32.334  0.2133 -0.1251 -0.0109
36316W        W45116  17.130   0.940  31.281 -0.0117 -0.1354 -0.2776
36317W        W45117  18.703   1.145  11.651  0.0389  0.0170 -0.0725
36318W        W45118  12.382   3.071  37.587 -0.1681  0.0644  0.0979
36319W        W45119  18.448   0.499   2.767 -0.0525  0.0702 -0.0990
36320W        W45120   5.026   4.098   5.438 -0.3584  0.2174  0.0348
36321W        W45121  20.226   2.308   1.994  0.5138  0.0858 -0.0272
36322W        W45122   9.303   0.129   7.628  0.0385  0.1088  0.2148
36323W        W45123   0.799   6.206  12.686  0.2269  0.1250 -0.1531
36324W        W45124   5.049   4.331  22.012  0.1574 -0.1198 -0.0593
36325W        W45125   9.449   5.128  34.353  0.0226  0.2148  0.0392
36326W        W45126   4.867   6.530   3.405  0.0835 -0.1355 -0.2203
36327W        W45127  16.950   2.110  15.342  0.2099  0.0731  0.2348
36328W        W45128   1.790   5.462  14.748  0.0909 -0.0367  0.0161
36329W        W45129   0.975   3.536  37.255 -0.2117  0.0569  0.1598
36330W        W45130   2.939   3.131  27.248 -0.3144 -0.1608  0.4573
36331W        W45131  13.597   4.641   3.645 -0.2530 -0.0631  0.1412
36332W        W45132  11.828   0.374  32.032 -0.0252 -0.1065 -0.0615
36333W        W45133   7.020   2.878   6.132 -0.1297 -0.1665  0.0723
36334W        W45134   5.311   1.788  14.343  0.0293 -0.0092 -0.1059
36335W        W45135  10.265   0.362   7.688  0.1050 -0.1972  0.2032
36336W        W45136  18.223   3.533  16.887  0.0119 -0.1084  0.0753
36337W        W45137  14.373   1.794  32.382 -0.1712 -0.2429  0.2137
36338W        W45138   0.515   1.242  35.704 -0.2016  0.0029  0.1397
36339W        W45139  17.192   5.286   8.285 -0.2034 -0.0225 -0.1254
36340W        W45140   8.542   6.085  25.849  0.1861  0.3466 -0.2169
36341W        W45141  16.672   4.385  33.360 -0.2213 -0.1394 -0.3131
36342W        W45142  11.527   3.700  20.902 -0.0004 -0.0898 -0.1364
36343W        W45143   6.387   5.422  24.402  0.0444 -0.2191  0.2353
36344W        W45144   3.707   5.644   5.825  0.2404  0.2192 -0.0980
36345W        W45145   5.637   2.454   5.874 -0.1325  0.0882 -0.0260
36346W        W45146   8.946   4.583  27.457  0.0294 -0.0270 -0.2975
36347W        W45147   5.252   5.873   3.889 -0.0699 -0.2147  0.1360
36348W        W45148   9.754   5.946   3.837 -0.1872  0.1134  0.0029
36349W        W45149  19.234   3.465  16.300 -0.0006  0.1994 -0.0898
36350W        W45150  11.232   3.745   2.822 -0.0972 -0.0831 -0.0258
36351W        W45151  10.412   5.368  19.850 -0.0764  0.0825 -0.4584
36352W        W45152  18.124   2.281  42.615 -0.0381 -0.2689  0.0075
36353W        W45153  17.946   2.011  33.209 -0.3147  0.1282  0.2508
36354W        W45154  20.354   0.914  27.345 -0.2044  0.1049  0.0385
36355W        W45155  17.329   5.217   5.036 -0.0287 -0.0398 -0.0510
36356W        W45156  18.900   0.503  32.327  0.4297  0.2034 -0.0007
36357W        W45157   0.590   2.151   4.670 -0.1392 -0.0897  0.2095
36358W        W45158  15.779   1.609  32.687 -0.0491 -0.0516  0.0521
36359W        W45159   8.319   2.663  10.985 -0.0340  0.3236 -0.0114
36360W        W45160  16.265   3.886  15.090 -0.3040 -0.0666 -0.2243
36361W        W45161   7.216   1.608   4.265 -0.1060  0.0708  0.1685
36362W        W45162  10.488   3.726  28.634 -0.1373 -0.0994  0.2573
36363W        W45163   9.179   5.363  11.866 -0.0448 -0.1736  0.2347
36364W        W45164   5.341   4.417  28.144  0.0186 -0.1283 -0.1144
36365W        W45165  10.299   2.496   4.012 -0.0838  0.0813 -0.0571
36366W        W45166  19.387   3.697  11.793 -0.0155 -0.1752  0.3505
36367W        W45167  15.959   0.437   6.085  0.2167  0.1294 -0.2167
36368W        W45168   0.787   6.094  40.057 -0.0496  0.1515 -0.4637
36369W        W45169  12.185   1.503  19.374 -0.0737 -0.1685  0.2415
36370W        W45170   4.289   2.306  43.683  0.0902 -0.0581  0.1006
36371W        W45171  15.417   4.632   4.904 -0.2877  0.0147  0.3876
36372W        W45172   4.967   3.204  37.174 -0.4287 -0.3444  0.2280
36373W        W45173   7.875   2.682  30.934 -0.0855  0.3576 -0.2365
36374W        W45174  20.982   4.307  16.223  0.0725 -0.3811 -0.2262
36375W        W45175   5.464   6.200  22.677  0.1249 -0.3582  0.2639
36376W        W45176   6.430   3.201  23.593 -0.0458  0.2186  0.1230
36377W        W45177  17.609   4.503  12.811  0.0394  0.2941  0.3455
36378W        W45178   1.077   2.624   8.490  0.2205  0.0189 -0.4074
36379W        W45179   2.036   4.416   0.728 -0.1553  0.1141  0.0076
36380W        W45180   4.912   4.481  24.942 -0.1253 -0.0189  0.3366
36381W        W45181  13.899   4.207   3.829 -0.2311  0.1207 -0.0158
36382W        W45182  20.497   1.360  27.868 -0.0070  0.0514  0.1389
36383W        W45183  15.237   5.625  15.477 -0.1449  0.3287 -0.0534
36384W        W45184  20.404   3.491  38.756 -0.0817 -0.2247  0.0554
36385W        W45185   3.464   2.859  24.846  0.2097 -0.1562  0.0023
36386W        W45186   0.577   4.863  45.026  0.0265  0.1432  0.1663
36387W        W45187  18.452   5.930  33.761  0.2217 -0.0829  0.0770
36388W        W45188   7.069   2.544   3.288  0.0471  0.1296 -0.0515
36389W        W45189   5.593   4.816  28.934 -0.1635  0.0326  0.2691
36390W        W45190  18.343   3.570  36.575  0.1254  0.3508  0.0542
36391W        W45191  16.530   5.890  18.411 -0.2552 -0.0190 -0.2408
36392W        W45192  15.745   3.042  34.480 -0.0987  0.0006 -0.0406
36393W        W45193  19.456   5.399   3.655 -0.1061 -0.0481 -0.0742
36394W        W45194   1.771   1.176  37.953 -0.1846 -0.1492 -0.1323
36395W        W45195   9.051   1.723   6.782  0.0592 -0.0070  0.0968
36396W        W45196   0.790   3.543  11.390  0.0001  0.3210 -0.0513
36397W        W45197   4.151   0.962  34.244  0.2295  0.5159  0.3201
36398W        W45198   0.200   1.738  38.135  0.1593  0.0560 -0.0204
36399W        W45199   7.605   3.229  26.418  0.2112  0.1058  0.0293
36400W        W45200   1.758   4.980  37.474 -0.0015  0.0296 -0.2301
36401W        W45201  20.119   1.182  10.000 -0.0340  0.0322  0.3644
36402W        W45202  21.147   2.044   3.969  0.0450 -0.4487  0.1060
36403W        W45203   2.072   6.594   5.445 -0.1972 -0.0432  0.3103
36404W        W45204  20.246   0.310  29.047 -0.0116 -0.0683  0.0632
36405W        W45205   2.686   5.855   6.054  0.0865 -0.3025  0.0188
36406W        W45206   5.315   3.523  43.898 -0.0904  0.1897 -0.2573
36407W        W45207   3.284   2.099  18.755  0.3248  0.2201 -0.3107
36408W        W45208   6.392   2.078   0.521 -0.0751  0.0856  0.1610
36409W        W45209  16.521   1.464  28.318 -0.4417 -0.0287 -0.0671
36410W        W45210  20.950   3.355  36.098  0.0528  0.0173  0.1754
36411W        W45211  13.261   1.984  29.048 -0.0867  0.0854  0.2104
36412W        W45212  14.242   4.387  18.650 -0.1320 -0.0482 -0.0092
36413W        W45213  17.893   3.254  32.691  0.0511 -0.1463  0.1528
36414W        W45214   9.565   0.435  44.884 -0.0963  0.2378 -0.0708
36415W        W45215  14.732   2.424  12.409 -0.0181  0.1512 -0.1193
36416W        W45216   9.408   4.594  42.951 -0.2071 -0.1123  0.2829
36417W        W45217   2.644   4.235  15.189 -0.4834  0.2275 -0.1919
36418W        W45218  13.634   0.781  33.764 -0.0445 -0.0264 -0.1692
36419W        W45219  17.972   1.945  13.041 -0.4108  0.2579 -0.1484
36420W        W45220   8.807   6.532   5.809  0.0449 -0.1093  0.0849
36421W        W45221   1.469   3.187  41.861 -0.0102  0.2575  0.2962
36422W        W45222  10.470   0.025  43.906  0.1179 -0.0187 -0.1940
36423W        W45223  14.452   1.401  10.516 -0.1787  0.1498 -0.1198
36424W        W45224  13.658   2.650  33.596 -0.0971  0.1816 -0.0121
36425W        W45225  20.466   2.139   7.582 -0.1042  0.0751 -0.1897
36426W        W45226  14.818   2.835  15.788 -0.0950 -0.0203 -0.2497
36427W        W45227  14.432   2.141  19.861  0.1357 -0.1313 -0.0562
36428W        W45228   7.501   0.272  30.752  0.1642  0.3195 -0.0083
36429W        W45229   4.419   4.462  14.671 -0.0162 -0.4701 -0.0372
36430W        W45230  20.865   5.385  12.172  0.0770 -0.4874 -0.0800
36431W        W45231   0.094   0.603  40.416  0.2178 -0.3816  0.0871
36432W        W45232  20.485   5.870  36.421  0.1234  0.2429  0.1973
36433W        W45233  21.126   2.477  32.957  0.0807 -0.1239  0.0464
36434W        W45234   4.656   3.248  40.347 -0.0111  0.4348  0.0176
36435W        W45235  10.442   4.243  16.808 -0.2524 -0.1373 -0.1227
36436W        W45236  18.332   2.750  19.088 -0.0645 -0.0055  0.1914
36437W        W45237  14.649   4.010  44.279 -0.2156 -0.2863 -0.0465
36438W        W45238  16.390   3.133   0.646  0.2673 -0.1114 -0.0703
36439W        W45239  14.747   5.361   4.817 -0.2211 -0.0168 -0.1670
36440W        W45240  10.677   1.133   6.956 -0.0504  0.1633 -0.0104
36441W        W45241  14.724   5.754  44.411  0.0737 -0.0648 -0.0700
36442W        W45242  14.674   5.928  31.397 -0.1039 -0.1656 -0.0866
36443W        W45243   7.043   4.076  14.096 -0.1951 -0.1047  0.0793
36444W        W45244  15.215   4.728  23.682 -0.0333 -0.1407  0.0711
36445W        W45245  19.695   3.204  35.221 -0.1294 -0.1492 -0.1034
36446W        W45246  10.197   0.467  39.726  0.0485 -0.2833  0.2306
36447W        W45247   7.257   4.646   4.700  0.2093  0.1258 -0.0504
36448W        W45248   0.707   4.810   8.722 -0.0905 -0.1106 -0.0934
36449W        W45249   1.824   4.752  11.840 -0.1694  0.0434 -0.0466
36450W        W45250   6.612   4.720  42.929 -0.0422 -0.1989  0.0555
36451W        W45251  12.175   2.565  20.066  0.1672  0.0448  0.1363
36452W        W45252   9.733   1.218   5.954  0.2262 -0.1628  0.0480
36453W        W45253   1.492   4.339  36.725  0.4110 -0.0015  0.1290
36454W        W45254   4.436   0.188   1.619 -0.1255 -0.0298  0.1228
36455W        W45255  19.970   6.038  40.244  0.0642  0.0266 -0.2797
36456W        W45256   0.045   4.662  32.269  0.2783  0.5229 -0.1910
36457W        W45257   9.924   5.616  11.457  0.3132 -0.0692  0.0731
36458W        W45258  16.236   6.539  30.035 -0.0205  0.1966 -0.3144
36459W        W45259  11.100   5.607  17.701  0.0935  0.0794  0.1904
36460W        W45260   7.554   5.249   5.505  0.4209  0.0803 -0.4042
36461W        W45261   1.445   5.398  35.348  0.0038  0.0238  0.1278
36462W        W45262  10.814   5.282  10.726 -0.0338  0.1013 -0.0462
36463W        W45263   2.595   6.073  23.406  0.2367  0.1904  0.3096
36464W        W45264   0.483   1.982  14.710  0.0270  0.2513  0.1421
36465W        W45265   2.672   4.755  39.538  0.0239  0.3635 -0.0756
36466W        W45266   6.962   4.332  26.232  0.2885  0.2211  0.1273
36467W        W45267  20.032   2.224  32.556 -0.0873 -0.0711 -0.1306
36468W        W45268   6.091   2.742   3.781 -0.0770 -0.0486  0.2148
36469W        W45269   1.249   5.086  24.211 -0.0241 -0.0643  0.3019
36470W        W45270  18.881   5.705  40.913  0.0754 -0.3996  0.0970
36471W        W45271  18.797   3.371  32.373 -0.1035  0.0022  0.0036
36472W        W45272  14.915   2.160  18.728  0.0602 -0.1127  0.1926
36473W        W45273  19.882   6.438  14.339  0.0030  0.2599  0.0802
36474W        W45274  14.905   5.758  25.328 -0.4034 -0.1025 -0.0509
36475W        W45275   4.519   2.546  28.380 -0.0624  0.3658  0.1515
36476W        W45276  16.158   0.836   7.800 -0.1896  0.2608 -0.0689
36477W        W45277  18.323   2.511  40.443  0.0085 -0.1507  0.1958
36478W        W45278  16.129   0.744   7.336 -0.1781 -0.2122  0.0997
36479W        W45279   5.361   5.738  30.616 -0.1160  0.1614  0.0697
36480W        W45280   6.437   3.272  29.497 -0.2228 -0.3527  0.3006
36481W        W45281  18.102   4.881  12.369  0.0657 -0.2586 -0.0673
36482W        W45282   1.089   4.904   0.556 -0.1441  0.0725 -0.3170
36483W        W45283  15.554   3.992  42.881  0.0092 -0.1878  0.0737
36484W        W45284   9.576   1.637  36.550  0.0926  0.0186  0.0374
36485W        W45285  20.498   3.038  41.646  0.0139 -0.0295 -0.2771
36486W        W45286  10.799   4.716  43.686 -0.0743  0.1537  0.0248
36487W        W45287  13.957   1.335  32.653  0.1784  0.0445  0.2034
36488W        W45288  20.552   1.867  31.611  0.0751  0.1801  0.5202
36489W        W45289   4.886   6.123   1.332 -0.1294 -0.2240 -0.3631
36490W        W45290  14.503   4.328  33.382 -0.1492 -0.1543 -0.2457
36491W        W45291  18.204   0.585  43.551 -0.0883  0.0843 -0.2850
36492W        W45292  14.392   3.116  13.050 -0.0946 -0.0433 -0.0056
36493W        W45293  16.263   2.008  40.134  0.5245  0.0199  0.0869
36494W        W45294  14.357   3.295  38.340  0.1118  0.3507  0.0099
36495W        W45295   8.046   1.321  37.759  0.1376 -0.1747  0.3225
36496W        W45296  14.585   4.107  39.798  0.0269 -0.3320  0.0809
36497W        W45297  19.914   0.879  13.510 -0.0178  0.1316  0.0276
36498W        W45298  15.457   3.616  36.860  0.0721  0.1539  0.3112
36499W        W45299   4.270   6.277  11.438  0.0953  0.0429 -0.0013
36500W        W45300   6.831   5.616  12.658 -0.1373 -0.0418  0.2641
36501W        W45301  14.755   0.010  33.134 -0.2180  0.0050 -0.0793
36502W        W45302   8.567   5.988  40.563 -0.2595  0.1877 -0.0490
36503W        W45303  19.241   0.582  36.904 -0.0299  0.1158 -0.1608
36504W        W45304  10.646   0.514   5.301 -0.1867  0.1499 -0.0304
36505W        W45305   3.415   5.965  14.009  0.1950 -0.1013 -0.3457
36506W        W45306  18.643   5.142   9.531 -0.3915  0.0757  0.0313
36507W        W45307   0.612   5.110   9.188 -0.1437  0.2798 -0.1755
36508W        W45308  18.158   5.566  37.532  0.0813 -0.1608  0.1364
36509W        W45309  12.190   5.513   8.740  0.0522  0.2563  0.0830
36510W        W45310   9.476   2.083  36.141  0.0246  0.0402 -0.0766
36511W        W45311   8.441   6.365  15.330 -0.0950 -0.3166 -0.0352
36512W        W45312   7.311   3.069  28.043 -0.2092  0.2950 -0.2171
36513W        W45313   6.963   5.739  35.060  0.2100 -0.1508 -0.0400
36514W        W45314   9.923   4.945  38.084 -0.5115  0.0936  0.0675
36515W        W45315   5.732   5.730  26.245 -0.0692  0.1732  0.1098
36516W        W45316  20.046   5.645  16.103 -0.1107 -0.0538  0.0434
36517W        W45317   7.540   2.151   9.455 -0.0726 -0.0669  0.3207
36518W        W45318   3.844   4.373   6.170 -0.3887 -0.1696 -0.0198
36519W        W45319  13.308   5.377   1.422 -0.3494 -0.0998  0.0755
36520W        W45320  20.563   0.420   0.815 -0.1463  0.0381 -0.3213
36521W        W45321   9.862   2.347   3.647 -0.2516 -0.1991 -0.0516
36522W        W45322  18.609   1.015  38.052 -0.1355 -0.1627  0.1568
36523W        W45323  12.366   5.894   9.603 -0.1557 -0.2021  0.1711
36524W        W45324   6.566   3.359  14.400 -0.2186 -0.0545  0.0021
36525W        W45325   3.385   4.213   0.388  0.0948  0.0354  0.0647
36526W        W45326  17.982   1.438  42.106  0.0992 -0.1309  0.1578
36527W        W45327  16.874   3.776  43.568  0.3080 -0.1979 -0.0813
36528W        W45328   1.505   5.608  24.074  0.1524 -0.0990  0.1592
36529W        W45329  18.876   0.774   2.738  0.2364  0.0445 -0.1458
36530W        W45330  18.041   4.768  34.159 -0.1026  0.0626 -0.2046
36531W        W45331   1.815   1.098  14.943  0.0527 -0.3296  0.0451
36532W        W45332  12.372   2.801  14.681 -0.0275  0.0772  0.1671
36533W        W45333   8.070   3.270  16.711 -0.3409 -0.2337 -0.2420
36534W        W45334  16.532   4.393   5.768 -0.0256 -0.1367  0.0741
36535W        W45335  18.862   3.319  39.548  0.3341  0.2190  0.0881
36536W        W45336  18.455   1.217  40.945  0.1346  0.0850  0.0572
36537W        W45337  12.141   5.675  10.996 -0.0471  0.1177 -0.3417
36538W        W45338  10.265   1.519  36.074  0.1991 -0.1590  0.1953
36539W        W45339  17.994   1.377   7.437 -0.2420  0.5409 -0.0378
36540W        W45340  20.092   2.294  19.147 -0.0549  0.1356 -0.1308
36541W        W45341  11.156   0.766   5.503 -0.0593  0.1387  0.1526
36542W        W45342   9.921   0.911   6.415 -0.0624  0.1462 -0.0458
36543W        W45343  13.543   2.790  40.447  0.2233  0.2037  0.0426
36544W        W45344   3.440   4.955   4.813  0.2579  0.1268  0.0294
36545W        W45345  11.776   2.224   4.327  0.0170  0.3281 -0.0929
36546W        W45346  15.559   1.906  15.536  0.0933 -0.3625 -0.0268
36547W        W45347   1.423   3.081  11.806  0.1479  0.1689 -0.1371
36548W        W45348   1.101   1.608  10.445  0.3411 -0.0438 -0.3163
36549W        W45349  16.342   3.113  31.552  0.4019  0.1327  0.1467
36550W        W45350   3.373   3.324  27.861  0.1532 -0.0091  0.1560
36551W        W45351   7.421   1.569  44.975  0.1083 -0.1509 -0.0786
36552W        W45352   9.528   2.725  12.912 -0.1012 -0.0618  0.1283
36553W        W45353  10.716   2.549  14.174 -0.1670 -0.0220 -0.0751
36554W        W45354  13.815   0.425   1.104  0.5248  0.4429 -0.3111
36555W        W45355  17.508   5.479   5.619  0.3600  0.1748  0.0198
36556W        W45356  20.571   1.680  11.634 -0.1186 -0.0133 -0.0406
36557W        W45357  13.859   0.367   0.622  0.0309  0.1395 -0.2293
36558W        W45358   6.676   0.990   7.800  0.0457 -0.1801 -0.0182
36559W        W45359   8.447   5.286  10.963  0.1344 -0.1334  0.4177
36560W        W45360   7.293   4.145   1.175 -0.2507  0.0407 -0.3200
36561W        W45361  11.903   3.339   1.772 -0.5386 -0.0312  0.0919
36562W        W45362   9.289   6.251  17.659  0.2698  0.0453  0.0920
36563W        W45363   2.267   5.580   8.627 -0.3215 -0.1553  0.0258
36564W        W45364   7.895   3.777   2.339  0.4432  0.3303  0.0598
36565W        W45365   7.904   1.580  12.070  0.1308  0.2466  0.2812
36566W        W45366   9.032   5.309  36.932  0.1416 -0.0273 -0.4356
36567W        W45367  15.981   0.738  11.063 -0.0070 -0.1028  0.0205
36568W        W45368   9.314   4.819  39.637 -0.1039 -0.0201  0.1567
36569W        W45369   7.963   3.580  43.962 -0.1021  0.0239  0.3638
36570W        W45370  16.544   6.402  32.981 -0.1918  0.1834  0.2411
36571W        W45371  19.774   6.565  40.546 -0.0857 -0.1148  0.0728
36572W        W45372   9.225   3.463  41.043 -0.0079 -0.3921  0.0958
36573W        W45373   0.037   0.612   1.431 -0.0267  0.0093 -0.1196
36574W        W45374  15.535   4.342  41.529 -0.0866  0.1983  0.0204
36575W        W45375   4.715   5.371  31.213 -0.1246 -0.1273  0.0924
36576W        W45376  11.863   1.718   3.463 -0.4633 -0.0700  0.0111
36577W        W45377   1.471   2.390  27.534 -0.0195 -0.0944 -0.0258
36578W        W45378   9.522   4.744   1.691 -0.1339 -0.2125  0.0455
36579W        W45379   0.111   2.062  26.015 -0.0544  0.1455  0.0860
36580W        W45380  11.884   1.638   0.200 -0.0258  0.1003 -0.2793
36581W        W45381  18.694   4.386  16.580 -0.0252 -0.1066  0.0485
36582W        W45382  15.930   0.796  31.734 -0.1823 -0.3863  0.0853
36583W        W45383  12.931   1.113  19.881 -0.1784  0.3607  0.0689
36584W        W45384  13.239   4.329  11.803  0.1926  0.1273  0.0105
36585W        W45385  15.862   2.662  14.847  0.2199  0.1406 -0.0332
36586W        W45386  11.718   2.074   6.861  0.0132  0.0316 -0.1578
36587W        W45387  12.977   2.246  34.214  0.0291 -0.0752 -0.2773
36588W        W45388   8.613   0.761  31.488  0.1923 -0.3021  0.1385
36589W        W45389  15.671   5.003   6.617  0.1088 -0.0307  0.2115
36590W        W45390  18.662   1.097  42.325 -0.2279  0.2359 -0.0413
36591W        W45391   6.701   0.338  33.132  0.0102 -0.1355 -0.0092
36592W        W45392   6.422   0.209   7.503 -0.2092  0.0764  0.0977
36593W        W45393  17.309   0.633   3.472  0.1332  0.0407 -0.0599
36594W        W45394  18.664   1.340  31.103  0.1634 -0.1203 -0.1751
36595W        W45395   4.852   2.856  15.220  0.2408  0.1754  0.2377
36596W        W45396  12.960   1.313  43.154 -0.4897  0.0669 -0.0030
36597W        W45397   9.462   3.941   6.475 -0.2552  0.0248 -0.1416
36598W        W45398  17.723   4.703  12.028 -0.1062  0.1385  0.0684
36599W        W45399  16.895   5.050  39.862 -0.0612  0.3013 -0.0632
36600W        W45400  18.108   4.529  38.223 -0.2800 -0.0102  0.1782
36601W        W45401  20.843   6.423   9.823 -0.0296  0.3015  0.1322
36602W        W45402   2.697   4.356   3.361 -0.0230 -0.0490  0.1422
36603W        W45403   5.925   2.543  13.084 -0.2630  0.1478  0.0693
36604W        W45404  14.575   2.717   0.743  0.1890 -0.0815 -0.2061
36605W        W45405   5.330   1.824  42.239 -0.1138  0.0366  0.1402
36606W        W45406  15.327   5.741  36.551  0.1466  0.0720  0.0528
36607W        W45407  20.438   0.638  12.196 -0.1046  0.2394  0.2354
36608W        W45408   4.634   4.620  44.720  0.1258 -0.1089 -0.0910
36609W        W45409   2.902   5.791  37.090  0.1221 -0.1196 -0.0197
36610W        W45410  10.508   3.751  38.681  0.1896  0.1193 -0.1361
36611W        W45411  12.858   3.324  29.582  0.1031 -0.2083  0.1347
36612W        W45412   7.038   4.407  26.733 -0.0309  0.0118 -0.2458
36613W        W45413   1.930   5.091  33.965  0.1918 -0.1545  0.3454
36614W        W45414  19.359   4.931   0.985  0.0482  0.0008 -0.0631
36615W        W45415  19.862   6.455  35.875 -0.1710 -0.1484  0.1536
36616W        W45416  14.720   5.344  11.414  0.1302 -0.0595  0.0949
36617W        W45417   7.353   5.228  32.371  0.3021  0.0524 -0.2219
36618W        W45418  10.513   3.512  18.508  0.0780  0.0513 -0.0183
36619W        W45419  12.739   6.131   9.272 -0.0213  0.2924 -0.2346
36620W        W45420   0.485   6.597  36.552 -0.1653 -0.1632 -0.0793
36621W        W45421   7.924   4.727   1.713  0.1473  0.0701 -0.0794
36622W        W45422   9.874   4.942  29.127  0.1254  0.0219 -0.0050
36623W        W45423  15.565   2.948  41.289  0.0242  0.0041 -0.2367
36624W        W45424   3.826   2.598  33.760  0.0148 -0.3066 -0.0666
36625W        W45425   2.649   0.008  12.020  0.1461 -0.1707 -0.1395
36626W        W45426   6.059   4.797  15.339 -0.0615  0.0372 -0.2569
36627W        W45427  10.620   4.194  12.958 -0.0489  0.1195  0.1164
36628W        W45428  19.598   6.127  13.899  0.0388  0.1447 -0.0790
36629W        W45429   8.232   1.650  16.327  0.0622  0.0453 -0.2278
36630W        W45430   5.308   4.543  33.702  0.0106  0.0569 -0.1948
36631W        W45431   4.759   4.998  42.683  0.2418 -0.0707  0.1280
36632W        W45432  11.641   4.308  39.183  0.4049  0.1065 -0.0197
36633W        W45433  18.134   5.221  31.908  0.1184  0.2056 -0.0585
36634W        W45434  10.407   3.968   4.900 -0.1191  0.2814 -0.0517
36635W        W45435   4.267   1.800  26.177  0.1525 -0.0530 -0.1234
36636W        W45436  19.615   6.454   9.914  0.2960 -0.0324 -0.0331
36637W        W45437   2.398   4.917  26.085  0.2068 -0.1861 -0.1550
36638W        W45438   1.816   2.195   7.612  0.0898 -0.0359 -0.2523
36639W        W45439  12.641   6.202  35.597  0.0669 -0.1436  0.1363
36640W        W45440   0.026   1.456  31.098  0.3317 -0.2340 -0.0062
36641W        W45441  15.781   4.744   9.319 -0.2651 -0.1967 -0.2134
36642W        W45442  15.086   0.883  42.861 -0.1710  0.2652  0.0518
36643W        W45443  14.089   6.079  13.218  0.2017 -0.1137 -0.2151
36644W        W45444   7.579   1.647   7.998  0.0521 -0.2513 -0.1290
36645W        W45445  21.142   1.487  44.005 -0.0117  0.0516  0.1279
36646W        W45446  17.535   2.117   4.574 -0.1940 -0.0991 -0.0057
36647W        W45447  19.463   1.977  33.588  0.0768 -0.0249  0.0327
36648W        W45448   2.483   3.117  37.028 -0.3597 -0.4251  0.3153
36649W        W45449  14.728   1.935  12.403 -0.1153 -0.0405  0.0292
36650W        W45450   8.957   2.987  37.875 -0.0560  0.0890  0.1564
36651W        W45451   6.326   4.284  41.671 -0.2584  0.1849 -0.1187
36652W        W45452   7.705   1.357  15.979  0.2906  0.0938  0.0708
36653W        W45453   9.917   4.534  36.996 -0.3485  0.0134  0.2768
36654W        W45454  11.735   3.071  17.331 -0.0953 -0.1121  0.2891
36655W        W45455   2.694   0.704  15.006  0.4132  0.2667 -0.3233
36656W        W45456   4.441   2.712  10.747  0.3807  0.0978  0.1974
36657W        W45457   8.069   0.295  16.681  0.2772 -0.1370 -0.1566
36658W        W45458   9.236   6.172   2.288 -0.1861  0.1301 -0.0954
36659W        W45459  17.964   1.224  44.020 -0.0525 -0.2747  0.2158
36660W        W45460  19.925   2.821  44.683 -0.2857  0.0563  0.1717
36661W        W45461   3.447   6.091   9.523 -0.3473  0.1396 -0.0331
36662W        W45462  15.756   3.874  30.728 -0.1003 -0.0994  0.3694
36663W        W45463  17.772   2.218  17.296 -0.2514  0.2123  0.0077
36664W        W45464   9.126   2.516   4.721 -0.0579  0.1361 -0.1660
36665W        W45465  17.127   4.810   9.655 -0.0655 -0.1905  0.0801
36666W        W45466   7.275   0.751  37.298 -0.1120  0.2221 -0.0883
36667W        W45467   4.238   2.465   9.043  0.1484  0.0954  0.2771
36668W        W45468  18.646   0.640   8.896  0.4389 -0.1086  0.2681
36669W        W45469   5.978   1.222  40.462  0.0186  0.3175 -0.2716
36670W        W45470   2.247   3.588  35.720 -0.0109  0.0896 -0.0360
36671W        W45471  18.556   2.020  13.034 -0.0396 -0.0503 -0.0017
36672W        W45472   4.153   2.138  27.468  0.1494 -0.0931  0.3064
36673W        W45473  17.412   2.556   8.721 -0.0279 -0.0967 -0.3602
36674W        W45474  10.849   2.961   2.651  0.0210  0.1303 -0.0026
36675W        W45475  10.254   5.039   3.541  0.4619  0.0559  0.1253
36676W        W45476  17.629   6.272  14.968  0.3957  0.1343 -0.0658
36677W        W45477   0.188   1.078  28.398  0.1312  0.2077  0.2170
36678W        W45478  18.897   0.181   8.020 -0.2019 -0.0471 -0.0126
36679W        W45479  18.876   1.303  29.242 -0.2931 -0.0419 -0.3886
36680W        W45480  21.075   2.054   1.394  0.0237  0.1417  0.3393
36681W        W45481  17.470   1.513   7.219 -0.1168  0.0965  0.0770
36682W        W45482   4.283   2.684  21.078  0.0862 -0.0684  0.1828
36683W        W45483  11.679   5.941  17.187 -0.0149 -0.2817 -0.1928
36684W        W45484  20.308   6.000   7.973  0.1969  0.0721 -0.0821
36685W        W45485  11.885   3.279  15.495 -0.1116  0.1750  0.1677
36686W        W45486   4.913   3.401  38.298  0.2389 -0.0307 -0.0132
36687W        W45487  15.154   3.536  16.062 -0.0526 -0.1620  0.1929
36688W        W45488   0.591   2.562   5.959 -0.1934 -0.1202  0.0870
36689W        W45489  17.626   3.782   2.625  0.2871 -0.1009  0.2933
36690W        W45490  12.926   5.426   0.365 -0.2616 -0.4844 -0.2834
36691W        W45491  10.868   4.336  10.102 -0.0254 -0.0156 -0.0259
36692W        W45492  20.789   4.621  41.829  0.1952  0.2316  0.0708
36693W        W45493  20.029   0.490  27.655  0.2781  0.1036  0.0907
36694W        W45494   1.100   5.740  41.142  0.0723 -0.1893 -0.0607
36695W        W45495  15.789   4.212  36.201  0.2558 -0.2578  0.0411
36696W        W45496  15.514   0.409  30.955 -0.2320  0.1202 -0.3716
36697W        W45497  10.832   5.979  36.593  0.3162  0.0080  0.0241
36698W        W45498   6.113   6.071  37.762 -0.2044  0.1947  0.2411
36699W        W45499  19.196   1.065  13.194 -0.1525  0.0716 -0.0086
36700W        W45500   7.720   0.953  42.590 -0.1026  0.1912 -0.1080
36701W        W45501  12.295   4.617  10.275 -0.0834 -0.0904  0.3901
36702W        W45502   2.411   6.267   6.161  0.1148  0.0862 -0.0737
36703W        W45503  14.797   5.344  19.503 -0.1729  0.0666 -0.3304
36704W        W45504   6.663   3.587   1.385  0.0163 -0.0237  0.0017
36705W        W45505  14.046   0.345  33.839 -0.1375  0.0483 -0.0774
36706W        W45506   1.900   1.594   7.218 -0.0646  0.5516  0.1505
36707W        W45507  18.058   1.173  16.345 -0.0294  0.0114  0.0167
36708W        W45508  13.398   5.369   4.972  0.1202 -0.2914  0.1145
36709W        W45509   4.024   5.306  20.110  0.1510 -0.0468 -0.1561
36710W        W45510  13.605   2.996   9.241  0.1837  0.1252 -0.1317
36711W        W45511   5.897   1.510   5.936  0.1560  0.0177  0.0892
36712W        W45512  17.518   1.999  14.571  0.2534  0.1985  0.0560
36713W        W45513  15.878   1.865  33.783 -0.0046 -0.0709  0.2927
36714W        W45514  10.704   3.894   9.294 -0.1889  0.1217 -0.2684
36715W        W45515  17.208   2.650   2.598  0.1113 -0.3401 -0.0788
36716W        W45516   9.572   6.269  26.776  0.3164  0.0701 -0.1397
36717W        W45517  11.871   5.212  13.281  0.1629  0.0665  0.1820
36718W        W45518   4.123   3.989  44.950 -0.1454 -0.1339 -0.0190
36719W        W45519   3.355   2.240   7.978  0.1162  0.1548  0.2020
36720W        W45520  14.961   1.259  45.120 -0.2603  0.1583  0.2593
36721W        W45521  13.702   1.933  13.382  0.0927 -0.2415  0.1956
36722W        W45522   8.746   1.592  13.752  0.1398 -0.1233 -0.0609
36723W        W45523  10.825   4.867  30.650 -0.0683  0.1813 -0.2189
36724W        W45524   1.758   0.403   1.939  0.0867  0.0676 -0.2760
36725W        W45525  18.256   0.611  29.540  0.0626 -0.1076 -0.0152
36726W        W45526  16.912   2.527  44.283  0.2644  0.1657  0.0058
36727W        W45527  13.265   0.627   7.054 -0.1901  0.1860  0.0211
36728W        W45528   2.037   3.991  38.603 -0.1780  0.2980  0.0092
36729W        W45529  20.491   0.786  11.014  0.0813 -0.1501 -0.0958
36730W        W45530   2.922   0.040  13.809  0.3232  0.2658 -0.0554
36731W        W45531  12.533   1.350  13.228 -0.0363 -0.0894  0.1841
36732W        W45532   2.077   1.713  13.179 -0.2169  0.0610 -0.2276
36733W        W45533  12.307   6.163  29.649  0.2151 -0.2425 -0.0959
36734W        W45534   2.404   0.925   4.971  0.0784  0.1920  0.0055
36735W        W45535  19.269   1.817  42.109  0.0556  0.0984  0.0431
36736W        W45536  14.752   4.176   5.983 -0.1036  0.0591 -0.0749
36737W        W45537   1.102   5.517  13.315  0.1903  0.0237 -0.1306
36738W        W45538  18.508   4.677   7.525 -0.0982 -0.0592 -0.1313
36739W        W45539  14.913   1.139  31.439  0.0980 -0.1278  0.0373
36740W        W45540   0.928   5.678  40.372  0.2068 -0.0763 -0.1552
36741W        W45541   8.376   4.812  11.882 -0.1008 -0.1620 -0.0263
36742W        W45542   0.567   3.319  41.486  0.0241  0.2061 -0.0084
36743W        W45543  13.893   4.060   4.283  0.1830  0.0084  0.3529
36744W        W45544  13.251   5.068  12.083  0.0837 -0.2212 -0.1501
36745W        W45545   3.009   2.135  33.416  0.1584 -0.1499  0.2571
36746W        W45546   9.195   4.302  42.577  0.0752 -0.1549  0.2779
36747W        W45547  17.605   3.426   0.299 -0.1626 -0.0570  0.2681
36748W        W45548  13.936   4.903  15.862  0.1042  0.2348 -0.1877
36749W        W45549   1.490   3.327  13.193 -0.0907  0.1195 -0.1015
36750W        W45550  10.550   3.330   5.413  0.1378  0.0609 -0.0574
36751W        W45551   9.828   4.737  44.859  0.2438 -0.0181  0.2849
36752W        W45552  19.227   1.505   5.242 -0.0269  0.3011 -0.1602
36753W        W45553   4.371   1.368   5.051 -0.0581  0.1540 -0.1776
36754W        W45554   1.317   4.470  44.795  0.1600 -0.0451  0.0225
36755W        W45555  15.231   5.284   6.686  0.1155 -0.3268 -0.0022
36756W        W45556  21.005   2.564   7.423 -0.2634 -0.3243  0.1295
36757W        W45557   3.557   5.813  13.107  0.0672  0.1511 -0.0753
36758W        W45558   3.405   1.346  28.457  0.0500  0.3709 -0.0915
36759W        W45559  12.725   2.043  28.807 -0.1496 -0.2005  0.0668
36760W        W45560   4.986   5.974  30.431  0.0159  0.0820 -0.2791
36761W        W45561  14.414   6.435  10.836 -0.2550  0.3430 -0.1610
36762W        W45562  12.605   2.794  19.900  0.0460 -0.2133  0.1065
36763W        W45563   0.106   3.540  15.763 -0.1259  0.2747 -0.3706
36764W        W45564  14.276   1.930  19.430  0.1690  0.1521  0.0567
36765W        W45565   0.398   3.664  28.735 -0.2755 -0.0294 -0.0293
36766W        W45566   0.631   2.661   5.484 -0.0256 -0.0865  0.0676
36767W        W45567  14.130   5.176   5.494  0.2034 -0.1770 -0.1408
36768W        W45568   3.247   3.431  43.058 -0.3939  0.3454  0.1539
36769W        W45569   1.606   3.055  34.143 -0.0209  0.2034 -0.1735
36770W        W45570   4.481   1.174  26.184  0.0797 -0.1194  0.2697
36771W        W45571  21.160   1.217  41.557 -0.1777  0.1863  0.0686
36772W        W45572  16.026   4.373   3.700 -0.2253  0.2643  0.0417
36773W        W45573  11.281   6.205  17.225  0.3439 -0.1313  0.2013
36774W        W45574  20.015   1.771  29.173  0.2800  0.2062 -0.0771
36775W        W45575   7.065   5.702  34.488  0.1021 -0.2064 -0.1488
36776W        W45576  13.163   1.985  18.032 -0.2122  0.0628  0.3472
36777W        W45577  15.615   6.283  17.073  0.0706 -0.0501 -0.1055
36778W        W45578   1.428   1.826  38.629  0.0971 -0.0314  0.0621
36779W        W45579   1.973   3.762   8.694 -0.1451  0.0802 -0.1837
36780W        W45580  10.134   5.617   6.859 -0.0907 -0.1336  0.0431
36781W        W45581  16.141   0.420   4.989 -0.0512 -0.2851 -0.2784
36782W        W45582   0.692   4.052  33.271  0.0063  0.0712  0.2997
36783W        W45583   9.059   6.381  35.523 -0.0788  0.0511 -0.0494
36784W        W45584   1.021   0.214  26.967  0.1027 -0.0652  0.0545
36785W        W45585  12.387   3.649   5.779 -0.1159  0.0376  0.0255
36786W        W45586   1.778   0.637  35.991  0.1005 -0.3757 -0.2393
36787W        W45587   6.287   2.827  33.463  0.0143 -0.3175  0.3611
36788W        W45588  14.961   6.307   2.472 -0.1299 -0.1269 -0.1132
36789W        W45589  13.023   1.838  15.398 -0.0929  0.2872 -0.1775
36790W        W45590  20.805   6.384  13.668 -0.0817 -0.0291 -0.0600
36791W        W45591  15.427   3.191  33.278  0.0789  0.2437  0.1159
36792W        W45592  16.797   2.774  19.291  0.0478  0.2250  0.1433
36793W        W45593   1.611   3.815  23.885 -0.1403  0.0055 -0.1387
36794W        W45594   1.583   0.767  25.296 -0.0519  0.2687 -0.0187
36795W        W45595   4.119   5.329  34.379  0.0594  0.1607  0.0290
36796W        W45596  12.934   5.737  38.231  0.3106  0.1571  0.1537
36797W        W45597  16.038   4.043  21.678  0.0318 -0.1799  0.3940
36798W        W45598  12.655   5.071  31.001  0.0693  0.0197  0.1234
36799W        W45599   5.868   0.356  24.272 -0.3394  0.2532  0.0934
36800W        W45600  11.185   1.544  11.175 -0.3264  0.1921 -0.2396
36801W        W45601  15.745   1.529  44.464 -0.0450  0.2050 -0.0519
36802W        W45602  17.041   5.650   5.749  0.1221  0.3212 -0.2100
36803W        W45603  18.741   1.326  10.703  0.1842  0.2012 -0.1857
36804W        W45604   0.792   5.245  42.318  0.1932 -0.0660 -0.1314
36805W        W45605   2.608   2.038  29.697  0.1459 -0.0409  0.0876
36806W        W45606  13.540   6.295  22.087  0.0112  0.0695 -0.3239
36807W        W45607  14.882   1.255  15.429 -0.2083  0.0763  0.0258
36808W        W45608  16.262   4.071  34.253 -0.2342 -0.0020 -0.1178
36809W        W45609   9.369   6.263  29.244 -0.0713  0.1250  0.0190
36810W        W45610  15.168   6.038  23.748  0.2970 -0.0004  0.0224
36811W        W45611   9.659   4.892  35.253 -0.1471 -0.1553 -0.2385
36812W        W45612  12.452   3.234  18.036  0.1311  0.2117 -0.1582
36813W        W45613   4.464   6.517  20.908  0.1802  0.0442 -0.0493
36814W        W45614   3.246   3.445  10.105  0.0262 -0.0984  0.3509
36815W        W45615  13.880   4.695  16.828  0.4126 -0.2544 -0.0365
36816W        W45616   2.412   2.577  11.488  0.0027 -0.0528  0.1006
36817W        W45617   7.175   5.099   0.668 -0.2105 -0.1346 -0.0533
36818W        W45618   8.153   3.983  41.588  0.0156 -0.0314 -0.3293
36819W        W45619  10.420   0.851  11.934  0.0111  0.0563 -0.0830
36820W        W45620  19.915   0.668  40.125  0.0257  0.2465  0.1628
36821W        W45621   6.610   1.953  41.805  0.0158 -0.0516  0.3821
36822W        W45622   0.898   0.335  44.450 -0.1249 -0.0117 -0.3248
36823W        W45623   2.680   1.078  26.858 -0.0105  0.0385  0.1447
36824W        W45624  14.170   3.540   7.190 -0.2216  0.0915  0.3052
36825W        W45625   6.239   5.921  30.998  0.0089 -0.0630 -0.2755
36826W        W45626  13.892   2.802  29.063  0.1349  0.1605 -0.1315
36827W        W45627   1.558   5.571  32.644 -0.3492 -0.0085  0.2089
36828W        W45628   2.927   0.939  39.121  0.0613  0.0926 -0.3299
36829W        W45629   8.254   6.535  40.601 -0.0298 -0.0483 -0.2256
36830W        W45630  18.646   4.844  12.151 -0.0076  0.0369  0.1034
36831W        W45631  20.669   2.114  28.659  0.1069 -0.2099  0.2317
36832W        W45632  16.676   0.811   7.152  0.1063 -0.1279  0.0004
36833W        W45633  19.406   5.978  16.988 -0.1299  0.1531  0.2596
36834W        W45634  20.674   3.855   3.234  0.0556 -0.2020  0.1880
36835W        W45635  16.931   4.044  42.229 -0.0562 -0.2997  0.0578
36836W        W45636  11.654   2.702  17.700 -0.3704 -0.0299  0.0249
36837W        W45637  12.690   2.212  39.748 -0.0021  0.2225 -0.4829
36838W        W45638  21.143   0.880   7.263 -0.0959  0.0324 -0.2300
36839W        W45639  12.288   5.955  17.979 -0.0377  0.0907 -0.3374
36840W        W45640   9.525   0.583  41.964  0.1067 -0.1145  0.1088
36841W        W45641  16.085   2.118  19.000  0.3258  0.2675 -0.2071
36842W        W45642   3.794   0.029  33.383  0.3000  0.1277  0.0588
36843W        W45643  20.192   1.831  36.161 -0.1074  0.1500  0.0325
36844W        W45644  12.222   4.545  28.909 -0.0731 -0.1884 -0.1156
36845W        W45645  11.137   5.716  44.204 -0.1110 -0.1799  0.0581
36846W        W45646   2.767   2.334  43.908  0.2316  0.1701  0.4937
36847W        W45647   5.898   3.423  44.183  0.0049 -0.0122 -0.3639
36848W        W45648  18.883   5.621  38.554 -0.1615 -0.0316 -0.3438
36849W        W45649   7.763   4.304  44.414 -0.0671  0.3047 -0.2804
36850W        W45650   3.893   0.959  35.964 -0.0500 -0.1636 -0.2840
36851W        W45651  11.211   5.450  16.509  0.4207  0.0297 -0.0892
36852W        W45652  20.095   3.436   9.624 -0.0295  0.2673  0.1523
36853W        W45653  10.664   0.215  36.224 -0.0438 -0.0109 -0.0926
36854W        W45654   4.546   2.218  11.463  0.0593  0.1085  0.0680
36855W        W45655   8.342   2.007  17.171 -0.0740  0.0210  0.1063
36856W        W45656  16.672   1.843  12.884  0.2147  0.0501  0.2690
36857W        W45657  14.385   2.222  36.773 -0.0957 -0.3203  0.4003
36858W        W45658  18.220   4.013   1.126  0.2654  0.0753  0.0358
36859W        W45659  12.650   0.631  11.947 -0.1342 -0.4588  0.1602
36860W        W45660  17.789   3.215  16.880 -0.1336  0.0421 -0.0543
36861W        W45661   4.836   6.513  40.062 -0.1664  0.0625  0.2070
36862W        W45662   2.664   5.808   0.257 -0.1535  0.0021  0.3728
36863W        W45663   8.300   4.955   5.791 -0.1636 -0.0921  0.1935
36864W        W45664  11.033   3.025  14.244  0.1518  0.0801  0.0561
36865W        W45665   3.568   0.026  37.622 -0.2028 -0.0358  0.2061
36866W        W45666  20.100   2.773   3.616  0.0962  0.0705  0.2462
36867W        W45667  11.343   5.331  19.375 -0.1252  0.0375  0.0583
36868W        W45668   3.410   0.874  29.136 -0.0653  0.0538 -0.1370
36869W        W45669  15.074   2.986   2.299  0.1036 -0.0925 -0.1090
36870W        W45670  14.677   5.063   1.782  0.0604 -0.1678  0.0842
36871W        W45671  15.194   1.640  29.823  0.0024 -0.1060  0.0456
36872W        W45672   3.603   5.642   2.435  0.2725  0.0939  0.0461
36873W        W45673  12.768   6.522  34.642 -0.2914 -0.2643  0.0448
36874W        W45674   8.976   4.630  44.595 -0.0671  0.0170 -0.0345
36875W        W45675   8.099   5.592  12.235 -0.1935  0.1306  0.1122
36876W        W45676  14.215   0.174   7.842  0.1092 -0.0587 -0.1385
36877W        W45677  11.084   0.825  14.392 -0.0168 -0.0061  0.1042
36878W        W45678   2.085   3.367  36.822 -0.0446  0.1324 -0.0707
36879W        W45679   6.423   5.710   9.513 -0.0644  0.5500 -0.1900
36880W        W45680  18.665   0.428   2.363  0.0739 -0.1085  0.0507
36881W        W45681  20.418   6.251  10.090  0.0424  0.0053  0.0445
36882W        W45682   5.984   2.511   5.046 -0.2589 -0.0510 -0.2766
36883W        W45683   6.733   2.424  16.515 -0.0588 -0.1436 -0.0512
36884W        W45684  14.640   1.775  15.248  0.0654 -0.0351 -0.2091
36885W        W45685   8.369   4.213  39.755  0.0330  0.0440  0.1789
36886W        W45686  18.196   4.219   1.960  0.1649 -0.0017  0.0214
36887W        W45687  15.275   3.054  38.637 -0.1568 -0.0933 -0.0826
36888W        W45688   9.678   6.090  11.489 -0.1050  0.0479  0.1605
36889W        W45689   8.087   2.568  29.841 -0.0329 -0.0640 -0.1516
36890W        W45690  11.344   0.326  10.373  0.0431  0.1336 -0.1073
36891W        W45691   3.706   2.003  44.481  0.1175 -0.1515 -0.3836
36892W        W45692   7.497   4.639  10.995  0.0562  0.1469  0.1786
36893W        W45693   4.644   5.007   5.291  0.0537  0.0702  0.0075
36894W        W45694  15.669   1.017  12.946  0.0710 -0.1071  0.0374
36895W        W45695  13.726   4.119  32.057 -0.0770 -0.0219  0.0647
36896W        W45696   8.426   2.201  11.163 -0.1113 -0.1021 -0.0314
36897W        W45697   2.794   0.256  31.325  0.0844 -0.1130  0.1081
36898W        W45698   4.064   4.685  22.466  0.0964  0.4101  0.1065
36899W        W45699  12.943   4.102  15.182  0.1740  0.0464 -0.0624
36900W        W45700  10.154   2.077   0.620 -0.0014 -0.2201  0.0270
36901W        W45701  17.152   3.510  34.835  0.1811  0.0522 -0.1130
36902W        W45702   3.831   4.423  37.429 -0.3423  0.0118  0.3549
36903W        W45703   6.090   2.372  41.479  0.0357  0.4090  0.3414
36904W        W45704  19.483   5.544   9.359  0.2008 -0.0819  0.0661
36905W        W45705  17.271   3.742   6.296  0.0901 -0.1470 -0.2038
36906W        W45706  13.056   1.145  22.982  0.0288 -0.1046 -0.1055
36907W        W45707   2.906   2.660  45.063 -0.1184  0.0137 -0.1939
36908W        W45708   5.730   1.891  11.370 -0.1155  0.1559  0.0168
36909W        W45709   0.482   3.815  38.056 -0.2268 -0.0645 -0.1319
36910W        W45710   0.602   3.205  27.909 -0.1134 -0.3768  0.2599
36911W        W45711   6.818   4.531  45.103  0.1422  0.3169 -0.1968
36912W        W45712  11.634   4.147  19.131  0.2547  0.1635  0.2601
36913W        W45713   0.257   2.146  39.465 -0.2676 -0.0981 -0.1411
36914W        W45714  17.593   4.762   0.841  0.1146  0.0532  0.0314
36915W        W45715   0.029   5.270  37.044 -0.0489 -0.2385 -0.2121
36916W        W45716   5.761   4.747  36.370  0.1345 -0.0307 -0.0802
36917W        W45717   7.446   0.398  29.804 -0.4396 -0.0856 -0.2554
36918W        W45718   5.312   1.858  36.593  0.1436 -0.0654  0.2866
36919W        W45719   6.586   2.334  41.444 -0.1505 -0.3266 -0.0441
36920W        W45720   7.999   5.805  37.911 -0.2552  0.0731 -0.3254
36921W        W45721  17.155   4.927   5.969 -0.0343 -0.2280 -0.2629
36922W        W45722  16.055   2.272  37.496  0.5268 -0.0663 -0.1311
36923W        W45723  17.208   0.124  38.459  0.0846  0.0816  0.0973
36924W        W45724  12.826   2.079   4.626 -0.0639 -0.0113  0.1656
36925W        W45725  17.079   6.490  35.056  0.0151 -0.2116  0.1270
36926W        W45726   2.948   5.600  42.630 -0.3018  0.0135 -0.0202
36927W        W45727  17.234   2.024   7.942 -0.1474 -0.1391 -0.1777
36928W        W45728  16.819   5.008   3.595 -0.2291  0.1144 -0.2378
36929W        W45729   8.087   1.124  11.895 -0.1650  0.2073 -0.2001
36930W        W45730  10.646   6.062  17.045  0.0176 -0.0980  0.0395
36931W        W45731  18.031   6.101  16.585 -0.1931  0.1666  0.0031
36932W        W45732   3.711   1.961  10.311 -0.1474 -0.2386  0.2197
36933W        W45733  12.361   5.380  35.873  0.3704  0.2203  0.0858
36934W        W45734  12.009   2.394  38.169  0.1433 -0.2492  0.0510
36935W        W45735   5.298   5.646  35.481 -0.1176  0.2900  0.0680
36936W        W45736   9.656   2.419  43.180 -0.0472 -0.1140 -0.0047
36937W        W45737  12.128   5.774  14.421 -0.1413 -0.2246 -0.2685
36938W        W45738  15.565   6.484  20.169 -0.0360  0.0711 -0.0090
36939W        W45739   8.380   5.186  43.419 -0.0462 -0.1750  0.1427
36940W        W45740   3.531   0.157   5.166 -0.1313 -0.1881 -0.0087
36941W        W45741   0.454   1.699  25.856 -0.2246 -0.0657  0.0997
36942W        W45742  20.580   2.557  33.820 -0.3182  0.1611 -0.1015
36943W        W45743   5.897   5.293  30.745  0.0618  0.1507  0.3833
36944W        W45744  10.980   0.230  16.299  0.0044 -0.1045 -0.1464
36945W        W45745  14.204   1.012  23.599 -0.1086  0.4149  0.0745
36946W        W45746  14.691   5.261  21.727 -0.0444 -0.1816  0.2074
36947W        W45747  13.003   2.390   3.004  0.1349  0.0918  0.5045
36948W        W45748   6.632   5.208  27.057 -0.0871  0.0007  0.1495
36949W        W45749  10.019   5.096   0.460 -0.0411  0.0941 -0.2444
36950W        W45750  14.841   1.880   3.887  0.3884  0.3776 -0.2228
36951W        W45751   6.774   5.966  38.350 -0.4120  0.2548 -0.0336
36952W        W45752   0.000   3.282  27.326 -0.1822 -0.2142 -0.1909
36953W        W45753  20.487   6.399  34.357  0.1123 -0.1287  0.0438
36954W        W45754   9.951   1.609  10.757  0.1047  0.0695 -0.0755
36955W        W45755  16.061   3.735   3.268  0.0167  0.0583 -0.0700
36956W        W45756  13.167   3.091   9.729  0.0701 -0.0531 -0.2833
36957W        W45757  19.754   1.237   9.452 -0.0717  0.2038 -0.0341
36958W        W45758   9.940   0.392  30.294 -0.0337 -0.3922  0.2248
36959W        W45759  14.309   0.552  14.740 -0.0806  0.0257 -0.1377
36960W        W45760   0.423   5.732   4.118 -0.2631  0.2737  0.3903
36961W        W45761   5.706   5.426  41.204 -0.0856  0.0139 -0.1422
36962W        W45762  10.944   4.232  33.414 -0.0801  0.2069  0.1213
36963W        W45763  13.850   5.948   0.356  0.0904  0.1753 -0.1531
36964W        W45764   2.964   2.232  39.740 -0.2296  0.0550 -0.4068
36965W        W45765   7.439   4.661  27.465 -0.0027 -0.1118  0.2456
36966W        W45766   1.054   1.413  32.280  0.3128 -0.0790 -0.1688
36967W        W45767  14.819   4.724  30.695  0.0613  0.2818 -0.3440
36968W        W45768   6.531   6.485  41.916 -0.2282 -0.0920 -0.1733
36969W        W45769   9.729   0.206  41.745  0.2298  0.1263 -0.0751
36970W        W45770   9.474   2.221  37.485 -0.1022  0.1413 -0.0018
36971W        W45771   4.597   4.068   5.870 -0.0350  0.4859  0.0436
36972W        W45772   1.767   1.650  26.095  0.1318  0.2700  0.1203
36973W        W45773  15.158   3.310  43.964  0.2483  0.1377 -0.2053
36974W        W45774   3.809   1.016  20.670 -0.0956  0.2773  0.2627
36975W        W45775   2.869   0.869  42.664  0.2200 -0.0363  0.4425
36976W        W45776   9.647   1.809   7.831  0.1471 -0.0122  0.0189
36977W        W45777  14.365   3.770  30.256 -0.0689 -0.0494  0.1122
36978W        W45778  11.619   4.774  15.688  0.0214 -0.0397 -0.2835
36979W        W45779  19.502   3.260  18.050 -0.0062 -0.2911 -0.0892
36980W        W45780  17.620   2.437  39.762  0.2418  0.1286  0.0589
36981W        W45781  18.123   3.395  12.490 -0.0725  0.0425  0.0995
36982W        W45782  21.106   4.571   7.320 -0.1140 -0.0505  0.0714
36983W        W45783  19.209   0.289  39.680 -0.2133 -0.2249  0.0433
36984W        W45784   0.108   4.653  34.751  0.1517  0.0837 -0.0053
36985W        W45785  12.590   3.153  38.857 -0.0784  0.0230  0.0383
36986W        W45786  16.190   3.058  12.669 -0.0348 -0.1201  0.0172
36987W        W45787  20.877   3.365  31.160 -0.0762 -0.0352  0.1662
36988W        W45788   0.917   6.362  39.157  0.0464  0.3329  0.0138
36989W        W45789  14.700   5.565   1.895 -0.0752  0.2226  0.2406
36990W        W45790   2.980   0.545  10.415  0.1322 -0.0371  0.2034
36991W        W45791   2.104   5.227  42.074 -0.1969  0.0694  0.3170
36992W        W45792   1.183   2.878  12.766  0.0321  0.0497 -0.0345
36993W        W45793   0.211   6.019   6.078 -0.3085 -0.1278 -0.1222
36994W        W45794  10.418   3.276  31.253 -0.0066  0.0462  0.0850
36995W        W45795   1.149   4.920   9.224  0.1512  0.0767 -0.1167
36996W        W45796  19.698   1.577  27.370 -0.2345  0.0994 -0.1283
36997W        W45797   5.265   3.189  40.647  0.0933  0.0595 -0.0048
36998W        W45798  16.715   3.066  16.888  0.0234 -0.3549  0.0219
36999W        W45799  19.266   2.832  16.938  0.1219 -0.1192 -0.1078
37000W        W45800  12.512   0.113  31.805 -0.3483  0.1420 -0.1822
37001W        W45801  17.664   4.833  14.337 -0.1112  0.1229 -0.1010
37002W        W45802  19.689   4.200   8.434 -0.0382  0.1291  0.0741
37003W        W45803  15.332   0.424   8.933 -0.0978 -0.3221  0.1918
37004W        W45804  11.856   2.251  31.003 -0.1044 -0.3474 -0.1469
37005W        W45805  20.834   3.905  44.552  0.3168  0.2249  0.0187
37006W        W45806   5.814   4.242  38.958  0.1876  0.0339  0.0365
37007W        W45807  14.518   3.294  20.518 -0.0972 -0.0301 -0.1457
37008W        W45808   4.523   5.596   6.591 -0.2575  0.0106  0.0911
37009W        W45809   3.723   1.612  11.072  0.0826  0.1391  0.0775
37010W        W45810  13.544   3.616  29.826  0.1308 -0.2397 -0.1891
37011W        W45811  19.879   5.952   1.769  0.0184 -0.0177  0.0637
37012W        W45812   8.374   4.013   1.392  0.0776 -0.3798 -0.2735
37013W        W45813  11.614   5.160  40.578 -0.2984  0.1273  0.1205
37014W        W45814   5.822   0.602   9.541  0.2192 -0.1594  0.2262
37015W        W45815  12.326   2.803  38.026 -0.0639  0.1274  0.1721
37016W        W45816  20.766   0.205  33.411  0.1249 -0.1648 -0.1882
37017W        W45817   6.940   5.794  44.660 -0.2925 -0.0798  0.1925
37018W        W45818  10.874   5.661  13.395  0.4171  0.1595  0.0134
37019W        W45819   9.440   0.046  14.716 -0.2024  0.2577 -0.2216
37020W        W45820  21.008   5.633  38.700  0.2787  0.0890 -0.0006
37021W        W45821  18.197   3.893  20.037  0.1056  0.0595  0.2028
37022W        W45822  12.873   6.314  22.373 -0.1045 -0.0537  0.3390
37023W        W45823  17.513   2.465   5.931  0.1584  0.3335 -0.0146
37024W        W45824   3.166   3.558  22.515  0.3923 -0.0215  0.0816
37025W        W45825   5.788   0.376   2.009  0.1091 -0.0736 -0.1518
37026W        W45826   0.850   1.861  38.675  0.4186  0.0283 -0.0740
37027W        W45827  19.279   3.322  39.161  0.2219  0.1302  0.0458
37028W        W45828   7.695   5.255   4.237 -0.0530 -0.2280 -0.1025
37029W        W45829   6.712   1.490  11.535 -0.1175  0.0157 -0.3408
37030W        W45830  15.519   6.396   8.724  0.3393 -0.0155  0.1023
37031W        W45831  15.510   3.540   1.102 -0.1780  0.2943  0.0291
37032W        W45832  12.166   3.045  12.989 -0.1469  0.0637 -0.1525
37033W        W45833   5.863   5.627  37.490  0.0085 -0.0626  0.0067
37034W        W45834   5.251   3.531  34.509  0.0923  0.2184  0.2709
37035W        W45835   2.076   5.562  15.579 -0.1312  0.1705  0.1098
37036W        W45836   3.306   1.982   4.009 -0.0390  0.0903  0.1076
37037W        W45837  17.951   3.545   6.532 -0.0285 -0.1317  0.1005
37038W        W45838  21.071   5.924   3.144  0.1555  0.2275  0.2860
37039W        W45839  18.901   3.845  30.987  0.1475 -0.0186  0.1030
37040W        W45840  12.931   4.759  16.587  0.0639 -0.3242 -0.2598
37041W        W45841  10.971   1.240   7.986  0.2057 -0.3157 -0.0133
37042W        W45842  14.105   0.215   9.614 -0.0445  0.1939  0.1863
37043W        W45843   8.639   2.729  43.359  0.1059  0.0461  0.0806
37044W        W45844  19.988   5.381  12.326 -0.0838 -0.1027  0.0821
37045W        W45845  19.283   2.849  35.307  0.0344 -0.2885 -0.0820
37046W        W45846   5.193   3.399   1.788  0.1704  0.2937  0.1766
37047W        W45847  15.050   0.964   4.745 -0.1654 -0.0208 -0.1387
37048W        W45848   7.717   1.524  43.733 -0.0826  0.1961  0.0898
37049W        W45849   9.707   1.766   6.168  0.1668 -0.1369 -0.2254
37050W        W45850  20.767   6.463   2.485  0.0097  0.0314  0.1686
37051W        W45851   2.474   0.851   3.698  0.0797  0.2510 -0.0477
37052W        W45852   4.370   6.317  37.295 -0.0356 -0.3923 -0.0043
37053W        W45853  20.032   0.690  33.540  0.0337 -0.0089  0.0702
37054W        W45854  10.152   6.228  37.533  0.0295  0.0785 -0.1870
37055W        W45855   9.400   5.244  33.127 -0.0085 -0.0037 -0.1708
37056W        W45856   2.128   1.989  31.256  0.0445  0.1368  0.0642
37057W        W45857  13.172   2.723  33.461 -0.0399  0.0480 -0.0469
37058W        W45858  13.939   6.346  40.352 -0.1305 -0.2990 -0.0247
37059W        W45859   0.822   1.699  14.938  0.0307  0.1636  0.1789
37060W        W45860  12.105   1.899   7.357  0.1573 -0.0921 -0.1282
37061W        W45861  15.238   5.833   5.183  0.0308 -0.1475  0.0324
37062W        W45862   6.700   0.451  26.940 -0.1706 -0.1841  0.1662
37063W        W45863  21.102   6.542   7.255 -0.1183 -0.2257 -0.0277
37064W        W45864   3.030   3.790  21.141  0.1392 -0.1814  0.4608
37065W        W45865   5.125   5.843  10.845 -0.1558 -0.2322 -0.1333
37066W        W45866  14.453   3.413   6.291  0.0320  0.0053 -0.1204
37067W        W45867   1.750   4.721   6.951 -0.0849  0.1411  0.3059
37068W        W45868   9.812   6.485   3.202  0.0278 -0.0323 -0.2009
37069W        W45869  12.911   2.614  17.142  0.1859  0.1946 -0.0091
37070W        W45870   7.448   2.042  41.965 -0.1897 -0.2786  0.3315
37071W        W45871   7.396   0.526   2.742 -0.2395  0.2000  0.1557
37072W        W45872   8.816   5.576  17.286 -0.3253 -0.1359  0.2292
37073W        W45873  14.920   4.917  40.519  0.0387 -0.0130 -0.2224
37074W        W45874   1.914   4.694  31.593  0.0792  0.1402  0.1957
37075W        W45875  10.821   0.500  30.003 -0.0511  0.1290  0.2872
37076W        W45876  12.543   3.161  10.295 -0.0057 -0.1900  0.3866
37077W        W45877  18.038   4.888   0.529  0.1469 -0.1310 -0.0462
37078W        W45878   3.370   1.943  38.984  0.0500 -0.4827  0.1032
37079W        W45879   2.443   3.592  33.032  0.0307  0.0701  0.3725
37080W        W45880  17.373   2.366  16.994  0.1549 -0.4030 -0.0531
37081W        W45881   4.545   4.220  35.576 -0.2356  0.1222  0.0678
37082W        W45882  17.789   2.562   5.005  0.0348 -0.0469  0.0589
37083W        W45883  16.940   1.391  30.967 -0.0277  0.0691  0.0820
37084W        W45884  16.542   2.627  29.484 -0.0350  0.0501 -0.1662
37085W        W45885  15.255   1.860  38.054 -0.0153 -0.0498 -0.1623
37086W        W45886  10.305   6.039  28.029 -0.1057  0.0571 -0.1154
37087W        W45887  13.187   1.977   7.114 -0.1831 -0.0435  0.0550
37088W        W45888  15.386   0.512  34.598  0.1280 -0.0803  0.1446
37089W        W45889   6.713   0.636  31.970 -0.2126 -0.0556  0.2035
37090W        W45890   1.159   6.230  15.118  0.1477 -0.0359  0.0586
37091W        W45891   1.289   0.946  11.592 -0.0901 -0.0533 -0.1697
37092W        W45892   2.134   4.746  34.733 -0.3049  0.0450 -0.1233
37093W        W45893  12.622   4.683  30.679 -0.0384  0.4463  0.0178
37094W        W45894   7.533   2.869   6.070  0.0660 -0.0314 -0.3653
37095W        W45895  14.175   0.269  42.343 -0.2261  0.2309  0.3037
37096W        W45896   6.979   5.468   0.886  0.3896 -0.1500 -0.1206
37097W        W45897   9.355   0.225   9.986  0.1838  0.0622 -0.0022
37098W        W45898   1.460   1.692  32.117  0.2196  0.0147  0.1231
37099W        W45899  15.908   4.963  40.374  0.2115  0.1081  0.0436
37100W        W45900   8.773   2.729   5.945 -0.0818 -0.3784  0.0627
37101W        W45901   8.483   5.533  44.457  0.0304 -0.3177 -0.1461
37102W        W45902  16.583   6.235  10.318 -0.0815  0.0870 -0.0013
37103W        W45903  15.018   5.731  10.522  0.0444  0.0548 -0.0701
37104W        W45904   3.802   0.569  28.036 -0.2090  0.0754 -0.1881
37105W        W45905  11.566   0.442  29.899  0.0516  0.2420  0.3641
37106W        W45906  17.042   4.981  35.067  0.2039  0.0315  0.0233
37107W        W45907  14.615   0.489   7.507  0.0252  0.1249  0.0612
37108W        W45908  10.065   3.523  43.268 -0.0271 -0.1012 -0.1432
37109W        W45909  15.957   6.456  22.073 -0.0517 -0.1413  0.2770
37110W        W45910  17.557   2.381  28.926  0.1646  0.1039 -0.2003
37111W        W45911   1.717   1.398  44.816  0.1006 -0.0422  0.0073
37112W        W45912  14.936   4.790  21.664  0.0389 -0.1041  0.1896
37113W        W45913   3.372   5.878   7.836 -0.0924 -0.1715 -0.1365
37114W        W45914  10.835   4.004  28.976  0.0333 -0.1217 -0.0306
37115W        W45915  14.702   6.068   1.679  0.3618  0.4254  0.0416
37116W        W45916  14.569   4.132  31.100 -0.3425  0.0004 -0.1760
37117W        W45917   3.277   4.593  40.804  0.0090 -0.1449 -0.1254
37118W        W45918  13.459   3.918  34.866  0.1401  0.1246  0.1442
37119W        W45919   5.573   1.032  12.651  0.2616 -0.1722  0.2453
37120W        W45920   1.516   3.160  26.174  0.2103  0.0110 -0.1122
37121W        W45921   4.330   5.846   1.224 -0.0523 -0.1735 -0.1163
37122W        W45922   0.028   3.667   9.636 -0.2391 -0.0012 -0.0171
37123W        W45923   1.953   6.574  29.835 -0.0345  0.2616  0.4314
37124W        W45924  14.967   1.916  44.958  0.3009  0.0399 -0.3841
37125W        W45925   5.102   6.138  22.385 -0.1212  0.2771  0.0766
37126W        W45926  16.471   4.713  19.847 -0.1603  0.1250  0.1697
37127W        W45927   6.099   6.016  39.415  0.1366 -0.1472 -0.1280
37128W        W45928   5.476   4.450  41.224 -0.1262  0.0684 -0.2608
37129W        W45929  16.008   5.998  33.314 -0.1568 -0.1989 -0.2178
37130W        W45930   4.945   6.331   0.282 -0.1233 -0.1707  0.2268
37131W        W45931   6.467   2.775  38.597 -0.1658 -0.0410  0.0263
37132W        W45932   8.562   2.769  15.138  0.0241 -0.0584  0.1092
37133W        W45933  16.605   2.171   0.737  0.1350 -0.0011 -0.0398
37134W        W45934  20.074   1.641  11.027 -0.0264  0.0390 -0.0310
37135W        W45935  16.130   2.494   2.971 -0.1332 -0.1301  0.1334
37136W        W45936  13.087   1.921  17.278  0.2807 -0.0822 -0.1598
37137W        W45937  16.007   4.321  16.811  0.1433  0.1144  0.0596
37138W        W45938  20.076   1.090  10.933  0.3182 -0.1302  0.1491
37139W        W45939  16.890   1.291  44.766  0.0566 -0.0702  0.0150
37140W        W45940  20.918   4.838  28.603 -0.1517 -0.2135 -0.0005
37141W        W45941   7.309   6.438   6.443 -0.1269 -0.1733 -0.1720
37142W        W45942  21.092   4.635  11.105  0.1411 -0.1529 -0.1264
37143W        W45943  20.476   2.783  12.468 -0.1433  0.0365  0.0291
37144W        W45944  14.979   0.522   6.438  0.0501  0.2985  0.0350
37145W        W45945   3.499   1.333  26.668 -0.4138  0.0271  0.0173
37146W        W45946  12.909   5.601   8.299  0.1123 -0.2945  0.3379
37147W        W45947   5.782   1.660  29.482 -0.1756 -0.2219 -0.3431
37148W        W45948   6.492   2.532  40.307 -0.0930 -0.1701 -0.0934
37149W        W45949  17.184   1.214  21.714 -0.1466  0.0526  0.1298
37150W        W45950  17.850   0.196   1.345  0.1268 -0.0944  0.1496
37151W        W45951  16.678   4.600   9.450 -0.3482 -0.1242 -0.3090
37152W        W45952  20.943   4.221  38.467  0.0394 -0.3042  0.2164
37153W        W45953   5.866   6.501   9.271 -0.1571 -0.3302  0.0255
37154W        W45954  18.013   1.467  13.343 -0.0989  0.0833 -0.0937
37155W        W45955  16.618   3.498  38.599  0.1247 -0.0038 -0.4769
37156W        W45956   0.090   1.374   7.347  0.0452  0.3929 -0.1007
37157W        W45957  10.991   2.279  18.972  0.1896 -0.1334  0.1804
37158W        W45958  12.725   4.810  22.453  0.0907 -0.0055  0.1652
37159W        W45959  19.247   2.571  34.871  0.0869 -0.0812 -0.0415
37160W        W45960  11.810   3.457  31.780  0.0695 -0.0485 -0.3702
37161W        W45961  14.953   0.531   8.343 -0.0676  0.1723 -0.0942
37162W        W45962   2.793   1.045  44.327  0.0527  0.0692 -0.0944
37163W        W45963   7.172   2.197   4.601 -0.1306  0.0354 -0.0916
37164W        W45964  11.432   4.709   4.739  0.3188 -0.1004 -0.4114
37165W        W45965   8.727   3.240  29.212 -0.3040 -0.1402  0.0504
37166W        W45966   6.277   1.381   6.256 -0.0189  0.2413  0.0501
37167W        W45967   7.349   6.319  39.755 -0.2579  0.0038 -0.0937
37168W        W45968  11.650   1.317  42.962 -0.0461  0.1549  0.2762
37169W        W45969  11.831   2.296   5.443  0.1816  0.1589 -0.1139
37170W        W45970  21.074   5.988   7.056 -0.0218 -0.0164 -0.2867
37171W        W45971  10.074   3.592   2.248 -0.0429  0.1328  0.2679
37172W        W45972  11.718   3.428   0.700  0.0146  0.0279 -0.3449
37173W        W45973   1.556   5.871   7.379 -0.4392 -0.1456 -0.1815
37174W        W45974  15.250   4.871  32.191  0.1511  0.1349  0.2515
37175W        W45975  11.940   2.315  29.403 -0.3796 -0.2336  0.1709
37176W        W45976  17.166   0.368  34.876 -0.2157 -0.3109 -0.1965
37177W        W45977  16.920   5.891   9.082 -0.1611  0.2309  0.0642
37178W        W45978   3.867   6.008  27.445  0.0383  0.1609 -0.1793
37179W        W45979   4.480   3.265  43.785  0.3204  0.2033  0.0659
37180W        W45980  10.414   6.505  42.345 -0.0770  0.3002 -0.2029
37181W        W45981  12.194   4.843   2.009  0.6595  0.2723  0.0299
37182W        W45982   1.648   5.122  30.630  0.0370 -0.1135 -0.2233
37183W        W45983  13.395   3.265  40.586 -0.1484 -0.2104  0.0478
37184W        W45984   0.448   1.996  35.515 -0.0093  0.0125 -0.0402
37185W        W45985   3.168   0.694  28.685 -0.2628  0.1576 -0.0127
37186W        W45986  18.294   5.791  39.708 -0.0659  0.1280  0.0486
37187W        W45987  11.139   2.401  18.008  0.1229  0.2507  0.3336
37188W        W45988   6.226   5.975  29.596  0.2427 -0.0351  0.0537
37189W        W45989   6.424   3.752   8.559  0.0763 -0.0591 -0.2865
37190W        W45990   3.015   6.028  15.414 -0.3483  0.0794  0.1924
37191W        W45991  13.691   5.858  20.595 -0.2191  0.2280 -0.2301
37192W        W45992  20.797   1.238   7.149  0.0224  0.0606 -0.0779
37193W        W45993  21.110   5.339  44.983  0.0397  0.1614  0.0670
37194W        W45994   4.285   5.429   1.627 -0.0286  0.0646  0.2649
37195W        W45995  18.406   4.871  13.633 -0.1645  0.0509  0.1574
37196W        W45996   3.692   5.521  38.666  0.0813 -0.1081  0.1484
37197W        W45997  11.630   4.490  35.170  0.1512  0.3790  0.0301
37198W        W45998   0.334   1.876   9.481  0.1973 -0.0811  0.2054
37199W        W45999  14.446   1.774  33.474 -0.0174 -0.0142 -0.4128
37200W        W46000  16.762   4.671  11.082 -0.5019 -0.0214  0.1016
37201W        W46001   0.914   3.033  33.376 -0.0462 -0.1366 -0.1056
37202W        W46002  15.453   5.052  35.857  0.1532 -0.2953 -0.1085
37203W        W46003  21.032   3.693   6.386 -0.0925 -0.0026 -0.2265
37204W        W46004  16.063   0.081  20.080  0.0494  0.1391 -0.1389
37205W        W46005   9.191   1.156  10.635 -0.0136 -0.1456  0.0924
37206W        W46006  13.661   3.938  29.415  0.0101 -0.3545 -0.0958
37207W        W46007   2.167   1.352  25.897 -0.3135  0.1120 -0.1571
37208W        W46008  17.038   4.903  16.035  0.0820  0.3585  0.1195
37209W        W46009   2.381   2.080   1.655  0.3954 -0.2244  0.0273
37210W        W46010  12.409   2.425  14.351  0.3562 -0.2508 -0.1436
37211W        W46011   2.971   0.813  36.785  0.0229 -0.0842  0.3199
37212W        W46012   2.643   6.244  36.938  0.2779 -0.1504  0.0258
37213W        W46013  21.050   4.664  31.793  0.0672  0.3328 -0.2025
37214W        W46014   1.674   6.050  36.062  0.0530 -0.1210 -0.0985
37215W        W46015  10.209   4.562   5.718  0.1814 -0.3310 -0.0057
37216W        W46016  19.835   3.387   1.316  0.0408 -0.0056  0.0509
37217W        W46017   3.060   5.695  30.157 -0.1841  0.1530  0.0123
37218W        W46018   5.695   1.645   7.697 -0.0629 -0.0342  0.2360
37219W        W46019  14.156   4.044  34.161  0.1514 -0.1415 -0.0099
37220W        W46020   1.860   6.126   5.603  0.4532  0.1251 -0.3227
37221W        W46021  11.915   5.770  42.362  0.0916 -0.1419 -0.3709
37222W        W46022  10.793   2.486   0.762  0.0591  0.3166 -0.0414
37223W        W46023   6.077   1.070  22.101 -0.2083  0.0553  0.2451
37224W        W46024  18.752   4.594  15.115 -0.1319  0.2020  0.0132
37225W        W46025   4.244   2.477  41.807  0.1903  0.1603 -0.1189
37226W        W46026   6.736   1.636  37.463  0.1397  0.1343 -0.1771
37227W        W46027   5.857   1.731   8.633 -0.0885 -0.0302  0.1833
37228W        W46028  12.937   3.964  10.583 -0.1865  0.3610 -0.0443
37229W        W46029  19.157   4.293  15.935  0.2402 -0.0930 -0.0944
37230W        W46030   7.347   2.079   4.114  0.0305 -0.0077  0.1050
37231W        W46031  12.825   0.355  36.695 -0.0107  0.1724  0.2330
37232W        W46032   6.349   5.175  33.556  0.1456 -0.2392 -0.0779
37233W        W46033   0.274   5.641  13.926 -0.0736  0.1409  0.0046
37234W        W46034  18.045   5.547   1.899 -0.2625  0.0699 -0.0306
37235W        W46035   7.928   1.342  12.689 -0.1550  0.0532  0.2920
37236W        W46036  14.499   0.587   7.970 -0.1967  0.1441 -0.0780
37237W        W46037   6.443   2.619  42.465  0.0079  0.0008 -0.0424
37238W        W46038   5.280   5.200  22.269  0.1511  0.3135  0.0604
37239W        W46039  14.071   0.130   6.351  0.1430  0.0521 -0.1174
37240W        W46040   0.033   5.414  42.774  0.3282  0.3827 -0.1525
37241W        W46041   7.379   0.124  35.445 -0.0848  0.1348 -0.1942
37242W        W46042  11.577   2.482   0.383 -0.0303 -0.1437 -0.0045
37243W        W46043   6.634   4.771  36.909 -0.1924 -0.2184 -0.0385
37244W        W46044   5.548   4.105  28.784  0.0650 -0.3763  0.1381
37245W        W46045  10.709   4.989   4.425 -0.1532 -0.0132  0.0452
37246W        W46046  16.059   5.954  17.290  0.0676 -0.0936 -0.2174
37247W        W46047  19.266   3.516   7.308 -0.0505  0.2903 -0.1077
37248W        W46048   5.891   1.384   5.433  0.2028  0.0220 -0.0390
37249W        W46049  13.082   6.459  36.888  0.1235  0.1397  0.2106
37250W        W46050   3.219   2.761  22.380 -0.2223  0.0745 -0.0129
37251W        W46051   5.791   1.673  40.272 -0.0556  0.2042  0.1908
37252W        W46052   2.562   5.028   6.444  0.0763  0.0726 -0.0390
37253W        W46053   4.149   4.803   3.502  0.2414 -0.0676 -0.1591
37254W        W46054   8.023   4.655  35.933 -0.0885 -0.2332 -0.0194
37255W        W46055  19.340   3.464   2.249  0.0876  0.0529 -0.4415
37256W        W46056   4.534   2.176   5.432  0.0306  0.3295 -0.2450
37257W        W46057   1.269   5.078  32.705  0.2785 -0.0271  0.3237
37258W        W46058  10.444   1.456  39.882  0.1985  0.0447  0.1481
37259W        W46059  17.630   5.373  31.955 -0.1379  0.0484 -0.1180
37260W        W46060   2.629   2.110  10.037  0.1196  0.0064 -0.2023
37261W        W46061  12.446   2.872  41.413  0.1019 -0.4603  0.1721
37262W        W46062   7.054   1.302  37.967 -0.1771 -0.2731  0.1563
37263W        W46063   3.226   5.277  23.769  0.1184  0.0181 -0.0863
37264W        W46064  15.091   3.439  13.801  0.1007  0.0161  0.2165
37265W        W46065   1.094   1.091  28.852  0.1985 -0.0107  0.0394
37266W        W46066  19.387   6.214   7.243  0.1022  0.1440  0.1099
37267W        W46067  11.862   6.153   6.946  0.0601  0.0096 -0.0924
37268W        W46068  10.608   2.372  11.773 -0.0253 -0.0074  0.0899
37269W        W46069   8.414   3.712  42.505  0.1712 -0.1032 -0.3027
37270W        W46070   1.678   5.801  41.017 -0.1269  0.1636 -0.0385
37271W        W46071  13.387   3.709   6.035  0.0114  0.2992  0.0874
37272W        W46072  18.797   2.235  16.305  0.0979 -0.1907  0.0645
37273W        W46073   1.241   1.771   9.604  0.2255  0.1679  0.0852
37274W        W46074  17.998   0.772   6.604  0.4046 -0.2637 -0.1357
37275W        W46075   0.146   2.832  25.492 -0.2340 -0.0895  0.0639
37276W        W46076  21.035   0.397   7.297  0.1119 -0.1473 -0.2490
37277W        W46077  13.158   3.592  10.857 -0.0694 -0.1237 -0.4463
37278W        W46078   1.332   4.163  34.036  0.3294  0.1088 -0.0810
37279W        W46079  14.180   5.782  39.437 -0.0925  0.1690 -0.1659
37280W        W46080   4.349   4.393  39.338 -0.2683 -0.1987 -0.0442
37281W        W46081   2.610   2.852  25.942  0.0480 -0.0081  0.1509
37282W        W46082  20.618   1.467  43.836 -0.2432 -0.1830 -0.2119
37283W        W46083   1.938   6.313  33.282  0.1616 -0.0527  0.1077
37284W        W46084   3.640   4.881  27.853 -0.0525  0.1256  0.1038
37285W        W46085   2.649   5.335  14.087 -0.0996 -0.1630  0.0852
37286W        W46086   2.315   5.781  44.216 -0.2629 -0.3384 -0.0292
37287W        W46087  20.233   4.577   1.704 -0.0246  0.0058  0.0508
37288W        W46088  13.943   0.069  21.318 -0.2142 -0.3077 -0.1934
37289W        W46089  17.907   5.674  13.985  0.0317 -0.2281 -0.0829
37290W        W46090  20.777   6.395  40.865 -0.0398 -0.0440 -0.2108
37291W        W46091   7.169   2.348   8.147  0.2726 -0.1687  0.0295
37292W        W46092   6.975   1.450  38.479  0.1579 -0.0222  0.0191
37293W        W46093  14.139   6.126  23.438 -0.1163 -0.0405  0.0265
37294W        W46094  17.318   4.473  40.475 -0.1409  0.3542  0.1272
37295W        W46095  12.997   5.470  39.182  0.0835  0.0895  0.1288
37296W        W46096   9.067   6.166  43.012  0.0637  0.2768  0.0889
37297W        W46097   1.012   2.034  24.471  0.1129 -0.2191 -0.0923
37298W        W46098  17.503   0.072  12.858 -0.1573  0.0776  0.0624
37299W        W46099  13.671   3.629   9.043 -0.3079 -0.0340  0.4039
37300W        W46100   1.047   2.573  11.016  0.3754  0.0869 -0.1514
37301W        W46101   7.396   2.814  41.761  0.3220 -0.2782 -0.1308
37302W        W46102  10.260   4.869  34.624 -0.3659  0.2750  0.0254
37303W        W46103  20.078   3.187   4.717  0.1064 -0.1045 -0.0925
37304W        W46104   5.991   0.568  32.103  0.0199 -0.0221  0.1314
37305W        W46105  13.902   5.316  35.822 -0.1229 -0.0556 -0.1304
37306W        W46106   2.260   6.154  28.023 -0.2049 -0.2530  0.4575
37307W        W46107  11.665   6.334   2.308 -0.1152 -0.2089 -0.0046
37308W        W46108  12.605   3.806  34.948 -0.4455 -0.0103 -0.3109
37309W        W46109   0.107   1.299   6.815 -0.0948  0.1101 -0.1559
37310W        W46110   8.974   2.787  26.876 -0.3429 -0.0925 -0.1203
37311W        W46111  17.243   0.278   0.208  0.0374  0.1288 -0.1453
37312W        W46112   8.244   3.178   9.446 -0.2477 -0.1616  0.4555
37313W        W46113  18.237   0.911   1.592  0.3431 -0.0701 -0.1589
37314W        W46114   6.266   1.778  28.763  0.0230 -0.4870  0.1693
37315W        W46115   7.539   4.253   7.139  0.1239  0.0426 -0.1369
37316W        W46116  16.543   4.249  13.178  0.0987  0.1908 -0.0870
37317W        W46117  17.568   5.827  44.635  0.0311  0.2325 -0.0078
37318W        W46118  13.907   1.259  44.601  0.2486 -0.2277 -0.2930
37319W        W46119   4.566   5.771  24.285  0.0739  0.0422  0.0002
37320W        W46120  17.387   2.946  28.354  0.0379  0.2037  0.1677
37321W        W46121   5.010   3.272  42.530  0.0863  0.0329  0.1874
37322W        W46122  15.226   5.309   4.450  0.1281  0.3050 -0.1833
37323W        W46123   6.132   1.193  29.459  0.0435 -0.0058  0.2097
37324W        W46124   5.902   5.036  13.108 -0.7662  0.3284  0.1672
37325W        W46125   8.629   3.742  37.975  0.0342 -0.0599  0.1100
37326W        W46126   3.648   5.179  12.785  0.1193  0.0447 -0.1290
37327W        W46127   1.466   2.047  30.414 -0.2997 -0.2733 -0.0388
37328W        W46128   6.545   3.281  10.378 -0.1021  0.0989 -0.2459
37329W        W46129  12.637   1.754  41.113 -0.1817  0.2233  0.1118
37330W        W46130   4.555   0.213  21.745  0.2027 -0.0741 -0.0440
37331W        W46131  13.699   2.875  11.159  0.1795  0.0636 -0.0504
37332W        W46132  13.219   5.333  16.092  0.1581  0.0311 -0.0292
37333W        W46133  16.757   6.549   6.797 -0.1861  0.1007 -0.0429
37334W        W46134  16.362   4.693  16.788  0.1842 -0.0240 -0.0254
37335W        W46135  14.393   1.358  37.982  0.1813 -0.0156  0.1912
37336W        W46136  17.007   5.731  34.482 -0.0406  0.1872  0.2813
37337W        W46137  15.153   6.031  38.471  0.0771 -0.0269  0.3135
37338W        W46138  11.552   0.801  32.237 -0.2174  0.0005  0.3695
37339W        W46139  11.401   4.046   1.934 -0.1874 -0.1078 -0.1194
37340W        W46140   7.539   5.030  39.365 -0.2224  0.0850 -0.3637
37341W        W46141  18.423   2.919  30.136  0.1044  0.2348  0.1246
37342W        W46142  17.402   3.991  14.336  0.1205  0.0212 -0.3200
37343W        W46143   0.772   6.174  31.740 -0.0752 -0.1377 -0.1005
37344W        W46144   0.928   5.223   0.065 -0.2064 -0.2703 -0.4973
37345W        W46145  15.149   1.728   3.046 -0.1037 -0.1613 -0.0056
37346W        W46146  18.184   4.566  35.561 -0.0724 -0.1226 -0.1377
37347W        W46147  17.630   3.960  10.308  0.3457  0.0792  0.0426
37348W        W46148  11.392   6.016  40.067 -0.0486  0.1950  0.0929
37349W        W46149  20.841   0.919   5.533 -0.0763  0.2754  0.2283
37350W        W46150   8.570   2.904  17.961 -0.1567  0.0397 -0.0553
37351W        W46151   2.890   5.215   1.201  0.0290 -0.3343  0.0771
37352W        W46152  18.709   5.810  45.070 -0.1384 -0.0672  0.0127
37353W        W46153  10.644   3.427  28.193 -0.3561 -0.2028  0.0759
37354W        W46154   4.264   0.744  31.956 -0.3175 -0.0259  0.1946
37355W        W46155  15.778   5.316  43.346 -0.0276  0.0889 -0.1789
37356W        W46156  20.931   1.631   2.220 -0.0489  0.0035 -0.0242
37357W        W46157  10.384   1.471  37.426  0.1423  0.0102 -0.0836
37358W        W46158  12.944   4.765  29.264  0.0740  0.0369 -0.1133
37359W        W46159  14.760   0.575  23.776  0.1687 -0.4901 -0.0395
37360W        W46160   3.973   4.438  38.643  0.3326 -0.2534 -0.2119
37361W        W46161  17.777   5.669   1.380  0.1701  0.3469 -0.1186
37362W        W46162  10.396   0.975  39.780  0.0814 -0.1153 -0.1639
37363W        W46163  15.563   2.409  10.431  0.3435  0.0275 -0.0568
37364W        W46164  14.520   5.584   9.958  0.0409 -0.0829  0.2414
37365W        W46165  19.832   2.679  37.475 -0.2563 -0.1510 -0.4289
37366W        W46166  19.432   5.808  31.534  0.2077 -0.1299 -0.0701
37367W        W46167   0.519   1.710   5.521 -0.3350  0.1991 -0.1861
37368W        W46168   5.133   3.081  14.664  0.0941  0.1048 -0.1645
37369W        W46169  15.142   2.081  38.762  0.0892 -0.0120 -0.0954
37370W        W46170   1.642   1.592   3.285 -0.0628  0.1542  0.0455
37371W        W46171  15.391   4.015  15.465 -0.0057  0.0541 -0.0701
37372W        W46172  11.608   5.614  30.505 -0.2804  0.1144  0.2372
37373W        W46173   4.186   0.227  31.969  0.2809  0.1838  0.3606
37374W        W46174  18.406   1.799  18.262 -0.0354  0.2029  0.1423
37375W        W46175   1.486   3.411   1.070  0.1412 -0.1406 -0.1301
37376W        W46176  12.581   3.126  15.442 -0.3329 -0.2367  0.3959
37377W        W46177  10.536   4.965  33.490 -0.2028 -0.0405 -0.0424
37378W        W46178  17.975   5.256   2.748  0.0187 -0.0078  0.1785
37379W        W46179  14.705   1.027   1.354 -0.0376 -0.1471  0.1433
37380W        W46180  18.584   3.026  36.618  0.1953 -0.5483 -0.0704
37381W        W46181  11.548   3.519   5.390  0.0945 -0.0654  0.0419
37382W        W46182  14.771   0.747  39.503 -0.1451  0.1856  0.0318
37383W        W46183  19.940   1.723  12.612  0.0132 -0.3179  0.1504
37384W        W46184  11.546   1.779   4.818 -0.3377 -0.0280  0.3536
37385W        W46185  13.678   3.949   9.617 -0.1454 -0.0025 -0.2736
37386W        W46186  16.399   4.932  40.224 -0.3710  0.0499  0.1868
37387W        W46187   8.454   2.084   6.906 -0.1853  0.2439  0.1312
37388W        W46188   7.782   0.539  37.343  0.1125 -0.0677  0.0387
37389W        W46189  16.627   0.108   5.117 -0.1575 -0.0319 -0.0242
37390W        W46190  11.983   0.214  18.205 -0.0591  0.1171 -0.0840
37391W        W46191   0.588   3.773  35.671  0.0106 -0.1630 -0.2082
37392W        W46192   0.848   3.434  29.366  0.4335  0.1375 -0.1776
37393W        W46193  11.915   5.865   1.450  0.0674 -0.1110 -0.0703
37394W        W46194  14.393   0.231  38.296  0.3140 -0.0464  0.0988
37395W        W46195  17.544   1.136   7.929 -0.0774 -0.0730  0.0590
37396W        W46196   5.879   4.785  14.150 -0.1169 -0.1424  0.3851
37397W        W46197  10.118   6.506  41.452  0.2072  0.2384  0.1593
37398W        W46198  16.082   2.056  11.637  0.2312  0.0715 -0.3983
37399W        W46199   7.258   3.156  15.841  0.0884  0.0209  0.0684
37400W        W46200   3.317   1.767  28.999  0.3173  0.0468  0.0698
37401W        W46201  11.972   5.312  34.553 -0.1990 -0.1423 -0.0675
37402W        W46202  13.678   6.242  37.781  0.3889  0.1930  0.2383
37403W        W46203   3.626   0.906   2.184  0.2285 -0.0782  0.1108
37404W        W46204  14.932   1.180  41.597 -0.0868  0.0136  0.0035
37405W        W46205   1.079   1.853  30.138 -0.1578  0.0861 -0.0449
37406W        W46206  11.967   0.204  38.023 -0.2965  0.1352  0.1120
37407W        W46207  13.593   1.331  29.866  0.2822  0.2775  0.1106
37408W        W46208  12.080   6.162   7.404  0.0034 -0.1587  0.1124
37409W        W46209  16.795   6.505  44.699  0.0269 -0.1567 -0.0441
37410W        W46210   0.334   4.298  11.363  0.0123 -0.1429  0.3184
37411W        W46211  17.605   4.359  13.231  0.3977 -0.1162 -0.2402
37412W        W46212   2.091   4.808  35.700  0.1153 -0.0146 -0.2313
37413W        W46213  14.558   1.788  38.099 -0.0182  0.1031  0.1091
37414W        W46214  20.807   5.800   1.248  0.2284  0.1273 -0.0409
37415W        W46215  10.149   3.079  42.935 -0.0184  0.0458  0.0181
37416W        W46216   9.594   4.149  43.003  0.0188 -0.2029  0.1556
37417W        W46217   3.509   5.350  41.449 -0.1624 -0.1962  0.1657
37418W        W46218   4.201   6.318  12.971  0.0089 -0.0703  0.1410
37419W        W46219  11.322   4.600  43.525  0.1247 -0.3132  0.0656
37420W        W46220  18.083   3.588  40.194 -0.1099 -0.0680  0.1003
37421W        W46221  20.361   3.792  39.201 -0.0351 -0.0099  0.0268
37422W        W46222   9.490   1.904  40.894 -0.1966 -0.3264 -0.0806
37423W        W46223   1.767   1.189  10.907  0.0989 -0.1647  0.0691
37424W        W46224   1.198   2.558  24.420  0.1150 -0.0224 -0.0557
37425W        W46225  20.230   6.478  36.250 -0.0030 -0.1044  0.3846
37426W        W46226  17.604   5.031  44.004  0.1147  0.1893  0.1009
37427W        W46227  18.150   3.863   8.978  0.0953 -0.0236 -0.0246
37428W        W46228   7.923   5.195  27.819 -0.0380  0.1804  0.0577
37429W        W46229  15.138   0.749  35.966  0.0299 -0.0495 -0.1678
37430W        W46230   5.033   0.427  22.319 -0.0952  0.0111  0.1522
37431W        W46231   2.450   0.232   6.769 -0.1774  0.0215 -0.2332
37432W        W46232   0.303   4.087  33.578 -0.1307  0.0027 -0.1053
37433W        W46233   5.144   0.374  35.056 -0.1247 -0.0082  0.1149
37434W        W46234  13.332   1.840  12.024 -0.0941 -0.0953 -0.1325
37435W        W46235  12.327   1.658  28.786 -0.0639  0.0407  0.1516
37436W        W46236   1.010   0.597  41.965  0.1523 -0.0301  0.0115
37437W        W46237   9.063   1.364  34.706  0.0537 -0.0713  0.1296
37438W        W46238   2.159   3.144  33.901  0.0071 -0.0389 -0.0067
37439W        W46239  18.179   2.900   6.895  0.1889  0.1448  0.2212
37440W        W46240   0.477   6.250  32.107  0.1489  0.2003 -0.1721
37441W        W46241   0.311   5.707  36.790  0.3408  0.1853  0.1243
37442W        W46242   1.305   1.627  15.059 -0.0716  0.1818  0.1582
37443W        W46243  10.179   3.321   1.701  0.2387  0.1163  0.1460
37444W        W46244  14.707   5.063  41.330  0.1640 -0.0149 -0.2033
37445W        W46245  11.167   6.440  15.399  0.4393 -0.0336  0.1583
37446W        W46246  11.356   6.222  19.974 -0.2291 -0.3646 -0.0887
37447W        W46247   8.287   4.543   6.105  0.0555  0.0249  0.2132
37448W        W46248  19.383   4.450   0.245 -0.0184 -0.0910 -0.1387
37449W        W46249   4.184   1.383  15.261 -0.0076  0.1385 -0.0238
37450W        W46250   3.150   0.480   3.969  0.1295 -0.1489  0.3180
37451W        W46251   9.601   6.496   8.046  0.1706  0.2722 -0.2475
37452W        W46252   1.960   2.509  28.425 -0.0478 -0.0257  0.0099
37453W        W46253  12.421   0.012  29.574  0.1650  0.2086  0.0827
37454W        W46254  15.848   2.743  39.316  0.0481  0.2120  0.2022
37455W        W46255   8.004   5.388  16.708  0.0565  0.1276  0.0505
37456W        W46256  15.648   3.874  39.201  0.2430 -0.0450  0.0882
37457W        W46257   3.270   0.601  27.784  0.0803  0.0120 -0.0756
37458W        W46258   2.831   2.627  37.695  0.1079  0.2220 -0.2528
37459W        W46259  16.933   3.077  11.362  0.2088 -0.3001  0.1195
37460W        W46260  13.470   5.780  22.131  0.0996 -0.1209  0.0152
37461W        W46261   9.139   5.953  31.364 -0.0191  0.0877  0.1855
37462W        W46262   2.846   5.283  41.483 -0.0178  0.1439 -0.1322
37463W        W46263  17.260   2.278  18.495  0.0048  0.0056 -0.2799
37464W        W46264  15.399   4.736  17.373 -0.3799  0.2045 -0.0283
37465W        W46265   9.866   1.684  35.291  0.2487  0.0224  0.0159
37466W        W46266  15.088   1.842  40.724 -0.0238 -0.1591 -0.1997
37467W        W46267  19.912   2.869  27.214 -0.0221 -0.0997 -0.0991
37468W        W46268  15.161   6.250   8.350 -0.2726  0.2553  0.1820
37469W        W46269  19.627   3.183   0.221 -0.0580 -0.1409 -0.1778
37470W        W46270   4.402   2.183   9.455  0.1711  0.1016  0.0496
37471W        W46271   6.630   1.029  44.031  0.3429 -0.1285  0.0480
37472W        W46272   8.759   2.686   1.247  0.4018 -0.0029 -0.0190
37473W        W46273  11.601   5.610  39.721 -0.0628  0.0468  0.1255
37474W        W46274  18.726   6.084  40.459 -0.0929  0.2022 -0.0857
37475W        W46275   8.282   4.620  26.483 -0.0319  0.0382  0.0486
37476W        W46276  14.033   2.048  17.363 -0.2462 -0.0652  0.1467
37477W        W46277  21.127   5.409   1.553  0.0146  0.0067 -0.1041
37478W        W46278   9.725   2.957  32.908  0.2807 -0.0398 -0.2061
37479W        W46279  13.099   3.657  17.304 -0.2554  0.0994  0.2754
37480W        W46280  12.840   6.482  21.461 -0.0675 -0.0749 -0.1739
37481W        W46281  12.706   0.069   6.044  0.1479 -0.0047 -0.0350
37482W        W46282  18.927   3.401  42.690  0.0688  0.1133 -0.1925
37483W        W46283   4.976   4.038   9.933 -0.1545 -0.0418 -0.0545
37484W        W46284  15.013   1.323  42.711  0.0222  0.0193 -0.0909
37485W        W46285   5.012   4.884   6.078  0.0180 -0.2312  0.2990
37486W        W46286   2.119   3.170  30.558  0.0549 -0.1176  0.2906
37487W        W46287   9.681   2.574   4.520  0.1463  0.1197  0.0091
37488W        W46288  20.682   0.470   4.078 -0.1549  0.1524  0.1323
37489W        W46289  13.661   0.103  20.030  0.1162 -0.0758  0.1043
37490W        W46290   5.307   0.174  11.740 -0.1027  0.0893 -0.1505
37491W        W46291   1.947   5.252   4.730  0.0490 -0.1646  0.2126
37492W        W46292  10.641   1.403  16.293 -0.2374  0.3005 -0.0234
37493W        W46293  13.366   3.128  33.769  0.0790  0.1489 -0.1450
37494W        W46294   0.311   3.391  26.942  0.0027  0.1117 -0.1785
37495W        W46295   6.625   4.809   6.099 -0.2646  0.0176 -0.0787
37496W        W46296  20.113   2.222  15.507 -0.1070  0.2642  0.0684
37497W        W46297  11.548   5.723  37.923  0.0663  0.0270 -0.1657
37498W        W46298  15.979   5.014  12.098 -0.2573  0.1272  0.0682
37499W        W46299  10.852   4.305   0.600  0.3240  0.0265  0.3044
37500W        W46300  17.098   6.204  11.942 -0.0991  0.0280  0.0487
37501W        W46301  19.798   5.333  43.032 -0.0755  0.2353  0.2200
37502W        W46302   0.779   0.249   6.676 -0.0193  0.2824 -0.4186
37503W        W46303   8.335   2.786   8.185 -0.3757 -0.0582  0.0856
37504W        W46304  13.105   5.490   7.083  0.1968 -0.2852 -0.0293
37505W        W46305   3.631   6.017   1.116 -0.1303 -0.2892 -0.0663
37506W        W46306   4.106   0.355  24.165 -0.0919  0.0353  0.1262
37507W        W46307  12.011   0.462   4.319 -0.4615  0.0378 -0.0857
37508W        W46308  19.507   3.837  42.421  0.0634 -0.0526 -0.2190
37509W        W46309  15.165   1.241  43.731 -0.1920 -0.0636 -0.1725
37510W        W46310   6.956   4.117  27.176 -0.1290 -0.0325 -0.4830
37511W        W46311   1.421   6.035  24.392  0.2323  0.0184 -0.2448
37512W        W46312   4.249   2.400  36.761  0.1925  0.0708  0.0949
37513W        W46313   4.824   0.070  24.012 -0.0973 -0.2876 -0.0950
37514W        W46314  10.265   2.398   2.768  0.2626 -0.0900  0.0720
37515W        W46315  12.325   5.986   3.815  0.1155 -0.1374  0.0227
37516W        W46316  14.496   0.647  17.211  0.0164  0.3358 -0.1266
37517W        W46317  16.009   1.201  35.052  0.0443 -0.0278  0.1301
37518W        W46318  13.495   0.324   4.432 -0.1719  0.1009 -0.2772
37519W        W46319  12.094   6.166  11.100  0.3093 -0.0301  0.0682
37520W        W46320   3.632   3.001  31.198  0.2107 -0.2313  0.1868
37521W        W46321  12.604   2.407   9.811 -0.0585 -0.1174 -0.0099
37522W        W46322  19.199   3.282   4.611  0.4501  0.0470 -0.0383
37523W        W46323   7.536   6.348  39.306  0.0074  0.1817  0.2283
37524W        W46324  15.899   4.973   6.170 -0.1037  0.1162  0.2499
37525W        W46325   5.957   1.293   8.854 -0.0048  0.0139 -0.1087
37526W        W46326   1.430   1.989  28.863 -0.1630  0.3261 -0.3848
37527W        W46327  10.704   5.410  11.165 -0.3731  0.2388 -0.1048
37528W        W46328   2.108   6.565  41.769  0.0766 -0.2668 -0.2154
37529W        W46329   0.713   4.406   5.390 -0.1023 -0.2779 -0.3643
37530W        W46330   0.399   6.327  41.281 -0.2584  0.0962 -0.0400
37531W        W46331   5.264   3.164   3.803  0.1136 -0.1103 -0.0243
37532W        W46332  10.053   3.816  42.871  0.0555 -0.0559 -0.2692
37533W        W46333  14.183   3.428  36.110 -0.0171  0.0678  0.1137
37534W        W46334  20.950   4.584   0.546 -0.0522 -0.0976 -0.1493
37535W        W46335  14.053   5.492  24.702 -0.1349  0.1232 -0.0864
37536W        W46336   9.033   5.220   9.900  0.0697 -0.1599 -0.1591
37537W        W46337   7.269   5.473   5.909 -0.2053 -0.0764  0.0272
37538W        W46338  13.762   0.191  40.565 -0.2314  0.2585 -0.2255
37539W        W46339  10.908   3.688   0.538  0.1082 -0.1546 -0.2587
37540W        W46340  20.141   4.067  39.612 -0.0247 -0.3514  0.1312
37541W        W46341  19.852   5.902  33.007  0.0078  0.1686 -0.2749
37542W        W46342   4.627   1.772  40.071  0.3499 -0.1125  0.2061
37543W        W46343   9.910   5.898   0.974 -0.0678  0.0474  0.2648
37544W        W46344  18.368   1.722  10.448 -0.1825  0.3815 -0.0570
37545W        W46345   6.156   5.353   3.060 -0.1654  0.1478  0.0351
37546W        W46346   2.022   2.721  34.070  0.1822 -0.0839  0.1899
37547W        W46347   5.592   3.580  15.403 -0.1329  0.4989  0.0835
37548W        W46348   4.844   0.528  22.764 -0.3027 -0.6700  0.1258
37549W        W46349   0.230   6.421  16.482  0.0833 -0.3306 -0.0754
37550W        W46350   9.702   6.126  12.815 -0.1263 -0.0242 -0.1586
37551W        W46351  14.239   5.757  41.444  0.0185 -0.0663 -0.2059
37552W        W46352   0.597   4.026   0.265 -0.1116  0.2259  0.1373
37553W        W46353   1.621   5.881  25.280  0.0776  0.1535 -0.2873
37554W        W46354  15.397   1.378  39.316  0.0446  0.1453 -0.2642
37555W        W46355   8.815   4.064   7.186  0.2923 -0.0024 -0.0469
37556W        W46356  14.133   3.439  38.818 -0.2122 -0.0480  0.2363
37557W        W46357  12.910   6.177  31.533 -0.1649 -0.0004  0.0646
37558W        W46358   3.925   4.058  44.178 -0.0410 -0.2861 -0.0269
37559W        W46359  13.188   4.769   9.861 -0.2266  0.5025  0.0255
37560W        W46360   9.084   0.881  18.620 -0.0436 -0.0012  0.2635
37561W        W46361   2.475   4.330   9.476 -0.0194  0.3251  0.1592
37562W        W46362   0.312   0.759   0.104  0.1094  0.0391  0.1513
37563W        W46363  15.717   0.116  15.201  0.2124 -0.2231  0.1271
37564W        W46364   8.174   1.522   8.794 -0.0247  0.0129 -0.1031
37565W        W46365   5.401   3.573  38.105  0.0425 -0.0797 -0.1541
37566W        W46366  12.505   5.125  20.182  0.1711  0.1315 -0.1240
37567W        W46367   9.586   4.886  17.770 -0.2847 -0.2579 -0.3281
37568W        W46368  19.673   2.088   5.539 -0.2093  0.0763 -0.1211
37569W        W46369  13.138   1.854  23.631 -0.1477 -0.1402  0.0185
37570W        W46370   7.005   6.085  36.090 -0.0410  0.0147  0.0102
37571W        W46371  14.982   5.321   8.015 -0.0291  0.2683  0.0740
37572W        W46372   7.279   2.379   0.917  0.1110 -0.0403 -0.0789
37573W        W46373  11.561   2.758  21.224 -0.1105  0.3740 -0.0872
37574W        W46374  14.372   1.227  40.294 -0.0608 -0.0667 -0.0952
37575W        W46375  12.971   5.199  45.028  0.1612  0.1899  0.0248
37576W        W46376  14.282   6.342  43.232  0.0870 -0.0537 -0.0843
37577W        W46377  16.389   2.978  21.709  0.0415  0.2531  0.1847
37578W        W46378   6.236   4.377  33.300  0.0919 -0.2218 -0.3205
37579W        W46379   2.319   2.040   0.480  0.1235 -0.1561  0.0724
37580W        W46380   2.436   5.265   0.303  0.1487 -0.0858 -0.2902
37581W        W46381   8.877   1.486   0.059  0.2576 -0.2448 -0.0399
37582W        W46382   0.788   5.993  41.426  0.3857 -0.1074 -0.0114
37583W        W46383  12.179   2.567  17.748  0.1538 -0.1495 -0.3817
37584W        W46384  12.471   1.286  17.978 -0.0856 -0.0052 -0.3729
37585W        W46385  10.782   1.169  35.130  0.1897 -0.2108  0.0718
37586W        W46386   3.919   6.415  21.057 -0.1804 -0.0031 -0.0264
37587W        W46387   3.404   6.241  27.746 -0.2225 -0.1370 -0.3796
37588W        W46388   4.560   4.015   6.394 -0.1889  0.0102  0.0808
37589W        W46389   3.917   5.322  28.879  0.2054 -0.0236 -0.1203
37590W        W46390   6.014   1.846   6.399 -0.0559 -0.0332  0.1141
37591W        W46391   4.465   0.519  23.147 -0.2969  0.0864  0.0482
37592W        W46392  14.765   2.258   9.551  0.0889  0.0554 -0.3108
37593W        W46393  15.382   3.836  20.508  0.2046 -0.0175 -0.2170
37594W        W46394   0.055   2.458  31.915 -0.0818 -0.0152 -0.2277
37595W        W46395  15.379   1.354  36.684  0.1988  0.1782  0.1638
37596W        W46396   7.208   4.420  34.387 -0.1859  0.2569  0.2133
37597W        W46397   0.251   1.397   9.374  0.0963  0.1729  0.0218
37598W        W46398  20.240   5.995  42.775 -0.1679 -0.2757 -0.0781
37599W        W46399  13.549   0.743  41.873  0.2519 -0.2373 -0.1860
37600W        W46400  17.063   1.653   5.789 -0.3136  0.0903  0.0887
37601W        W46401   9.763   5.381   5.980  0.0614  0.1776 -0.1704
37602W        W46402   2.830   4.392  29.599 -0.0760  0.0352  0.1506
37603W        W46403   0.518   1.055  40.323  0.2130  0.0514 -0.1938
37604W        W46404  13.944   1.865  40.167 -0.0475  0.0079  0.1224
37605W        W46405   0.614   1.052  39.652  0.2361 -0.1212  0.1167
37606W        W46406   6.911   1.513   3.015  0.2138  0.1144  0.0007
37607W        W46407  11.905   2.013  19.010  0.0887  0.0776  0.1286
37608W        W46408  18.911   3.633  13.708 -0.1590 -0.0951 -0.2595
37609W        W46409   4.893   4.529  11.188  0.0898  0.0427 -0.1670
37610W        W46410  18.051   4.157  35.816  0.2922  0.4167 -0.2426
37611W        W46411   1.565   1.629  23.744  0.0595 -0.2245 -0.1377
37612W        W46412   7.461   5.830  37.194 -0.2416  0.1130  0.2223
37613W        W46413   1.070   2.386  12.704  0.0481  0.1050  0.2094
37614W        W46414  12.293   0.283  28.399 -0.2434 -0.0560 -0.1514
37615W        W46415  14.837   5.739  36.478 -0.2228  0.1767  0.0912
37616W        W46416   6.007   6.174   6.587 -0.0044 -0.0852 -0.1419
37617W        W46417  12.743   6.488  18.804  0.2837 -0.0196  0.0771
37618W        W46418   5.749   3.602  24.546 -0.0253  0.2410  0.0048
37619W        W46419  15.854   0.180  33.572  0.2584 -0.2622 -0.1660
37620W        W46420   1.321   2.863  29.960 -0.0395  0.1130 -0.1703
37621W        W46421  15.776   5.913   1.999 -0.2194  0.0963 -0.1167
37622W        W46422  11.187   3.294  11.002 -0.0216 -0.3554 -0.1444
37623W        W46423   5.604   3.677  41.545  0.2090  0.2497 -0.2146
37624W        W46424  15.105   5.464   9.286  0.2549 -0.1920 -0.3498
37625W        W46425  15.243   1.245  31.833  0.1144  0.0021 -0.0768
37626W        W46426  19.659   2.483  12.780  0.0553  0.0033 -0.1399
37627W        W46427  12.565   1.344  19.663  0.2080  0.3026 -0.2688
37628W        W46428  11.363   0.079  18.012  0.0379 -0.2072  0.0582
37629W        W46429  14.422   4.225  31.541  0.0182 -0.2577  0.0073
37630W        W46430  13.444   2.504  40.040  0.3736  0.0511  0.0311
37631W        W46431  20.641   1.380  41.306 -0.1056 -0.0634 -0.1312
37632W        W46432   0.379   0.772   2.181 -0.4970 -0.1069  0.2845
37633W        W46433  11.357   3.125  37.063  0.1458  0.0604  0.0287
37634W        W46434  17.548   0.186  35.446  0.0875  0.1463 -0.1026
37635W        W46435  10.735   2.854  12.996  0.3163 -0.1381 -0.1510
37636W        W46436  19.594   1.245  35.169 -0.1367  0.1916 -0.2069
37637W        W46437   6.062   5.106  43.953 -0.1034  0.1641 -0.1904
37638W        W46438   2.016   1.063  27.287  0.0262  0.1381  0.2750
37639W        W46439   0.031   0.965  12.256  0.1523  0.1063  0.2222
37640W        W46440  13.115   3.403  42.635  0.0488 -0.1453  0.2389
37641W        W46441   8.973   4.022  14.781 -0.0601 -0.2143 -0.0312
37642W        W46442   9.836   2.503  12.600 -0.0948 -0.0199  0.1986
37643W        W46443   7.504   3.755  40.223 -0.2394 -0.0791  0.0888
37644W        W46444   1.094   6.035  32.873  0.0302 -0.2109  0.0512
37645W        W46445  10.490   0.478  38.904 -0.1994 -0.3755 -0.0566
37646W        W46446   7.457   3.492  29.962 -0.0161  0.1415  0.1893
37647W        W46447  18.767   2.763  42.308 -0.1132  0.7891 -0.0917
37648W        W46448   3.833   5.937  11.426 -0.1423 -0.0579 -0.0534
37649W        W46449   1.141   0.361   9.259  0.0812  0.0204 -0.6034
37650W        W46450  10.794   0.078  14.994  0.3752 -0.1231  0.0900
37651W        W46451  13.473   2.005  32.555 -0.0319  0.1772 -0.1567
37652W        W46452   6.023   5.936  25.055 -0.0749  0.3714  0.0677
37653W        W46453  20.280   4.691  43.343  0.1212 -0.1970  0.2525
37654W        W46454   1.860   5.088  13.894 -0.3998 -0.2574 -0.0280
37655W        W46455  17.337   4.970  11.766  0.1683 -0.1354  0.1998
37656W        W46456   8.395   1.807  15.284 -0.0305  0.2362 -0.2656
37657W        W46457   5.926   0.722  12.807 -0.0357 -0.0560  0.1329
37658W        W46458   2.795   0.313   0.119 -0.0153 -0.1254  0.2147
37659W        W46459   0.968   1.943   2.347 -0.2634 -0.1551  0.1957
37660W        W46460  13.205   6.522   4.811  0.0524  0.3082 -0.0640
37661W        W46461  20.362   1.480  12.716  0.0629  0.0967 -0.1089
37662W        W46462   0.454   4.774  11.177 -0.0521  0.3307  0.1018
37663W        W46463   1.539   0.667  36.519 -0.0550  0.1635  0.1817
37664W        W46464  18.891   4.146  38.546  0.0110  0.1361 -0.0002
37665W        W46465  15.897   2.976  11.683  0.0430  0.0999  0.1223
37666W        W46466   1.461   4.075  16.396 -0.0196  0.0837 -0.0676
37667W        W46467  16.249   1.539  10.457  0.1994 -0.0660  0.0914
37668W        W46468   1.041   1.546  24.384  0.1068 -0.1725  0.2184
37669W        W46469   0.517   1.392  12.731  0.2825  0.0263  0.1874
37670W        W46470  19.576   5.703   2.122  0.0755 -0.1488 -0.0586
37671W        W46471  14.296   3.218  42.412  0.3200  0.0621  0.0224
37672W        W46472  15.840   2.969  20.562  0.0836  0.0062 -0.2156
37673W        W46473  11.442   6.534  12.460 -0.1674  0.2653  0.1001
37674W        W46474  15.714   5.502   6.384 -0.1961  0.1494  0.3015
37675W        W46475  18.969   3.695  35.629 -0.0971 -0.0568  0.1551
37676W        W46476  16.894   5.410  21.247  0.3439  0.1955  0.0351
37677W        W46477   6.186   6.524  37.283 -0.0782 -0.2859 -0.0085
37678W        W46478  20.258   2.554  10.006 -0.7147  0.3199  0.2058
37679W        W46479  20.445   0.207   8.500  0.0675 -0.3157  0.1024
37680W        W46480  16.892   2.569  41.134 -0.1041  0.2019  0.2843
37681W        W46481  14.005   2.446  11.973  0.0763  0.0369  0.0299
37682W        W46482  11.106   3.390  18.024  0.0835 -0.2055  0.2738
37683W        W46483  10.623   1.482  15.020 -0.1378 -0.3116  0.3688
37684W        W46484  17.769   6.452  28.854 -0.0612  0.1644  0.2042
37685W        W46485  18.452   4.282   2.430 -0.1386 -0.2716  0.2216
37686W        W46486   0.295   5.882  44.131 -0.1387  0.2154  0.2087
37687W        W46487  10.749   2.126  12.381 -0.1347  0.3895 -0.1444
37688W        W46488  12.783   1.205   9.417  0.0529  0.0504 -0.0921
37689W        W46489  16.633   2.119   8.612 -0.0345  0.0096 -0.0261
37690W        W46490   6.357   4.488   5.771  0.1043  0.0203  0.1059
37691W        W46491   6.833   4.599  39.068  0.2964 -0.0996  0.0173
37692W        W46492  18.039   0.544  18.315 -0.0991 -0.3496 -0.1407
37693W        W46493   6.439   1.560   3.267 -0.0390 -0.1860  0.2513
37694W        W46494  13.736   1.766  20.724 -0.0902 -0.1943 -0.1828
37695W        W46495  15.402   2.217  40.264  0.2833  0.0503  0.1515
37696W        W46496   2.969   2.383  27.699 -0.3972 -0.0567  0.3322
37697W        W46497  19.990   1.888  33.658  0.0520 -0.2268 -0.2213
37698W        W46498  16.805   4.310  12.785  0.0441  0.0391  0.1895
37699W        W46499  13.811   5.782  36.806 -0.1584  0.1741  0.0366
37700W        W46500  21.144   6.379   9.366 -0.0363  0.0635  0.3233
37701W        W46501   1.643   3.437  43.556  0.1745 -0.0989 -0.2744
37702W        W46502  20.583   1.347  44.296  0.3646  0.0749  0.0578
37703W        W46503  19.583   4.506  32.548 -0.2122  0.0881 -0.0434
37704W        W46504  14.184   1.075  14.853  0.2812 -0.0824  0.1272
37705W        W46505   8.798   2.508   9.420 -0.0059  0.0616 -0.0039
37706W        W46506  17.170   0.826   9.095  0.2606  0.2074  0.0921
37707W        W46507   5.812   4.138   0.262 -0.0428  0.0743  0.1178
37708W        W46508  15.495   5.149   7.930  0.1934 -0.2928 -0.0232
37709W        W46509   1.688   6.477   4.127  0.1328 -0.0616 -0.0227
37710W        W46510   2.292   2.681  22.656  0.0705 -0.0424  0.3266
37711W        W46511  13.418   0.258   0.418  0.1111  0.0725 -0.1782
37712W        W46512   6.906   1.569  31.065  0.0124  0.0325  0.1737
37713W        W46513  10.362   2.130  15.385 -0.2117 -0.0151  0.2931
37714W        W46514  20.579   6.049  26.505  0.0911  0.0677 -0.2376
37715W        W46515   0.774   6.554  39.624  0.1074 -0.2097 -0.0908
37716W        W46516   4.693   2.595   0.030  0.0508  0.1613  0.1774
37717W        W46517   7.750   5.223  12.268 -0.0255  0.1213  0.0391
37718W        W46518  17.524   1.505  34.574 -0.0717  0.1330  0.0907
37719W        W46519  16.521   1.069   3.520  0.2275 -0.0755  0.0558
37720W        W46520  16.966   1.866  39.329  0.0985  0.3077  0.0344
37721W        W46521  19.480   4.512  34.169 -0.3805 -0.0706 -0.0566
37722W        W46522  14.659   5.427  17.315 -0.0110 -0.3389 -0.2909
37723W        W46523  14.072   5.125   4.260 -0.0798  0.1056  0.2627
37724W        W46524  17.568   4.627  33.671 -0.2067  0.0997 -0.3480
37725W        W46525   2.919   0.877  24.105  0.1136 -0.2474  0.0001
37726W        W46526  12.819   5.070   1.262 -0.3226  0.1506 -0.1647
37727W        W46527  16.826   0.100  38.747 -0.1310  0.2262  0.1017
37728W        W46528  13.876   6.166  31.862 -0.0034  0.2760 -0.1028
37729W        W46529  18.027   3.247  20.036 -0.3175  0.0005 -0.0220
37730W        W46530   6.622   6.078   2.946 -0.0311  0.0059  0.1519
37731W        W46531   2.501   0.809  38.855  0.0475 -0.0109 -0.0638
37732W        W46532  16.767   5.226   5.851 -0.0939 -0.0417  0.0422
37733W        W46533  15.148   4.647  35.822 -0.1726 -0.0380  0.0490
37734W        W46534   5.843   4.248  26.575 -0.1434 -0.3594 -0.1397
37735W        W46535   9.988   6.404  30.261 -0.0603  0.0288  0.1027
37736W        W46536  16.438   0.876  15.253 -0.0857 -0.0896  0.3273
37737W        W46537  14.859   4.842  32.545 -0.2743  0.0947  0.0601
37738W        W46538   0.291   4.203   0.650  0.1015  0.0946  0.4037
37739W        W46539   3.882   0.381   8.131 -0.0639 -0.0802  0.0089
37740W        W46540  20.605   3.540   6.008 -0.1165 -0.1847  0.0190
37741W        W46541   1.753   3.206   4.203 -0.1158 -0.0022  0.0562
37742W        W46542  12.476   0.111  36.065  0.1846 -0.1097 -0.0218
37743W        W46543   3.970   3.837  19.684  0.1544 -0.0926  0.1086
37744W        W46544   8.879   3.092  13.100 -0.0055 -0.1031 -0.3119
37745W        W46545   4.160   3.693  20.137 -0.1274 -0.0951 -0.0313
37746W        W46546   9.760   3.440  13.998 -0.1407 -0.1985 -0.0782
37747W        W46547  19.591   4.771   6.682  0.2177 -0.1721 -0.2965
37748W        W46548   0.638   0.214  33.750 -0.1647 -0.1884 -0.0454
37749W        W46549   6.896   2.796  24.695  0.4121  0.0490 -0.0523
37750W        W46550   5.664   2.674  43.475 -0.0279  0.0547 -0.3710
37751W        W46551  16.319   4.580  35.084 -0.0081 -0.0143  0.1018
37752W        W46552  10.484   0.085  29.318  0.1510 -0.0494  0.2520
37753W        W46553  15.989   2.968   9.233  0.1198 -0.3016  0.0289
37754W        W46554   0.444   1.566   0.603 -0.0909  0.2096  0.1538
37755W        W46555   3.985   2.093  38.226  0.1717  0.0961 -0.1685
37756W        W46556   1.980   2.550  43.970  0.1129  0.0840  0.1501
37757W        W46557   4.551   5.491  34.141 -0.0657 -0.3222 -0.1052
37758W        W46558  16.823   3.041  42.593 -0.0397 -0.1885  0.1456
37759W        W46559  10.614   2.007   4.148  0.0833 -0.1792  0.1378
37760W        W46560   9.665   1.673  11.667 -0.0949 -0.0550 -0.0206
37761W        W46561  10.187   5.090  15.362  0.1576 -0.0471 -0.2094
37762W        W46562  20.655   5.867  10.382  0.1794  0.0103  0.2616
37763W        W46563   8.940   3.454  28.811 -0.3834 -0.1982 -0.0100
37764W        W46564   4.923   2.615  34.645 -0.2272  0.2797 -0.0323
37765W        W46565  20.257   0.815  40.468 -0.3305  0.3259 -0.0508
37766W        W46566  13.244   6.232  34.632 -0.2199  0.0290 -0.2236
37767W        W46567   2.276   2.246  29.993 -0.2049  0.1846 -0.0923
37768W        W46568  10.626   5.722  17.927 -0.1535 -0.2019  0.1557
37769W        W46569   4.340   2.628  37.614 -0.1849 -0.2227  0.1615
37770W        W46570   7.638   0.304  31.603  0.0367 -0.3535 -0.2272
37771W        W46571  12.049   0.928  35.564  0.1030 -0.0614 -0.0504
37772W        W46572   2.069   2.961   7.497 -0.0271 -0.1546 -0.0647
37773W        W46573  18.508   5.107  14.154  0.0067 -0.1817  0.0372
37774W        W46574   1.738   2.750   8.189  0.2820 -0.2731  0.2471
37775W        W46575   1.087   2.360  10.285 -0.0453  0.0211  0.2534
37776W        W46576  20.785   2.111   9.432  0.2700  0.2847 -0.2709
37777W        W46577  17.839   2.530  15.664  0.1183  0.0828  0.1290
37778W        W46578   0.923   1.452  30.779 -0.0221  0.0669 -0.0448
37779W        W46579  14.894   3.192   5.827  0.2628 -0.0120 -0.2424
37780W        W46580   8.395   3.830   2.417  0.0658  0.3749 -0.0748
37781W        W46581   8.283   4.497  29.510 -0.0406 -0.1734 -0.3307
37782W        W46582  14.918   2.276  24.089  0.1704 -0.0886  0.0654
37783W        W46583  19.767   4.424   7.904 -0.2082  0.0199 -0.0211
37784W        W46584   3.070   5.367  15.138  0.0023 -0.1386  0.0497
37785W        W46585  12.266   4.435  42.699  0.1731 -0.2561 -0.1121
37786W        W46586  11.319   6.453   5.874 -0.0055  0.1001  0.3208
37787W        W46587  14.764   0.809  16.724  0.0554  0.0498  0.3630
37788W        W46588  17.789   0.386  12.482 -0.4001 -0.0764  0.0445
37789W        W46589   3.370   2.877  33.698 -0.3365  0.2806  0.0431
37790W        W46590  19.017   6.057  17.910  0.2550  0.0585  0.0538
37791W        W46591   5.654   2.379   1.079  0.2344 -0.3737  0.2460
37792W        W46592   5.259   1.164  21.779  0.2085  0.1415  0.0659
37793W        W46593  15.726   5.529   8.216 -0.0534  0.1596  0.2994
37794W        W46594  11.657   3.503   4.896 -0.2147  0.0537 -0.2603
37795W        W46595  13.717   0.756  19.152 -0.0989  0.0232  0.1895
37796W        W46596   4.951   4.272  14.497 -0.2639 -0.0871 -0.2275
37797W        W46597  16.224   4.272  19.993 -0.0625  0.2495  0.1375
37798W        W46598  16.681   6.487  12.703 -0.1183  0.1632 -0.0613
37799W        W46599   7.861   4.666  16.549 -0.1265  0.2760  0.1916
37800W        W46600   2.645   4.411  14.329 -0.1411  0.0302 -0.1224
37801W        W46601   4.389   6.198   3.820 -0.2271 -0.0436 -0.0408
37802W        W46602   6.104   2.409  14.468 -0.3187  0.0446 -0.0215
37803W        W46603   2.031   4.342  36.787  0.1402  0.2712 -0.1103
37804W        W46604   4.732   3.440  39.675  0.5431  0.1259  0.0695
37805W        W46605  17.467   2.241  37.590  0.0096  0.1683  0.3569
37806W        W46606   6.401   5.000   7.228 -0.0725 -0.1111  0.3304
37807W        W46607   1.420   0.217  36.204  0.0565  0.2536  0.1845
37808W        W46608   3.562   3.170  39.373  0.1044 -0.4477 -0.4023
37809W        W46609   9.086   4.189  10.468  0.0362 -0.2067 -0.2152
37810W        W46610   6.794   0.517   7.911 -0.0590 -0.0287  0.3058
37811W        W46611   1.151   5.680  15.106 -0.0108  0.1113 -0.0998
37812W        W46612   7.781   3.300  39.323  0.0706 -0.1441 -0.0767
37813W        W46613  11.977   6.239  31.423  0.0378 -0.1321 -0.0092
37814W        W46614  11.188   6.425   2.408  0.1588  0.1952 -0.2812
37815W        W46615   7.200   3.165   9.576 -0.2775 -0.0755 -0.0535
37816W        W46616   3.183   3.990  15.801 -0.0428 -0.0696 -0.1304
37817W        W46617  12.798   6.355  32.129 -0.0701 -0.2030 -0.0985
37818W        W46618   7.078   0.243  15.185  0.1383  0.0013  0.0238
37819W        W46619  15.935   3.334   0.878  0.0247  0.3426 -0.0015
37820W        W46620  15.397   5.195  40.429  0.2412 -0.2564  0.1645
37821W        W46621  16.244   3.764  44.925  0.0716 -0.2308  0.1187
37822W        W46622   2.238   5.082  34.396 -0.1328  0.2307  0.1733
37823W        W46623   8.987   3.791   0.154  0.3062  0.0111  0.2394
37824W        W46624  12.396   1.445  12.493  0.1496 -0.1592 -0.1411
37825W        W46625   6.436   5.480  36.603 -0.0104  0.4409 -0.1029
37826W        W46626   5.561   2.300  32.819  0.1597  0.0667  0.1686
37827W        W46627  13.060   2.627  30.606  0.0583  0.1225  0.0586
37828W        W46628   3.855   1.495  30.930 -0.0984  0.0000 -0.0196
37829W        W46629   9.213   3.171  34.452 -0.1956 -0.3630  0.0012
37830W        W46630  15.485   4.061   9.902  0.0081  0.1293 -0.0494
37831W        W46631   3.326   4.316  40.399  0.0707 -0.1114 -0.1570
37832W        W46632  12.920   3.891  12.598 -0.1810 -0.0405 -0.1629
37833W        W46633  14.007   0.924   2.432  0.0076  0.1358 -0.2406
37834W        W46634  16.420   0.436   5.462 -0.0241 -0.0863  0.0227
37835W        W46635   1.120   4.064   3.964 -0.0747  0.0424 -0.0740
37836W        W46636  13.491   3.676  42.827 -0.1312  0.1598  0.1820
37837W        W46637  19.015   1.019   9.160 -0.0865 -0.0171  0.1279
37838W        W46638   0.739   4.630   2.237 -0.1665 -0.0626 -0.0702
37839W        W46639   4.516   5.695   3.741  0.0890  0.1207 -0.2531
37840W        W46640  10.975   6.198  19.087 -0.1186  0.0043 -0.3423
37841W        W46641  12.026   5.330   2.342  0.2504  0.0338 -0.2253
37842W        W46642  13.725   4.898  38.515 -0.0787  0.1251  0.0200
37843W        W46643   3.497   4.133  14.660  0.0039 -0.3987  0.2335
37844W        W46644   0.758   5.696  41.922 -0.0505  0.1342 -0.5937
37845W        W46645   5.385   3.857  22.968 -0.1597 -0.0555  0.1352
37846W        W46646  20.328   0.628  34.375 -0.2073  0.1527  0.0523
37847W        W46647   6.962   5.500  10.244  0.1865  0.1440 -0.0935
37848W        W46648   7.056   3.188   0.733 -0.0914  0.2137  0.1084
37849W        W46649   5.358   4.054  32.681  0.0842  0.2849 -0.0787
37850W        W46650   1.513   0.792  43.980 -0.1406 -0.1168 -0.1254
37851W        W46651   2.221   2.546  31.193  0.0144  0.0279  0.1675
37852W        W46652   8.975   5.316   2.977  0.1298  0.0142 -0.1654
37853W        W46653  15.210   1.072  18.109  0.1344 -0.0059  0.0402
37854W        W46654  17.674   5.617  38.833  0.0067  0.1633  0.2800
37855W        W46655   0.623   2.022  26.223 -0.1269 -0.1857 -0.2435
37856W        W46656   2.367   2.921  37.657  0.0297  0.0521  0.2736
37857W        W46657  17.006   6.235  11.060  0.2722  0.0259 -0.1358
37858W        W46658   3.559   2.010  20.672  0.0910  0.1873  0.0858
37859W        W46659   2.085   3.684  29.760 -0.3612  0.0287 -0.1441
37860W        W46660   3.032   2.726   9.407 -0.1127 -0.1807  0.2201
37861W        W46661  12.113   4.066   9.478  0.2302 -0.0587 -0.1171
37862W        W46662   1.722   1.995  15.392 -0.0727  0.0558  0.1416
37863W        W46663  20.274   3.102  13.693 -0.1836  0.0795  0.3605
37864W        W46664   6.542   2.466  24.395 -0.4083  0.6053  0.0959
37865W        W46665  20.862   1.001  27.018  0.0689  0.0510  0.1821
37866W        W46666  11.327   5.721  35.000  0.1135  0.1425 -0.0641
37867W        W46667  13.452   2.311  23.478 -0.1330 -0.0871  0.0672
37868W        W46668   0.728   3.109  30.685 -0.0265  0.1045  0.3924
37869W        W46669  18.029   4.204  37.273 -0.0117 -0.0441 -0.0315
37870W        W46670  16.939   5.654   7.655 -0.1986 -0.0513  0.2010
37871W        W46671  13.446   6.360  31.459 -0.1528  0.0644  0.1475
37872W        W46672   3.118   5.242   3.720 -0.0606  0.3446  0.0445
37873W        W46673  17.123   5.239  16.861 -0.0680 -0.2837 -0.1231
37874W        W46674   3.514   1.856  20.069 -0.0318  0.0532 -0.0729
37875W        W46675  11.570   3.531  38.686  0.3841 -0.0159  0.0872
37876W        W46676  16.425   3.381  32.022 -0.0448  0.1561  0.0954
37877W        W46677   4.531   3.506  33.937  0.0161 -0.1362  0.1338
37878W        W46678  19.664   5.374  41.395  0.1897 -0.3208  0.4290
37879W        W46679  14.983   3.879  20.102 -0.2123  0.0624  0.0887
37880W        W46680  19.117   3.801   6.895  0.2773 -0.1048  0.0531
37881W        W46681  16.071   2.798  29.281  0.1808  0.0658 -0.2752
37882W        W46682  19.648   3.577  27.158  0.2482 -0.0920 -0.2274
37883W        W46683   9.277   0.973  28.116 -0.0535 -0.4098 -0.1358
37884W        W46684  20.903   0.323   0.477 -0.1207 -0.0183 -0.0033
37885W        W46685   6.932   3.748  30.102  0.2391  0.1119 -0.2369
37886W        W46686   8.051   1.044  43.751  0.2604 -0.0150  0.1028
37887W        W46687  14.148   4.553  15.518 -0.1325 -0.0024  0.0912
37888W        W46688   2.880   5.732  10.301  0.1052 -0.2038 -0.2150
37889W        W46689  15.481   1.359  37.184 -0.0137 -0.1624 -0.1034
37890W        W46690   5.266   4.883  41.845  0.1461  0.2028  0.1029
37891W        W46691   7.909   1.563  10.441  0.1601 -0.1097  0.1458
37892W        W46692   3.624   0.879  28.480  0.0081 -0.0713  0.1414
37893W        W46693  10.471   5.064  14.453 -0.0102  0.0824 -0.0536
37894W        W46694   8.371   2.057  40.410 -0.0001 -0.0755 -0.0389
37895W        W46695  20.786   0.337  11.948 -0.0987 -0.0032  0.0438
37896W        W46696   2.431   2.341  12.669  0.1544  0.4013  0.0892
37897W        W46697  17.876   1.515   5.898 -0.0121  0.1573  0.0500
37898W        W46698  10.652   6.344  44.355  0.0597 -0.4172 -0.1868
37899W        W46699   6.335   2.633  11.420  0.3225  0.1311 -0.1422
37900W        W46700   9.129   2.551  33.625 -0.1210  0.0092  0.0162
37901W        W46701  13.943   1.461  21.912  0.0242  0.0173  0.0001
37902W        W46702  13.845   3.516  17.410 -0.1321 -0.1299  0.2510
37903W        W46703  10.297   4.804  39.464 -0.1112 -0.0013 -0.1396
37904W        W46704  16.185   4.948  19.540  0.2208 -0.0350 -0.1867
37905W        W46705   9.176   5.357   4.332 -0.1408 -0.1950  0.1092
37906W        W46706   5.520   5.271  44.213 -0.0851  0.2558 -0.0681
37907W        W46707   7.366   1.190  44.635  0.2105  0.1306  0.0295
37908W        W46708  13.719   0.589   3.174 -0.1491  0.1029  0.0620
37909W        W46709  18.062   2.031  37.140 -0.0099  0.1747  0.0116
37910W        W46710   2.722   3.799  11.805  0.0060 -0.0011  0.2842
37911W        W46711   9.166   3.996  14.096 -0.0484 -0.0031  0.0876
37912W        W46712  16.180   0.273  10.140  0.1460  0.1912 -0.0634
37913W        W46713   1.574   6.101  26.572 -0.0604  0.1072  0.0899
37914W        W46714   3.690   2.868  33.318  0.0037 -0.2276  0.0335
37915W        W46715  12.493   2.418  36.891  0.0758  0.1218  0.0854
37916W        W46716  16.020   5.583  13.943  0.0250 -0.0403  0.0238
37917W        W46717   9.733   2.484   0.790  0.0243 -0.0654 -0.1853
37918W        W46718   4.157   5.944  32.683 -0.0064 -0.2842  0.0961
37919W        W46719   0.822   1.727   3.185 -0.0512 -0.3392  0.0598
37920W        W46720   2.707   2.054  41.332 -0.0436 -0.1497  0.0005
37921W        W46721   3.281   4.775   5.612  0.0766 -0.2559 -0.0475
37922W        W46722  20.215   4.205  31.327  0.0080  0.1202 -0.2482
37923W        W46723   8.060   3.453   7.661  0.0895 -0.0528 -0.0883
37924W        W46724  11.852   1.762  11.176  0.0440  0.1561 -0.1779
37925W        W46725  20.228   3.223  40.557 -0.0354  0.0521  0.0190
37926W        W46726   0.549   5.972  28.722  0.1180 -0.2659  0.0317
37927W        W46727  20.159   0.782  29.192 -0.0271  0.0473  0.0223
37928W        W46728   3.958   0.720  23.112 -0.3063 -0.1604  0.1522
37929W        W46729  13.801   2.723  38.291 -0.0878  0.0325 -0.1404
37930W        W46730   9.994   6.176  42.636  0.0107 -0.2783 -0.0003
37931W        W46731  13.856   3.729  23.860  0.0801 -0.2110  0.2496
37932W        W46732  15.421   0.756  13.352 -0.1358  0.0623  0.1116
37933W        W46733  19.647   3.965  41.817  0.1195 -0.1193  0.3737
37934W        W46734   1.012   3.204  29.757  0.0703 -0.2351  0.0320
37935W        W46735   5.631   4.836   4.408 -0.1903  0.1451 -0.0429
37936W        W46736   4.002   1.268   9.617  0.1859  0.1283 -0.0193
37937W        W46737   5.026   3.295  40.005  0.5018  0.1552 -0.1478
37938W        W46738   7.418   4.138  10.879  0.1297  0.0679 -0.0728
37939W        W46739  14.050   3.385  34.304 -0.1733 -0.3095 -0.1943
37940W        W46740   2.520   0.071  14.096 -0.0494  0.2354  0.3571
37941W        W46741   0.499   1.096  33.688  0.1209 -0.1812  0.2535
37942W        W46742  13.491   1.053   2.364  0.0813  0.0521 -0.1814
37943W        W46743  18.532   4.052  11.501 -0.0523 -0.0423 -0.1186
37944W        W46744   1.475   4.077  45.113  0.0748  0.0596 -0.1438
37945W        W46745   9.476   4.455  44.622  0.0374  0.1927  0.0917
37946W        W46746  18.052   6.468  42.445  0.0361 -0.3466  0.2798
37947W        W46747   1.211   1.767  38.214 -0.4154  0.1981  0.0849
37948W        W46748  14.726   5.908  17.113  0.0427 -0.0190  0.0129
37949W        W46749   3.170   0.213   3.507 -0.1057 -0.1545 -0.0684
37950W        W46750   8.182   5.835  31.682  0.0196  0.0377  0.1200
37951W        W46751   4.317   2.363  27.000 -0.3077 -0.0623  0.0013
37952W        W46752  12.676   3.997  17.241 -0.0041  0.1650 -0.0670
37953W        W46753   6.341   5.868  16.212 -0.4347 -0.3059  0.2007
37954W        W46754   1.768   2.223  25.163 -0.0798  0.1293 -0.1054
37955W        W46755  16.407   0.407  20.324  0.1537  0.0770  0.2116
37956W        W46756  17.164   4.266   4.163  0.3093  0.1431 -0.1810
37957W        W46757  18.679   3.465  30.712  0.0219  0.2115  0.5434
37958W        W46758  13.796   0.512  38.891 -0.1378  0.0953 -0.0881
37959W        W46759   5.109   2.467  37.293  0.0845 -0.2067 -0.0135
37960W        W46760  15.830   1.300  34.527  0.1708 -0.0944  0.1427
37961W        W46761  19.510   0.535  12.086  0.1397 -0.0226  0.2979
37962W        W46762   5.978   2.702  30.148  0.0146  0.2743  0.0356
37963W        W46763  15.535   6.400  35.871 -0.0155 -0.2934 -0.1373
37964W        W46764  13.181   3.570   0.786 -0.0573  0.2863 -0.1529
37965W        W46765   0.195   0.419  37.707 -0.1322 -0.0922  0.1716
37966W        W46766  17.047   5.831   3.147 -0.0494 -0.3705  0.4140
37967W        W46767  11.071   4.297   3.824  0.3193 -0.1991 -0.0891
37968W        W46768  20.232   3.227  27.974 -0.0729  0.2053 -0.0254
37969W        W46769   6.300   4.002  29.250  0.2730  0.1907  0.1271
37970W        W46770  12.567   5.358  37.125 -0.0811  0.1487 -0.2083
37971W        W46771  18.794   2.344  29.276 -0.2401 -0.1755  0.2663
37972W        W46772  11.217   5.133   9.636  0.0517  0.1761  0.1304
37973W        W46773  11.787   2.331  14.629 -0.1454  0.3816 -0.2029
37974W        W46774  15.497   2.990   1.992  0.0748 -0.0941  0.1291
37975W        W46775  16.534   2.662   0.563  0.0345  0.1323 -0.0987
37976W        W46776   4.360   4.856  35.490  0.1986  0.0577 -0.0095
37977W        W46777   3.482   2.599   6.376 -0.0352 -0.0534  0.0633
37978W        W46778   8.783   3.253  26.815  0.0645  0.2033  0.3098
37979W        W46779   8.674   3.345  42.757 -0.3054  0.0284 -0.0196
37980W        W46780   7.945   1.407  32.787 -0.0960  0.2712  0.0432
37981W        W46781  15.017   0.008  14.641 -0.3850 -0.1697 -0.0704
37982W        W46782   9.833   4.225  27.483 -0.1018 -0.1418  0.0515
37983W        W46783  19.714   2.990  30.669  0.1292 -0.2117 -0.2268
37984W        W46784  19.495   5.980   8.200  0.2008 -0.0780 -0.2926
37985W        W46785  11.717   1.479  18.663  0.0779 -0.0402 -0.0548
37986W        W46786  12.585   0.480   1.582  0.1789 -0.2973  0.1893
37987W        W46787  21.100   4.249  13.609 -0.0809 -0.1823 -0.0456
37988W        W46788  11.871   5.838   2.330 -0.1333 -0.0088  0.1845
37989W        W46789  11.823   5.144  35.967  0.0911  0.1693  0.0846
37990W        W46790   5.256   2.468  32.046 -0.1574  0.0364 -0.0527
37991W        W46791  16.093   6.357  10.255 -0.2078  0.0086  0.1319
37992W        W46792   4.279   4.705  24.495  0.1380  0.1035  0.0143
37993W        W46793  17.976   1.586  17.856 -0.1113 -0.1087  0.3969
37994W        W46794   5.563   2.707   4.057 -0.2121  0.0712  0.1275
37995W        W46795   5.255   4.568  13.662  0.0512  0.0310  0.1705
37996W        W46796  10.580   5.938   3.286  0.0768 -0.1133 -0.1388
37997W        W46797   5.552   2.034   8.336  0.0427  0.1065  0.2285
37998W        W46798   7.172   2.671  36.980  0.0115 -0.4817  0.1648
37999W        W46799   2.932   0.778  41.592 -0.3431  0.0544  0.1248
38000W        W46800  16.799   0.738  18.850  0.3169  0.0877  0.3452
38001W        W46801   1.636   2.378   5.357  0.0909 -0.3228  0.0988
38002W        W46802   3.238   3.198  18.271 -0.1091  0.0396 -0.1029
38003W        W46803   4.565   6.481  43.278  0.0479 -0.0569 -0.0259
38004W        W46804   0.967   0.098  41.813  0.1165  0.0437 -0.0318
38005W        W46805  16.894   0.575   9.970 -0.0007  0.0872  0.3231
38006W        W46806  17.418   4.443  22.434 -0.0295 -0.2213  0.3326
38007W        W46807   8.155   4.969  25.497 -0.2523  0.2668 -0.0270
38008W        W46808  16.765   2.645   9.270  0.0598 -0.1062  0.0473
38009W        W46809  11.007   5.741  18.435 -0.1176 -0.1870  0.3123
38010W        W46810   9.417   4.388  33.167 -0.3850 -0.2177 -0.1812
38011W        W46811   9.142   6.504  30.849  0.0638  0.1841 -0.5065
38012W        W46812   8.768   3.166   6.353 -0.1265 -0.0575 -0.3660
38013W        W46813  20.342   0.649  44.132 -0.0060  0.0938  0.1024
38014W        W46814  17.336   3.976   3.033  0.0108 -0.1622 -0.0684
38015W        W46815   5.893   3.600  41.976 -0.0503  0.1376  0.2369
38016W        W46816  18.455   2.636   5.350  0.0419 -0.1730  0.0024
38017W        W46817   9.397   6.025  14.037 -0.0743 -0.0038 -0.1429
38018W        W46818  19.114   2.367  18.913  0.0805  0.2260  0.0881
38019W        W46819   9.784   1.599  16.206  0.0511  0.3218 -0.2995
38020W        W46820   6.126   5.081  39.169 -0.1869 -0.2898  0.2294
38021W        W46821   3.107   4.835  31.628 -0.2054  0.1168 -0.0755
38022W        W46822  19.587   4.117   9.757  0.2045 -0.1276  0.0356
38023W        W46823   8.950   2.052   3.663  0.1613 -0.0035 -0.0812
38024W        W46824  16.564   4.497  30.132 -0.3386  0.1365  0.2101
38025W        W46825   2.612   1.372  41.460  0.2139  0.1044 -0.1501
38026W        W46826  19.714   3.993  27.539 -0.3000  0.0478 -0.0411
38027W        W46827   4.250   3.715   1.682 -0.3473  0.1436 -0.3331
38028W        W46828  20.095   1.525   3.201  0.2448 -0.2274  0.2824
38029W        W46829  16.227   1.851  41.199 -0.2170  0.2109 -0.1224
38030W        W46830   8.125   5.676  28.000 -0.0845 -0.1605 -0.1438
38031W        W46831   9.933   3.123  18.922 -0.1888 -0.3653  0.2398
38032W        W46832   6.345   2.372  26.776  0.2862 -0.0589  0.2347
38033W        W46833   5.584   3.024  34.896 -0.1648  0.2563 -0.2345
38034W        W46834  19.691   5.222   0.152  0.1448 -0.1539 -0.1313
38035W        W46835  16.409   1.355  37.147  0.0391 -0.2356  0.3190
38036W        W46836  19.640   4.427  18.188 -0.0146 -0.0560 -0.1181
38037W        W46837  15.140   5.583  14.473 -0.3410 -0.1820 -0.1316
38038W        W46838  10.324   0.211  17.756  0.0833 -0.2386 -0.0825
38039W        W46839   1.919   2.956  13.687  0.2072 -0.1629  0.3302
38040W        W46840   0.132   3.830  12.124 -0.2433  0.1674  0.2963
38041W        W46841   8.031   5.676  43.780  0.7897 -0.1416  0.3041
38042W        W46842  11.073   1.202  40.775  0.2478  0.0966 -0.0396
38043W        W46843   5.456   2.539  22.456  0.3957 -0.2028 -0.1178
38044W        W46844  12.215   2.130   6.887 -0.0228  0.2532 -0.2196
38045W        W46845  12.387   4.524  20.142  0.1281 -0.0565 -0.0837
38046W        W46846  16.880   4.109  17.481  0.0799 -0.0032 -0.3118
38047W        W46847  11.070   2.224   8.682 -0.2524 -0.0792 -0.1599
38048W        W46848  14.471   4.886  21.925  0.4061  0.0401  0.2207
38049W        W46849   5.704   1.731  37.922  0.2873  0.0634 -0.1992
38050W        W46850  13.982   2.120  44.258 -0.0266 -0.0518  0.0496
38051W        W46851   6.989   5.230  11.660  0.4179  0.2573 -0.1836
38052W        W46852  19.494   0.837   5.827  0.0135 -0.1693 -0.0396
38053W        W46853  19.433   3.632  40.083  0.1103 -0.3089  0.3223
38054W        W46854   9.551   0.301   6.419 -0.0371 -0.0726 -0.0223
38055W        W46855  14.383   2.326  43.473 -0.0179  0.1645 -0.2369
38056W        W46856   7.023   0.534   1.434  0.0289 -0.0005 -0.1648
38057W        W46857   9.285   6.107   0.425  0.0767  0.1491  0.0349
38058W        W46858  16.657   0.498  39.529 -0.0923  0.0823 -0.4837
38059W        W46859  20.895   4.713   6.323  0.1294 -0.0170 -0.1772
38060W        W46860   7.661   2.389  44.782 -0.0394  0.1019  0.5420
38061W        W46861   7.013   5.391  43.734 -0.0249  0.2138  0.1154
38062W        W46862  12.634   1.119  36.440 -0.0859 -0.0427  0.1101
38063W        W46863   3.640   5.780  19.919  0.1748  0.0147  0.0525
38064W        W46864   0.721   4.973  15.426 -0.1292  0.1472 -0.0610
38065W        W46865   9.897   5.661  17.208 -0.0431 -0.1049 -0.0010
38066W        W46866   5.433   4.296  38.512 -0.1178  0.0374  0.0275
38067W        W46867   3.803   1.037   0.982 -0.0733  0.1984  0.0709
38068W        W46868   2.593   3.001  10.918 -0.1212  0.1415  0.1251
38069W        W46869   9.972   5.480  31.151 -0.1733  0.2288  0.0204
38070W        W46870   1.294   5.024  29.367 -0.1114 -0.0197 -0.2917
38071W        W46871   5.200   3.592   4.110 -0.1394 -0.2478 -0.3964
38072W        W46872  14.060   6.038  12.279 -0.1830 -0.0792 -0.0259
38073W        W46873  12.827   5.082  44.523  0.0681 -0.1055 -0.0317
38074W        W46874   4.137   0.662  23.691  0.0400 -0.1842 -0.0623
38075W        W46875   8.148   1.952  36.467 -0.0738  0.2201  0.0953
38076W        W46876   8.049   5.429  33.549  0.2164 -0.2387 -0.1640
38077W        W46877  17.312   5.102  33.706  0.0951 -0.0496 -0.0782
38078W        W46878   6.613   3.785  36.749 -0.1070  0.1419 -0.4239
38079W        W46879  20.453   5.321  40.035 -0.0848  0.0454 -0.1155
38080W        W46880   1.733   1.337   1.028 -0.1503 -0.1877 -0.3931
38081W        W46881   0.806   3.270  12.586 -0.1187  0.1337  0.0436
38082W        W46882   3.172   3.326  31.493  0.0350  0.3917  0.1835
38083W        W46883  13.749   0.805  36.181  0.0661 -0.2768 -0.2210
38084W        W46884  18.387   3.148  43.549  0.3889  0.2383 -0.0536
38085W        W46885  11.940   3.309   5.833 -0.2077 -0.1833  0.0146
38086W        W46886  12.979   0.155   1.411 -0.1525 -0.4144 -0.2155
38087W        W46887   7.563   5.705  28.728 -0.0518  0.1451 -0.1234
38088W        W46888  15.089   2.528   2.018  0.2123  0.2207  0.0021
38089W        W46889  18.686   4.560  42.644  0.3403 -0.1683  0.3925
38090W        W46890  15.533   5.577  20.493 -0.2939 -0.2223 -0.1680
38091W        W46891  12.974   4.170  13.962 -0.1002 -0.1869  0.1094
38092W        W46892   7.721   1.394   9.632 -0.0290  0.0150 -0.2305
38093W        W46893   5.768   4.163  24.999 -0.2258 -0.0737  0.0183
38094W        W46894   9.995   6.480   5.648  0.1282  0.0132 -0.1829
38095W        W46895  13.322   6.561  22.457  0.0631  0.0042  0.0146
38096W        W46896  18.287   5.685   5.353 -0.0039  0.1028  0.3141
38097W        W46897   8.249   1.515  13.604  0.0434 -0.0732  0.0751
38098W        W46898  15.741   1.214   5.452 -0.0897 -0.2267 -0.0430
38099W        W46899   8.561   2.700   1.723 -0.3206 -0.0597 -0.0071
38100W        W46900   9.343   1.974   5.877  0.2920 -0.0625  0.1185
38101W        W46901  15.405   2.280  38.174  0.0536 -0.1264  0.0106
38102W        W46902  20.277   2.805  36.759 -0.0952 -0.1066 -0.0868
38103W        W46903  11.990   0.977   4.325 -0.0910 -0.2073  0.0172
38104W        W46904  11.066   5.963  13.705 -0.0441 -0.1855 -0.1003
38105W        W46905   3.894   3.087   4.451 -0.1486 -0.1410 -0.0031
38106W        W46906   7.915   4.297  28.348 -0.1346  0.0112  0.1925
38107W        W46907  17.586   1.101   2.146 -0.1628  0.0122 -0.2454
38108W        W46908  20.605   6.596  10.982 -0.2236  0.0223 -0.0256
38109W        W46909  20.650   6.138  15.454  0.1787 -0.0379  0.0744
38110W        W46910   3.375   0.740  44.628 -0.2948 -0.0447  0.0733
38111W        W46911   4.486   3.651  44.836 -0.0820  0.2681  0.0395
38112W        W46912  17.734   3.166  12.605 -0.0788  0.2007 -0.2222
38113W        W46913   5.124   3.923   1.855  0.2460  0.2172 -0.1599
38114W        W46914   9.731   5.970  12.335 -0.1737 -0.0300  0.0926
38115W        W46915  21.072   0.815  29.598  0.0075 -0.0366 -0.1400
38116W        W46916   5.692   0.399  33.902  0.3228  0.0360 -0.2804
38117W        W46917   7.358   4.853  34.804 -0.0353  0.1900 -0.1447
38118W        W46918  15.854   2.682  17.891 -0.0352  0.3952  0.1033
38119W        W46919   0.775   1.797  31.272  0.2246  0.1103 -0.2905
38120W        W46920   3.589   4.517  41.341 -0.0641 -0.0274  0.1256
38121W        W46921   5.992   4.411  31.836 -0.0610 -0.3259 -0.2145
38122W        W46922   5.498   3.474  30.661 -0.0795  0.1280  0.0696
38123W        W46923   6.268   2.914  43.121  0.1196  0.0465  0.2608
38124W        W46924  11.859   4.131  36.166  0.0003 -0.1763 -0.0238
38125W        W46925  19.549   4.997  38.377  0.1140 -0.1296 -0.1347
38126W        W46926   8.219   0.068   6.392 -0.0097 -0.2024  0.0450
38127W        W46927  15.327   6.069   7.444  0.0175 -0.3758  0.0924
38128W        W46928   0.244   0.867  37.423  0.1783  0.0124 -0.0156
38129W        W46929  12.919   0.330  33.393  0.1242  0.0309 -0.2426
38130W        W46930  18.654   4.768  40.881 -0.0685 -0.0098  0.0317
38131W        W46931   8.241   4.612   5.150  0.5715  0.3961 -0.1767
38132W        W46932  16.899   5.922  43.282  0.0051 -0.0125 -0.1437
38133W        W46933  11.252   3.023  13.031  0.3628 -0.1071  0.0130
38134W        W46934  13.735   0.925  19.967 -0.4195 -0.1558 -0.1055
38135W        W46935   2.838   4.427  31.567 -0.0906  0.3807 -0.0848
38136W        W46936  15.810   3.241   4.441  0.0271 -0.2481 -0.0237
38137W        W46937  10.093   2.772  34.217  0.1584  0.3258 -0.1198
38138W        W46938  16.206   1.205   3.905 -0.0881 -0.0545 -0.0498
38139W        W46939   1.523   2.924   1.312  0.0938 -0.0268 -0.0292
38140W        W46940   7.103   2.175  28.214  0.1228 -0.1605 -0.1723
38141W        W46941  21.169   4.304  30.846 -0.0263  0.1239 -0.0910
38142W        W46942  16.044   5.389  40.071  0.3171  0.1964  0.0608
38143W        W46943  14.897   1.105  22.437 -0.0563  0.1416  0.1912
38144W        W46944  19.115   3.637  33.998 -0.1452 -0.1360 -0.1292
38145W        W46945  11.783   1.069  17.088  0.1697 -0.0467 -0.1577
38146W        W46946   6.391   3.257   4.968  0.0660  0.3865  0.0068
38147W        W46947   9.413   1.395   6.912  0.0210  0.1121  0.0710
38148W        W46948   6.180   4.098  39.646  0.0864  0.1599 -0.1268
38149W        W46949  17.377   3.643  40.142  0.0465  0.3323  0.0266
38150W        W46950   7.482   2.873   6.894  0.0099 -0.2455 -0.0259
38151W        W46951  15.614   0.797  37.177 -0.0705  0.2172  0.0087
38152W        W46952  15.355   5.906   9.530  0.4437 -0.2467 -0.3675
38153W        W46953   1.861   5.544  36.799 -0.1254 -0.1884 -0.0596
38154W        W46954  17.072   5.895  13.868  0.2832  0.1576  0.1062
38155W        W46955  11.701   2.691  32.550  0.0777 -0.0329 -0.2361
38156W        W46956   9.973   4.565  15.485 -0.0354  0.2222 -0.3199
38157W        W46957   6.088   0.745  23.095  0.0701  0.0933 -0.0545
38158W        W46958   2.680   4.904  12.860 -0.2839  0.1243  0.0229
38159W        W46959   5.462   5.350   8.394  0.0607  0.2549  0.1200
38160W        W46960   5.621   5.978  10.837 -0.1552  0.0113  0.1334
38161W        W46961  11.706   4.115  37.082  0.0589  0.3039 -0.3383
38162W        W46962   0.415   6.102  11.425 -0.1244 -0.3150 -0.0386
38163W        W46963  18.100   5.141   2.196  0.0819  0.0543  0.3462
38164W        W46964   2.178   3.320  29.074  0.1539 -0.0367 -0.3460
38165W        W46965   4.462   5.019  13.462  0.0984  0.1181  0.1689
38166W        W46966  13.035   6.515  31.121  0.3402  0.0325 -0.3104
38167W        W46967   2.206   2.971   0.579  0.0609 -0.2446  0.1862
38168W        W46968   1.679   2.310  32.878  0.0180 -0.2181  0.3154
38169W        W46969  17.393   4.042   1.621  0.2058 -0.1811 -0.1971
38170W        W46970   3.863   2.251  28.656 -0.0812  0.2783  0.1416
38171W        W46971  10.057   4.027  13.007  0.2840  0.0281  0.2334
38172W        W46972   4.767   1.299  42.096  0.0361 -0.2402 -0.2147
38173W        W46973   3.320   5.640  43.274 -0.0041  0.0469 -0.1402
38174W        W46974   1.834   1.137  12.487  0.1574 -0.0706 -0.2172
38175W        W46975  14.401   2.361  10.839  0.3552  0.0384 -0.1910
38176W        W46976   3.480   2.349  31.300 -0.4652  0.2110 -0.0835
38177W        W46977   3.809   4.245   9.088  0.1453  0.2696 -0.1730
38178W        W46978   4.077   1.976   0.213  0.0950 -0.1007  0.0915
38179W        W46979   5.367   0.189   4.543 -0.2373 -0.1508  0.1626
38180W        W46980   3.688   4.250  10.465  0.2515 -0.0322 -0.3078
38181W        W46981  13.586   0.604  10.363  0.1831 -0.3349  0.4884
38182W        W46982   7.624   6.287   8.259  0.0012 -0.0749 -0.0794
38183W        W46983   8.841   5.060   7.957  0.0642  0.1636 -0.4349
38184W        W46984  18.919   2.628   5.853  0.1608  0.4049  0.0463
38185W        W46985   6.787   5.466  43.045 -0.0452 -0.1269  0.2030
38186W        W46986  12.367   0.677  30.411 -0.0315  0.1521 -0.0567
38187W        W46987  13.898   4.182  14.622 -0.0309  0.3865  0.0498
38188W        W46988   0.047   3.249   6.239 -0.0598  0.2751 -0.0930
38189W        W46989   2.270   4.790  40.990 -0.4511 -0.2302  0.1527
38190W        W46990  17.068   4.298  39.570  0.2372 -0.2048 -0.0653
38191W        W46991   3.469   6.265  24.491  0.0812  0.1843  0.1522
38192W        W46992  11.326   3.323  31.005 -0.0671  0.0852 -0.2137
38193W        W46993  19.954   3.505  34.915  0.3148 -0.3475  0.3381
38194W        W46994   9.296   4.952  15.143 -0.0749  0.1442 -0.0222
38195W        W46995  11.442   5.226  14.362  0.1954  0.2900  0.1731
38196W        W46996  12.435   5.119  19.315 -0.1745  0.0506  0.1270
38197W        W46997   4.497   2.316  34.398  0.1118 -0.2400  0.0614
38198W        W46998  17.382   4.678  29.433 -0.1720 -0.2933 -0.0913
38199W        W46999   3.944   5.017   1.164  0.0606 -0.1799  0.1612
38200W        W47000   5.153   4.155  24.282  0.1194 -0.0819 -0.1424
38201W        W47001  19.857   4.884  10.005  0.2276  0.1949 -0.0668
38202W        W47002   7.370   0.334  34.289 -0.0632  0.1344 -0.0294
38203W        W47003  14.168   5.703  45.090 -0.0255 -0.0068 -0.2665
38204W        W47004  15.058   2.080  33.259 -0.0233  0.0319 -0.1803
38205W        W47005  20.424   6.004  10.973 -0.2112  0.0253  0.3739
38206W        W47006  11.227   2.748   4.766 -0.1459 -0.3511 -0.0151
38207W        W47007  18.205   1.310  30.603  0.2366  0.1625 -0.1911
38208W        W47008   3.912   5.072  26.477 -0.1399  0.1128 -0.0395
38209W        W47009  13.960   3.918  35.036 -0.0143 -0.2223  0.1524
38210W        W47010   7.571   5.056  41.516 -0.1142 -0.1982 -0.2036
38211W        W47011   0.688   5.621  37.522 -0.0907 -0.0258  0.3681
38212W        W47012  17.353   1.970  12.324  0.2862  0.3468 -0.2579
38213W        W47013   3.279   3.060  41.166  0.2500  0.0477  0.2268
38214W        W47014  19.856   5.387   2.500  0.2440 -0.0990 -0.0596
38215W        W47015  15.436   2.202  41.647  0.1108  0.0897  0.0379
38216W        W47016   1.073   4.126  38.946 -0.0371 -0.1005 -0.2183
38217W        W47017   2.228   3.846  28.983  0.0008 -0.1446  0.1355
38218W        W47018   5.589   4.301  34.553 -0.0134  0.0797  0.1539
38219W        W47019   1.940   3.145  22.385  0.0079 -0.2585 -0.2356
38220W        W47020   1.707   1.863  27.672 -0.5044 -0.2231 -0.4404
38221W        W47021   4.563   4.844   6.287 -0.2625 -0.0360 -0.0730
38222W        W47022  16.030   5.469  44.342 -0.0457  0.0435  0.0524
38223W        W47023  19.621   2.582  16.614  0.2387  0.0249 -0.1376
38224W        W47024   4.777   0.823  31.074 -0.2975  0.3128  0.0096
38225W        W47025  20.044   6.399  41.975  0.0050 -0.0067  0.0259
38226W        W47026  20.263   0.674  15.135 -0.2736  0.1599  0.0733
38227W        W47027  12.200   5.893  40.639  0.3958  0.2234  0.1365
38228W        W47028   3.912   0.254  19.640 -0.1696  0.3336  0.0510
38229W        W47029   5.597   0.987  23.741  0.1846  0.0199  0.0996
38230W        W47030   3.206   2.812  28.494  0.0153 -0.2082 -0.2066
38231W        W47031  19.936   1.839   0.701 -0.2415  0.1424 -0.0771
38232W        W47032  10.322   3.566  32.001  0.1488  0.1841  0.0464
38233W        W47033  17.894   3.775  15.713 -0.1036  0.0435  0.0685
38234W        W47034   4.911   1.558   4.354 -0.2104 -0.1645  0.0602
38235W        W47035   3.630   4.836  12.418 -0.0585  0.2063  0.2614
38236W        W47036  20.186   0.676  36.588  0.1757  0.0053 -0.0330
38237W        W47037  19.303   5.280   7.041 -0.2340 -0.0782  0.3067
38238W        W47038  16.120   2.737   6.576 -0.0225 -0.1696  0.0283
38239W        W47039  10.439   3.184   1.179  0.1496  0.0224 -0.0509
38240W        W47040   5.256   1.741  10.993 -0.0408  0.1025  0.1757
38241W        W47041  11.491   2.061  11.772  0.0975  0.2930 -0.2266
38242W        W47042  15.102   6.390  38.114  0.2836  0.0987 -0.1507
38243W        W47043   1.621   4.486  40.728  0.1857 -0.2334  0.1840
38244W        W47044   5.352   6.195  12.021 -0.0348  0.0285 -0.2137
38245W        W47045   8.607   4.706  38.494  0.2121 -0.1873  0.0272
38246W        W47046  18.347   4.035  42.762  0.0583  0.0656 -0.1789
38247W        W47047  16.509   0.260  17.987  0.1524  0.2204 -0.0764
38248W        W47048  10.703   5.221  43.589 -0.0391 -0.0019  0.2507
38249W        W47049   9.952   0.796   7.604  0.2638  0.0297 -0.1690
38250W        W47050   6.219   4.284  13.452 -0.2336  0.1693 -0.2544
38251W        W47051  13.728   3.281   7.449  0.1226  0.1049  0.0219
38252W        W47052  16.747   3.617  18.309 -0.0843  0.1591 -0.2176
38253W        W47053   7.425   1.217  28.040  0.1213 -0.1811  0.0385
38254W        W47054  17.271   0.751   6.039 -0.4537  0.2589  0.6086
38255W        W47055   1.698   4.511  32.167 -0.0263  0.0262  0.1482
38256W        W47056   9.421   5.619   0.111  0.0731  0.3177 -0.0355
38257W        W47057  17.260   0.657  43.574 -0.2436  0.0024  0.1868
38258W        W47058  13.490   1.249  18.683 -0.2759 -0.2146  0.1490
38259W        W47059  13.982   2.697   4.462  0.1754 -0.2048 -0.2470
38260W        W47060  14.314   2.962  19.489  0.2140 -0.4306 -0.0143
38261W        W47061   2.499   6.570  32.107 -0.0103 -0.3937  0.0874
38262W        W47062   4.954   3.707  13.787 -0.0383  0.2861  0.0124
38263W        W47063  18.854   4.360  17.064  0.1715  0.1851  0.4108
38264W        W47064   8.166   3.576   1.458  0.0250 -0.0654  0.1313
38265W        W47065  14.031   1.840  42.844  0.1954 -0.1452 -0.0488
38266W        W47066   5.435   3.111  22.271  0.0364 -0.0064  0.1558
38267W        W47067  10.517   2.206  18.851 -0.0174 -0.1062  0.0476
38268W        W47068   1.720   5.337  31.420 -0.0804  0.2093  0.1794
38269W        W47069  20.715   3.500   2.015  0.0116 -0.0718  0.1550
38270W        W47070  16.562   1.846   4.121  0.1170  0.0210  0.1376
38271W        W47071   8.080   1.549  41.116 -0.0292 -0.1460 -0.1194
38272W        W47072   4.741   2.885  29.750 -0.0383 -0.1281  0.1886
38273W        W47073   3.424   5.700  23.624  0.2250  0.1019  0.4862
38274W        W47074   1.601   3.888  26.420 -0.2549  0.1386 -0.1639
38275W        W47075  15.012   6.157  33.195  0.0005  0.0816  0.2882
38276W        W47076   2.869   4.280   0.258  0.1664  0.0814  0.3245
38277W        W47077  15.979   2.402  43.461 -0.0767 -0.2241  0.0526
38278W        W47078   0.379   6.309  39.994  0.4296  0.1170 -0.1298
38279W        W47079  13.215   4.528  41.428  0.0790 -0.2800 -0.3101
38280W        W47080  19.619   1.535  12.296  0.1411  0.4001 -0.1208
38281W        W47081  16.678   1.361   5.603 -0.1705  0.3138  0.2561
38282W        W47082   3.779   2.996   0.678 -0.1034 -0.0532  0.1674
38283W        W47083   2.113   3.033   9.824 -0.0295 -0.0286 -0.3794
38284W        W47084   3.448   3.476   5.413 -0.1461 -0.2147  0.1428
38285W        W47085   1.152   2.872   3.205 -0.0715  0.1356  0.3364
38286W        W47086  16.790   0.175  14.900  0.2238 -0.0381  0.0225
38287W        W47087   6.766   0.005  42.709 -0.0247  0.1339 -0.2116
38288W        W47088  19.373   6.330  32.296 -0.2986  0.2655  0.1402
38289W        W47089  12.361   0.837  39.949 -0.2935 -0.0621 -0.3023
38290W        W47090  17.172   1.430   6.804  0.1945  0.2445  0.0956
38291W        W47091  12.682   0.582   5.581 -0.1384 -0.0699 -0.0338
38292W        W47092  11.428   5.277  43.159  0.0254 -0.1006 -0.0111
38293W        W47093   4.561   1.935  32.811  0.1738 -0.1392  0.0974
38294W        W47094  13.507   5.359   8.277 -0.3449  0.0789 -0.1357
38295W        W47095  19.026   4.368  10.709 -0.1825 -0.1700 -0.0120
38296W        W47096  10.188   4.462  40.948 -0.0427  0.1370  0.2246
38297W        W47097  16.321   5.828  37.820 -0.4182 -0.2122  0.0550
38298W        W47098  17.153   0.393  37.968  0.1393 -0.1403  0.0415
38299W        W47099  14.714   3.499   5.379 -0.1652 -0.1154 -0.2590
38300W        W47100   6.260   4.691  13.827 -0.1822 -0.0607 -0.1354
38301W        W47101  11.783   4.821  43.302 -0.0222  0.3061  0.2955
38302W        W47102   7.787   3.026  29.841 -0.2104  0.1488  0.2007
38303W        W47103   6.387   5.173   4.527  0.0998  0.3347  0.0832
38304W        W47104   0.689   2.605   4.468 -0.1150 -0.0321 -0.1926
38305W        W47105  19.060   5.931  43.600 -0.0504  0.0360 -0.0933
38306W        W47106  19.211   0.870   2.076 -0.1423  0.0414 -0.2031
38307W        W47107   4.719   0.937   2.657 -0.1519  0.2371  0.0734
38308W        W47108   9.503   6.550  36.115  0.1055 -0.0437  0.1505
38309W        W47109   8.335   5.347  14.033  0.2967 -0.1128  0.2040
38310W        W47110   8.216   2.620  30.452 -0.0053 -0.0110 -0.3836
38311W        W47111   6.060   2.087  14.908 -0.0693  0.2444  0.0082
38312W        W47112  11.759   4.352  31.922 -0.1675 -0.1506  0.0780
38313W        W47113  11.471   3.204  10.293 -0.2930 -0.3496  0.1172
38314W        W47114   2.097   3.383  39.543  0.2909  0.2225 -0.2335
38315W        W47115   1.256   4.346  13.946  0.1187 -0.2854 -0.3627
38316W        W47116  14.135   3.300  35.335 -0.0754  0.0782  0.2271
38317W        W47117  11.868   4.378   3.168  0.0273  0.0753 -0.0152
38318W        W47118  15.441   6.235  34.753  0.1658 -0.2644  0.0695
38319W        W47119   9.987   6.429   3.691 -0.2146 -0.1432 -0.3082
38320W        W47120  12.344   5.614   3.217 -0.0146 -0.1356 -0.0246
38321W        W47121   8.178   1.714  43.964 -0.1014  0.0426  0.2076
38322W        W47122   4.509   4.366   9.960 -0.0038  0.0134  0.0760
38323W        W47123  15.151   0.628  38.295  0.2484  0.0965  0.1800
38324W        W47124   6.850   2.369   7.797  0.1186 -0.0835 -0.0440
38325W        W47125  20.703   3.885  25.585  0.2245  0.0926 -0.3528
38326W        W47126   3.287   2.773  27.108  0.4053  0.1023  0.0735
38327W        W47127   9.577   4.928  41.824  0.3200 -0.0602  0.1474
38328W        W47128  12.818   5.814   6.706  0.0363  0.1388 -0.0186
38329W        W47129  19.571   0.298  35.035  0.0095  0.0875 -0.0205
38330W        W47130  11.420   4.389  19.779 -0.3823 -0.0648  0.3049
38331W        W47131  13.620   2.122   2.138  0.2844  0.0189  0.1740
38332W        W47132  14.220   2.782  36.820 -0.0208  0.0532  0.1378
38333W        W47133  10.893   2.340   6.909 -0.1858 -0.0701  0.3904
38334W        W47134   1.232   2.915  25.276  0.0457  0.1236 -0.0653
38335W        W47135  16.788   0.379  41.374 -0.2215 -0.0904 -0.0478
38336W        W47136   4.277   5.697  31.481  0.2125  0.0916  0.0578
38337W        W47137  18.269   4.046   8.207 -0.1686 -0.1813 -0.1948
38338W        W47138  16.307   2.596   9.455  0.0877  0.0121  0.0865
38339W        W47139  16.059   2.756  30.664 -0.0307  0.1545  0.1661
38340W        W47140  10.922   2.038   3.448  0.1321  0.0841 -0.0621
38341W        W47141  19.194   1.502  31.136 -0.0994 -0.1636 -0.0419
38342W        W47142  18.532   2.600  29.727 -0.0269  0.1570 -0.1523
38343W        W47143  15.402   1.596  31.522 -0.1056 -0.0981 -0.0484
38344W        W47144   5.499   4.239  40.725  0.0868  0.1891 -0.1546
38345W        W47145   1.294   2.440   3.986 -0.2434 -0.1961 -0.0478
38346W        W47146  13.297   1.030   8.292 -0.0140 -0.1097 -0.2072
38347W        W47147   9.841   4.367  37.517  0.1872 -0.2688 -0.1595
38348W        W47148  12.460   3.318  30.635  0.0020  0.0278 -0.1211
38349W        W47149  16.805   6.434  20.902  0.0614  0.1159 -0.1734
38350W        W47150  21.169   2.200  42.194 -0.0134 -0.0003 -0.2407
38351W        W47151  12.160   0.280  37.117  0.1205 -0.3490 -0.1406
38352W        W47152   8.780   0.316   9.381 -0.3038  0.1282  0.2744
38353W        W47153  19.112   4.782  34.320 -0.3032  0.0560  0.0800
38354W        W47154  16.511   5.228  19.835  0.0612  0.2017 -0.0180
38355W        W47155   9.354   2.587  41.555 -0.0532 -0.1936 -0.0477
38356W        W47156  12.503   4.240  22.286  0.1996 -0.1780  0.0248
38357W        W47157  18.630   3.378  37.044  0.0490  0.2914 -0.1314
38358W        W47158   7.805   1.965  35.472  0.3172  0.1276  0.0254
38359W        W47159  17.741   4.899   1.980 -0.1363  0.1201 -0.1467
38360W        W47160  11.538   4.062  20.476 -0.1059  0.0335 -0.0550
38361W        W47161  16.783   6.229  36.364  0.1679  0.2698 -0.1358
38362W        W47162   4.692   6.186  11.150 -0.1062  0.2025 -0.1185
38363W        W47163   7.278   5.226  37.623  0.1107  0.4415  0.1198
38364W        W47164   4.453   4.781  30.448  0.0525 -0.2535  0.1031
38365W        W47165   1.741   4.515  45.117  0.0313 -0.3601  0.2395
38366W        W47166   7.297   2.883   7.386  0.0844 -0.2730  0.2885
38367W        W47167  20.404   0.808  31.445 -0.0170 -0.1132 -0.0883
38368W        W47168  19.249   1.980  16.413  0.4593 -0.2968 -0.4835
38369W        W47169  20.291   5.525  35.484 -0.3189 -0.3683 -0.1244
38370W        W47170  18.981   5.797  38.117  0.1846 -0.0751  0.1220
38371W        W47171   5.537   5.643  43.579 -0.1174 -0.1246 -0.0947
38372W        W47172  10.373   5.786  36.729 -0.1123  0.2521 -0.0197
38373W        W47173   2.135   0.960  36.127 -0.0141  0.0976 -0.3116
38374W        W47174  12.118   4.815  30.860 -0.0613 -0.1967  0.2108
38375W        W47175   7.053   4.944   3.353 -0.0212  0.0652 -0.0707
38376W        W47176  12.639   1.563  22.122  0.0474  0.1618  0.3252
38377W        W47177   4.278   6.580   8.810  0.0869  0.1420 -0.1195
38378W        W47178  14.532   3.078  21.981 -0.3598 -0.1509 -0.0840
38379W        W47179  16.643   6.070  17.282  0.2442  0.0521 -0.4227
38380W        W47180   3.136   5.155  14.288  0.1823 -0.1074 -0.5212
38381W        W47181   6.042   1.061   2.463  0.2167 -0.0163 -0.1262
38382W        W47182   3.435   1.764  23.930  0.0653  0.2858 -0.1389
38383W        W47183   8.316   5.779  41.402 -0.2351  0.0045 -0.0673
38384W        W47184   2.587   2.154  44.688 -0.0173  0.2643 -0.2884
38385W        W47185  18.165   0.475  14.590 -0.5048 -0.4245  0.0177
38386W        W47186   8.525   5.432   9.217 -0.0621 -0.3956  0.0216
38387W        W47187   1.801   3.329  37.926 -0.0182 -0.0956  0.0712
38388W        W47188  18.082   0.336  17.875 -0.1430  0.0380 -0.0464
38389W        W47189   3.782   6.428  14.661 -0.1264  0.0827  0.0817
38390W        W47190  15.965   1.444  37.331  0.0202 -0.2195  0.1303
38391W        W47191   7.363   5.399   4.587  0.1569 -0.2908 -0.1348
38392W        W47192   3.862   4.280  13.049  0.1030 -0.0741  0.2333
38393W        W47193   6.585   0.362  44.504 -0.0517  0.0633 -0.0781
38394W        W47194   9.662   0.327  12.126 -0.2053  0.0978 -0.0595
38395W        W47195   6.000   1.578   0.741  0.1557 -0.2347 -0.2254
38396W        W47196   8.677   4.164  39.296  0.3130 -0.1231  0.1634
38397W        W47197  18.998   4.288  14.503 -0.3886  0.2300 -0.1233
38398W        W47198   9.463   5.713  38.070 -0.0969 -0.1597  0.0064
38399W        W47199   3.161   5.997  21.984 -0.2052  0.1037 -0.0528
38400W        W47200  19.863   2.471  10.767  0.0446 -0.0276  0.1422
38401W        W47201  17.714   1.665   4.976 -0.1787  0.5180  0.0712
38402W        W47202  18.260   1.030   3.560  0.0712  0.0590  0.1616
38403W        W47203  13.805   4.522  13.707 -0.0606  0.0542  0.3501
38404W        W47204  18.889   5.423  37.644 -0.0035 -0.0817 -0.2178
38405W        W47205  10.602   2.330  10.790 -0.3395 -0.0197 -0.3321
38406W        W47206   7.648   5.309  14.679 -0.1605  0.2771 -0.2441
38407W        W47207  13.294   4.935   8.202 -0.0342 -0.2996  0.2373
38408W        W47208  17.669   5.373  36.506  0.2868  0.0986  0.0938
38409W        W47209  19.382   3.835  15.250  0.0526 -0.0211 -0.0761
38410W        W47210   0.104   0.384  14.991 -0.1631  0.1410 -0.1366
38411W        W47211   9.672   1.158  10.796  0.2348  0.4208  0.1900
38412W        W47212  18.734   3.647   3.031  0.1340 -0.2315  0.1226
38413W        W47213   9.096   4.964  32.234 -0.0878  0.0739  0.1776
38414W        W47214   3.022   0.037  26.875 -0.0657 -0.0820 -0.1253
38415W        W47215   0.177   4.976   4.758  0.1704  0.0959  0.3272
38416W        W47216  15.270   5.662  37.021 -0.4310 -0.1218  0.4152
38417W        W47217   6.597   1.674   4.831 -0.1203  0.0062  0.0128
38418W        W47218   6.516   2.200  11.998  0.4644  0.0039  0.0044
38419W        W47219  15.370   6.571  12.946  0.0776  0.3615 -0.3340
38420W        W47220  13.631   1.476   7.870 -0.0640  0.3599 -0.0430
38421W        W47221   7.321   4.810  33.647 -0.2467  0.1906  0.3918
38422W        W47222  11.203   0.484  19.507 -0.0389 -0.1464 -0.1249
38423W        W47223   5.614   3.950  43.712  0.1817 -0.1758  0.1959
38424W        W47224  13.300   1.671  23.005 -0.0973 -0.1536 -0.2859
38425W        W47225  19.083   3.871  14.827 -0.1271  0.1212 -0.2030
38426W        W47226  17.152   4.902  10.819 -0.0611  0.0584 -0.2027
38427W        W47227  20.061   3.455  40.957  0.1938  0.0739  0.3280
38428W        W47228   0.251   0.211  28.632  0.0278 -0.0612  0.1380
38429W        W47229  15.522   4.172  36.940  0.0506 -0.0521  0.0965
38430W        W47230   7.734   4.761   4.402 -0.2437 -0.4011  0.0097
38431W        W47231  19.497   6.328  13.427 -0.2293  0.0798 -0.0770
38432W        W47232  19.317   2.916  15.399 -0.1456 -0.2527 -0.0496
38433W        W47233   9.456   3.948   8.691 -0.0446 -0.2468 -0.0287
38434W        W47234   9.914   5.059  19.464  0.2677  0.0941 -0.1377
38435W        W47235  11.250   4.756  44.004 -0.1696 -0.0496  0.0333
38436W        W47236   5.511   2.919  23.437  0.1132 -0.0728  0.2530
38437W        W47237   2.033   5.652   4.402  0.0186  0.1237  0.2013
38438W        W47238   1.219   2.661  35.139  0.4715 -0.1812 -0.1904
38439W        W47239   4.406   3.100   6.186  0.2197  0.1709  0.0317
38440W        W47240  18.940   3.943   3.379 -0.1070 -0.2185 -0.1390
38441W        W47241   9.916   1.274  30.326 -0.3108 -0.0078  0.0231
38442W        W47242   5.526   2.116  33.662  0.1744  0.1493 -0.1545
38443W        W47243   0.532   4.210  39.050 -0.0897  0.2645  0.0455
38444W        W47244   0.708   3.930  36.654 -0.0173 -0.2235 -0.0454
38445W        W47245  10.438   2.168  39.199  0.2326  0.0078  0.1801
38446W        W47246  20.171   1.739  28.047 -0.2239 -0.0016 -0.1213
38447W        W47247   1.366   2.122  33.509  0.0248 -0.0996  0.2933
38448W        W47248   6.581   3.554  43.881 -0.3367 -0.1296  0.1400
38449W        W47249   4.118   0.979   7.166  0.0258  0.0401  0.1173
38450W        W47250  10.788   2.884  42.227 -0.0963  0.0306 -0.2194
38451W        W47251  18.745   6.080  31.149 -0.0588  0.1919  0.0463
38452W        W47252   6.159   0.180  15.927  0.2297  0.1337 -0.0034
38453W        W47253  13.355   3.595  30.334  0.1521  0.1596 -0.1991
38454W        W47254  18.528   1.315  13.775  0.0127  0.0166  0.0268
38455W        W47255   7.796   1.851  31.252  0.0250 -0.0030 -0.0574
38456W        W47256  13.040   2.735  19.215 -0.0999 -0.1111  0.0434
38457W        W47257   6.325   1.607   8.956 -0.1594  0.1195 -0.3927
38458W        W47258   4.170   6.545  41.837  0.1345  0.3118 -0.2609
38459W        W47259  16.540   2.408   7.037  0.0843  0.1841  0.0799
38460W        W47260  11.624   5.691  11.780  0.0599  0.0210 -0.1094
38461W        W47261  11.489   6.134   8.753 -0.0048  0.1889 -0.2076
38462W        W47262   3.827   1.622   9.987 -0.2587 -0.1909  0.0162
38463W        W47263  14.539   4.883   2.940 -0.3189 -0.4415  0.2501
38464W        W47264   6.111   0.560  44.646 -0.0857  0.2665  0.0428
38465W        W47265   1.943   5.770  33.376 -0.0125  0.3058  0.2358
38466W        W47266  19.660   3.043   0.691  0.0624 -0.2593 -0.0834
38467W        W47267  19.769   3.360  32.032 -0.3048  0.0097 -0.3044
38468W        W47268   6.201   2.554   1.856  0.0643 -0.1336 -0.1040
38469W        W47269   4.505   3.750  35.846 -0.2509 -0.0748 -0.1477
38470W        W47270   8.977   3.754  35.277 -0.1032  0.2416  0.1068
38471W        W47271  11.082   1.601  19.571 -0.1723  0.1406 -0.1446
38472W        W47272   8.078   4.306  29.097  0.2260  0.0113 -0.0682
38473W        W47273   6.489   5.387  41.689 -0.0496 -0.0297  0.2755
38474W        W47274  16.667   5.958  40.266 -0.4029 -0.0482  0.2786
38475W        W47275   5.616   1.379   6.912  0.1755  0.0521  0.1177
38476W        W47276  10.127   2.372   0.160 -0.0923  0.3162 -0.1713
38477W        W47277  13.764   4.069   4.768  0.0837  0.0802 -0.1145
38478W        W47278   2.938   3.463  12.904 -0.0909  0.0516 -0.1044
38479W        W47279   9.300   2.062  42.321  0.1234 -0.1435  0.0355
38480W        W47280  14.764   3.181  13.609 -0.1464  0.0440  0.1065
38481W        W47281  12.233   6.049  12.093  0.0158  0.0082  0.0724
38482W        W47282   2.815   6.476  33.676 -0.3140  0.1740 -0.1181
38483W        W47283  11.808   1.334  36.880 -0.2611  0.2019 -0.2007
38484W        W47284  20.956   4.710  38.749  0.2835 -0.1002 -0.0437
38485W        W47285  10.805   4.586  29.852  0.1298  0.0822 -0.0660
38486W        W47286  15.683   1.053  33.831  0.1559  0.3122 -0.1729
38487W        W47287  19.740   5.679  15.675 -0.1480  0.0848 -0.1258
38488W        W47288  13.136   1.419  37.525 -0.2704  0.0635  0.1129
38489W        W47289   0.319   1.793  28.977 -0.3025  0.1121 -0.2207
38490W        W47290   4.128   1.482   6.306 -0.1222 -0.2880  0.0367
38491W        W47291   4.365   5.082   4.312 -0.0638 -0.1357  0.2798
38492W        W47292   5.892   1.155  26.154 -0.1874 -0.1166  0.0574
38493W        W47293  19.250   2.087   2.241  0.0876  0.2281  0.1409
38494W        W47294   8.403   1.720  37.438  0.2147  0.0919 -0.1274
38495W        W47295  11.983   5.257  14.410 -0.0607  0.1408 -0.0917
38496W        W47296   1.852   3.127  41.036  0.2597 -0.2218 -0.0063
38497W        W47297   3.843   2.423  12.096 -0.0468  0.3193  0.1750
38498W        W47298  10.652   3.789  41.651  0.2319 -0.1849 -0.2557
38499W        W47299   6.600   6.222  28.926  0.0386  0.1844  0.1744
38500W        W47300   4.147   2.655  42.818 -0.0490 -0.1491 -0.2077
38501W        W47301   2.402   2.143  37.094  0.1746 -0.0900  0.1687
38502W        W47302  20.010   2.010  29.956 -0.0078 -0.1503  0.1659
38503W        W47303   9.254   5.567  34.457 -0.1728 -0.0936  0.0906
38504W        W47304   3.537   5.719  39.194  0.2422  0.1790 -0.2006
38505W        W47305  20.539   5.418  37.509 -0.0978 -0.2326  0.0943
38506W        W47306  13.452   1.012  16.413 -0.0721  0.0191 -0.0727
38507W        W47307   0.680   1.160  26.090  0.1462 -0.1663 -0.1165
38508W        W47308  16.785   0.781  31.704 -0.1584  0.0716 -0.1172
38509W        W47309   4.505   2.787  40.313  0.0495  0.1351  0.0461
38510W        W47310  11.360   2.146  18.399 -0.0763 -0.1234  0.0177
38511W        W47311  16.895   4.053   8.596  0.1875  0.1024 -0.3376
38512W        W47312  19.815   1.913   7.009 -0.3095 -0.0353 -0.1678
38513W        W47313  19.636   4.182  14.906 -0.0989  0.0523  0.0618
38514W        W47314   7.850   1.372  40.716 -0.1306  0.0536  0.2692
38515W        W47315  19.624   6.327  30.222 -0.2263 -0.2710  0.1856
38516W        W47316  16.802   3.242  40.300  0.2008 -0.1015 -0.1547
38517W        W47317   7.338   0.729  14.446 -0.0153  0.1285  0.1777
38518W        W47318  14.342   4.052  43.277 -0.3237 -0.1634  0.1949
38519W        W47319  12.364   0.854  31.365  0.0372 -0.1238 -0.0604
38520W        W47320   8.600   5.847  28.228 -0.0561 -0.0988  0.2598
38521W        W47321   5.347   2.545  37.768 -0.5616  0.0702  0.0029
38522W        W47322  14.197   3.422  37.294  0.0467  0.1978  0.1189
38523W        W47323   2.391   4.107   4.787 -0.2339 -0.2876 -0.0110
38524W        W47324   8.080   4.402  40.773 -0.0293 -0.1283 -0.1515
38525W        W47325   2.029   6.390   0.076  0.0588  0.3166 -0.1151
38526W        W47326  10.406   0.934   6.439 -0.1312  0.3189 -0.1966
38527W        W47327  13.364   4.039   5.071  0.4020  0.3007  0.0249
38528W        W47328   2.918   5.314  38.607 -0.0379  0.1160 -0.4266
38529W        W47329  19.368   1.017  30.618  0.2263 -0.0235 -0.1501
38530W        W47330   5.510   4.937  31.533 -0.1428  0.1038  0.1493
38531W        W47331  15.564   0.865  30.733 -0.1529  0.2087 -0.0882
38532W        W47332   0.028   4.302  26.702 -0.2187 -0.2990 -0.1112
38533W        W47333   8.202   3.976  32.244 -0.2242 -0.1476  0.0121
38534W        W47334  17.392   0.614  32.978  0.0430 -0.1056  0.0265
38535W        W47335   4.144   5.116   0.216  0.1969  0.0491 -0.3262
38536W        W47336  17.256   5.967   5.473  0.1601 -0.2270  0.1034
38537W        W47337   5.619   2.931  12.998  0.0663  0.5669 -0.3100
38538W        W47338  18.353   6.037  34.622  0.1148 -0.0627  0.1246
38539W        W47339  20.312   5.142   5.678 -0.0980  0.0510  0.2484
38540W        W47340  17.214   4.601   1.183 -0.0996 -0.2040  0.2315
38541W        W47341  11.407   0.814  19.906  0.2287 -0.0433 -0.1352
38542W        W47342  14.498   4.543  44.842  0.1619 -0.1249  0.0505
38543W        W47343  13.820   0.971  39.122  0.0665 -0.0326  0.1942
38544W        W47344  20.477   2.375   5.512 -0.0618  0.3374  0.0955
38545W        W47345   8.261   5.062   1.895  0.0946  0.0884  0.1797
38546W        W47346   5.187   6.032  14.071  0.0777  0.3468 -0.0988
38547W        W47347   6.437   4.833   0.181 -0.0523  0.0936 -0.0003
38548W        W47348  13.616   3.010  28.590 -0.0696 -0.0621 -0.2988
38549W        W47349  12.537   4.765  40.122 -0.0823  0.2493  0.0356
38550W        W47350  19.558   0.071  43.855  0.0860  0.0794 -0.0652
38551W        W47351  15.813   5.991  33.883  0.0986 -0.1600 -0.1617
38552W        W47352  12.667   3.246   2.875  0.0146  0.0282  0.2339
38553W        W47353   5.240   2.471  25.407  0.1585  0.1906  0.3391
38554W        W47354   8.981   1.112  13.369  0.0271 -0.2581  0.1155
38555W        W47355  12.395   0.886  15.614  0.1938  0.0669 -0.0247
38556W        W47356  14.711   5.246  36.257  0.0154  0.0908  0.0245
38557W        W47357  16.522   3.441   5.000  0.0108 -0.1556 -0.0900
38558W        W47358  20.243   1.114  36.934  0.0891  0.2710 -0.2615
38559W        W47359  16.181   1.717  37.761 -0.0235 -0.1148  0.1757
38560W        W47360   4.130   4.700   9.833  0.1312  0.2441 -0.3050
38561W        W47361  18.810   2.540  15.566  0.0112  0.1949 -0.3712
38562W        W47362  16.286   3.381  16.030 -0.2877  0.0638 -0.1435
38563W        W47363   4.117   0.750  43.279 -0.0937 -0.2147 -0.2145
38564W        W47364  12.066   5.780   4.268  0.0518 -0.1527 -0.4045
38565W        W47365   9.308   2.010  39.297  0.1544 -0.0302  0.0663
38566W        W47366  16.057   2.259  36.123  0.1700  0.0192  0.0270
38567W        W47367  16.316   5.425  22.502 -0.2909 -0.2764 -0.0922
38568W        W47368  18.964   5.057  15.081 -0.0533  0.1493 -0.3062
38569W        W47369   1.219   1.062   7.660 -0.1716  0.2518  0.0731
38570W        W47370  15.112   2.428  15.438 -0.1621  0.2069  0.2543
38571W        W47371   2.406   5.780   0.788 -0.1844 -0.0810 -0.0159
38572W        W47372  17.435   2.953  11.497  0.1762 -0.0649 -0.1400
38573W        W47373   7.099   4.584  14.874 -0.1449 -0.1370  0.1180
38574W        W47374   2.000   1.340  11.993  0.0205 -0.1039  0.0470
38575W        W47375   2.733   1.565   1.139 -0.0199 -0.1303 -0.0570
38576W        W47376   1.881   4.515   6.416 -0.1410 -0.0718  0.0128
38577W        W47377  16.016   1.178  32.929 -0.0857  0.0757 -0.0280
38578W        W47378  10.921   0.149   0.377  0.1475 -0.2157  0.0965
38579W        W47379  16.696   3.983   0.506 -0.1091  0.3829  0.0140
38580W        W47380  10.945   2.269   0.026 -0.0450  0.0717 -0.2700
38581W        W47381   3.586   3.598  39.658 -0.0560 -0.2186  0.3275
38582W        W47382  16.100   4.184   2.511 -0.0352  0.0104  0.1020
38583W        W47383   8.314   0.910   3.516 -0.0692 -0.3114  0.2046
38584W        W47384  17.932   0.436  31.593 -0.1832 -0.0053 -0.0867
38585W        W47385   9.113   0.230  42.131 -0.1706 -0.2012 -0.2119
38586W        W47386   0.069   5.996  26.780 -0.0109 -0.1282  0.1954
38587W        W47387   3.572   3.637   7.279  0.0693  0.0508  0.2282
38588W        W47388   7.466   0.267   9.117 -0.0261 -0.1830  0.2065
38589W        W47389   9.365   1.432  43.339 -0.0797 -0.0171  0.1505
38590W        W47390   3.400   2.280  39.424  0.1014 -0.2929  0.2381
38591W        W47391   4.002   4.117  33.702 -0.0103 -0.2924  0.0510
38592W        W47392   0.361   6.107  37.776 -0.0597 -0.1376 -0.0126
38593W        W47393  19.923   4.953  15.319  0.1661  0.0220  0.1098
38594W        W47394  12.173   6.161   7.895  0.0883 -0.1526 -0.2866
38595W        W47395  15.994   4.274  34.820 -0.0791  0.0113 -0.0774
38596W        W47396  20.909   2.505  13.897  0.2746 -0.1177 -0.1179
38597W        W47397  14.446   4.502  10.068  0.2170  0.0415  0.1118
38598W        W47398   8.637   1.434   0.511 -0.1327 -0.0775 -0.1914
38599W        W47399  10.291   0.625   3.017 -0.0940  0.0924  0.0805
38600W        W47400   1.584   0.417  24.918 -0.1245 -0.1959  0.0329
38601W        W47401   3.490   5.047   9.682  0.2754 -0.2725 -0.1072
38602W        W47402  15.266   1.934  32.044 -0.2625  0.0815 -0.0423
38603W        W47403  14.849   1.292  29.919 -0.0893 -0.0322 -0.0827
38604W        W47404  10.428   3.680  37.468 -0.1796 -0.2064 -0.0339
38605W        W47405  11.235   4.155  29.165  0.2145  0.1289 -0.1167
38606W        W47406   1.353   2.183  29.800 -0.0276  0.2713  0.1787
38607W        W47407  14.101   6.099   0.824  0.2578  0.3895 -0.3424
38608W        W47408   4.407   0.047  29.524 -0.0774  0.2327 -0.0278
38609W        W47409  12.079   3.967  31.065  0.0244  0.2405 -0.1247
38610W        W47410   2.708   2.131   5.360  0.0711  0.0068  0.1235
38611W        W47411  11.444   5.255  15.758  0.1396  0.0514 -0.2172
38612W        W47412   2.482   3.733  36.187  0.1707 -0.0903  0.0315
38613W        W47413  15.087   0.321  11.342  0.0712  0.2204  0.0035
38614W        W47414  17.012   0.638  21.478  0.0343 -0.4843 -0.1520
38615W        W47415  20.827   5.538  39.826  0.2849 -0.0824  0.1409
38616W        W47416  13.258   1.860   5.419  0.1614 -0.0793  0.0358
38617W        W47417   5.264   4.825  24.250 -0.0582  0.0727 -0.2902
38618W        W47418  19.647   2.245  35.049 -0.2960 -0.0568 -0.4379
38619W        W47419   3.236   4.832  15.201  0.0485  0.0705  0.0985
38620W        W47420   0.380   4.988  33.138  0.1257  0.1505 -0.3383
38621W        W47421  11.469   1.496  33.880  0.0004  0.0062  0.2209
38622W        W47422  18.023   0.382  35.680  0.0583 -0.1342  0.0914
38623W        W47423   4.208   6.056   6.816 -0.0799  0.1970  0.1636
38624W        W47424  17.127   2.504  14.592  0.3284  0.1659  0.0009
38625W        W47425  16.453   3.123  35.444  0.2051 -0.0149  0.1870
38626W        W47426  13.024   5.719  19.818  0.0620 -0.0115  0.1687
38627W        W47427  15.288   0.336  45.044  0.4213 -0.1889 -0.3519
38628W        W47428   8.440   0.305  32.625  0.1469  0.1273  0.2610
38629W        W47429   4.710   1.891  21.415  0.2855  0.2725  0.1965
38630W        W47430  19.557   4.451  31.140 -0.0737  0.1860 -0.2068
38631W        W47431  14.724   1.221  19.777 -0.0391  0.2530 -0.0419
38632W        W47432   8.530   5.281  26.905 -0.1022  0.1120  0.2530
38633W        W47433  15.164   0.611   2.019 -0.1196 -0.1812 -0.0169
38634W        W47434  16.773   4.938   7.339 -0.0781  0.3141 -0.0139
38635W        W47435  14.918   5.073  23.214  0.4173 -0.1685  0.0815
38636W        W47436  11.880   1.744   6.009  0.4641 -0.0666 -0.3455
38637W        W47437   7.215   5.571  35.944  0.0464 -0.3783  0.0033
38638W        W47438   8.068   2.387  32.478 -0.0396 -0.2299  0.0368
38639W        W47439   9.207   4.208  16.703  0.2363 -0.2210  0.3908
38640W        W47440   4.170   1.642  44.424  0.2373 -0.1557  0.1695
38641W        W47441   9.703   1.481  14.767 -0.1651  0.3286 -0.2208
38642W        W47442   5.288   1.558  27.085  0.3280 -0.1343  0.2737
38643W        W47443   6.784   3.056  33.546 -0.0595 -0.1506 -0.1217
38644W        W47444   5.652   0.766   8.508  0.1200 -0.0671 -0.1388
38645W        W47445  10.016   1.272  32.491 -0.4078  0.2930  0.2673
38646W        W47446  13.751   4.349   3.220  0.0881 -0.2525 -0.2591
38647W        W47447  10.626   6.335   0.445  0.1781  0.0241 -0.1365
38648W        W47448   0.822   1.527  15.495 -0.0540 -0.0937 -0.1585
38649W        W47449   1.964   5.197  26.041 -0.1388  0.0361  0.1285
38650W        W47450   5.070   6.350  36.056 -0.0036  0.2079  0.0581
38651W        W47451   6.003   5.661   8.657  0.1743  0.0082  0.2481
38652W        W47452  10.393   5.436  10.556  0.0035  0.0019  0.3162
38653W        W47453   8.408   1.639  36.078  0.0880  0.2062 -0.1689
38654W        W47454  20.352   5.057   6.799 -0.0026  0.0403 -0.3316
38655W        W47455   9.709   1.312  31.522  0.1452  0.0166 -0.0040
38656W        W47456  14.580   0.835  29.991  0.1088 -0.1247  0.0870
38657W        W47457  19.724   0.234  45.133 -0.1224 -0.0875  0.2048
38658W        W47458   2.644   2.664   7.675  0.0824  0.2327 -0.0457
38659W        W47459  20.788   5.839   8.983  0.1645  0.2631 -0.1189
38660W        W47460   3.690   0.008  26.042  0.4285 -0.1503 -0.0132
38661W        W47461   9.155   1.416  37.979  0.4515  0.1703 -0.2126
38662W        W47462  21.166   6.524  32.505  0.1254 -0.0767 -0.1249
38663W        W47463   1.312   1.593  30.490  0.1014 -0.1426  0.0800
38664W        W47464  10.753   5.681   0.413 -0.0768  0.3243  0.0849
38665W        W47465   1.705   3.663   3.287  0.0940  0.2750 -0.0096
38666W        W47466  11.967   2.042  37.812 -0.1456 -0.0472  0.1171
38667W        W47467  16.200   5.414  15.245 -0.3604 -0.1925 -0.4837
38668W        W47468   5.005   5.499  42.407 -0.1235 -0.0235  0.1720
38669W        W47469   3.902   3.304  28.569 -0.1059  0.1652  0.0298
38670W        W47470  17.785   6.176   8.313  0.0039  0.2389 -0.0834
38671W        W47471  17.862   6.009  35.362 -0.0663 -0.1134 -0.0099
38672W        W47472   7.040   2.973  43.314  0.2130 -0.0868 -0.0922
38673W        W47473   0.871   5.425  29.429 -0.1205 -0.2078  0.0284
38674W        W47474   8.740   6.577  10.049  0.1102 -0.1626  0.1053
38675W        W47475   3.540   5.854   8.667 -0.1681  0.1042  0.0176
38676W        W47476  21.040   0.176  37.422  0.2589 -0.2475  0.0846
38677W        W47477   7.627   2.633  27.926  0.1266  0.0061  0.3798
38678W        W47478   1.890   1.279  29.775 -0.0687  0.0860 -0.2161
38679W        W47479   6.601   2.218  28.086  0.2439 -0.1296 -0.0863
38680W        W47480  13.487   2.140  19.900  0.1105 -0.0552  0.1487
38681W        W47481   0.839   4.550  44.792 -0.0883 -0.0164  0.0484
38682W        W47482   9.573   2.598  29.287  0.3874  0.2115 -0.1759
38683W        W47483  19.701   1.121  40.468 -0.1670 -0.0291 -0.0881
38684W        W47484  19.798   6.248  42.968 -0.1650 -0.4066  0.0343
38685W        W47485   2.844   0.152  12.841  0.0219  0.0922 -0.2612
38686W        W47486  19.686   4.187  17.685  0.0579 -0.0239  0.2892
38687W        W47487  18.632   3.886  14.467  0.0087  0.0746  0.0304
38688W        W47488  18.739   2.274   9.467  0.0628  0.3852 -0.1773
38689W        W47489   1.415   4.853  28.480  0.0494  0.0044  0.0088
38690W        W47490  11.193   1.329   6.224 -0.0641 -0.2362  0.0045
38691W        W47491  20.745   2.931  44.229  0.0386  0.0163 -0.0364
38692W        W47492   5.816   3.052  27.057 -0.1977  0.2694  0.1147
38693W        W47493  13.589   6.097   0.740 -0.2290  0.0301 -0.1799
38694W        W47494   8.795   0.642   5.592  0.0578  0.1115 -0.3231
38695W        W47495  16.157   2.948  16.713 -0.0875  0.0306 -0.0019
38696W        W47496   6.122   1.793  11.787  0.1565  0.1158  0.1578
38697W        W47497   9.410   4.749  38.179 -0.0988 -0.1167  0.1930
38698W        W47498  19.081   4.609  36.229 -0.0940  0.1744  0.0175
38699W        W47499   1.030   3.775  32.738  0.0451  0.1619  0.0971
38700W        W47500   0.492   2.486  32.769  0.1408 -0.2605 -0.2487
38701W        W47501  16.537   0.349   6.477  0.2502 -0.0540  0.2730
38702W        W47502  19.040   3.592  17.457 -0.0409  0.0114 -0.1872
38703W        W47503   4.479   4.520   6.665  0.0273 -0.0340 -0.0072
38704W        W47504   5.131   3.668  30.036 -0.0606  0.1314  0.0174
38705W        W47505  10.986   0.717   8.594  0.3084 -0.1061  0.0105
38706W        W47506   0.581   0.745   5.509  0.0047 -0.0421 -0.0626
38707W        W47507   8.847   4.491  28.719  0.0630  0.3230 -0.2577
38708W        W47508  20.546   1.791  41.682 -0.1161 -0.1105 -0.2715
38709W        W47509  15.840   6.504  42.071  0.2141 -0.3245  0.0056
38710W        W47510   8.756   2.926   7.740 -0.0508 -0.0523 -0.0065
38711W        W47511   2.175   5.700   0.345  0.3512 -0.2842 -0.4322
38712W        W47512  15.879   4.216   8.198  0.2344  0.0515  0.0385
38713W        W47513  19.389   2.695  33.051 -0.1237  0.2417  0.1153
38714W        W47514   2.460   2.910  35.344  0.1843 -0.0567  0.1555
38715W        W47515  15.632   3.387  39.298  0.3017 -0.0987 -0.0081
38716W        W47516  10.764   6.277  28.611  0.3582 -0.3133 -0.1395
38717W        W47517   0.128   6.164   8.826  0.0064 -0.1647 -0.4222
38718W        W47518   9.895   0.214  44.458  0.1857  0.0947 -0.2169
38719W        W47519  14.697   2.377  44.393  0.2154  0.1965  0.0351
38720W        W47520  20.045   4.397  13.339  0.1354  0.1162 -0.0312
38721W        W47521   2.284   0.432   5.572  0.1050 -0.2190  0.1019
38722W        W47522  20.850   3.168  28.526 -0.1204  0.4566 -0.1737
38723W        W47523  14.739   1.790  43.684 -0.3157 -0.0340 -0.3081
38724W        W47524   6.075   1.535  12.291  0.0245 -0.0089 -0.1144
38725W        W47525   4.211   2.579  10.080 -0.0945 -0.1425 -0.0978
38726W        W47526  18.742   4.704  34.764  0.0914 -0.2696 -0.2348
38727W        W47527   2.587   0.013  41.560 -0.1445  0.2449  0.1494
38728W        W47528   3.763   1.212  38.696  0.0138 -0.1142  0.2628
38729W        W47529   9.137   4.765  30.175 -0.1662  0.2638 -0.1232
38730W        W47530   2.708   5.452  42.189 -0.2550 -0.1000 -0.0204
38731W        W47531   6.980   4.683  36.556 -0.0430 -0.1841 -0.1659
38732W        W47532   5.796   0.755  35.447  0.0208  0.4283 -0.1430
38733W        W47533  15.630   1.663  13.660  0.0731  0.1465  0.0744
38734W        W47534   0.430   1.674   9.050 -0.0931 -0.0629 -0.3391
38735W        W47535  11.559   4.358  39.911  0.0081 -0.1395  0.2614
38736W        W47536  16.101   0.378  16.434 -0.2559  0.1837 -0.1397
38737W        W47537  11.384   3.265  18.579 -0.2588  0.0819 -0.1155
38738W        W47538  11.219   5.320  11.020 -0.0821 -0.0744  0.0291
38739W        W47539   8.139   6.240  37.572  0.0226 -0.2183 -0.2801
38740W        W47540  12.505   3.886   4.821  0.1344  0.2864  0.0950
38741W        W47541   3.748   1.236  13.393 -0.0675 -0.0442  0.0758
38742W        W47542   7.012   3.144   8.878 -0.1706  0.0931 -0.2734
38743W        W47543   4.131   1.243  20.218 -0.1376 -0.6394  0.2241
38744W        W47544   3.798   3.968   4.315  0.3208  0.1973 -0.3997
38745W        W47545  15.258   4.023  34.853 -0.1755 -0.1127  0.0283
38746W        W47546  18.196   1.896  33.976  0.0034  0.0739  0.0897
38747W        W47547  17.643   6.398  16.802  0.0343 -0.3001  0.2943
38748W        W47548   9.333   1.923  10.175 -0.0343 -0.0060 -0.1179
38749W        W47549  13.484   4.948  36.612 -0.0306 -0.1411 -0.2073
38750W        W47550  16.193   3.353  20.498  0.0038  0.0036  0.1838
38751W        W47551  19.562   3.755  18.270 -0.0269 -0.1210 -0.1164
38752W        W47552   8.018   2.742   1.471  0.0164 -0.1013 -0.1111
38753W        W47553  14.408   2.899  29.092 -0.0474  0.1451  0.2759
38754W        W47554  16.708   5.818  28.847 -0.2370  0.6062  0.2104
38755W        W47555  19.266   1.492  11.539 -0.1820  0.2647  0.1132
38756W        W47556   8.765   5.072  40.955  0.0251  0.2419  0.2069
38757W        W47557  18.990   2.130   0.109 -0.2751 -0.0921  0.2407
38758W        W47558   2.508   2.899  31.429  0.0870  0.2077 -0.2994
38759W        W47559   4.988   6.593  43.956 -0.2355 -0.0772 -0.2341
38760W        W47560   3.822   0.206  23.775 -0.2391  0.3509 -0.0895
38761W        W47561   3.149   6.204  13.120  0.4150  0.1000 -0.2306
38762W        W47562  19.835   3.433  11.992  0.1833  0.0696  0.0420
38763W        W47563  16.291   1.866  30.631 -0.0633  0.1819  0.0003
38764W        W47564  19.760   6.076   9.354 -0.0919 -0.0043  0.0307
38765W        W47565   8.031   1.911  43.475 -0.1406 -0.1194 -0.0149
38766W        W47566  14.312   0.063  13.873 -0.1869  0.0303 -0.0196
38767W        W47567  20.251   3.835  37.914  0.0386  0.0337  0.1756
38768W        W47568  14.986   4.149   1.639 -0.4876  0.1423 -0.1781
38769W        W47569  10.591   6.383  10.933  0.1146  0.0757  0.0609
38770W        W47570   4.360   4.248  24.290 -0.3213 -0.2007 -0.2391
38771W        W47571  16.133   5.815  18.672 -0.0528  0.1663 -0.2337
38772W        W47572   0.813   5.712  36.564  0.3120 -0.0348 -0.1517
38773W        W47573   4.569   4.587  37.811  0.2128  0.0965  0.2736
38774W        W47574  20.999   3.910  31.292  0.0076  0.0294  0.0014
38775W        W47575  15.549   1.908  22.777 -0.2352 -0.0886  0.1784
38776W        W47576  20.764   3.547  36.749  0.1929  0.1548  0.0333
38777W        W47577   0.347   5.703  32.228  0.0889  0.2468  0.0316
38778W        W47578   1.060   4.775  39.978  0.3145 -0.0609 -0.2275
38779W        W47579   1.434   5.571  38.997  0.2037  0.0467 -0.2387
38780W        W47580   1.017   5.961   9.495 -0.0463 -0.0938  0.1378
38781W        W47581   2.282   5.891   1.255  0.0040 -0.2935 -0.0282
38782W        W47582  18.199   3.428  18.726  0.1684 -0.0026  0.1155
38783W        W47583  13.609   4.552   6.221 -0.2006  0.0186 -0.2114
38784W        W47584   0.077   1.734  35.315 -0.0662 -0.2142  0.1052
38785W        W47585   1.901   5.621  40.562 -0.2143 -0.1508  0.2742
38786W        W47586   8.763   4.654  32.126  0.1880  0.0557 -0.1253
38787W        W47587  16.405   3.016  37.262 -0.2286  0.3596 -0.1970
38788W        W47588   3.307   6.396  14.201 -0.0070 -0.0715  0.0466
38789W        W47589  12.066   0.373  28.994  0.1949 -0.0936 -0.0105
38790W        W47590   8.125   2.890  13.435  0.0957 -0.2210  0.0850
38791W        W47591  14.433   2.274  19.015  0.3115  0.1363 -0.0470
38792W        W47592  19.750   5.810  31.957 -0.1086  0.3709  0.0355
38793W        W47593  12.352   3.695  40.141  0.0811  0.0549 -0.0841
38794W        W47594  11.190   2.731  30.552 -0.0481  0.0415  0.0974
38795W        W47595   1.590   0.728  44.484  0.2785 -0.0507 -0.2210
38796W        W47596   3.036   6.520   2.842 -0.0876  0.1618 -0.5649
38797W        W47597  10.263   5.375  38.242  0.1900  0.0486 -0.1462
38798W        W47598  13.123   2.518  18.456 -0.2942  0.1398 -0.0565
38799W        W47599   8.117   5.585  36.388 -0.0859  0.2344  0.2994
38800W        W47600   6.654   1.150  37.593  0.2283 -0.0191 -0.1224
38801W        W47601  15.883   3.401  14.139 -0.0421 -0.0764 -0.1265
38802W        W47602   5.218   5.427  23.739  0.1991 -0.2941  0.0921
38803W        W47603  17.934   3.120   0.043  0.3486 -0.0545 -0.1459
38804W        W47604   9.774   1.483  18.270 -0.0976  0.4742 -0.0035
38805W        W47605   9.533   5.747  33.140 -0.0978 -0.1681 -0.1833
38806W        W47606  11.654   4.478  28.051 -0.2770 -0.1238  0.0020
38807W        W47607   7.767   2.784  29.341  0.0921  0.1712  0.0960
38808W        W47608   0.363   0.236  10.147 -0.0749 -0.2490  0.0000
38809W        W47609  12.343   5.416  34.111 -0.0169 -0.3310  0.0625
38810W        W47610  14.759   5.219  40.110 -0.1486  0.2956 -0.1218
38811W        W47611  13.987   4.687  31.677  0.0373 -0.2721  0.2488
38812W        W47612  17.609   0.881  40.536  0.1153  0.1906 -0.2120
38813W        W47613   4.278   2.344  23.466  0.1700 -0.1673 -0.0755
38814W        W47614  16.198   6.305  44.538  0.1084  0.3787 -0.3025
38815W        W47615  16.655   3.498  29.416  0.2275 -0.1902  0.0405
38816W        W47616   3.912   4.136   8.508  0.0115 -0.0797  0.1389
38817W        W47617   8.192   6.158  16.208 -0.0307  0.0815  0.2892
38818W        W47618   6.633   0.934  27.239 -0.0997 -0.2347 -0.0554
38819W        W47619   4.623   3.645   8.232 -0.1965  0.0824  0.0746
38820W        W47620   5.324   1.349  37.717  0.2720  0.0351  0.0130
38821W        W47621  12.034   5.806   6.630  0.0062 -0.3943  0.3064
38822W        W47622   2.421   5.428  27.239 -0.1668 -0.2346 -0.1782
38823W        W47623   0.802   4.258  25.263 -0.0827 -0.1167 -0.1133
38824W        W47624  20.918   5.624  34.703  0.2252 -0.0999  0.2029
38825W        W47625  10.752   5.266   1.972  0.1278 -0.5355 -0.3518
38826W        W47626  12.673   5.341  18.876 -0.1789  0.1520  0.1844
38827W        W47627  15.596   4.560  16.059 -0.3383 -0.1907  0.2429
38828W        W47628  12.459   2.722  42.511 -0.0420 -0.1039  0.1653
38829W        W47629  17.626   5.620  42.186  0.3398  0.1198  0.0287
38830W        W47630   0.102   4.045   6.634  0.0600 -0.2826  0.0297
38831W        W47631  12.266   3.863  33.066 -0.0383  0.1517 -0.2283
38832W        W47632  15.201   2.472  13.210 -0.2349 -0.0473 -0.1138
38833W        W47633  17.939   3.612   0.868  0.0959 -0.1532  0.0861
38834W        W47634   8.432   3.915   3.963  0.1408  0.1556  0.1453
38835W        W47635  20.391   5.775   6.224 -0.1069 -0.0238  0.1142
38836W        W47636   7.671   1.645  41.627  0.0584 -0.1880  0.2204
38837W        W47637   5.493   2.161  26.644  0.0501 -0.0851 -0.5459
38838W        W47638   8.679   1.095  15.568  0.3435 -0.2391  0.4476
38839W        W47639  17.728   1.817  12.635 -0.1393 -0.0159  0.1651
38840W        W47640  15.781   5.962  30.251  0.4993 -0.1899  0.0981
38841W        W47641  13.087   5.305  42.273 -0.0981 -0.2543 -0.1123
38842W        W47642  14.170   0.711  44.468 -0.0954  0.0643  0.0792
38843W        W47643   0.323   2.159  28.422  0.0564  0.2765  0.0002
38844W        W47644  11.955   1.851  15.112  0.3467  0.0844 -0.1894
38845W        W47645   9.689   6.052  42.236  0.0189  0.3115 -0.3408
38846W        W47646  13.704   0.475  17.175  0.0956 -0.1260  0.3813
38847W        W47647  17.064   0.911  13.826 -0.2795  0.0657 -0.3377
38848W        W47648   8.824   5.822   0.396  0.3857  0.2776 -0.1550
38849W        W47649   3.103   1.522   8.844 -0.1712  0.0901 -0.2262
38850W        W47650   7.054   3.691   3.943 -0.1680  0.3041 -0.1033
38851W        W47651   9.394   3.204  37.033 -0.1489  0.4235 -0.2524
38852W        W47652   9.244   5.237  41.909 -0.1622 -0.0259 -0.1204
38853W        W47653  13.399   6.365  19.226 -0.1632 -0.0752  0.0912
38854W        W47654  17.741   4.438  33.179  0.2395 -0.4097 -0.2517
38855W        W47655  15.079   4.767  29.975  0.2284  0.2040  0.0354
38856W        W47656   8.398   5.851  34.290 -0.1247 -0.0227  0.1069
38857W        W47657   9.849   4.344  11.504  0.0949 -0.1215 -0.2865
38858W        W47658  10.426   0.693   4.906  0.0348 -0.1549 -0.1270
38859W        W47659   7.757   3.577  12.966 -0.0984  0.3421  0.0260
38860W        W47660   9.521   1.375  38.561 -0.0961  0.3794 -0.2072
38861W        W47661   3.778   5.856  37.056  0.0751 -0.2154 -0.3914
38862W        W47662   1.204   0.407  23.894 -0.1394  0.1476 -0.0025
38863W        W47663  13.847   6.457  43.544  0.1878 -0.0414  0.2138
38864W        W47664   0.981   2.751  41.010  0.0612 -0.3169  0.1124
38865W        W47665  14.343   4.484   0.995 -0.2706  0.2077  0.0240
38866W        W47666  11.762   2.312  16.345 -0.0012  0.2032  0.2874
38867W        W47667   8.352   3.191   7.309 -0.0503  0.1956 -0.1732
38868W        W47668   8.023   1.320  16.760  0.0721 -0.1505 -0.1205
38869W        W47669  20.366   0.527  40.926 -0.2678  0.1089  0.0182
38870W        W47670  13.926   3.638  42.598 -0.0302 -0.0141  0.2217
38871W        W47671   1.790   3.290   8.855 -0.3117  0.1368  0.1143
38872W        W47672   8.260   1.973   5.497  0.3457 -0.2221 -0.0124
38873W        W47673   9.892   1.625  42.709  0.1480  0.2325  0.0719
38874W        W47674  13.822   3.182   2.384  0.1337 -0.0424 -0.2888
38875W        W47675  13.907   5.602  23.655 -0.3772 -0.0038  0.2036
38876W        W47676   2.627   2.199  20.592 -0.1179  0.0593  0.2755
38877W        W47677  10.116   1.339  34.463 -0.0425 -0.0144 -0.0219
38878W        W47678   7.025   5.827  13.097  0.1741  0.3526 -0.2377
38879W        W47679  13.242   2.700  45.000  0.1128 -0.0919 -0.0232
38880W        W47680  17.620   1.948  38.434  0.0184  0.0297 -0.1387
38881W        W47681  12.883   5.165  41.425  0.2843  0.0217  0.1352
38882W        W47682  14.092   1.330  43.235  0.1732 -0.0508  0.0916
38883W        W47683   7.784   0.940  27.814 -0.0441 -0.2589  0.2780
38884W        W47684   9.812   6.067  18.106  0.0506 -0.1794  0.4456
38885W        W47685  15.581   2.440  30.314 -0.1615 -0.1349 -0.0031
38886W        W47686  13.552   0.843  24.267 -0.2010  0.1088  0.0510
38887W        W47687   0.746   0.738  33.311  0.0234  0.1891 -0.1196
38888W        W47688   8.288   2.847  14.474  0.1741 -0.0189 -0.3196
38889W        W47689  10.034   2.528  41.027 -0.1361 -0.0997 -0.0036
38890W        W47690  15.329   6.551  33.291  0.2860  0.2136  0.1069
38891W        W47691   6.655   1.459  25.466  0.0092 -0.4315  0.0018
38892W        W47692   9.525   4.869  40.238  0.0389  0.2505  0.0763
38893W        W47693  11.990   1.457  44.628 -0.0252  0.0485 -0.2153
38894W        W47694  21.056   5.462  41.315 -0.2023  0.0621 -0.0250
38895W        W47695   0.162   6.387   9.856  0.3274 -0.0194  0.0429
38896W        W47696   5.621   3.690  35.596  0.0047 -0.1487 -0.0884
38897W        W47697  19.773   3.191  38.277 -0.0223  0.0534  0.1551
38898W        W47698  13.587   0.613  36.657 -0.0771  0.0288 -0.2065
38899W        W47699  19.497   2.579  12.300 -0.0540  0.2602 -0.0420
38900W        W47700   7.059   5.672  37.523 -0.0025  0.2282 -0.1662
38901W        W47701   3.421   0.249   5.644  0.0157 -0.1594 -0.0588
38902W        W47702   9.831   2.032  12.478  0.2022 -0.2317 -0.3237
38903W        W47703   3.552   0.709  12.819  0.2710 -0.0474  0.1230
38904W        W47704  16.536   1.544  19.632  0.1096  0.2467  0.1941
38905W        W47705   6.798   2.013  35.953  0.0743 -0.1226  0.1744
38906W        W47706  14.801   0.368   0.803 -0.1134  0.0396 -0.1322
38907W        W47707  10.516   0.351   2.541 -0.3554  0.1406  0.1899
38908W        W47708  10.715   4.698   7.502 -0.2237 -0.0258 -0.1680
38909W        W47709  13.009   4.080  36.938  0.0166 -0.0615  0.1816
38910W        W47710   3.879   3.772  36.483  0.1132 -0.4942  0.2556
38911W        W47711  10.160   4.668  35.655  0.1357 -0.1435 -0.0602
38912W        W47712  17.522   4.879   6.322  0.1481 -0.0148  0.0248
38913W        W47713   3.769   0.717  14.205  0.2434  0.0007 -0.1169
38914W        W47714   2.077   0.964  11.616 -0.0034  0.1068  0.1435
38915W        W47715  18.510   3.246   0.083  0.0899 -0.2266  0.0859
38916W        W47716   4.558   2.485  42.550  0.2708  0.5551 -0.1719
38917W        W47717  14.474   1.765   0.538  0.3023 -0.0697  0.0817
38918W        W47718   6.741   6.435  12.081 -0.1141 -0.1587  0.0516
38919W        W47719   1.443   0.688  34.679 -0.0475 -0.0223 -0.2016
38920W        W47720   1.855   2.254  34.345 -0.2892 -0.1031  0.1185
38921W        W47721   5.531   5.840  29.975 -0.0995 -0.0579 -0.0601
38922W        W47722  18.769   2.530   0.512 -0.0256 -0.2711 -0.0783
38923W        W47723   7.126   3.738  36.796 -0.0236 -0.2670  0.1094
38924W        W47724  18.757   6.475  12.025 -0.3568 -0.1804  0.1916
38925W        W47725  21.116   1.193   3.662  0.0951 -0.1271  0.2612
38926W        W47726   7.457   0.786   9.127  0.2066  0.2518  0.0597
38927W        W47727   6.722   1.783  35.458  0.2445 -0.0386 -0.2426
38928W        W47728   2.977   2.550  21.923 -0.0489 -0.0222 -0.3579
38929W        W47729   4.770   1.332  13.438 -0.2093 -0.1163 -0.1076
38930W        W47730   0.519   0.439  30.818 -0.0903 -0.0762 -0.2153
38931W        W47731   2.169   0.180  31.325  0.0541  0.0525 -0.1934
38932W        W47732   7.119   3.739  43.706 -0.0282  0.1489  0.2311
38933W        W47733  10.879   5.976  31.211 -0.2504 -0.3602  0.3247
38934W        W47734  15.547   6.535  10.845  0.2464  0.1281 -0.1498
38935W        W47735  12.778   2.116   3.839  0.0610 -0.0637  0.1549
38936W        W47736  10.159   1.957   7.084  0.0218 -0.1811 -0.0469
38937W        W47737  10.228   4.503  13.136 -0.1797 -0.1671 -0.2527
38938W        W47738  17.122   6.232  21.259 -0.0670  0.1412 -0.1360
38939W        W47739  18.797   4.080   1.069  0.0463  0.0427  0.0199
38940W        W47740  19.558   4.589   8.743 -0.0860 -0.0864 -0.1486
38941W        W47741   5.463   4.135   4.626 -0.1977  0.0177 -0.0305
38942W        W47742  16.644   3.500  20.443  0.3680 -0.0038 -0.0732
38943W        W47743   9.934   2.263  29.203  0.0439 -0.1047  0.2578
38944W        W47744   4.903   4.077  33.796  0.0732 -0.2257  0.5020
38945W        W47745  14.678   3.477  18.124  0.0718  0.1577  0.0853
38946W        W47746  12.934   4.622  44.483 -0.2587  0.1260 -0.0335
38947W        W47747  19.656   4.776  45.157 -0.3873  0.0474  0.0837
38948W        W47748   4.611   3.244   3.323 -0.2054  0.1827  0.2902
38949W        W47749   4.445   0.431  36.700 -0.0598  0.0829  0.0598
38950W        W47750   8.953   3.336  32.563  0.0829  0.1342 -0.0318
38951W        W47751   1.559   1.883  34.138  0.0769 -0.0058  0.0421
38952W        W47752   3.343   1.633   9.811  0.1543 -0.3601 -0.0983
38953W        W47753   4.476   1.336   4.526  0.3062 -0.1414 -0.2582
38954W        W47754   4.961   1.525  31.443 -0.3303 -0.0220  0.2526
38955W        W47755   7.782   2.375  26.038  0.1659  0.2421 -0.2029
38956W        W47756  16.038   4.154  38.339 -0.0226 -0.1196  0.3511
38957W        W47757  14.389   0.984  40.708 -0.1055 -0.0893  0.2371
38958W        W47758  19.927   5.579   6.260  0.1248 -0.1052 -0.2346
38959W        W47759   8.307   4.274  26.867 -0.0173 -0.6369  0.3505
38960W        W47760  19.198   3.068  30.820 -0.0916  0.0256 -0.0143
38961W        W47761   6.417   3.045  41.563 -0.3299  0.0278  0.2635
38962W        W47762  14.543   5.857  40.602  0.0251  0.1486 -0.2659
38963W        W47763   0.238   0.934  29.290  0.2169  0.0767 -0.1221
38964W        W47764   4.555   0.032   0.194  0.0848  0.2778 -0.1543
38965W        W47765  17.821   3.011  32.247 -0.0764 -0.2530  0.1893
38966W        W47766  10.721   0.216   4.142  0.1478 -0.1115  0.0282
38967W        W47767   3.195   3.089   5.569  0.2230  0.1942  0.0609
38968W        W47768  20.196   3.456  13.073 -0.1996 -0.1725  0.0050
38969W        W47769   2.350   1.028  34.779 -0.0332  0.2441  0.1948
38970W        W47770   8.737   6.099  41.344  0.2852 -0.1179 -0.3142
38971W        W47771  13.721   6.334  31.014 -0.0191  0.4994 -0.0945
38972W        W47772  18.346   1.896  36.708  0.2991  0.0082  0.2691
38973W        W47773  14.348   2.005  16.004 -0.0594  0.0348 -0.2870
38974W        W47774   9.687   2.726  10.903 -0.1052  0.0186  0.0845
38975W        W47775   0.144   3.559  15.112 -0.2101 -0.0373 -0.4831
38976W        W47776  12.614   4.775  43.451  0.0907 -0.0536 -0.1822
38977W        W47777   8.411   4.666  30.819  0.0627 -0.2992  0.1908
38978W        W47778  16.546   3.459  39.071  0.1183  0.0186 -0.0117
38979W        W47779   5.794   2.369  38.472 -0.1059 -0.2484 -0.0576
38980W        W47780  15.771   2.373   5.302  0.1072 -0.0708  0.0051
38981W        W47781  15.963   6.140  43.894  0.0926 -0.0836 -0.0119
38982W        W47782   0.054   2.195   9.206  0.0611 -0.2418  0.1211
38983W        W47783  11.866   5.143  11.829 -0.0323 -0.2115 -0.2117
38984W        W47784  13.850   4.468  19.027 -0.2204 -0.0467  0.2740
38985W        W47785  12.832   1.205  32.422  0.1000 -0.0095 -0.0296
38986W        W47786   6.596   0.244   2.356  0.5103 -0.0779  0.1500
38987W        W47787   2.920   4.636   6.336  0.4485  0.1063  0.1084
38988W        W47788  15.683   4.871  40.817 -0.2326  0.4292  0.1764
38989W        W47789   2.313   0.873  15.494 -0.3386 -0.2715  0.2155
38990W        W47790   2.214   2.242  14.931  0.2007  0.0892 -0.1229
38991W        W47791   5.234   3.385  11.283 -0.2086 -0.2105 -0.1809
38992W        W47792   9.394   2.094   9.221  0.3587  0.1374  0.0496
38993W        W47793  13.383   3.692  19.545  0.2186  0.1758  0.0950
38994W        W47794  11.540   6.052  18.990 -0.1773 -0.1411 -0.1692
38995W        W47795   6.536   4.502  29.712 -0.0925 -0.1099  0.0877
38996W        W47796  16.460   4.926  16.065 -0.1728  0.0354  0.0542
38997W        W47797  15.479   3.493  40.836 -0.2650  0.0238  0.0272
38998W        W47798   2.897   4.726  13.423 -0.2636  0.1566  0.0854
38999W        W47799   9.432   4.804  14.360 -0.0729  0.0365  0.0848
39000W        W47800   6.264   3.431   2.992 -0.1476 -0.0921  0.3082
39001W        W47801  18.704   1.186   0.117  0.0818 -0.0061 -0.2738
39002W        W47802  18.388   4.297  14.548  0.2129 -0.0568  0.1035
39003W        W47803   7.798   4.075  42.084 -0.2003 -0.2364  0.1074
39004W        W47804  20.858   3.069  27.763 -0.0918 -0.1825  0.0443
39005W        W47805  14.728   2.077   5.843  0.0364  0.4563 -0.1155
39006W        W47806  13.150   5.968  11.271  0.0556 -0.0816 -0.2630
39007W        W47807  13.283   1.130  12.410  0.3445  0.1748 -0.0622
39008W        W47808   7.637   3.534  41.201  0.0483 -0.0117 -0.0776
39009W        W47809  13.360   3.096  13.319 -0.0209 -0.2309  0.2206
39010W        W47810   7.702   6.258  27.460 -0.0377 -0.2137  0.0086
39011W        W47811  16.455   6.076  39.490  0.2099 -0.0241 -0.1297
39012W        W47812  21.001   2.842  26.298 -0.3232 -0.1165  0.0131
39013W        W47813  10.640   1.603  12.292  0.0555 -0.0830  0.0606
39014W        W47814  18.177   5.933   3.315  0.1419 -0.0219 -0.1931
39015W        W47815  17.716   0.191  18.535 -0.0175 -0.1665 -0.0888
39016W        W47816  13.224   5.541  37.262 -0.0507  0.3350  0.2796
39017W        W47817  12.122   4.656  29.763 -0.0477  0.0517 -0.1616
39018W        W47818  13.031   6.029   5.660  0.2313 -0.6704 -0.1956
39019W        W47819   6.828   6.458  14.452  0.2829  0.0282 -0.0633
39020W        W47820  14.452   3.021  20.929 -0.1644 -0.2501 -0.3298
39021W        W47821  14.264   1.795  15.543  0.1077 -0.0949 -0.1407
39022W        W47822  11.903   6.581  36.358  0.4299 -0.1369 -0.1371
39023W        W47823   2.001   1.339   5.904  0.2437 -0.0317 -0.2648
39024W        W47824   9.731   0.137  10.720 -0.3142  0.0307 -0.0837
39025W        W47825   0.737   4.667  31.966 -0.1637 -0.1972 -0.0153
39026W        W47826  15.074   5.994  23.095  0.1960  0.1221  0.0601
39027W        W47827   6.074   0.705  32.565  0.0394 -0.4434  0.0637
39028W        W47828  12.785   1.855  37.641 -0.0265 -0.0606  0.0267
39029W        W47829  12.940   3.374  22.397  0.0554 -0.2876 -0.2131
39030W        W47830   7.691   2.337  28.304 -0.3394 -0.0916 -0.1124
39031W        W47831   4.072   5.605  11.694  0.4285  0.0160  0.0815
39032W        W47832   7.620   5.774   4.338  0.0508 -0.0767  0.0674
39033W        W47833  18.782   2.189  15.142  0.1828 -0.3648  0.1376
39034W        W47834  13.341   0.983  32.453 -0.0753  0.0165  0.1400
39035W        W47835   3.631   4.833  32.649  0.0517 -0.0092  0.2102
39036W        W47836  19.380   4.049  43.287  0.0184  0.2826  0.1654
39037W        W47837   5.999   2.375  33.686  0.0581 -0.1035 -0.0826
39038W        W47838  16.890   0.430  13.557 -0.2179  0.0955  0.0091
39039W        W47839  16.565   0.075  33.366 -0.0863  0.3114 -0.1269
39040W        W47840  13.569   0.489  29.553  0.1287 -0.0867  0.0162
39041W        W47841   7.557   6.092   5.034 -0.1491 -0.0591 -0.1586
39042W        W47842   8.908   3.232  39.234 -0.1346  0.1131 -0.0427
39043W        W47843   7.985   2.211  28.754  0.1640 -0.1429 -0.1915
39044W        W47844   9.124   4.282  26.981  0.3634  0.1242  0.0317
39045W        W47845  18.026   3.547  42.714 -0.3809  0.0168 -0.0017
39046W        W47846   5.718   1.313  36.022 -0.1247  0.1554 -0.1231
39047W        W47847   1.571   3.271  27.104  0.0735 -0.1965  0.2372
39048W        W47848   7.861   2.913  42.920  0.2635  0.1658 -0.3446
39049W        W47849   6.090   0.091  10.248  0.0285  0.2280  0.1045
39050W        W47850  10.573   3.627  44.422  0.3311  0.1757  0.3506
39051W        W47851   9.670   5.396  13.444  0.2202 -0.0733  0.1816
39052W        W47852   3.144   4.234  12.425  0.1204 -0.1860  0.3487
39053W        W47853   2.610   2.684  10.422  0.0915 -0.2288 -0.1547
39054W        W47854  12.854   4.853  15.934  0.0305 -0.2993  0.0757
39055W        W47855   6.147   4.231  30.704  0.1806 -0.0378 -0.3388
39056W        W47856  18.785   0.172  33.445 -0.0928 -0.0954 -0.0801
39057W        W47857  19.863   3.818  11.666 -0.2496 -0.0454  0.0092
39058W        W47858  17.230   1.634  32.877 -0.0298 -0.0331  0.1914
39059W        W47859  17.790   3.964  40.168  0.1740 -0.2125  0.0216
39060W        W47860  12.530   0.579  33.176 -0.1322 -0.1194 -0.2767
39061W        W47861   7.912   0.604  29.979 -0.0396 -0.1941 -0.1263
39062W        W47862   3.332   5.337   0.284 -0.2368  0.0555  0.1421
39063W        W47863   6.238   3.120  40.947 -0.1566 -0.0789  0.0100
39064W        W47864   7.300   1.226  33.919  0.0140 -0.0636 -0.1027
39065W        W47865   4.804   5.613  13.977  0.1389 -0.0469 -0.1230
39066W        W47866   8.282   3.153  15.116  0.1300 -0.1571  0.1927
39067W        W47867   7.931   0.883  39.596 -0.0319 -0.0404  0.1460
39068W        W47868  15.384   4.560   9.671  0.0182 -0.0905 -0.0929
39069W        W47869  16.220   4.376  18.456  0.0185  0.2510 -0.1619
39070W        W47870   6.141   1.009  37.999 -0.1423  0.0199  0.0108
39071W        W47871  17.733   1.839  42.052 -0.1494 -0.0540 -0.0890
39072W        W47872  16.731   5.388  29.348 -0.2095 -0.0423 -0.1507
39073W        W47873  19.281   5.122  38.778 -0.0688  0.0148 -0.2860
39074W        W47874  17.325   6.529   9.450  0.1037 -0.0288 -0.1351
39075W        W47875   4.937   4.509  12.114  0.0115 -0.0568  0.1583
39076W        W47876  17.138   0.068  12.370  0.0915  0.2870  0.1204
39077W        W47877  15.529   3.840   8.965  0.0128 -0.0850  0.1711
39078W        W47878   5.206   1.177   5.261  0.0322 -0.2395  0.1874
39079W        W47879  17.445   1.058  33.284 -0.2110  0.1110 -0.0991
39080W        W47880   1.674   1.226   7.864 -0.3052 -0.1308 -0.1162
39081W        W47881  10.330   4.561  28.272 -0.0130 -0.0574  0.1978
39082W        W47882   8.329   4.854  41.763 -0.0070 -0.1652 -0.0612
39083W        W47883   3.069   1.965  21.961  0.1178  0.1026  0.0640
39084W        W47884   3.544   5.456   7.600  0.1740 -0.0712 -0.2491
39085W        W47885  10.249   6.477  18.200 -0.0205 -0.1564 -0.0437
39086W        W47886  19.056   1.587  19.010 -0.2495 -0.2350  0.1442
39087W        W47887   2.747   2.042  22.635  0.1194  0.1322 -0.5612
39088W        W47888   7.664   1.034  25.864 -0.1006  0.2790  0.0248
39089W        W47889   3.093   5.230  13.743  0.0587  0.1381 -0.0387
39090W        W47890  12.661   4.407  40.702  0.0582 -0.1994  0.1179
39091W        W47891  15.851   1.659  40.859  0.0172 -0.0916  0.1016
39092W        W47892  17.849   3.208  34.685 -0.0033 -0.2356  0.1930
39093W        W47893  13.309   4.474  23.499 -0.1618 -0.0808  0.2241
39094W        W47894  17.119   2.955  44.032 -0.2340  0.1792  0.1088
39095W        W47895  14.972   3.629  14.787 -0.1616 -0.3030  0.5940
39096W        W47896   9.011   0.976  38.873  0.0789 -0.4462  0.0818
39097W        W47897  15.199   0.483  34.029  0.0222  0.0816  0.1438
39098W        W47898  14.444   3.050  23.798 -0.2714 -0.1569  0.1029
39099W        W47899   7.523   4.678  43.006  0.1179  0.0188  0.0957
39100W        W47900  16.358   0.705  11.390 -0.1518 -0.1726  0.1432
39101W        W47901   6.009   4.877   1.824  0.1583  0.0439 -0.0186
39102W        W47902  17.538   0.773  45.122  0.1344  0.0806  0.3043
39103W        W47903   7.111   1.638  43.086 -0.2669 -0.0464  0.0837
39104W        W47904   7.801   4.250  43.281 -0.2360  0.0430 -0.0698
39105W        W47905  10.621   4.921   0.205  0.3061  0.1186  0.1450
39106W        W47906   4.667   4.058   2.258 -0.3101 -0.0419  0.1589
39107W        W47907   7.443   1.873  26.169 -0.0638 -0.2563  0.1969
39108W        W47908   2.716   0.839   8.005 -0.0952 -0.0015 -0.1151
39109W        W47909   5.062   2.973  26.768  0.1698 -0.0573  0.2560
39110W        W47910   4.239   4.058  15.088 -0.0426  0.2145 -0.3751
39111W        W47911  11.794   0.254   2.134 -0.1619  0.2221 -0.0237
39112W        W47912  19.420   1.018  39.526 -0.1195 -0.0243 -0.1230
39113W        W47913   1.970   3.675  23.551  0.1113 -0.0138  0.0193
39114W        W47914  15.534   0.589  23.044  0.0732 -0.4287  0.2954
39115W        W47915  16.476   2.650  29.982 -0.0672  0.3696 -0.0783
39116W        W47916  13.743   2.364  36.745  0.0179  0.1131  0.0283
39117W        W47917  14.818   0.862  44.871  0.3317  0.0741  0.0008
39118W        W47918   4.514   6.244  45.036 -0.4187 -0.0405  0.0446
39119W        W47919  18.148   0.277  10.886  0.0202 -0.2405  0.0033
39120W        W47920   8.918   0.128  42.970  0.1253  0.0018  0.1117
39121W        W47921  10.825   3.500  18.964  0.1516  0.1354  0.0496
39122W        W47922   2.651   6.568  43.988 -0.0039 -0.3747  0.1635
39123W        W47923  16.794   2.705  43.786 -0.0950 -0.1121 -0.3901
39124W        W47924  14.779   6.417  41.217  0.0931  0.4870 -0.0427
39125W        W47925   6.924   6.000   0.996 -0.1648  0.3925  0.0127
39126W        W47926  15.224   1.734  22.341  0.1956 -0.0543 -0.1444
39127W        W47927  15.795   4.378  14.436 -0.0675  0.0374 -0.0150
39128W        W47928   4.544   2.429  40.685 -0.3713 -0.2083  0.1731
39129W        W47929  18.427   4.217  38.837 -0.0673 -0.1272 -0.2822
39130W        W47930   5.898   4.150  15.343  0.0349  0.1842 -0.2141
39131W        W47931   8.308   6.281   3.670  0.0529  0.0046  0.1752
39132W        W47932  19.610   4.668  11.877 -0.1894 -0.0715 -0.2782
39133W        W47933   7.659   1.316   1.594  0.2528  0.1195 -0.0328
39134W        W47934   0.985   6.557   2.471 -0.1859 -0.1556  0.1239
39135W        W47935  12.292   1.625  14.177  0.1429 -0.2410 -0.2037
39136W        W47936   0.422   0.905  23.551  0.0321 -0.1216  0.1455
39137W        W47937   5.138   0.110  31.067  0.1793  0.3438 -0.0981
39138W        W47938   1.101   4.690  27.601  0.2727  0.0850  0.1094
39139W        W47939   4.973   0.849   2.202 -0.0841 -0.0120 -0.1982
39140W        W47940   1.537   1.743  37.809  0.3909  0.0939 -0.2165
39141W        W47941  18.400   3.050  39.572  0.1610  0.2162  0.1776
39142W        W47942   9.144   5.547  16.874  0.1411 -0.2460  0.3398
39143W        W47943  11.180   1.187  30.537  0.2843 -0.2331 -0.1971
39144W        W47944  13.145   2.811  10.191  0.0265  0.0244 -0.0452
39145W        W47945  13.669   1.190  32.133 -0.0671 -0.2293 -0.0227
39146W        W47946   9.458   0.273  16.296  0.0968 -0.0164 -0.3853
39147W        W47947  16.456   5.730   1.859 -0.0747  0.2261 -0.4101
39148W        W47948   9.214   5.090  16.365 -0.2124  0.2579 -0.0928
39149W        W47949  13.303   5.521  10.461  0.1488 -0.0545  0.0951
39150W        W47950   7.452   4.790  32.618 -0.1890 -0.0408 -0.1151
39151W        W47951  11.932   4.993   6.494  0.1092  0.1329 -0.0943
39152W        W47952   4.397   4.159  31.350 -0.0281 -0.0898 -0.0837
39153W        W47953   0.315   6.227  36.005  0.0051 -0.0281 -0.0376
39154W        W47954  10.136   3.874  16.652 -0.0475 -0.0699 -0.0007
39155W        W47955  17.898   0.087  31.950  0.0889  0.0334 -0.0812
39156W        W47956   7.163   0.409  26.051 -0.0885 -0.1514  0.1909
39157W        W47957  14.169   2.522  22.672 -0.0231  0.0582  0.0627
39158W        W47958  10.490   5.552  14.521  0.0590  0.1466  0.1668
39159W        W47959  18.908   5.668  28.615  0.0610  0.0232 -0.0503
39160W        W47960   1.498   3.523  23.407  0.0471  0.2715 -0.0922
39161W        W47961  17.345   0.217   2.678 -0.1825  0.2957  0.0303
39162W        W47962   9.561   2.550  33.217  0.1924  0.0403 -0.1943
39163W        W47963   6.764   1.442  34.652 -0.1535 -0.0567  0.3725
39164W        W47964  19.129   6.181  15.954  0.3076  0.2409  0.1884
39165W        W47965  13.942   5.319  39.518 -0.1504 -0.2663  0.0854
39166W        W47966   3.853   5.973   2.097 -0.0342 -0.2635  0.3563
39167W        W47967   1.979   5.519  13.225  0.0921 -0.0356  0.0353
39168W        W47968  12.022   2.414   2.388  0.0523  0.0355 -0.0700
39169W        W47969  14.413   1.010  18.077 -0.1923 -0.0819 -0.0135
39170W        W47970   8.795   6.243   4.669 -0.0414  0.3000 -0.1739
39171W        W47971  12.885   0.948   9.831 -0.0538 -0.0616 -0.0575
39172W        W47972   5.017   5.674  44.472  0.1916 -0.3525 -0.0688
39173W        W47973   8.717   1.133  29.436 -0.1209  0.0482 -0.1495
39174W        W47974   7.160   3.733  41.380 -0.0075 -0.0829  0.0559
39175W        W47975   4.084   0.312  21.811  0.2103  0.1139 -0.0475
39176W        W47976  20.539   6.551   3.320  0.2523  0.0154  0.2011
39177W        W47977  10.778   6.325  33.139  0.0849  0.1101 -0.4073
39178W        W47978   3.934   1.774   6.755  0.1694 -0.0946  0.1847
39179W        W47979   7.146   1.573  27.540 -0.0874 -0.3116  0.2913
39180W        W47980   6.559   5.639   8.630  0.0632 -0.0388  0.0190
39181W        W47981   4.984   6.429  15.955 -0.2083 -0.1206  0.2437
39182W        W47982  10.594   6.137   2.171  0.0329  0.2547  0.1733
39183W        W47983   0.235   2.731  29.015 -0.0354 -0.0283 -0.1096
39184W        W47984   5.547   5.205  31.078 -0.0472 -0.1255  0.1982
39185W        W47985   1.887   1.973   9.280  0.1742 -0.0185 -0.1743
39186W        W47986  18.932   3.068  10.315  0.1963 -0.1936  0.3014
39187W        W47987  10.150   6.435  39.019 -0.0046 -0.0508  0.1340
39188W        W47988   9.791   4.853  34.668  0.1057  0.0889 -0.0127
39189W        W47989   0.222   2.663  44.540 -0.2985  0.2072 -0.0081
39190W        W47990   6.516   3.486  29.955 -0.1932 -0.0891 -0.0471
39191W        W47991  17.762   2.358  36.827 -0.2155  0.2356 -0.1692
39192W        W47992   6.091   4.679  37.154 -0.1148 -0.1449 -0.0990
39193W        W47993  19.935   6.084  37.169  0.1689 -0.0930 -0.1099
39194W        W47994   4.913   1.462  29.453 -0.0272 -0.2077  0.0110
39195W        W47995   8.413   2.458   2.669 -0.0259  0.1517 -0.0239
39196W        W47996  13.494   2.429   3.316  0.0092  0.0832 -0.0616
39197W        W47997  15.151   0.395  19.824  0.1783  0.0060  0.0624
39198W        W47998  18.510   4.473  44.939  0.0362  0.2450 -0.2749
39199W        W47999   8.723   5.069  39.368 -0.0013  0.1045  0.0934
39200W        W48000   5.303   2.359  27.326  0.4271  0.0968 -0.1894
39201W        W48001  14.124   1.565   1.735  0.2577  0.1147 -0.1472
39202W        W48002   7.998   4.041  13.763 -0.0265  0.1952  0.0246
39203W        W48003   9.280   3.589  16.077 -0.0112 -0.2409  0.1076
39204W        W48004   6.482   4.300  36.999 -0.1292  0.1778  0.0612
39205W        W48005  16.460   6.517  36.142  0.0039  0.0457  0.0070
39206W        W48006  13.925   5.392   7.200  0.1240 -0.1277 -0.2990
39207W        W48007   0.328   3.405  12.618  0.1300 -0.1190 -0.0436
39208W        W48008  19.055   2.234  44.733 -0.0294 -0.1886 -0.2255
39209W        W48009   9.087   0.937  33.016 -0.1509 -0.0352  0.1356
39210W        W48010  10.202   6.306  31.483  0.1053 -0.0285 -0.2458
39211W        W48011   8.784   5.575  14.162  0.0663  0.1757 -0.0163
39212W        W48012  18.183   4.637  15.457  0.2794  0.0523 -0.2262
39213W        W48013   0.954   6.397  37.843 -0.0831 -0.0960  0.1533
39214W        W48014  20.610   5.986   4.286 -0.0852 -0.4884 -0.0064
39215W        W48015  13.364   4.616  33.821  0.1131  0.1800  0.2647
39216W        W48016   9.357   3.033  11.775  0.2869  0.1610 -0.0833
39217W        W48017  10.107   5.459  44.302  0.3971 -0.1936 -0.0736
39218W        W48018   6.965   5.718   8.319 -0.0209  0.2130 -0.4834
39219W        W48019  12.211   4.999   6.051 -0.0421  0.1448  0.1117
39220W        W48020   3.638   2.791  43.690 -0.0235 -0.1236 -0.1007
39221W        W48021   9.295   5.136  42.991  0.1643 -0.1093 -0.0703
39222W        W48022  11.526   1.201  35.789 -0.1577  0.0548  0.1617
39223W        W48023   6.803   0.871  37.244 -0.1504 -0.2001  0.2072
39224W        W48024   7.781   3.116  15.390 -0.1731 -0.2194  0.3134
39225W        W48025  19.126   5.539  40.533 -0.1912  0.1928  0.1257
39226W        W48026   7.958   5.989   4.025 -0.1630 -0.1114  0.0885
39227W        W48027   9.901   1.688  17.872  0.0398  0.0194 -0.2216
39228W        W48028  17.355   0.238  11.397  0.2484 -0.0336  0.1946
39229W        W48029  16.874   4.762  37.698 -0.1192  0.0427  0.0641
39230W        W48030  14.435   3.027  39.070 -0.2178  0.2560 -0.1493
39231W        W48031   6.697   5.762  32.895  0.1174 -0.3012 -0.0936
39232W        W48032   2.883   1.493  22.569 -0.0611  0.0024 -0.1322
39233W        W48033  19.873   1.614  15.961  0.0881  0.2747 -0.0359
39234W        W48034  14.325   0.241  31.382 -0.2463  0.1165  0.0333
39235W        W48035  18.853   2.590  30.293  0.1747  0.2648 -0.0997
39236W        W48036   6.371   3.349   7.512 -0.0293 -0.0021  0.4745
39237W        W48037   9.434   6.034   0.893 -0.0952  0.5007 -0.1929
39238W        W48038   6.605   3.457  27.558  0.2592  0.0110  0.0646
39239W        W48039  19.005   0.458   1.939 -0.0356  0.3393  0.1870
39240W        W48040  12.976   5.939  16.739 -0.0287  0.1823 -0.3521
39241W        W48041   1.720   5.735  12.143 -0.2036 -0.1450  0.0053
39242W        W48042   7.747   3.152  43.815 -0.2142  0.0621 -0.0745
39243W        W48043  18.508   4.374  32.501  0.3507 -0.0658 -0.0069
39244W        W48044   8.998   0.305   7.124  0.0047 -0.0644  0.3087
39245W        W48045   7.858   5.036  10.285 -0.3197  0.1622  0.1934
39246W        W48046   0.814   0.878  43.048 -0.0204  0.0419  0.0479
39247W        W48047  16.854   2.136  32.250 -0.2883 -0.2569 -0.2422
39248W        W48048   8.696   1.666  26.358 -0.0074 -0.0290 -0.1143
39249W        W48049   6.836   5.836   9.806 -0.2322 -0.3532  0.1270
39250W        W48050  10.669   1.805  36.018 -0.3534  0.1370  0.0244
39251W        W48051   7.888   4.809  30.267  0.0936 -0.1414 -0.1253
39252W        W48052   3.660   2.903  20.049  0.0938 -0.0544 -0.1685
39253W        W48053  16.311   3.616  10.217  0.0957  0.3175 -0.2033
39254W        W48054   8.160   3.131  25.477  0.1057 -0.1912  0.0251
39255W        W48055   4.881   5.458  32.725  0.0340 -0.2172  0.0465
39256W        W48056   3.715   4.501  40.122  0.0343 -0.0355 -0.0343
39257W        W48057  15.680   3.409  31.069  0.3246 -0.1940  0.0662
39258W        W48058  13.638   3.132  41.954  0.2529 -0.0812 -0.1445
39259W        W48059  11.458   6.192  18.183 -0.2598  0.1806  0.0019
39260W        W48060   9.064   0.765  26.556  0.0830  0.3822 -0.0170
39261W        W48061  20.881   1.729   0.538 -0.3416  0.0287  0.0437
39262W        W48062   9.751   2.227  40.025 -0.0531 -0.1398 -0.1198
39263W        W48063  14.880   5.401   1.003 -0.1400 -0.3382 -0.1741
39264W        W48064   2.529   2.877  30.382  0.1556 -0.0162  0.3510
39265W        W48065  19.294   4.151  41.525 -0.1864 -0.0320  0.3454
39266W        W48066  12.669   5.258  38.164  0.0420 -0.0732  0.2271
39267W        W48067  19.478   0.394  40.556 -0.1168 -0.2745 -0.1871
39268W        W48068   5.737   5.154   3.659 -0.1945 -0.1818  0.1612
39269W        W48069  20.715   2.478  27.742  0.3543 -0.4125  0.0684
39270W        W48070  19.804   3.272   7.027 -0.1305  0.0248  0.0340
39271W        W48071   1.182   4.773  36.703 -0.0533 -0.1383  0.2496
39272W        W48072  19.292   3.777  40.583  0.1003 -0.1590  0.1500
39273W        W48073  16.885   5.033   8.705 -0.3451  0.2050  0.2862
39274W        W48074  16.128   0.432  33.249  0.1909 -0.3146 -0.1219
39275W        W48075   2.266   5.220  29.616  0.0274 -0.2168  0.2198
39276W        W48076  20.531   4.969  14.784 -0.1040  0.1264 -0.1277
39277W        W48077   2.346   1.973  10.909 -0.0761  0.1740  0.1550
39278W        W48078   6.456   3.111  31.687 -0.0941  0.0841  0.2069
39279W        W48079   1.658   2.491  23.190 -0.0661 -0.1078 -0.0929
39280W        W48080   6.021   4.159  12.767  0.1152  0.0363 -0.1762
39281W        W48081   8.742   6.413  27.508 -0.1106 -0.1887  0.1063
39282W        W48082   6.585   1.152   8.953  0.2128  0.1991 -0.0508
39283W        W48083   2.734   6.521  28.394 -0.1223  0.0773 -0.0653
39284W        W48084  16.754   5.248   0.596  0.1464  0.2286  0.1875
39285W        W48085  16.597   0.945  10.848  0.2229  0.2285  0.2155
39286W        W48086  10.544   1.016  12.388  0.0230  0.3275 -0.0698
39287W        W48087  17.848   4.280  27.597 -0.1502  0.1328 -0.0369
39288W        W48088   7.456   4.581   6.725 -0.0623 -0.3277 -0.1220
39289W        W48089  12.762   2.647  11.453  0.0013 -0.1111 -0.0328
39290W        W48090   0.775   3.391  15.036 -0.2512 -0.3817  0.1769
39291W        W48091  13.129   5.666  34.533 -0.4307  0.0319 -0.1982
39292W        W48092  13.943   1.072  44.115  0.1571 -0.2348 -0.0252
39293W        W48093  16.485   1.176   4.865 -0.2838  0.3959  0.1400
39294W        W48094   3.445   0.437  25.833  0.4402  0.0020  0.0968
39295W        W48095   0.397   2.548  14.571  0.0396  0.0801  0.3364
39296W        W48096  15.761   5.287  34.792 -0.3424 -0.1133  0.1872
39297W        W48097  15.553   5.181  18.759  0.1639 -0.3195  0.0163
39298W        W48098   0.929   4.283  13.352  0.0497 -0.0753  0.0512
39299W        W48099   8.252   1.192  38.671  0.1022 -0.0142 -0.0104
39300W        W48100  14.290   5.011   0.385 -0.1220 -0.2677 -0.0044
39301W        W48101  16.988   1.828  40.039  0.3033  0.1022 -0.0438
39302W        W48102   6.426   2.316  33.427  0.1367  0.1988 -0.0900
39303W        W48103  18.490   3.713   0.684 -0.0751  0.3632 -0.0552
39304W        W48104  19.801   3.200  44.344 -0.1229  0.0598 -0.5955
39305W        W48105   6.177   4.600  35.786 -0.1067  0.0036  0.0520
39306W        W48106  18.409   4.134   7.354  0.0157 -0.1129 -0.0291
39307W        W48107   8.636   4.788  14.710  0.1395  0.5934  0.2367
39308W        W48108  12.520   3.561  35.789  0.1826  0.0056  0.1417
39309W        W48109   8.955   2.751  13.470  0.0114  0.1070 -0.3281
39310W        W48110  15.380   6.068  22.577  0.0121  0.0253 -0.3435
39311W        W48111   9.628   1.447   3.464 -0.1495  0.2445 -0.0961
39312W        W48112   5.027   3.538  12.625 -0.2224 -0.1081 -0.1484
39313W        W48113  11.803   1.051   0.496  0.0338 -0.2554  0.2105
39314W        W48114  18.415   5.507   8.356  0.3051 -0.3207  0.2504
39315W        W48115  11.208   5.654  36.629  0.3625 -0.0519  0.2017
39316W        W48116   3.198   5.820   0.249  0.0989  0.0476 -0.1154
39317W        W48117  21.058   3.903  29.613  0.0140 -0.0000 -0.0680
39318W        W48118  15.882   3.938   8.641 -0.0666  0.0012 -0.1624
39319W        W48119  10.049   1.777  17.138 -0.1811  0.0371 -0.1186
39320W        W48120  20.428   4.107  39.980 -0.0947 -0.1051  0.0964
39321W        W48121   2.865   4.171  40.618 -0.0411  0.0877  0.2140
39322W        W48122  14.925   5.984  31.876  0.0463  0.1115 -0.1018
39323W        W48123   6.056   3.853  41.568  0.1839 -0.1364 -0.1312
39324W        W48124   4.441   1.724   1.457 -0.1418  0.0058  0.0988
39325W        W48125  19.168   1.320  32.422  0.1603  0.0446  0.0529
39326W        W48126  13.923   2.435   4.017 -0.0758 -0.1435  0.1030
39327W        W48127   6.188   3.201  43.816  0.2254  0.1896 -0.0602
39328W        W48128   5.345   4.066   9.466 -0.0527  0.0183  0.0653
39329W        W48129  12.210   2.401  16.106  0.1098 -0.4844  0.0023
39330W        W48130   9.720   4.624   1.243  0.2034  0.0641  0.0072
39331W        W48131  20.006   5.599  45.055  0.2132 -0.1001 -0.0619
39332W        W48132   7.476   3.235  13.912 -0.1019 -0.3983 -0.1840
39333W        W48133  20.959   5.717  41.747  0.3038 -0.0386 -0.1642
39334W        W48134  15.916   1.147  20.693  0.0202 -0.0027 -0.0378
39335W        W48135  12.319   1.992  11.679  0.2408 -0.2199  0.0090
39336W        W48136  19.269   2.181  40.648 -0.1507 -0.2166  0.2941
39337W        W48137   1.873   6.387   6.635  0.0191 -0.1162 -0.0770
39338W        W48138  14.676   4.077   1.134 -0.1095 -0.0147 -0.0757
39339W        W48139  17.814   5.003  16.540  0.0448  0.2239  0.3805
39340W        W48140   5.502   5.215  37.476  0.0540  0.3427 -0.0875
39341W        W48141  16.395   0.348  36.445  0.0484  0.0803  0.4148
39342W        W48142   6.960   2.126  43.024 -0.0094 -0.3355  0.0333
39343W        W48143   8.620   4.151  41.927 -0.0694 -0.1282  0.1326
39344W        W48144   5.954   1.721  10.874  0.0777  0.1689 -0.0384
39345W        W48145  16.261   0.446  36.943 -0.0059 -0.0993  0.1091
39346W        W48146  17.719   4.302  42.309 -0.1605 -0.1870  0.1651
39347W        W48147   8.311   0.365  11.238 -0.3062  0.0276  0.0511
39348W        W48148  14.336   3.485  16.179  0.1253  0.1527 -0.0542
39349W        W48149   0.059   4.558  33.194  0.0053 -0.0529 -0.0039
39350W        W48150  15.417   1.228   4.424  0.0723  0.0720 -0.0616
39351W        W48151   5.642   6.575   8.762  0.1906 -0.1755  0.1580
39352W        W48152   1.589   2.466   1.101 -0.1029 -0.1755  0.0078
39353W        W48153   9.224   1.396   8.531 -0.1730 -0.2297  0.0869
39354W        W48154   5.819   0.633   4.202 -0.2714  0.3186  0.0558
39355W        W48155  20.886   1.660   3.575  0.1836 -0.0243  0.0917
39356W        W48156   4.454   3.187  39.217  0.0121  0.0738  0.0924
39357W        W48157   0.564   5.225  10.983  0.0545 -0.1162  0.2312
39358W        W48158   7.772   4.745   4.973 -0.0066 -0.2926  0.0283
39359W        W48159  17.249   4.550  32.264 -0.0990  0.0262 -0.1334
39360W        W48160  12.246   3.893  42.927 -0.0243  0.0650  0.6480
39361W        W48161   6.094   5.869  24.072  0.2501  0.1851  0.0577
39362W        W48162   6.741   0.589  41.352  0.0264  0.0201  0.0755
39363W        W48163  11.072   4.430  42.327  0.2288  0.1314  0.0682
39364W        W48164  13.984   6.587  42.731  0.4106  0.2245 -0.0450
39365W        W48165  15.255   5.454   7.171  0.0221  0.1514 -0.2415
39366W        W48166  11.967   5.051  44.587  0.1240 -0.3960 -0.2818
39367W        W48167  16.290   3.633  42.912 -0.0014 -0.0592  0.1633
39368W        W48168   4.340   2.793  25.298 -0.2721 -0.0114 -0.2954
39369W        W48169   7.085   1.315  42.210  0.0990 -0.1069 -0.1180
39370W        W48170  18.153   0.837  33.349 -0.0815  0.2360 -0.1184
39371W        W48171   7.495   3.067  32.791  0.0608  0.0728 -0.0819
39372W        W48172  18.611   6.431  18.580  0.0580  0.2560  0.1319
39373W        W48173   8.181   4.236  39.225 -0.0778 -0.0761  0.0788
39374W        W48174   3.121   3.296  39.147  0.1481 -0.2277  0.0293
39375W        W48175   0.936   6.509  36.676 -0.0628 -0.2715 -0.2478
39376W        W48176  12.906   5.388  35.805 -0.3211 -0.2636  0.0080
39377W        W48177   0.759   1.582  35.455  0.3410 -0.2370  0.3343
39378W        W48178  18.526   3.936  35.768 -0.2763 -0.2220  0.1524
39379W        W48179  18.509   6.294  31.504 -0.1196 -0.0460 -0.1246
39380W        W48180  11.403   2.510  17.150 -0.1448  0.0241 -0.4439
39381W        W48181  18.864   0.683   7.204 -0.2100  0.2623  0.0980
39382W        W48182  11.571   6.493  33.710 -0.3296 -0.0374 -0.1167
39383W        W48183  20.761   3.977  37.525 -0.2260  0.2019 -0.0214
39384W        W48184   8.107   4.353  30.511 -0.1668 -0.0678 -0.2527
39385W        W48185  15.419   1.278  13.339  0.0268  0.0142  0.1051
39386W        W48186   6.426   0.869  33.515 -0.1041  0.0824  0.0088
39387W        W48187   3.250   5.482  39.490  0.1220  0.0625 -0.0040
39388W        W48188  20.962   4.749  12.478 -0.2559  0.0386 -0.0884
39389W        W48189  12.589   2.762   0.924 -0.2000 -0.1594  0.6595
39390W        W48190   5.461   2.104  38.197 -0.2362 -0.0480  0.2282
39391W        W48191  14.354   1.638  42.028 -0.0669  0.0010 -0.2342
39392W        W48192   2.889   1.233  14.664 -0.1972  0.0031  0.1372
39393W        W48193  20.752   3.212  32.041 -0.0809  0.1686 -0.0532
39394W        W48194  12.462   4.297  34.172 -0.2069 -0.2515 -0.2572
39395W        W48195  15.475   2.569   2.447  0.1656  0.1811  0.1796
39396W        W48196  17.899   6.252  29.406  0.1367  0.0540 -0.0006
39397W        W48197  12.425   1.826  42.205 -0.0935  0.1209  0.1254
39398W        W48198  19.805   2.294   0.514  0.1390  0.1044  0.1086
39399W        W48199   9.344   5.782  29.362 -0.0556 -0.0452  0.2651
39400W        W48200   9.787   5.114  16.536 -0.2038  0.2358 -0.1440
39401W        W48201  14.628   0.947  37.756  0.0682 -0.1724 -0.0464
39402W        W48202  16.116   2.144   7.187 -0.0278  0.3429 -0.0103
39403W        W48203  13.088   5.375  14.301  0.2353  0.0338 -0.0462
39404W        W48204  10.967   0.613  15.980  0.0198 -0.1083 -0.0107
39405W        W48205  11.369   6.485  44.724  0.1293 -0.1918 -0.0980
39406W        W48206   3.130   5.651  32.404  0.0862  0.2319 -0.2422
39407W        W48207  11.784   2.470   9.985  0.1589 -0.0499  0.2327
39408W        W48208   1.898   5.630  28.027 -0.0517 -0.3056 -0.3413
39409W        W48209  21.158   5.844  10.504  0.0768  0.4657 -0.0140
39410W        W48210   7.560   1.025   8.663 -0.1826 -0.0962 -0.3053
39411W        W48211  11.703   5.275  32.948  0.2593  0.1703 -0.4127
39412W        W48212  16.148   1.562   2.812  0.1075 -0.2070 -0.0278
39413W        W48213   5.559   0.933   6.668 -0.2572  0.0108  0.2179
39414W        W48214   9.986   2.063  40.970 -0.2334 -0.1950  0.1092
39415W        W48215  11.074   0.435  20.818 -0.2808 -0.1790  0.0066
39416W        W48216   6.129   5.548  15.860  0.1790 -0.2065  0.2703
39417W        W48217   7.195   5.209  33.365 -0.3039  0.0157 -0.0297
39418W        W48218  11.937   3.781  39.019 -0.2748 -0.0689 -0.0962
39419W        W48219   4.460   2.358  33.079 -0.1809 -0.0966  0.1839
39420W        W48220   2.117   1.382  44.500  0.2056 -0.0591 -0.2347
39421W        W48221  15.293   5.860  30.106 -0.0153  0.0237 -0.3162
39422W        W48222   1.745   5.351  39.930 -0.1574 -0.0084 -0.0807
39423W        W48223  10.056   1.267   1.065  0.1675 -0.1615 -0.3067
39424W        W48224  17.231   5.638   4.693  0.2959  0.0788  0.1216
39425W        W48225  10.917   2.072  41.078 -0.0355 -0.1160  0.5886
39426W        W48226  10.545   6.420  40.401 -0.1565  0.0546  0.2479
39427W        W48227   0.860   3.879   6.144  0.1942  0.1369 -0.1860
39428W        W48228   2.692   5.016  27.337  0.1843 -0.2394  0.2821
39429W        W48229   6.090   5.579  30.035  0.1237 -0.1321  0.1961
39430W        W48230  16.337   0.044  42.127 -0.0263 -0.1179  0.0548
39431W        W48231   7.053   6.407  27.919  0.1923 -0.0613 -0.0545
39432W        W48232   6.691   1.405   1.796 -0.0185 -0.0845  0.0057
39433W        W48233   1.349   3.069  41.364 -0.1050 -0.1096  0.0651
39434W        W48234  20.402   5.907  15.032 -0.2117 -0.0169 -0.0807
39435W        W48235  14.478   1.727  24.225  0.4088  0.0338 -0.1567
39436W        W48236   6.253   5.755   8.194 -0.0150  0.0608  0.4242
39437W        W48237   6.815   6.436  39.641 -0.1663 -0.1773  0.1071
39438W        W48238   6.594   2.971  43.554  0.1667  0.1783  0.2889
39439W        W48239   1.710   5.462  42.289 -0.0174  0.0632 -0.0461
39440W        W48240  15.805   0.545  21.554 -0.1063  0.1754  0.2996
39441W        W48241  10.718   0.670  34.799  0.1907  0.1953 -0.1365
39442W        W48242   1.118   0.988   2.699 -0.3089  0.1563 -0.1138
39443W        W48243  12.414   5.008   2.482  0.0607 -0.5277  0.1044
39444W        W48244   1.326   4.240   7.061  0.3052 -0.1269  0.0745
39445W        W48245  19.819   0.116  12.114  0.1035  0.1695  0.1558
39446W        W48246  18.800   2.274  11.873  0.0345  0.0350  0.1286
39447W        W48247  16.983   2.355  28.317  0.1425 -0.0134 -0.0168
39448W        W48248  10.766   3.009   0.702 -0.0431  0.0056 -0.0702
39449W        W48249  18.979   2.247  18.424 -0.2318 -0.1694 -0.0744
39450W        W48250   4.105   0.776  37.665 -0.0912  0.2440 -0.0655
39451W        W48251   0.364   3.326  13.762  0.0826 -0.1592 -0.1847
39452W        W48252  10.904   4.898  39.561 -0.1151 -0.2949 -0.2655
39453W        W48253   5.396   3.395  12.917 -0.1101 -0.1538  0.1088
39454W        W48254  19.281   0.622   6.401 -0.0036  0.0608 -0.3994
39455W        W48255   0.621   3.985  28.413  0.1126  0.2057 -0.0186
39456W        W48256  11.608   5.786   6.000 -0.2786  0.0890  0.0572
39457W        W48257  12.641   3.245   9.418 -0.1946 -0.1235  0.0760
39458W        W48258   1.237   2.407  36.635 -0.2486  0.3548  0.0013
39459W        W48259   3.637   3.661  11.980 -0.0104  0.3238  0.1062
39460W        W48260   5.400   0.881  37.975 -0.2262  0.1222 -0.0703
39461W        W48261  13.111   3.031  44.600  0.1519  0.1994 -0.1455
39462W        W48262   1.174   4.661   2.582  0.0009  0.1274 -0.0334
39463W        W48263   9.281   5.613   5.240  0.5322 -0.0951 -0.1542
39464W        W48264  10.864   0.728  11.247  0.0844 -0.0488  0.2191
39465W        W48265   2.318   2.935  39.680 -0.2120 -0.0771 -0.3293
39466W        W48266  19.723   2.792  39.673  0.0999 -0.1415  0.1077
39467W        W48267  12.955   4.143   4.745  0.1020 -0.2369 -0.1295
39468W        W48268  15.139   3.935  43.231  0.6210 -0.1354  0.1237
39469W        W48269  14.082   4.237  16.797 -0.0328 -0.1535  0.1395
39470W        W48270   7.276   3.288   7.062  0.1895 -0.1082  0.0798
39471W        W48271   3.658   3.351  37.499  0.0785  0.1142  0.1538
39472W        W48272  13.729   4.471  30.112  0.1323 -0.1124 -0.0815
39473W        W48273   9.669   1.591  44.187 -0.2231 -0.1364 -0.0377
39474W        W48274   1.854   1.305  27.661 -0.1692 -0.2913 -0.1703
39475W        W48275  16.976   5.632  18.467  0.0917  0.0176  0.1429
39476W        W48276   2.162   3.968   0.525  0.3086  0.2604  0.0831
39477W        W48277  15.239   1.580   5.364 -0.3098  0.0075 -0.1427
39478W        W48278   4.841   1.678  43.817  0.1581 -0.0415  0.3327
39479W        W48279   3.660   0.922  27.634  0.0874 -0.0297  0.1231
39480W        W48280  18.567   4.171  10.075  0.2215  0.0360 -0.2240
39481W        W48281   6.538   2.438  14.259 -0.2890  0.0309  0.0072
39482W        W48282   0.232   3.311  25.557 -0.0058 -0.1663 -0.0805
39483W        W48283   6.495   1.620   0.679 -0.1521 -0.0197  0.0113
39484W        W48284  16.684   2.196  16.725  0.0581  0.2444  0.1727
39485W        W48285  11.557   2.373   3.899 -0.1190 -0.1742  0.1634
39486W        W48286  15.311   3.071  29.809  0.3665 -0.2503  0.1050
39487W        W48287  12.055   3.947  43.469 -0.3261 -0.0645  0.1105
39488W        W48288  20.413   0.428   0.317 -0.1757 -0.3154  0.0556
39489W        W48289   2.198   3.100  32.343  0.0625  0.2187  0.1487
39490W        W48290  10.634   2.121  34.959  0.0305 -0.2029  0.0013
39491W        W48291  15.415   3.532  39.798 -0.1577 -0.0068  0.2669
39492W        W48292  13.525   5.608  13.197 -0.3974  0.0315 -0.0311
39493W        W48293   0.178   3.502  44.116  0.0234  0.1592 -0.1280
39494W        W48294   4.041   2.472  29.368  0.4254  0.0036  0.1541
39495W        W48295   0.215   0.983   4.195  0.0811  0.1651 -0.0100
39496W        W48296  18.816   3.914  42.819  0.1870  0.4171 -0.1612
39497W        W48297  19.105   4.830   0.597  0.1512 -0.1068  0.0061
39498W        W48298   3.182   2.320  28.649 -0.2873  0.1264 -0.1168
39499W        W48299   7.396   3.025   3.151 -0.0161  0.2157 -0.0119
39500W        W48300   0.329   1.791  42.236  0.0003 -0.2718  0.1013
39501W        W48301  14.744   5.103  10.131  0.0484 -0.1252 -0.1485
39502W        W48302   7.238   6.451  27.492  0.0407  0.1280 -0.0903
39503W        W48303   7.114   1.237  27.187  0.4906  0.1287 -0.0359
39504W        W48304  17.678   1.116  34.176  0.2514 -0.3325 -0.0161
39505W        W48305   4.999   3.308  15.102  0.0714 -0.1377  0.1753
39506W        W48306   9.404   0.406  33.260  0.0258  0.0794  0.1057
39507W        W48307  13.804   4.057  13.594 -0.1315  0.4096  0.1352
39508W        W48308   3.537   2.720  32.835 -0.1664 -0.0189  0.0153
39509W        W48309   3.838   5.126  25.582  0.4513  0.2039 -0.0690
39510W        W48310  18.114   5.793  43.918  0.1690  0.1715  0.2434
39511W        W48311  15.782   0.639   8.808 -0.2625  0.0117 -0.1518
39512W        W48312  10.231   5.803  29.371 -0.1241  0.2577 -0.4497
39513W        W48313  15.891   6.158   9.510 -0.1127  0.0895  0.1356
39514W        W48314  14.178   0.560  15.187 -0.0791 -0.3105  0.1291
39515W        W48315  17.614   0.998  31.659 -0.4100  0.2204 -0.3776
39516W        W48316   8.413   6.304   2.361  0.0546  0.1775 -0.0212
39517W        W48317  19.585   3.566  35.986  0.3306  0.4261  0.1240
39518W        W48318  15.247   2.687   3.314  0.0483  0.0553 -0.2544
39519W        W48319  12.986   5.311  17.470 -0.1523  0.2497  0.0123
39520W        W48320   1.160   0.920  26.007  0.2504 -0.0568 -0.0400
39521W        W48321  18.961   1.873  39.516  0.1252  0.2653  0.1361
39522W        W48322   8.593   6.286   1.655  0.0821 -0.2152 -0.3140
39523W        W48323   0.330   4.330  10.863 -0.0676 -0.0158  0.0320
39524W        W48324   4.979   4.990  34.786  0.2466 -0.3063 -0.3277
39525W        W48325   5.798   0.294   1.086  0.0175 -0.1644  0.1632
39526W        W48326  14.718   4.847  19.620 -0.3856 -0.0522  0.1054
39527W        W48327   9.776   0.052  33.392 -0.3098 -0.0467 -0.1651
39528W        W48328   9.183   1.866   1.830 -0.3984  0.0505 -0.0195
39529W        W48329  15.611   5.595   3.081  0.2435  0.1975  0.4037
39530W        W48330  15.025   1.002  30.295  0.1901  0.0334  0.2247
39531W        W48331  13.160   1.525  29.458  0.2494 -0.0964 -0.0881
39532W        W48332  12.594   5.503  19.863 -0.0410  0.1202 -0.2859
39533W        W48333   0.432   2.429   0.330 -0.1341 -0.1809  0.2469
39534W        W48334  16.826   3.268  20.896 -0.2832 -0.1573 -0.2133
39535W        W48335   8.771   0.504  35.102  0.1413  0.2627 -0.0561
39536W        W48336  18.744   5.185  31.486  0.0123 -0.0770 -0.1244
39537W        W48337   4.668   0.380  36.164  0.0740 -0.1460  0.0595
39538W        W48338   7.175   0.416  36.357  0.2655  0.0309 -0.2082
39539W        W48339   3.806   4.438  36.549  0.1770  0.0883 -0.2416
39540W        W48340   9.248   3.628  13.270  0.2048  0.0668  0.1544
39541W        W48341  17.146   6.587  33.714  0.3375  0.1484  0.0752
39542W        W48342   2.411   1.296  40.999  0.1304  0.1539 -0.1518
39543W        W48343   8.183   2.927  39.464  0.1237 -0.0298 -0.1881
39544W        W48344   5.293   1.515  36.923  0.2786  0.1574  0.1017
39545W        W48345  16.560   4.016  31.970 -0.3181  0.0118 -0.1318
39546W        W48346   6.214   6.128   3.894 -0.0878 -0.3323 -0.0993
39547W        W48347  16.422   4.107   1.957 -0.1963 -0.0554 -0.2140
39548W        W48348  10.756   0.311   1.121  0.3226 -0.0612 -0.0038
39549W        W48349   0.877   3.063   8.572 -0.1573 -0.0673 -0.0337
39550W        W48350  20.783   1.842  14.222 -0.1360  0.2211  0.0950
39551W        W48351  15.646   6.600  20.631  0.2469  0.0634  0.0202
39552W        W48352   7.072   6.565  16.722  0.1026  0.1904 -0.1324
39553W        W48353  18.940   0.034  17.174  0.2727 -0.1309 -0.0292
39554W        W48354  21.044   5.180  32.326  0.0300  0.3788  0.4991
39555W        W48355  20.920   0.469  11.458  0.0862 -0.1294  0.0194
39556W        W48356   1.195   0.880  31.626  0.1420  0.0148 -0.1320
39557W        W48357  18.414   0.411  30.903  0.0705 -0.1504  0.0908
39558W        W48358  11.760   1.796   1.161  0.0255 -0.0062  0.0628
39559W        W48359  20.618   0.344   2.396  0.1604 -0.3351  0.1005
39560W        W48360  16.726   0.726   2.143  0.0793  0.1768  0.0083
39561W        W48361   3.834   3.560   5.836 -0.1344 -0.1810  0.0808
39562W        W48362   2.953   5.284  31.574 -0.0107  0.2113  0.2994
39563W        W48363  12.971   3.591  36.674  0.1493  0.2832  0.1034
39564W        W48364  14.220   2.356   6.519 -0.0810  0.1343 -0.0715
39565W        W48365   3.485   3.672  16.096  0.1942  0.0644  0.1544
39566W        W48366  18.406   0.552   7.485 -0.1704  0.0815  0.0490
39567W        W48367   6.695   6.190  35.291  0.2832 -0.0758 -0.0621
39568W        W48368  11.568   1.030  35.195 -0.2253 -0.1359 -0.1151
39569W        W48369   9.556   2.051  30.324 -0.0212  0.1377 -0.0641
39570W        W48370  16.448   3.689  41.616 -0.0149  0.0207  0.0234
39571W        W48371  16.411   5.349  35.639  0.0644 -0.1223 -0.0518
39572W        W48372   9.302   1.339  43.861  0.0134  0.3061 -0.0896
39573W        W48373  18.059   3.300  31.928  0.1482 -0.1339 -0.1248
39574W        W48374  17.696   6.088  14.446 -0.0147 -0.0716  0.2736
39575W        W48375   4.664   5.616  42.769 -0.1145  0.2271 -0.1046
39576W        W48376   0.955   4.528  37.555 -0.2492 -0.1568  0.3114
39577W        W48377  14.401   1.854   3.078 -0.1373  0.1533  0.0743
39578W        W48378  16.237   2.778  43.901  0.1966 -0.1924  0.2481
39579W        W48379  20.563   6.086  43.681  0.0254  0.2095 -0.2233
39580W        W48380   0.629   0.654   6.860  0.2203 -0.1962  0.0389
39581W        W48381   1.852   2.581  39.019 -0.1228  0.2185  0.1332
39582W        W48382  19.679   4.950  42.757 -0.0600  0.3006  0.0348
39583W        W48383   6.444   5.019  28.467  0.0007  0.2547  0.0075
39584W        W48384  12.982   0.318  17.886 -0.2120 -0.0738 -0.2631
39585W        W48385   5.193   5.649  31.922  0.0404 -0.1148 -0.3594
39586W        W48386  20.621   5.037  11.870 -0.0452 -0.0123 -0.1092
39587W        W48387   0.456   3.381  10.379  0.2160  0.1087  0.0178
39588W        W48388  18.590   0.883   3.115  0.0647 -0.0086  0.1365
39589W        W48389  11.767   4.777   3.969 -0.3519  0.1240  0.1085
39590W        W48390   9.876   3.804   6.783  0.0369 -0.1501  0.1151
39591W        W48391  13.486   4.417   0.976  0.0429  0.0133 -0.0565
39592W        W48392  10.334   2.869   1.795  0.0265  0.0009 -0.0578
39593W        W48393  20.365   2.670  13.936  0.0417 -0.0743 -0.1383
39594W        W48394  20.475   0.375  25.522 -0.2397  0.0487 -0.0781
39595W        W48395   3.759   5.997   8.289 -0.2218  0.1117  0.1908
39596W        W48396  19.531   6.273   1.290 -0.1925  0.2833  0.2111
39597W        W48397   9.730   5.076   3.486  0.4289 -0.0691 -0.2416
39598W        W48398  12.278   5.391   7.275  0.0291 -0.1808 -0.1183
39599W        W48399   4.076   6.147   0.803 -0.2495 -0.1321  0.2460
39600W        W48400   7.773   5.694   5.419 -0.4037 -0.0203  0.0845
39601W        W48401   0.461   1.110  14.520  0.1315  0.0463 -0.3144
39602W        W48402   0.449   3.074  32.272 -0.2588  0.1390 -0.1205
39603W        W48403  11.630   1.226   0.039  0.0383  0.2696 -0.0200
39604W        W48404  11.527   0.804  11.763 -0.1272 -0.2613 -0.0769
39605W        W48405   9.386   1.266  30.348 -0.1383 -0.0430 -0.0141
39606W        W48406   3.910   3.713  32.658 -0.1041  0.1765 -0.0384
39607W        W48407  11.658   0.246  43.825  0.0538  0.0450  0.1144
39608W        W48408   4.097   4.220  10.173  0.0733 -0.1242 -0.0849
39609W        W48409  19.207   5.134  31.972 -0.0423  0.1592 -0.6864
39610W        W48410   7.904   3.238  35.528 -0.0218 -0.0034  0.1754
39611W        W48411   5.480   5.004   5.975 -0.1248  0.2468 -0.0006
39612W        W48412   5.458   4.402   7.839  0.4478  0.1065 -0.2644
39613W        W48413  15.052   1.580   2.065 -0.1369  0.2669 -0.2255
39614W        W48414   2.414   6.432  34.495  0.1600  0.0629  0.0216
39615W        W48415   2.074   2.229  27.688  0.2088 -0.2270 -0.1769
39616W        W48416   5.836   2.146  24.571  0.0483  0.3621  0.2243
39617W        W48417  15.380   3.521   1.639 -0.0785 -0.1505  0.2208
39618W        W48418  14.444   2.208  12.017  0.0649  0.3005 -0.1266
39619W        W48419   0.299   1.543  39.565 -0.2086  0.2334 -0.1391
39620W        W48420   7.008   0.776  37.717  0.0847  0.1731 -0.1232
39621W        W48421  20.820   0.918  28.557  0.3218 -0.4568  0.1803
39622W        W48422   4.080   6.369  34.627 -0.2145 -0.1402  0.1940
39623W        W48423  14.663   6.372  31.631  0.2428  0.2225 -0.3626
39624W        W48424   6.617   5.159  42.661  0.0280  0.1869 -0.1315
39625W        W48425  16.573   0.585   1.216  0.2299 -0.2361  0.1664
39626W        W48426   1.753   1.543  30.717  0.0927  0.0889 -0.1311
39627W        W48427  11.594   2.904  12.601  0.0474  0.1198 -0.1932
39628W        W48428  10.795   5.585  40.396  0.2740 -0.1494 -0.3134
39629W        W48429  10.300   2.706  11.908 -0.0363 -0.0490 -0.2081
39630W        W48430   9.446   0.379  30.190  0.1281 -0.4446  0.1236
39631W        W48431  15.216   4.335  18.113  0.0006  0.0166  0.1817
39632W        W48432   2.327   0.981  14.534  0.0463 -0.1762 -0.1648
39633W        W48433   1.469   3.873  15.625  0.0123  0.0600 -0.2984
39634W        W48434  10.518   6.353   1.118  0.0852 -0.1270 -0.0633
39635W        W48435  13.512   0.140   7.233  0.4479  0.0871 -0.2316
39636W        W48436   8.803   3.250  44.005  0.1565 -0.0842  0.0507
39637W        W48437  13.223   1.751  35.270  0.0217 -0.0017  0.4692
39638W        W48438   6.654   0.128  30.562  0.0134  0.1636 -0.1708
39639W        W48439  19.690   5.781   7.047  0.1410 -0.0125  0.5795
39640W        W48440  14.565   4.455  15.801 -0.1299 -0.2864 -0.2121
39641W        W48441   3.841   2.075  33.612 -0.3097  0.0144  0.4775
39642W        W48442   5.521   3.632   4.546  0.2362 -0.0517  0.4051
39643W        W48443   2.379   3.754  41.095  0.0103 -0.2299 -0.1285
39644W        W48444   2.518   4.128  35.767 -0.3077  0.2031 -0.3454
39645W        W48445  18.018   1.403   8.079  0.2015 -0.0889 -0.2426
39646W        W48446   2.397   5.847  30.381  0.1539  0.0922  0.0706
39647W        W48447  15.720   6.003  11.645 -0.0601  0.1051 -0.2533
39648W        W48448   1.502   5.850   6.013  0.1513 -0.0177 -0.0297
39649W        W48449   4.979   5.802  37.747  0.0507 -0.1746 -0.1573
39650W        W48450  13.595   2.121  41.932  0.1739  0.1477  0.2889
39651W        W48451   5.192   2.766  43.232 -0.1664 -0.1309  0.2237
39652W        W48452   5.980   4.196  43.123 -0.2180 -0.0335 -0.0560
39653W        W48453  13.466   6.399  37.304 -0.3237 -0.0421  0.1157
39654W        W48454  14.677   6.555   0.537  0.1598  0.1267  0.2783
39655W        W48455  11.221   0.684  39.997  0.1571 -0.0864  0.0133
39656W        W48456  13.932   3.118  40.734 -0.0053  0.0357  0.2227
39657W        W48457  11.005   0.368  34.511 -0.1974  0.0707  0.1363
39658W        W48458   1.136   4.458  23.625 -0.1740 -0.0019  0.2259
39659W        W48459   3.123   6.293  11.939 -0.1439 -0.0649  0.2619
39660W        W48460   8.874   4.886  15.922 -0.1713  0.0184  0.2249
39661W        W48461  19.063   1.439  14.885 -0.0169 -0.2107 -0.2222
39662W        W48462  13.140   4.737   5.328 -0.1247 -0.3715  0.0414
39663W        W48463   2.428   2.551  23.618  0.0375  0.0196 -0.0444
39664W        W48464  17.970   0.974  40.932  0.0323  0.0105 -0.1031
39665W        W48465   9.209   2.214  34.601 -0.0014 -0.0106 -0.2565
39666W        W48466  11.580   5.850  18.511 -0.0722 -0.0567  0.1076
39667W        W48467  17.760   1.121  42.876  0.1278 -0.2885  0.0881
39668W        W48468   4.334   6.434  25.004 -0.0374  0.1939 -0.0156
39669W        W48469   9.122   0.482  44.087  0.0421  0.0566 -0.0289
39670W        W48470  15.967   5.868  32.550 -0.0530  0.0761  0.0430
39671W        W48471  20.097   1.908  36.696 -0.1342  0.0118 -0.3370
39672W        W48472  13.221   5.594   8.654  0.0356  0.0724  0.2438
39673W        W48473  18.027   4.371  44.631 -0.2301 -0.1767  0.2630
39674W        W48474  13.806   5.018   6.398  0.4419  0.2099  0.3670
39675W        W48475   6.538   5.596   2.858  0.2510  0.3992  0.0407
39676W        W48476   4.570   0.972   8.914  0.0136  0.0941  0.0740
39677W        W48477  18.555   3.162  32.776  0.0269  0.2082 -0.0230
39678W        W48478  15.976   2.636  40.789  0.2132  0.1327 -0.0090
39679W        W48479  15.613   5.775  44.002  0.1031 -0.2683 -0.1914
39680W        W48480  19.517   5.454  11.234  0.1759  0.0588 -0.0359
39681W        W48481  16.681   6.552  40.455 -0.2049  0.2783  0.2077
39682W        W48482  20.105   4.569  38.854 -0.1171  0.0377 -0.0059
39683W        W48483  14.430   2.371  13.742  0.2700  0.0268 -0.0995
39684W        W48484   4.842   4.112  27.141 -0.1330  0.1154 -0.0599
39685W        W48485  13.901   2.685  16.157  0.2112  0.1524  0.0753
39686W        W48486  20.291   0.533  41.458  0.2223  0.0308 -0.0170
39687W        W48487   8.494   0.235  40.952  0.1370 -0.2262 -0.0361
39688W        W48488  17.151   1.494  33.320 -0.4144  0.0759 -0.1434
39689W        W48489  13.670   2.898  12.818  0.2832  0.1382 -0.0837
39690W        W48490   6.812   6.071  31.161 -0.2723 -0.2548  0.5052
39691W        W48491   9.582   5.934  10.256  0.1025 -0.0294 -0.0703
39692W        W48492   3.233   4.065   2.245 -0.1864 -0.4247 -0.0418
39693W        W48493   4.659   4.702  10.745 -0.0264 -0.1884 -0.1552
39694W        W48494   7.874   4.539  25.659  0.0858  0.1176 -0.0218
39695W        W48495   3.371   2.905   2.977 -0.1837  0.0197  0.2386
39696W        W48496  10.346   0.442  35.927  0.2330 -0.0425 -0.1683
39697W        W48497  15.915   5.508  21.594  0.0317 -0.0283  0.1120
39698W        W48498  13.098   3.011   3.802  0.1073 -0.1207  0.1103
39699W        W48499  19.566   5.179   1.345 -0.0811  0.0771 -0.2614
39700W        W48500  17.552   0.814  13.925  0.0172 -0.0865 -0.0585
39701W        W48501  14.880   1.780  18.352 -0.1322  0.1616 -0.0002
39702W        W48502  12.307   2.803  34.918  0.0887  0.1758  0.0509
39703W        W48503  19.961   4.315  11.768  0.1480 -0.0248 -0.0118
39704W        W48504   5.807   3.297   9.009 -0.0755 -0.0589  0.2474
39705W        W48505  12.010   2.081  19.949 -0.1354 -0.0204 -0.2118
39706W        W48506   3.933   4.467  14.394 -0.1157 -0.0308 -0.0135
39707W        W48507   5.106   0.414   6.011 -0.4207 -0.0462 -0.0865
39708W        W48508  16.588   4.327  39.491 -0.1859  0.1318 -0.0277
39709W        W48509  17.076   4.574   7.613 -0.0207  0.1209  0.2165
39710W        W48510   3.840   1.901  32.080 -0.3239  0.2978  0.2386
39711W        W48511   0.797   0.198  43.937 -0.0745  0.0739  0.0388
39712W        W48512  13.015   1.663   3.748 -0.3033  0.0185 -0.1514
39713W        W48513   5.042   3.168  34.266  0.1801 -0.3642  0.2592
39714W        W48514  11.962   2.635   3.753 -0.1791  0.2003 -0.0876
39715W        W48515   9.004   1.982  12.843  0.1233 -0.2751  0.0864
39716W        W48516  15.479   6.153  13.320  0.1470  0.2291 -0.0013
39717W        W48517  20.848   5.660  28.109  0.2254 -0.1042  0.1921
39718W        W48518   8.889   2.419   6.918  0.0718  0.0672  0.2106
39719W        W48519  10.959   6.532  43.966 -0.0053 -0.0899  0.1126
39720W        W48520  19.160   1.007  31.076 -0.1915  0.2270 -0.0022
39721W        W48521   5.828   5.600  14.733  0.2104  0.1916 -0.2450
39722W        W48522  12.400   5.933   8.929 -0.1311 -0.1251  0.2145
39723W        W48523  21.022   1.443  25.079  0.0129 -0.1463  0.1418
39724W        W48524   0.122   5.759  35.055 -0.2366 -0.3786 -0.0400
39725W        W48525  12.941   0.541  37.096 -0.0056 -0.2181  0.1136
39726W        W48526   7.772   4.825  36.420 -0.2009 -0.1526 -0.3735
39727W        W48527   1.113   2.782   6.192 -0.1049  0.1212 -0.1892
39728W        W48528  18.576   3.711  28.090 -0.0024  0.1893  0.1740
39729W        W48529   8.723   5.299  41.789 -0.0806  0.1850  0.0436
39730W        W48530   6.825   2.479  33.663 -0.1806 -0.1789  0.0238
39731W        W48531   5.853   1.208  26.801 -0.2238  0.1403  0.3717
39732W        W48532  15.925   1.319   2.125 -0.0077  0.2158 -0.1512
39733W        W48533  13.841   4.888  19.296  0.3745  0.1429  0.4215
39734W        W48534  14.289   1.656  25.486 -0.2719  0.0886 -0.0768
39735W        W48535   2.337   3.225  10.497  0.0172  0.1993 -0.0136
39736W        W48536   2.387   2.200  35.418 -0.2887 -0.3978  0.0330
39737W        W48537  12.514   6.601  16.148  0.1239 -0.0638 -0.2724
39738W        W48538   7.313   4.015  25.174 -0.1211  0.2038 -0.1883
39739W        W48539  15.376   4.591  14.619  0.0979 -0.0620 -0.0192
39740W        W48540  13.004   2.632   8.297 -0.1732  0.0376 -0.1082
39741W        W48541  17.579   2.131   5.251  0.1626 -0.1997  0.1311
39742W        W48542   1.441   0.054  23.622  0.1783  0.0827 -0.0249
39743W        W48543   1.347   2.064   0.239  0.0408 -0.0260  0.0021
39744W        W48544  11.364   3.492   1.859  0.2306  0.2464 -0.4611
39745W        W48545   6.609   0.014  26.635  0.2617 -0.1380  0.1460
39746W        W48546   6.306   0.208  12.857 -0.2206  0.2080 -0.0047
39747W        W48547   5.940   4.953  28.404 -0.1227  0.1216  0.0115
39748W        W48548   9.282   2.644  37.137  0.1190  0.2790  0.4586
39749W        W48549   8.231   2.602  43.066 -0.1199  0.1319  0.0667
39750W        W48550  11.514   4.826  20.234  0.2114 -0.2541  0.0740
39751W        W48551   1.219   2.836   6.677 -0.1919 -0.3203  0.2087
39752W        W48552  17.779   0.563   7.400  0.2925  0.2746  0.0447
39753W        W48553  17.158   2.613  12.758  0.0268 -0.1726  0.0051
39754W        W48554  14.396   6.027  44.661 -0.1318  0.0280  0.1333
39755W        W48555   9.616   3.135  15.401  0.2106  0.0505  0.0836
39756W        W48556   5.829   2.909  26.199 -0.2738  0.1243 -0.2569
39757W        W48557   3.976   2.905  44.901  0.0263 -0.0012  0.1045
39758W        W48558  21.053   5.747   4.175 -0.0374  0.0746 -0.0198
39759W        W48559  18.447   5.960   8.988  0.4045 -0.2496  0.1321
39760W        W48560  15.877   2.391   1.331 -0.0969  0.1535  0.4979
39761W        W48561  13.295   0.600  30.384 -0.2767  0.1195  0.0300
39762W        W48562  10.968   5.756  44.688  0.0535 -0.1578 -0.0045
39763W        W48563  18.791   5.915  13.654  0.1945 -0.1331 -0.4591
39764W        W48564  18.524   4.173  37.455 -0.2647 -0.0272 -0.1990
39765W        W48565  14.552   4.097  11.863  0.0061 -0.1813  0.0214
39766W        W48566   7.077   6.488  29.827  0.2534 -0.0735 -0.1552
39767W        W48567  19.397   4.562  42.866  0.1490  0.1839  0.0162
39768W        W48568  18.562   3.510  10.636 -0.0228  0.2131  0.1009
39769W        W48569  20.117   5.934   4.125 -0.0694  0.0161 -0.0352
39770W        W48570  15.102   4.886   0.817 -0.0649  0.1044 -0.0756
39771W        W48571   6.520   1.703  15.897  0.2315 -0.2502  0.0902
39772W        W48572   1.691   4.740  16.472 -0.1088 -0.1875 -0.1323
39773W        W48573  12.923   2.636  39.772 -0.2702 -0.2365 -0.0984
39774W        W48574   6.978   4.949   8.139  0.0499  0.2903 -0.4281
39775W        W48575  21.046   0.146   1.498 -0.0572 -0.0387  0.1714
39776W        W48576  11.201   4.518   1.854 -0.2303 -0.1082 -0.0804
39777W        W48577   8.220   5.301  44.064  0.0283  0.0734  0.0501
39778W        W48578  17.846   1.010  18.088  0.0982 -0.0302  0.2193
39779W        W48579  11.314   6.512   9.930  0.2124  0.1159  0.0133
39780W        W48580   6.629   2.105  10.438 -0.2154 -0.0527 -0.4182
39781W        W48581   6.030   5.761  44.687  0.0180 -0.1012 -0.0543
39782W        W48582   0.259   5.020  42.508  0.3607  0.0282  0.1424
39783W        W48583  10.549   0.439   2.004 -0.2872  0.0228 -0.0586
39784W        W48584  19.636   2.148  16.152 -0.0132  0.1259  0.0949
39785W        W48585  16.155   1.255  40.841 -0.0488 -0.0263  0.0957
39786W        W48586  10.735   2.920  39.643 -0.1007  0.1688  0.1417
39787W        W48587  10.848   6.322   6.687  0.2910 -0.0961  0.0361
39788W        W48588  12.309   5.166   1.020  0.1666  0.0134 -0.1190
39789W        W48589   3.139   6.533  42.752  0.1757 -0.0352 -0.0622
39790W        W48590  11.562   4.259   4.722 -0.0334  0.2850 -0.0780
39791W        W48591   4.702   6.395  13.093 -0.0948 -0.1634  0.1275
39792W        W48592   0.959   2.040   1.098 -0.0902 -0.0945 -0.0333
39793W        W48593  20.144   2.723   5.679 -0.1771  0.0617  0.0662
39794W        W48594   1.010   4.795  31.565  0.1009  0.1210  0.0433
39795W        W48595   5.579   1.707   1.678  0.0108 -0.1740 -0.2798
39796W        W48596   8.111   0.697  38.629 -0.3880 -0.2733  0.2034
39797W        W48597  12.178   6.314  15.790 -0.1459 -0.2457  0.2566
39798W        W48598  10.996   5.646  19.259 -0.1658  0.0113 -0.0255
39799W        W48599   3.203   4.199   1.208 -0.0984 -0.2278  0.1106
39800W        W48600  13.470   0.471  44.807 -0.0636  0.0037  0.3126
39801W        W48601   1.961   0.409  25.868  0.1240 -0.2134  0.0893
39802W        W48602   0.333   2.310  43.832 -0.0805  0.2140 -0.0577
39803W        W48603   9.478   1.058  32.661 -0.1102  0.0111 -0.1629
39804W        W48604   2.745   4.935  35.276  0.4099  0.0657 -0.0834
39805W        W48605   0.238   1.633   5.985 -0.3169  0.1064 -0.2559
39806W        W48606   1.503   1.896   8.617 -0.0119 -0.2168  0.0139
39807W        W48607  13.578   5.095   9.700 -0.0390  0.1396  0.2948
39808W        W48608  15.998   0.101  40.043  0.1735  0.2271 -0.1418
39809W        W48609  15.349   4.053  21.351 -0.2149 -0.0957  0.0717
39810W        W48610   3.645   6.332  15.189 -0.1492 -0.4975 -0.0042
39811W        W48611   7.802   1.312   2.449  0.2334  0.1055 -0.0707
39812W        W48612   8.553   2.190  37.398  0.0474 -0.0656  0.1641
39813W        W48613  10.004   1.789  40.016  0.2115  0.1410 -0.1398
39814W        W48614   0.257   4.905   8.887  0.2301  0.1367 -0.0627
39815W        W48615  20.727   5.254  13.631 -0.1674  0.1041 -0.1385
39816W        W48616  13.707   0.600  32.178  0.3014 -0.3627 -0.0576
39817W        W48617   4.554   4.426  37.038  0.0176  0.0462  0.1297
39818W        W48618  17.294   1.973   9.740 -0.0694 -0.0080 -0.2057
39819W        W48619  13.776   2.619  14.904  0.0883 -0.0243 -0.1602
39820W        W48620   3.901   0.995  33.306  0.2405  0.3788  0.1024
39821W        W48621  10.583   3.278  37.074 -0.0564 -0.1811 -0.0400
39822W        W48622  19.455   3.477   4.129  0.1244  0.0808 -0.1138
39823W        W48623  18.247   5.937  17.560  0.1243 -0.2074  0.4105
39824W        W48624  10.381   1.748  34.727  0.0648 -0.0639  0.1241
39825W        W48625  16.055   6.292  15.889  0.0100  0.0837 -0.1264
39826W        W48626  14.198   5.952  37.140 -0.0679 -0.1929 -0.1319
39827W        W48627   3.564   3.902  32.265 -0.0312 -0.0628  0.0790
39828W        W48628   9.017   3.619  40.118  0.2499 -0.2054  0.0423
39829W        W48629   4.495   5.445  22.616 -0.3327 -0.1886  0.1148
39830W        W48630   4.460   5.394  15.204 -0.3306  0.0208 -0.0280
39831W        W48631  17.571   5.094  39.327  0.0350  0.0878  0.1771
39832W        W48632  11.286   1.065  21.536  0.1509 -0.0730 -0.1008
39833W        W48633  17.757   2.690  42.019  0.0252 -0.1238 -0.0004
39834W        W48634   3.337   2.539   9.806 -0.1206  0.0815 -0.0640
39835W        W48635   7.594   3.781   3.345  0.1151 -0.1179  0.0865
39836W        W48636  13.166   4.020  41.107  0.0136  0.1499  0.0494
39837W        W48637   1.626   3.393  25.654  0.0558  0.1208  0.1390
39838W        W48638   4.571   0.535   0.799 -0.0848  0.2521  0.2226
39839W        W48639   4.308   1.253  24.664 -0.1313 -0.0634 -0.0844
39840W        W48640  20.492   2.415  26.680  0.0393  0.0317  0.3834
39841W        W48641  17.195   5.125  10.058  0.1590  0.1954  0.0279
39842W        W48642   0.906   1.973  30.648 -0.2618 -0.1979  0.0728
39843W        W48643  12.939   3.210   1.249 -0.1129  0.0358  0.0552
39844W        W48644  14.026   2.012  31.922 -0.4721 -0.0714 -0.1790
39845W        W48645  11.574   5.071  28.370 -0.0360 -0.1001 -0.3744
39846W        W48646  10.336   6.025  17.448  0.0196 -0.0501  0.3190
39847W        W48647   1.396   0.658   2.425 -0.2524 -0.1489 -0.1893
39848W        W48648   8.063   5.420  38.258  0.0930  0.0248  0.2100
39849W        W48649   8.031   2.895  41.139  0.2684  0.0076  0.0036
39850W        W48650  13.210   1.554  20.895 -0.0701  0.2776  0.2110
39851W        W48651   5.746   0.938  34.001 -0.2329 -0.3407 -0.0938
39852W        W48652   0.155   0.570  26.138  0.0092  0.2987  0.0286
39853W        W48653   0.205   3.004  30.523  0.1459  0.0002 -0.2196
39854W        W48654  17.274   3.922   3.800  0.4751  0.1697  0.2190
39855W        W48655   5.362   4.947   4.012  0.2128 -0.1817 -0.1247
39856W        W48656  17.778   1.181  39.358 -0.1471 -0.2156 -0.0511
39857W        W48657   9.286   3.119  34.993 -0.0584 -0.0859  0.0799
39858W        W48658  17.640   0.718  43.244 -0.1900 -0.2152  0.1036
39859W        W48659  15.498   2.580   0.342  0.1176 -0.0608  0.3962
39860W        W48660   7.569   0.671  35.054 -0.0206 -0.2100  0.1081
39861W        W48661   4.098   3.335  19.294  0.2239 -0.0573 -0.0914
39862W        W48662  19.880   4.318   7.095 -0.0829  0.0212  0.3106
39863W        W48663  16.025   0.637  20.071  0.0882  0.0470  0.0420
39864W        W48664  12.079   5.282  19.909 -0.0568 -0.1177  0.0255
39865W        W48665   3.291   6.023  28.377 -0.2018  0.0330  0.1134
39866W        W48666   3.444   3.935  13.331  0.0833 -0.2966 -0.1130
39867W        W48667  14.076   2.842  33.351 -0.0910  0.1741 -0.1574
39868W        W48668   0.621   1.673   1.071 -0.1722  0.0356 -0.0370
39869W        W48669  14.054   2.306  28.854  0.1608  0.0596 -0.2790
39870W        W48670  19.583   5.822   9.813  0.0942  0.0803 -0.0212
39871W        W48671  14.208   6.020  20.380 -0.1573 -0.2195  0.0335
39872W        W48672  11.091   3.526   9.204 -0.4845 -0.0517 -0.2051
39873W        W48673   2.522   2.602   3.655 -0.1305 -0.1934  0.4093
39874W        W48674  11.545   3.588  19.659  0.1298  0.1710  0.1515
39875W        W48675  10.583   2.130  11.317  0.1849 -0.2582  0.1595
39876W        W48676   7.494   2.969  14.996  0.2095 -0.2003 -0.2145
39877W        W48677   2.476   0.059   5.866  0.0150 -0.3844  0.1549
39878W        W48678   7.404   0.613  33.715 -0.0100  0.0069 -0.2422
39879W        W48679   6.768   4.011   1.622  0.1385 -0.0700 -0.2196
39880W        W48680   3.251   3.840  40.649 -0.2467 -0.0538  0.0154
39881W        W48681   6.727   6.060  15.629 -0.1744  0.0505 -0.1527
39882W        W48682  14.292   0.651  45.001 -0.1908  0.1478 -0.3826
39883W        W48683  10.687   5.701  29.498 -0.1662 -0.0266  0.0852
39884W        W48684   1.027   3.596  31.493 -0.0573  0.0665  0.0919
39885W        W48685  20.015   4.611  16.328  0.1371  0.2201 -0.2054
39886W        W48686   0.439   5.821  30.695  0.1274  0.1469 -0.0173
39887W        W48687  20.878   4.563   7.876  0.4316  0.1087 -0.3472
39888W        W48688   1.377   2.459  10.716  0.0320  0.2932  0.2654
39889W        W48689  20.011   6.408   3.471 -0.1222 -0.1662 -0.1285
39890W        W48690  20.210   5.212   0.039 -0.0202 -0.1810  0.2455
39891W        W48691  18.195   5.061  41.139 -0.2402 -0.1274 -0.0537
39892W        W48692   7.198   4.350  33.410  0.1218  0.2206 -0.2656
39893W        W48693  16.506   2.071  15.326  0.2066 -0.0353  0.2949
39894W        W48694  16.580   1.436  16.101 -0.3361  0.2343 -0.0538
39895W        W48695   9.494   5.734  12.722  0.2089 -0.0455  0.1951
39896W        W48696   7.962   3.858  29.224 -0.0434 -0.2375  0.0586
39897W        W48697  11.731   6.135  20.268  0.0318 -0.1204 -0.0054
39898W        W48698   9.326   2.420  11.849  0.1832 -0.3577  0.2739
39899W        W48699   0.252   5.577  41.687  0.1588  0.0175 -0.0100
39900W        W48700   6.168   2.285  31.098  0.1080  0.1280 -0.1553
39901W        W48701   1.262   5.949   4.689  0.0460 -0.0219  0.0207
39902W        W48702  13.454   5.073  17.658  0.0401 -0.2265  0.1174
39903W        W48703  16.350   0.603  22.312 -0.0610  0.0416 -0.2525
39904W        W48704   3.277   0.759   3.453 -0.1419 -0.1976 -0.2775
39905W        W48705   1.772   1.733   6.146 -0.0502  0.0093 -0.0758
39906W        W48706  16.762   6.148   1.759 -0.0006  0.2310 -0.0102
39907W        W48707  13.619   3.485  16.331 -0.1036 -0.1850 -0.0245
39908W        W48708   6.116   6.062  35.364 -0.2124 -0.0735 -0.0214
39909W        W48709   5.885   5.222  33.246  0.1202  0.2272 -0.1681
39910W        W48710  20.561   0.941  45.141  0.4866 -0.0208  0.1155
39911W        W48711  18.500   5.558  10.113  0.0838  0.2106  0.1268
39912W        W48712   1.114   6.243  30.807 -0.0597  0.4486  0.2077
39913W        W48713  20.277   1.868  14.252  0.1112 -0.0577 -0.1182
39914W        W48714  20.114   3.724  27.669 -0.2478 -0.2484  0.2165
39915W        W48715   8.513   2.607  41.137  0.0043 -0.0391 -0.1592
39916W        W48716   1.801   4.299  31.312  0.2171  0.2628  0.0879
39917W        W48717  19.779   3.998  35.827  0.1612 -0.0277  0.1138
39918W        W48718  12.732   1.957  20.972  0.0657  0.0188 -0.1567
39919W        W48719  12.637   1.303  14.968 -0.0792 -0.0297  0.1265
39920W        W48720   7.028   0.162  13.638  0.3290  0.0521  0.4110
39921W        W48721  13.087   4.493  42.834  0.1325 -0.0255 -0.1305
39922W        W48722   1.125   0.503   6.922 -0.0008  0.1317  0.1606
39923W        W48723  13.704   1.653  31.238  0.0617 -0.3722  0.0829
39924W        W48724   0.208   2.407   1.640  0.0102 -0.0214  0.0230
39925W        W48725  11.975   0.703  17.395 -0.0114  0.0506 -0.0597
39926W        W48726  13.910   4.812   9.460 -0.3565 -0.0572  0.2279
39927W        W48727  13.558   3.217   3.270 -0.1787 -0.0426  0.1145
39928W        W48728  14.199   5.559  17.322  0.0113 -0.0576  0.2441
39929W        W48729   0.677   4.713  13.428  0.0327  0.3536 -0.1817
39930W        W48730  12.439   4.242  41.555 -0.1174 -0.2096  0.1364
39931W        W48731  13.666   6.337  16.073 -0.2198 -0.3693 -0.1998
39932W        W48732  16.471   3.786  40.681  0.2079  0.0011  0.3256
39933W        W48733   4.420   1.313  39.376 -0.1250 -0.0766 -0.0317
39934W        W48734   0.475   4.060  34.044 -0.1498  0.3151 -0.2007
39935W        W48735   3.574   5.913  41.475 -0.0203  0.1713  0.0205
39936W        W48736   4.811   4.457  31.247 -0.0515  0.1400  0.0026
39937W        W48737   4.099   3.023  13.802 -0.0512 -0.0014 -0.2500
39938W        W48738   9.790   6.134  39.186 -0.0434  0.0627  0.3242
39939W        W48739  16.446   6.575   4.302 -0.0036  0.2229  0.0406
39940W        W48740  13.675   1.400  44.999 -0.0419  0.1638  0.2257
39941W        W48741  13.719   0.689  11.248  0.1073 -0.2287  0.0761
39942W        W48742   5.444   3.163   2.808  0.0763  0.0144  0.0625
39943W        W48743   9.906   6.023  36.167  0.0543  0.0939 -0.1665
39944W        W48744  12.355   2.612  36.377 -0.0190 -0.2253  0.2191
39945W        W48745   5.318   0.243  28.870  0.0495  0.0951  0.3372
39946W        W48746   0.111   3.248   9.412 -0.0529  0.2123  0.1586
39947W        W48747   6.147   3.801  25.121 -0.1833  0.3935  0.2480
39948W        W48748   2.636   4.583  41.997  0.1993 -0.1992 -0.1398
39949W        W48749  10.264   1.948   2.967  0.0204 -0.1603 -0.0533
39950W        W48750  21.006   5.536  10.052  0.4297  0.0072 -0.1143
39951W        W48751   5.294   2.307  34.705 -0.0608 -0.1620 -0.0235
39952W        W48752  13.315   1.245  31.222  0.0435  0.1332  0.1445
39953W        W48753  18.632   1.846   5.817 -0.0574 -0.4053  0.4143
39954W        W48754  18.489   4.962   3.724 -0.0003 -0.2066 -0.1088
39955W        W48755  15.926   5.995  14.288 -0.0658 -0.0170 -0.0628
39956W        W48756   1.981   3.824  27.669 -0.1000 -0.1263  0.1903
39957W        W48757  11.768   1.644  33.410 -0.0989  0.4024 -0.0988
39958W        W48758  12.023   1.889  42.532 -0.1079  0.1401  0.1920
39959W        W48759   2.531   2.117  15.803  0.1778 -0.0662  0.0995
39960W        W48760  18.914   3.536  10.232 -0.2090 -0.1026  0.0161
39961W        W48761   8.995   5.235  32.747 -0.1408 -0.1062  0.2240
39962W        W48762  15.743   1.052   8.056 -0.1651 -0.1561 -0.2397
39963W        W48763   8.035   0.315  32.945  0.1742 -0.0680  0.1710
39964W        W48764   8.195   3.232  44.809 -0.2959  0.0418  0.0706
39965W        W48765  15.500   0.048  14.429 -0.0408  0.0996  0.1460
39966W        W48766  13.353   2.532  23.950 -0.1535 -0.3159  0.1483
39967W        W48767   8.245   5.177  29.967  0.1192 -0.1096  0.0681
39968W        W48768   5.839   0.517  23.663  0.0661 -0.1727 -0.1271
39969W        W48769  11.642   6.077   6.398 -0.1883  0.1482  0.0736
39970W        W48770  16.716   5.238   7.727  0.2772  0.2650 -0.2793
39971W        W48771   3.999   0.641   9.455 -0.2480  0.1762 -0.1934
39972W        W48772   7.673   2.522  38.196 -0.1263 -0.0457 -0.0795
39973W        W48773   4.262   4.585   8.442  0.3289  0.0122 -0.1274
39974W        W48774  11.996   6.557  20.439 -0.0197 -0.3089 -0.0916
39975W        W48775   4.681   0.307  31.173 -0.3139  0.2091 -0.0237
39976W        W48776   0.649   1.621  33.601  0.1006  0.0280 -0.4615
39977W        W48777  17.842   6.493  33.561  0.0706 -0.0236  0.0432
39978W        W48778  11.297   2.635  18.746 -0.2509 -0.3259 -0.0974
39979W        W48779  17.905   5.497   3.218  0.1926  0.2058  0.0949
39980W        W48780  11.314   0.494  38.146  0.2555 -0.2706 -0.0810
39981W        W48781  15.349   4.301  19.377  0.2364  0.0861 -0.1542
39982W        W48782   2.116   6.469  15.088  0.0629 -0.1026  0.1700
39983W        W48783  11.635   2.722   3.297  0.1441 -0.1774 -0.0326
39984W        W48784  19.018   0.396   3.841 -0.0806 -0.1153  0.0205
39985W        W48785  13.933   5.451  15.151 -0.1139 -0.2984 -0.2996
39986W        W48786  20.997   0.272   6.835 -0.2643 -0.1319  0.1021
39987W        W48787   1.607   2.166  24.662 -0.0638 -0.2480  0.0913
39988W        W48788  15.703   1.860  37.476  0.2208 -0.1735 -0.0010
39989W        W48789  14.281   5.704  44.203  0.0473  0.0074  0.1427
39990W        W48790   3.277   6.292   3.640  0.2931 -0.0054  0.0405
39991W        W48791   7.425   6.096  31.742 -0.0206  0.0513 -0.1476
39992W        W48792   7.862   6.442  13.634  0.1293 -0.1758 -0.1323
39993W        W48793   3.816   5.964  24.357  0.0705 -0.1486 -0.3593
39994W        W48794  11.979   0.181  34.062  0.1311 -0.1072  0.1648
39995W        W48795  16.646   0.445  40.544  0.0552  0.2070  0.2436
39996W        W48796   4.843   4.746  23.004 -0.1191 -0.1528  0.1660
39997W        W48797  11.428   5.921  44.957 -0.0954 -0.0427  0.1602
39998W        W48798  11.890   1.910  35.193  0.1641 -0.1061 -0.0209
39999W        W48799   2.493   2.865  34.758  0.0064 -0.2546  0.0010
40000W        W48800  12.970   1.315  18.854 -0.2174 -0.0506 -0.0672
40001W        W48801  10.484   4.506  35.317 -0.3312 -0.0694 -0.1365
40002W        W48802  20.878   1.033  28.062  0.0040  0.1227  0.1259
40003W        W48803   5.222   2.129  26.225  0.2757  0.3999 -0.0919
40004W        W48804  11.523   4.352  31.483 -0.0216 -0.0457 -0.2906
40005W        W48805   2.690   0.007  30.383  0.0174 -0.4208 -0.0600
40006W        W48806   9.331   5.525  41.510  0.1389 -0.1246  0.0198
40007W        W48807   8.984   0.115  31.401  0.0566 -0.2233 -0.1305
40008W        W48808   3.251   5.106  40.786  0.3857  0.0094  0.0490
40009W        W48809   7.772   2.066  38.397  0.0007 -0.6163 -0.1347
40010W        W48810   0.237   5.236  33.983 -0.2099 -0.0262 -0.0484
40011W        W48811  18.945   1.176   7.287  0.0898  0.0100 -0.3610
40012W        W48812  20.199   4.786  35.852 -0.0147 -0.1706  0.1488
40013W        W48813   7.607   1.063  15.300 -0.0209  0.0227  0.0436
40014W        W48814  16.560   2.579  44.583 -0.0793  0.1346  0.1054
40015W        W48815   4.260   0.726  26.330 -0.0542 -0.1775 -0.0283
40016W        W48816   3.754   0.826  21.812 -0.3521 -0.2802  0.1523
40017W        W48817   3.461   0.049  11.005 -0.0565  0.0275  0.0083
40018W        W48818  16.272   5.441  36.101 -0.0656  0.1120 -0.3916
40019W        W48819   1.572   5.959   3.310  0.1536  0.0474  0.0099
40020W        W48820  18.020   4.153  12.911  0.0384 -0.1182  0.0183
40021W        W48821   1.926   6.107  13.515  0.2498  0.1009  0.0933
40022W        W48822   7.836   5.003  39.791  0.1043 -0.1928  0.0237
40023W        W48823  20.073   2.662  33.735  0.1637  0.3054  0.3260
40024W        W48824  19.978   4.736  33.281  0.2481  0.2189  0.0092
40025W        W48825  19.177   2.741  11.093  0.2322 -0.0359 -0.4775
40026W        W48826  12.964   0.519  12.919 -0.0389  0.1708  0.0764
40027W        W48827  12.457   1.846  19.666 -0.1588 -0.2135 -0.0885
40028W        W48828  16.567   0.272  40.032 -0.0168  0.2198 -0.1246
40029W        W48829  13.285   1.118  23.998 -0.2336 -0.2794  0.0753
40030W        W48830   2.330   5.332  44.999  0.2035  0.0782 -0.1488
40031W        W48831   8.383   6.233   6.562  0.0521 -0.2239  0.2603
40032W        W48832   5.750   4.718  22.730 -0.0997  0.0869 -0.1184
40033W        W48833  12.210   1.989  34.730 -0.1033 -0.1105  0.0248
40034W        W48834   9.960   0.247  36.780  0.1196  0.0324  0.0102
40035W        W48835   6.731   0.086  25.907  0.2632  0.0410 -0.0434
40036W        W48836  10.085   1.636   9.547 -0.1888  0.2280  0.0845
40037W        W48837   5.842   3.729  37.329 -0.0694 -0.2461 -0.0908
40038W        W48838   9.985   1.992  31.310 -0.0364  0.3149  0.2441
40039W        W48839  13.984   0.519  15.765 -0.0234 -0.0059 -0.0653
40040W        W48840  21.031   0.218   3.264 -0.0069 -0.0317  0.2855
40041W        W48841   6.958   5.090   9.267  0.3047  0.1756  0.0717
40042W        W48842  12.258   0.061   9.875  0.0416 -0.0838  0.2676
40043W        W48843   5.204   4.674   0.633  0.0298 -0.0794 -0.1816
40044W        W48844  20.202   2.517   0.245 -0.0385 -0.1543 -0.1154
40045W        W48845   1.372   2.397  40.166 -0.1598  0.0762  0.1621
40046W        W48846  18.794   0.157  16.606 -0.3228  0.0058  0.3459
40047W        W48847  11.939   2.400  44.887  0.0721  0.1183  0.1908
40048W        W48848   0.864   6.286  11.909 -0.0603  0.4682  0.0688
40049W        W48849  18.955   1.180   1.691  0.0903 -0.0726  0.1417
40050W        W48850  19.987   1.383   5.688 -0.0616 -0.0622  0.0514
40051W        W48851  10.640   2.333   7.783  0.2043 -0.1744  0.1968
40052W        W48852  12.699   3.595  13.972  0.1778  0.3722 -0.1304
40053W        W48853  17.486   0.816  32.527  0.3320  0.1120  0.3897
40054W        W48854   3.307   0.608   7.603 -0.0196 -0.0694  0.1418
40055W        W48855   4.430   6.027  26.323 -0.1890  0.0366 -0.0675
40056W        W48856  12.878   1.053   8.053  0.1423  0.0124 -0.0026
40057W        W48857  18.140   1.283  17.381  0.2089 -0.2348 -0.0706
40058W        W48858  16.718   3.741  18.846 -0.1339 -0.0651 -0.2253
40059W        W48859  18.900   1.568   6.779  0.3225  0.3114  0.0608
40060W        W48860  11.350   6.298  14.850 -0.2502  0.1952 -0.0206
40061W        W48861   0.007   4.138  25.791  0.0860 -0.1736  0.0242
40062W        W48862  12.492   3.501  39.181  0.0034  0.0413  0.0190
40063W        W48863  13.512   4.513  22.221 -0.0331 -0.2910  0.0509
40064W        W48864   2.155   4.092  24.597 -0.0210 -0.3808 -0.3492
40065W        W48865   2.047   5.624  31.190  0.0482  0.0533  0.2897
40066W        W48866  10.321   4.668   4.684 -0.4953  0.1842  0.0071
40067W        W48867  10.294   4.927  13.879  0.4097  0.2940 -0.0419
40068W        W48868   1.458   4.711   9.615  0.0577  0.0284 -0.1894
40069W        W48869  15.225   6.243  10.382 -0.4717  0.1609  0.1353
40070W        W48870  14.119   6.535  18.725 -0.0529  0.0450 -0.2157
40071W        W48871   6.931   0.354  40.920  0.2852 -0.2365 -0.0878
40072W        W48872  10.450   3.768  34.635 -0.1114 -0.0118  0.0743
40073W        W48873  20.653   6.236  30.146  0.0143 -0.1546  0.4270
40074W        W48874  13.865   0.327  12.968 -0.3001  0.1435 -0.3200
40075W        W48875  19.871   5.226  39.561  0.1850  0.0672  0.1090
40076W        W48876  15.507   0.891  20.489 -0.1547  0.0386 -0.2328
40077W        W48877  17.275   4.771   2.717 -0.2154 -0.2100 -0.0042
40078W        W48878  17.265   6.094  36.999 -0.1131  0.0320 -0.0499
40079W        W48879  13.913   0.631  36.989  0.2429  0.0221  0.0656
40080W        W48880  13.712   4.398  37.773 -0.1710  0.3093  0.0005
40081W        W48881   8.785   5.759   4.932 -0.1567  0.1798 -0.1004
40082W        W48882   2.806   3.098  40.543  0.0506  0.0283 -0.4533
40083W        W48883  15.947   3.066  13.140 -0.0380  0.1067 -0.1626
40084W        W48884  19.019   6.544  14.142  0.0696 -0.1641 -0.2906
40085W        W48885  15.442   5.741  34.742  0.1981  0.3242 -0.3533
40086W        W48886   9.663   3.741  31.241  0.1441  0.0637  0.2326
40087W        W48887  10.317   6.191  18.934  0.1144  0.0169 -0.0745
40088W        W48888   0.542   4.185   2.437  0.0358  0.3627 -0.3797
40089W        W48889   3.610   6.475  35.992 -0.0882  0.0678 -0.0112
40090W        W48890   0.678   0.358   1.225  0.2766  0.0264  0.1030
40091W        W48891   5.856   5.392  40.305 -0.2288  0.1420  0.1063
40092W        W48892  14.573   3.762  33.577 -0.4490  0.0164 -0.2581
40093W        W48893  20.647   2.758  42.698 -0.0328 -0.0018 -0.2829
40094W        W48894   7.959   4.823  15.845  0.3625  0.3262 -0.1420
40095W        W48895   8.320   0.964  37.285  0.0275 -0.2179  0.2275
40096W        W48896  10.659   3.246  11.257  0.3899  0.2183 -0.2040
40097W        W48897   4.392   5.288  41.867 -0.1423 -0.0964 -0.0278
40098W        W48898   6.941   3.279  35.722  0.3370 -0.2024 -0.0821
40099W        W48899  17.622   2.366  33.066 -0.0702  0.0309  0.0361
40100W        W48900  12.223   1.398  44.051  0.2156  0.0083 -0.0988
40101W        W48901  19.671   6.467   8.196  0.0245  0.0019 -0.2373
40102W        W48902   9.782   6.399  34.405  0.3590  0.2149 -0.2485
40103W        W48903  18.433   2.502   6.728 -0.3299  0.1402 -0.0922
40104W        W48904   0.522   0.580  42.309 -0.1328  0.0512  0.0213
40105W        W48905  19.701   4.907  30.745 -0.0874 -0.1823 -0.3517
40106W        W48906  12.495   2.537  43.551  0.1131 -0.2015  0.0507
40107W        W48907   2.727   6.362   6.593 -0.0511 -0.0988  0.1165
40108W        W48908  12.196   0.434   7.773  0.0585 -0.1012 -0.0848
40109W        W48909   1.309   0.807  24.830 -0.3043  0.1167  0.2488
40110W        W48910  18.068   1.096  28.650 -0.3080  0.2026  0.1191
40111W        W48911  18.067   6.377   7.785 -0.3636 -0.0924  0.1017
40112W        W48912  18.234   2.820   2.105  0.0231  0.0055 -0.0862
40113W        W48913   3.763   1.806  33.997  0.1206 -0.2424 -0.1346
40114W        W48914   7.976   0.980  36.445  0.0156  0.2677  0.1291
40115W        W48915   9.778   0.386  37.258 -0.2219  0.1073  0.0639
40116W        W48916  13.462   6.284  39.046  0.1688 -0.1377  0.1126
40117W        W48917   1.881   0.249  38.406 -0.0667  0.0420  0.1131
40118W        W48918  19.176   6.177  18.409 -0.3696  0.2645 -0.1994
40119W        W48919  19.751   6.431   8.916  0.0592 -0.0273 -0.1600
40120W        W48920  20.445   1.347  44.769  0.3187  0.3437 -0.0255
40121W        W48921  14.985   1.348   4.161  0.0558 -0.3054 -0.3821
40122W        W48922  18.533   4.838  41.518  0.0424 -0.2207 -0.1105
40123W        W48923   7.308   4.519   2.591  0.1511  0.2600 -0.0544
40124W        W48924  15.254   4.742  39.265  0.1976  0.0316  0.1873
40125W        W48925   4.878   4.299   3.450 -0.0376 -0.3171  0.0310
40126W        W48926  10.153   4.561   0.130  0.0680  0.2060  0.0489
40127W        W48927  10.830   2.700  33.643  0.0396  0.0299  0.1649
40128W        W48928  15.095   2.179  44.579  0.2398 -0.0403 -0.0911
40129W        W48929  12.772   3.805  45.140  0.0835 -0.1161  0.2850
40130W        W48930  17.781   1.145  32.175  0.0536  0.0864 -0.3539
40131W        W48931   2.006   5.802   9.317  0.0008 -0.2778  0.0236
40132W        W48932  12.637   2.877   9.823  0.1416 -0.1739 -0.1722
40133W        W48933  20.651   3.241  39.469 -0.3501 -0.2273  0.0602
40134W        W48934  11.855   2.440  28.843 -0.2787  0.3418 -0.1295
40135W        W48935   8.497   3.251  33.650 -0.1665 -0.3379 -0.0923
40136W        W48936  18.682   1.953  31.122 -0.0583  0.3297 -0.2941
40137W        W48937   1.663   2.694  27.115  0.2083  0.0425 -0.0013
40138W        W48938  11.859   5.676  34.086 -0.0109  0.0203 -0.1050
40139W        W48939  10.609   1.197  36.135  0.0820  0.2090 -0.5148
40140W        W48940   0.781   1.940  10.312  0.3400  0.0009  0.1751
40141W        W48941   6.627   5.718  26.192  0.1032  0.0670  0.1159
40142W        W48942  10.239   3.237  10.953 -0.0059 -0.0723 -0.3754
40143W        W48943   9.739   3.945   2.409 -0.0682 -0.1810  0.0256
40144W        W48944   8.114   1.658  14.297 -0.0407  0.1926  0.1092
40145W        W48945  13.886   2.734  39.962 -0.2787  0.1264  0.0796
40146W        W48946  19.103   3.653  43.738 -0.1278 -0.0247 -0.2243
40147W        W48947  16.628   5.587  43.585  0.2990 -0.0602  0.0881
40148W        W48948   9.756   0.774   5.788 -0.2991  0.0355 -0.4336
40149W        W48949  16.140   0.077  20.570  0.2132  0.1472  0.0490
40150W        W48950  16.322   3.204   4.015 -0.0519 -0.0783 -0.0404
40151W        W48951   2.966   6.245  24.199 -0.0169 -0.0787 -0.1602
40152W        W48952   7.139   2.430  42.043  0.1741 -0.4033  0.2993
40153W        W48953   6.972   6.354  29.319 -0.4935 -0.2286  0.1738
40154W        W48954   9.257   1.600   1.075 -0.3390 -0.0503  0.0687
40155W        W48955  12.870   0.640  43.182  0.0652 -0.1280 -0.3259
40156W        W48956  20.636   2.242  41.867  0.0361 -0.1283 -0.1327
40157W        W48957  11.115   4.471   2.327  0.1939  0.1883  0.1221
40158W        W48958   5.585   3.288  10.506 -0.1987  0.1449 -0.0585
40159W        W48959   6.902   2.363   7.007 -0.1295 -0.2766 -0.0542
40160W        W48960   6.952   6.071  27.323 -0.2585  0.0655 -0.1199
40161W        W48961  11.538   2.483   7.770 -0.0367 -0.0370 -0.1508
40162W        W48962   7.321   0.517  13.892  0.0731 -0.0512  0.2634
40163W        W48963   4.347   3.844  13.822 -0.1404  0.1800  0.2078
40164W        W48964   9.429   6.436  42.009  0.2498 -0.2266  0.0797
40165W        W48965   4.965   6.110  39.636 -0.0507 -0.1246 -0.4472
40166W        W48966  15.805   3.564  18.008  0.2173 -0.0615  0.0818
40167W        W48967   3.126   6.098  10.501  0.1275 -0.0258 -0.0688
40168W        W48968   4.119   4.807  23.621 -0.0974 -0.2990 -0.0934
40169W        W48969   5.343   5.531  40.276  0.1911 -0.0996 -0.0310
40170W        W48970   7.180   1.544  28.807 -0.2346  0.1473 -0.2572
40171W        W48971   1.381   2.038  39.625 -0.1835 -0.1370  0.2116
40172W        W48972  15.815   5.674  38.871  0.0447 -0.2430 -0.1833
40173W        W48973  18.484   3.875   4.914  0.0088 -0.0297 -0.1733
40174W        W48974   7.899   6.546   3.590  0.2817  0.3006 -0.0154
40175W        W48975   5.512   6.185  26.977 -0.1163 -0.1082 -0.2482
40176W        W48976  15.718   2.787   9.655  0.1635  0.2212  0.1456
40177W        W48977  16.683   0.174  30.058  0.1717 -0.0802 -0.3145
40178W        W48978  16.054   3.020  18.599  0.1639  0.0833  0.0471
40179W        W48979  20.799   3.486  44.194  0.1626 -0.0153 -0.1475
40180W        W48980  20.926   1.424  16.065  0.1052 -0.1516 -0.1077
40181W        W48981  12.440   2.185   2.327 -0.1952 -0.2478 -0.6510
40182W        W48982   7.385   2.807  10.670  0.0912 -0.0562 -0.0395
40183W        W48983   8.975   2.177  14.547 -0.0561 -0.0078 -0.2297
40184W        W48984   3.115   4.617   6.808  0.2399  0.0551 -0.1601
40185W        W48985   6.861   5.210  32.306 -0.0876  0.1874  0.4189
40186W        W48986  12.894   1.422  12.629  0.4148 -0.0980 -0.3466
40187W        W48987  15.664   3.723  11.266 -0.1178 -0.0013 -0.2298
40188W        W48988  13.053   0.444   4.304  0.2098  0.1243  0.0258
40189W        W48989  19.081   2.151  30.316 -0.1067 -0.2819  0.0036
40190W        W48990  13.950   1.064  23.066 -0.0291 -0.0896 -0.3019
40191W        W48991   3.600   5.750   2.950 -0.3892 -0.1351  0.2042
40192W        W48992   6.530   1.852   2.786 -0.2263  0.2492 -0.2132
40193W        W48993   5.690   4.679  37.663  0.0204 -0.0330  0.1685
40194W        W48994  19.661   5.084  14.272 -0.0091  0.0079 -0.1538
40195W        W48995  20.021   2.483  26.835  0.3469  0.1982 -0.3134
40196W        W48996   6.750   3.465  38.465 -0.1122  0.0335 -0.0141
40197W        W48997  14.169   1.997  39.376  0.2092  0.1131  0.1593
40198W        W48998   7.023   1.039  44.271 -0.0142 -0.2097  0.1028
40199W        W48999   1.824   6.242  24.525 -0.1710 -0.0949 -0.1191
40200W        W49000   8.173   1.229   7.581 -0.0262 -0.0178 -0.1226
40201W        W49001   9.520   6.064  36.616 -0.3164 -0.3042  0.0651
40202W        W49002   7.833   5.081  38.934  0.0109 -0.1385 -0.1516
40203W        W49003   6.966   1.547  32.721 -0.0055 -0.0729  0.0327
40204W        W49004   4.523   4.908  41.559  0.0414 -0.2038 -0.2651
40205W        W49005   3.387   4.560  15.908 -0.0624  0.0591  0.2865
40206W        W49006  12.293   2.461  11.424  0.1302 -0.0128  0.2070
40207W        W49007   0.917   1.339  29.779  0.0083  0.0813 -0.0675
40208W        W49008   1.905   0.602  34.802  0.2828 -0.0944 -0.0098
40209W        W49009  13.160   2.231  32.946 -0.0590 -0.2992 -0.1695
40210W        W49010   8.727   3.903  43.451  0.1742 -0.0349  0.0986
40211W        W49011   4.753   5.278  21.473  0.4876 -0.0527  0.1175
40212W        W49012  12.017   3.119  43.750 -0.0784  0.0856 -0.0494
40213W        W49013   2.535   3.134  34.343  0.0590  0.0174  0.2116
40214W        W49014  15.347   5.914   2.575 -0.1442  0.1922 -0.1784
40215W        W49015  10.436   0.609  11.048 -0.1046  0.0751  0.2981
40216W        W49016   0.794   4.443  26.456 -0.0400 -0.2288 -0.0594
40217W        W49017  12.672   0.488  35.802 -0.1265 -0.1397 -0.1166
40218W        W49018  20.205   3.997  38.750  0.1516 -0.1531  0.1702
40219W        W49019   1.689   2.692  24.531 -0.1767  0.0574  0.1871
40220W        W49020  20.737   0.468  31.509  0.2421  0.0056 -0.2394
40221W        W49021   4.562   3.621   4.634  0.0623  0.1716  0.0243
40222W        W49022  12.162   4.839  35.142  0.2197  0.0236 -0.4368
40223W        W49023  14.536   1.180   8.847  0.0383 -0.1597  0.3556
40224W        W49024  17.607   5.357  16.829  0.0207  0.0540  0.0143
40225W        W49025  14.051   1.522  13.397 -0.0401 -0.1087 -0.0841
40226W        W49026  13.569   5.865  34.542 -0.1586 -0.0605  0.0777
40227W        W49027   7.659   4.315   3.744 -0.0507 -0.0534 -0.0060
40228W        W49028  13.609   3.096  12.371 -0.0700 -0.2863 -0.0625
40229W        W49029  19.586   4.792  40.878 -0.0068  0.0652  0.1321
40230W        W49030   4.335   1.574  30.925 -0.1252 -0.2274 -0.2144
40231W        W49031   6.742   1.107  29.403 -0.0546  0.0230  0.0940
40232W        W49032   1.294   2.950  10.959 -0.1451  0.0522 -0.0360
40233W        W49033   5.797   1.332   3.928 -0.1678  0.0822  0.1928
40234W        W49034   6.008   2.974   4.807 -0.1211 -0.0485 -0.2536
40235W        W49035  17.012   1.167   5.939  0.1332 -0.2438  0.0951
40236W        W49036   8.753   1.521   8.765  0.2097  0.1887 -0.1807
40237W        W49037   0.846   0.642   0.176  0.3441 -0.0619  0.2282
40238W        W49038  14.094   4.197  21.445  0.1111 -0.1037 -0.2751
40239W        W49039   3.759   4.664   8.789 -0.1508  0.0622 -0.0418
40240W        W49040  18.239   5.634  11.862 -0.1227 -0.0583 -0.0170
40241W        W49041  18.401   6.327  30.429  0.0497 -0.2564 -0.1474
40242W        W49042  16.736   6.369   8.268  0.1641 -0.2090 -0.0289
40243W        W49043   9.271   0.453  36.213  0.0984  0.1194  0.1847
40244W        W49044   4.456   2.982   1.212  0.0240 -0.1819 -0.0137
40245W        W49045  17.852   1.242  33.689 -0.1519 -0.1476 -0.0501
40246W        W49046   9.066   1.291  33.443  0.1242  0.0193 -0.2502
40247W        W49047  14.146   2.151  20.287  0.0522 -0.3506 -0.2088
40248W        W49048  16.459   1.040  38.791 -0.1324 -0.2650 -0.1580
40249W        W49049  10.962   6.052  15.145  0.3494  0.0100  0.0101
40250W        W49050  10.381   3.795   9.672 -0.2957 -0.1153 -0.0336
40251W        W49051   7.165   2.436  10.380 -0.2301 -0.3393  0.0801
40252W        W49052  19.762   4.600  17.422 -0.1654  0.0291  0.0941
40253W        W49053  15.389   1.874  36.628 -0.0913  0.1373 -0.0582
40254W        W49054  17.911   1.072  20.127 -0.0631 -0.0813 -0.0718
40255W        W49055  17.965   2.759  41.077  0.2034 -0.0376 -0.0267
40256W        W49056   5.899   5.563  23.170  0.0459 -0.0298 -0.1852
40257W        W49057   5.669   4.275  32.353  0.0688  0.0227 -0.0847
40258W        W49058  17.022   2.718  33.938  0.0813  0.2346 -0.1203
40259W        W49059  13.186   5.956  32.816  0.2165  0.0719 -0.1135
40260W        W49060  16.041   6.510  33.243  0.0325  0.0762  0.3098
40261W        W49061  13.842   0.822  44.904  0.1269  0.0091  0.2359
40262W        W49062   9.156   1.924  17.576  0.0934 -0.1373  0.2293
40263W        W49063   1.310   2.185  42.999 -0.1166 -0.0089  0.0231
40264W        W49064  20.599   1.707  11.099  0.1878 -0.3845 -0.1808
40265W        W49065   6.604   6.291   7.716 -0.0108  0.0446  0.1543
40266W        W49066   7.535   3.457  32.430 -0.0165  0.1460  0.1790
40267W        W49067   8.863   1.694  17.973  0.1400  0.0505 -0.0042
40268W        W49068   4.603   3.876  24.589  0.3160 -0.1955  0.1173
40269W        W49069  17.184   5.726  11.872 -0.0404 -0.2290 -0.0014
40270W        W49070   7.825   0.220  42.106 -0.3436  0.1131  0.2772
40271W        W49071   0.300   0.279  32.605  0.2375  0.1356  0.0298
40272W        W49072   3.934   3.099  12.749  0.1868  0.0133  0.0270
40273W        W49073   0.177   6.030   3.800  0.0074 -0.0893  0.1451
40274W        W49074  11.347   2.802  38.252  0.0223 -0.1868 -0.0537
40275W        W49075  16.761   0.868  41.657  0.0457 -0.0955  0.0264
40276W        W49076   0.991   3.870  25.641 -0.0502 -0.1176 -0.6441
40277W        W49077   2.591   4.174   5.380  0.1543 -0.0058  0.0083
40278W        W49078   3.332   2.315   1.996 -0.1209  0.1693  0.0316
40279W        W49079   2.776   4.480  27.623 -0.0496 -0.0672 -0.2873
40280W        W49080   1.951   5.184   2.069  0.0521 -0.1969  0.1175
40281W        W49081   7.787   6.135  34.082  0.1443 -0.1486 -0.0304
40282W        W49082  16.615   4.806  39.449 -0.2268 -0.1488  0.0598
40283W        W49083  12.367   2.349   3.640 -0.3384 -0.2065 -0.0151
40284W        W49084  13.063   1.313  23.467 -0.0995 -0.1008 -0.2125
40285W        W49085   7.458   0.744  10.279  0.0784  0.1535  0.0551
40286W        W49086   0.653   0.913  28.941 -0.0210  0.2007 -0.2356
40287W        W49087   6.029   3.886   4.434  0.0943 -0.0306 -0.3579
40288W        W49088  15.540   6.570  43.174 -0.0396  0.1085  0.2017
40289W        W49089  13.624   0.830  39.859 -0.0512 -0.2686  0.3773
40290W        W49090   6.061   0.855   3.716  0.1958 -0.0745  0.4415
40291W        W49091   2.945   1.073  26.440  0.1981 -0.1113 -0.0496
40292W        W49092   4.220   5.250   7.125 -0.0476 -0.0201 -0.1193
40293W        W49093   3.876   0.678  38.751 -0.1059  0.3357  0.1540
40294W        W49094   3.936   4.425   3.796  0.2223  0.1504 -0.1520
40295W        W49095   5.351   3.781   4.950 -0.0065 -0.0708 -0.1427
40296W        W49096  13.022   4.306  22.319  0.1693 -0.5335  0.2210
40297W        W49097  19.814   1.188  27.073 -0.0479  0.1981  0.1137
40298W        W49098  19.654   2.616  28.296  0.0425 -0.2688 -0.0593
40299W        W49099  15.814   0.393  43.864  0.2382  0.1628  0.0795
40300W        W49100   1.148   2.330  31.147 -0.2041  0.0845 -0.0588
40301W        W49101  18.875   4.104   5.175  0.1265  0.0325 -0.0771
40302W        W49102  14.740   1.500   2.973 -0.0094 -0.1346 -0.1229
40303W        W49103  11.462   1.769  19.348 -0.1286  0.0455 -0.0259
40304W        W49104  12.435   5.606  19.270  0.0048  0.1046 -0.0694
40305W        W49105  13.768   4.160  20.163  0.0036  0.2269 -0.0441
40306W        W49106  13.902   4.551  13.206  0.1006 -0.0609  0.1091
40307W        W49107   9.460   0.329  18.267  0.0520 -0.0724  0.1386
40308W        W49108   9.981   2.778  19.279  0.1905  0.1349 -0.2164
40309W        W49109  18.944   2.149   5.511 -0.1668  0.1303  0.1692
40310W        W49110  18.809   2.676   7.670  0.1791  0.1130  0.2213
40311W        W49111   4.514   4.923  34.097 -0.0962 -0.1039  0.1341
40312W        W49112  12.238   3.825  37.991  0.0130 -0.0934  0.0422
40313W        W49113   8.085   6.531   4.093  0.0519  0.0964  0.0063
40314W        W49114   4.679   2.311  12.004  0.2393 -0.3563  0.4139
40315W        W49115  16.455   0.295  41.023  0.0815 -0.2614 -0.1967
40316W        W49116   2.402   5.284  37.421 -0.2957 -0.3943 -0.1188
40317W        W49117   3.957   4.009  42.898  0.0344  0.0954  0.0154
40318W        W49118   4.878   4.816  32.945  0.0140  0.3429  0.0675
40319W        W49119  20.708   4.880   7.487 -0.0709 -0.0948  0.3443
40320W        W49120   0.856   2.248   9.381 -0.1843 -0.4079  0.2533
40321W        W49121   1.035   0.493  30.719 -0.0950 -0.1729 -0.0892
40322W        W49122  14.617   2.999  11.427 -0.0116 -0.0113  0.1840
40323W        W49123  12.001   6.456  29.290  0.1743  0.0878  0.1203
40324W        W49124  14.186   1.429   6.349  0.1304  0.0252  0.0889
40325W        W49125   2.252   6.605   3.243  0.2286  0.1757  0.0949
40326W        W49126   6.626   4.733  26.789  0.0619 -0.1312  0.4513
40327W        W49127   1.894   3.322  30.125 -0.2126  0.0268  0.1142
40328W        W49128   9.791   0.936  11.396  0.3822 -0.0810  0.0768
40329W        W49129  17.430   1.710  19.079 -0.0571 -0.4637 -0.1812
40330W        W49130   3.644   1.642   8.534 -0.2990 -0.0942  0.0827
40331W        W49131  16.870   2.249  44.773 -0.0127  0.0501  0.0918
40332W        W49132  12.144   4.524  13.932  0.2498 -0.2093 -0.0331
40333W        W49133  18.743   1.880  12.180 -0.1089  0.0499 -0.1817
40334W        W49134   5.094   1.840  29.752 -0.1114  0.3268 -0.0898
40335W        W49135  18.390   5.496  41.757  0.0360  0.0896 -0.2252
40336W        W49136  12.968   0.811  33.029  0.2087 -0.1182  0.1075
40337W        W49137   0.481   5.590  11.353 -0.0723 -0.2009  0.1996
40338W        W49138  14.193   2.294  10.334  0.1182  0.2205  0.3125
40339W        W49139  12.127   6.258  34.746  0.1129 -0.1935  0.0007
40340W        W49140  18.729   3.608  41.954 -0.1903  0.0368 -0.0197
40341W        W49141   3.510   1.528   3.060  0.1094 -0.2474 -0.1073
40342W        W49142   2.051   2.696  27.426 -0.0216 -0.0278 -0.1197
40343W        W49143  17.178   1.457   9.706  0.2602  0.1734 -0.1441
40344W        W49144  16.395   3.372  12.986 -0.0433 -0.0004 -0.0011
40345W        W49145   0.092   3.725  36.218 -0.0887  0.1330 -0.0445
40346W        W49146   1.851   4.455  29.498  0.1028 -0.1180  0.0114
40347W        W49147   7.403   3.454  27.441  0.1825  0.2592  0.4336
40348W        W49148   2.069   6.105  34.348 -0.0166  0.1860  0.2285
40349W        W49149  15.454   3.768  13.746  0.1869  0.1270 -0.2955
40350W        W49150   9.837   0.684   2.164 -0.0183 -0.3834  0.2367
40351W        W49151   1.359   0.666  39.423  0.1695  0.0554 -0.2285
40352W        W49152   3.175   1.338  10.761 -0.0464 -0.1007 -0.3731
40353W        W49153   5.644   0.384  31.822  0.4112 -0.0785 -0.1920
40354W        W49154   9.517   0.247  37.684 -0.1100 -0.4367  0.0988
40355W        W49155   1.370   4.107   2.537 -0.0503  0.2339 -0.0014
40356W        W49156   8.390   3.082  43.084  0.1086 -0.0203  0.0796
40357W        W49157  17.852   0.864  38.558 -0.0872  0.1308 -0.1021
40358W        W49158   9.000   1.711  29.438 -0.0194  0.0961  0.0595
40359W        W49159   6.731   1.958  33.795  0.0007  0.0635 -0.0918
40360W        W49160  11.699   5.385  21.502 -0.1700 -0.1874 -0.0965
40361W        W49161   4.115   5.125  39.749  0.1536  0.1720 -0.0785
40362W        W49162   7.152   0.880   8.429  0.2147  0.1234 -0.0331
40363W        W49163  20.245   0.001   2.463 -0.0257 -0.1269  0.0010
40364W        W49164   9.577   5.881   2.336 -0.1148  0.1117 -0.1122
40365W        W49165  20.128   3.078  11.789  0.2318 -0.1003  0.1036
40366W        W49166   8.820   0.539   4.072  0.0480 -0.3233  0.1430
40367W        W49167   1.789   0.309   5.714 -0.1607  0.1073 -0.2506
40368W        W49168  19.406   4.106  29.210  0.0757 -0.0280  0.0245
40369W        W49169  12.580   0.832  19.697  0.0920 -0.2225  0.0250
40370W        W49170   8.248   0.128  28.288 -0.1788  0.0005  0.1559
40371W        W49171   2.323   2.201  43.234  0.0673 -0.0645 -0.0559
40372W        W49172   9.947   4.286  28.394 -0.1184 -0.1001  0.0539
40373W        W49173  14.796   2.636  16.440  0.0694  0.0826 -0.1483
40374W        W49174   0.309   5.855  42.793  0.3058  0.1533 -0.1448
40375W        W49175  18.719   4.868  29.185 -0.0744 -0.0252 -0.3061
40376W        W49176  13.024   0.963   1.114  0.1895  0.0365  0.1342
40377W        W49177  12.068   0.546  32.957 -0.0089 -0.2404 -0.1108
40378W        W49178   2.248   3.831  13.075 -0.2211  0.1444 -0.0186
40379W        W49179   6.035   4.431   2.750 -0.1500 -0.1993 -0.1152
40380W        W49180   7.537   0.244  11.937 -0.1761  0.0272 -0.2684
40381W        W49181   2.447   5.406   6.101  0.1436  0.2316  0.1826
40382W        W49182   6.370   2.541  10.945  0.3845 -0.0560 -0.1238
40383W        W49183  10.902   0.028  27.891  0.1944 -0.0576  0.0627
40384W        W49184  13.379   1.157  19.714 -0.0991 -0.2846 -0.4469
40385W        W49185   8.243   0.103  37.863  0.0785  0.3943  0.5413
40386W        W49186   0.456   0.706  35.905  0.2605 -0.2172  0.1516
40387W        W49187  16.823   6.277  14.693 -0.2620  0.3735 -0.3048
40388W        W49188  17.751   3.711  33.925  0.0039 -0.2078 -0.0613
40389W        W49189   7.535   0.877  31.066  0.0374 -0.0486 -0.1471
40390W        W49190   8.960   3.709  13.670 -0.2999  0.0631  0.1854
40391W        W49191  18.157   0.124   9.892 -0.0093 -0.2398 -0.0317
40392W        W49192  11.399   3.930  13.322  0.1052 -0.0470  0.2053
40393W        W49193   5.474   2.093  16.478 -0.1352 -0.0509  0.3235
40394W        W49194   2.346   1.666  40.631 -0.1118  0.1239 -0.2270
40395W        W49195  18.384   3.366  39.179  0.1866  0.0261  0.0743
40396W        W49196  17.449   0.134  33.369 -0.0946  0.0341  0.1055
40397W        W49197  20.591   3.454   2.870  0.2235 -0.2141  0.4190
40398W        W49198   6.747   0.818  36.626  0.0520  0.3012 -0.0842
40399W        W49199   2.935   4.304  44.018 -0.0531  0.0139  0.1294
40400W        W49200  16.388   4.387  37.948 -0.0485  0.3873 -0.2110
40401W        W49201  11.997   5.865   2.846  0.1521  0.0059  0.1037
40402W        W49202   2.143   4.054  26.418 -0.3570 -0.0677 -0.1161
40403W        W49203  16.308   4.985  36.251  0.0251 -0.0274 -0.4005
40404W        W49204   8.131   2.397  26.931  0.0026  0.0608 -0.1554
40405W        W49205  17.889   0.145  17.057 -0.2213  0.1319  0.1261
40406W        W49206  17.848   4.151   9.495  0.1471 -0.0776  0.0325
40407W        W49207  13.470   5.512  41.048  0.0610  0.1486 -0.2598
40408W        W49208   0.082   2.595  40.993 -0.1019  0.1230 -0.1899
40409W        W49209  17.264   2.165  21.081  0.2434  0.1117 -0.0424
40410W        W49210   4.895   6.037  14.840 -0.1964 -0.2269 -0.0439
40411W        W49211  10.192   3.489  29.420 -0.0347  0.1645  0.1034
40412W        W49212   1.363   5.044  14.092 -0.1492 -0.2743 -0.1968
40413W        W49213   7.563   0.497  39.459 -0.0276 -0.1234  0.0315
40414W        W49214  13.635   0.430   7.986 -0.1395 -0.3271 -0.0542
40415W        W49215  19.935   6.014  13.257 -0.3432  0.2182 -0.2889
40416W        W49216   3.591   3.773   8.357  0.0381 -0.1032  0.0126
40417W        W49217   9.129   6.241  10.287 -0.0234  0.0347  0.2951
40418W        W49218  14.947   1.825  35.715 -0.2460  0.0908 -0.0938
40419W        W49219   2.400   5.165  43.472 -0.1716 -0.2025 -0.0346
40420W        W49220  15.307   0.163  38.388  0.0075  0.0666 -0.3290
40421W        W49221  12.571   2.925   8.438  0.0422  0.0614 -0.2450
40422W        W49222  20.489   0.525   4.888  0.1039 -0.0459  0.1245
40423W        W49223   3.483   5.584  21.957 -0.2625 -0.1492 -0.0496
40424W        W49224  18.150   3.679  13.800  0.1646  0.0681  0.0601
40425W        W49225   0.236   1.815   2.237  0.2834  0.2565  0.2756
40426W        W49226   7.616   5.248  44.228  0.1319 -0.1305  0.0525
40427W        W49227  19.167   1.491  33.368 -0.1139 -0.1658  0.0468
40428W        W49228   7.956   2.185  37.387  0.5522 -0.1561 -0.1986
40429W        W49229   6.862   2.898  44.473 -0.1345  0.0913 -0.3650
40430W        W49230   4.751   1.785   2.629  0.1455 -0.1812 -0.2093
40431W        W49231   2.876   3.639  23.564 -0.2400 -0.3417  0.1741
40432W        W49232  13.700   5.591  17.114 -0.2028 -0.0569  0.0565
40433W        W49233  17.491   2.443   4.027  0.0762  0.0821 -0.2002
40434W        W49234   8.123   1.032  29.713  0.0159  0.0400  0.2484
40435W        W49235  11.148   4.814  40.844 -0.1744 -0.0361 -0.0690
40436W        W49236   4.696   3.031  33.680 -0.0812  0.1911 -0.0357
40437W        W49237   2.861   0.948  10.083  0.2793  0.2003 -0.1462
40438W        W49238   5.894   3.267  11.728 -0.0239 -0.0202  0.0731
40439W        W49239   9.056   3.229   9.023  0.0324 -0.1012  0.2732
40440W        W49240   5.263   5.529  34.904 -0.2478  0.0612  0.0163
40441W        W49241   2.479   0.786  40.861  0.0242 -0.2409  0.2018
40442W        W49242   3.900   5.346  39.140 -0.1879 -0.3341  0.1074
40443W        W49243   7.295   3.639  38.335  0.0198  0.0820 -0.1514
40444W        W49244   3.357   5.327  25.232  0.2343 -0.1063 -0.1214
40445W        W49245   8.760   0.025  44.024 -0.1671 -0.0333  0.0244
40446W        W49246   2.772   2.222   0.570 -0.0872  0.0793 -0.1561
40447W        W49247  20.644   6.584   6.613  0.0402 -0.1196  0.0533
40448W        W49248   7.671   2.429   7.238  0.1890 -0.0833  0.1414
40449W        W49249   1.203   2.858  28.698  0.2971 -0.2171  0.0126
40450W        W49250  11.549   3.866  27.893  0.2498 -0.0866 -0.4406
40451W        W49251   3.472   4.314  14.189  0.0338 -0.1170  0.2614
40452W        W49252   1.389   0.638  15.587 -0.0030 -0.1365  0.2228
40453W        W49253   6.328   6.129  13.120 -0.0002 -0.0495  0.1776
40454W        W49254   8.326   0.077  32.174 -0.1892 -0.1668  0.0797
40455W        W49255  14.668   0.990  14.929  0.0093  0.0571  0.1921
40456W        W49256   7.408   3.721   4.300  0.1046 -0.1600 -0.1561
40457W        W49257  16.090   1.788  10.987  0.0299  0.2355  0.0645
40458W        W49258  13.401   4.048   3.582 -0.0616  0.0500 -0.0280
40459W        W49259  11.659   0.435  33.775  0.1131  0.1116 -0.0542
40460W        W49260   9.563   2.247  33.651  0.0717  0.0674  0.3199
40461W        W49261   6.312   3.347  33.264  0.1140  0.2944 -0.0176
40462W        W49262  12.622   4.103  39.709  0.1268 -0.0288 -0.0766
40463W        W49263   5.494   4.223   1.510  0.2461  0.2373 -0.0271
40464W        W49264  12.833   4.220   8.139  0.1768  0.1073 -0.2094
40465W        W49265  13.137   4.647  13.119 -0.3013 -0.0774  0.3080
40466W        W49266   4.037   0.921   6.276 -0.2040 -0.0142  0.1113
40467W        W49267  13.542   4.148  18.334 -0.0663 -0.0243 -0.2558
40468W        W49268   5.424   4.213  14.664  0.0482  0.0410  0.0906
40469W        W49269  11.064   6.380   1.892 -0.2664 -0.2020  0.0743
40470W        W49270   4.851   0.685  33.871 -0.0232  0.2667 -0.0742
40471W        W49271  14.773   0.364  29.582  0.1757  0.0537 -0.2645
40472W        W49272  13.222   4.296  17.977  0.0202 -0.2808 -0.0572
40473W        W49273  17.986   3.176  41.901  0.2005 -0.0297 -0.0794
40474W        W49274   1.552   0.009  27.153 -0.4070  0.2134  0.3130
40475W        W49275   5.513   0.138  40.084  0.0654  0.1250 -0.2632
40476W        W49276  20.193   5.072  26.474  0.1028 -0.3105  0.1676
40477W        W49277   9.757   3.798  15.253 -0.1041 -0.0270  0.0369
40478W        W49278   8.972   4.385  36.606 -0.0911 -0.0812  0.0037
40479W        W49279  10.590   3.024  16.572  0.2623 -0.0254  0.2800
40480W        W49280  14.445   0.067  41.460 -0.0884  0.1493  0.2280
40481W        W49281  20.231   2.610  37.213 -0.0234  0.1603 -0.3466
40482W        W49282  17.202   3.494  21.135  0.1570 -0.2892 -0.1004
40483W        W49283   2.545   5.710  29.933 -0.1187  0.0555 -0.0139
40484W        W49284  13.548   2.862  35.725  0.0798 -0.3147 -0.1238
40485W        W49285   4.751   4.054  42.537 -0.0879 -0.1405  0.1975
40486W        W49286  14.933   6.280   9.650 -0.2028  0.0603  0.0823
40487W        W49287  15.095   2.449  35.485  0.0444 -0.2373 -0.0856
40488W        W49288  20.069   4.575   5.059 -0.0423  0.3108  0.1753
40489W        W49289   0.582   3.177  11.655  0.0427 -0.0172  0.0470
40490W        W49290   5.286   3.540  24.682  0.0225 -0.0541  0.2559
40491W        W49291   4.253   1.307  32.258 -0.2583  0.3992  0.1036
40492W        W49292   5.968   5.826  31.482 -0.2569  0.0782 -0.0986
40493W        W49293   9.483   3.160   0.304 -0.0484 -0.0321 -0.1064
40494W        W49294  12.464   4.599  14.490  0.2379  0.1641 -0.2866
40495W        W49295   7.702   3.980   5.484  0.0079 -0.1996  0.2863
40496W        W49296  16.931   5.202  40.706 -0.0607  0.1079  0.1259
40497W        W49297   9.292   4.654  45.047  0.2231  0.0009 -0.0215
40498W        W49298  12.473   2.865  30.406 -0.1974  0.2559 -0.1749
40499W        W49299  15.595   2.499   3.870 -0.2426 -0.0490 -0.0087
40500W        W49300  18.932   4.664  16.199 -0.0537  0.0130  0.2591
40501W        W49301  17.678   3.072  27.903 -0.0295 -0.0216  0.0739
40502W        W49302   9.926   3.810   7.813  0.1562  0.0380  0.1069
40503W        W49303  11.041   0.806  39.535  0.0876 -0.2697  0.1833
40504W        W49304   5.821   5.641   3.274  0.0081  0.2791  0.0961
40505W        W49305   0.853   1.487  42.761  0.2527 -0.1182  0.0273
40506W        W49306   0.033   5.172  34.476  0.1288  0.3083  0.4016
40507W        W49307   4.526   3.584   6.663  0.1485 -0.1463  0.1998
40508W        W49308   8.251   6.159  28.417 -0.0042  0.1342 -0.1467
40509W        W49309   0.143   3.009  34.363 -0.1556  0.1779 -0.0694
40510W        W49310  12.724   2.598   5.166  0.2678  0.2495 -0.0667
40511W        W49311  12.368   1.748   0.275 -0.2215  0.2133  0.3791
40512W        W49312   1.352   3.533  34.010  0.1402 -0.0519 -0.1231
40513W        W49313   5.316   0.678  44.382 -0.1648  0.2490  0.0513
40514W        W49314   0.185   1.994   0.923  0.0420 -0.0284  0.0759
40515W        W49315   2.993   5.608  28.445 -0.2675 -0.1850  0.2691
40516W        W49316  15.141   5.797  20.759  0.1362 -0.1950 -0.3265
40517W        W49317  11.827   0.525  31.165  0.3008 -0.3569 -0.1862
40518W        W49318   0.530   6.385  23.906  0.2038  0.0838  0.0351
40519W        W49319  20.299   5.613  36.001  0.1003  0.0536  0.4305
40520W        W49320   0.122   2.734   5.298  0.2075 -0.0302 -0.1648
40521W        W49321   4.646   2.720  41.107  0.2356 -0.1478  0.1998
40522W        W49322   9.501   1.829   2.977 -0.2033  0.3042 -0.1732
40523W        W49323   3.792   0.326  39.810  0.0065  0.0158 -0.2773
40524W        W49324   7.910   4.433  32.281  0.0480  0.1336  0.1085
40525W        W49325   6.354   3.282   2.497  0.0750  0.1314  0.1793
40526W        W49326   6.966   4.117  34.105 -0.3095 -0.0728  0.1444
40527W        W49327  15.133   2.914  36.930  0.2829 -0.0841  0.1052
40528W        W49328   5.228   0.444   1.191  0.0085 -0.2280 -0.0854
40529W        W49329   0.232   4.422   9.059 -0.3305  0.1902  0.0012
40530W        W49330  10.959   2.261  17.163  0.0168  0.0948  0.2018
40531W        W49331   3.890   2.280   6.675  0.2512  0.0479  0.0333
40532W        W49332  18.795   5.059   7.193  0.3103  0.2753  0.0538
40533W        W49333  17.494   1.198   5.818  0.1012  0.1661 -0.1288
40534W        W49334   4.312   2.001  41.611  0.1654 -0.0516  0.1978
40535W        W49335   9.394   0.477  27.899  0.1310 -0.0858 -0.1263
40536W        W49336  17.823   6.366  31.081 -0.0063  0.0152 -0.1306
40537W        W49337   9.951   1.820   3.419  0.1723 -0.0977  0.0399
40538W        W49338  18.366   4.564   3.435 -0.0369  0.3836  0.1273
40539W        W49339  17.073   6.425  34.207  0.1675 -0.0552  0.0684
40540W        W49340   5.267   2.618  15.068  0.0325  0.1191 -0.1347
40541W        W49341   7.976   0.407  42.810  0.0940  0.0145 -0.3335
40542W        W49342   1.754   0.455  12.412 -0.3894  0.1066 -0.1463
40543W        W49343   3.190   5.311  41.844 -0.1142 -0.1739  0.1526
40544W        W49344  15.483   0.836  34.233  0.0376 -0.0751 -0.0831
40545W        W49345   4.022   5.520  12.918  0.1801  0.0730 -0.1558
40546W        W49346   7.261   5.427  12.249 -0.0314  0.1057  0.1453
40547W        W49347  18.071   3.229   9.232  0.1446  0.0529  0.2012
40548W        W49348   0.293   2.896   6.538 -0.0625  0.0203 -0.0518
40549W        W49349   8.289   4.870  27.922  0.0494  0.2103 -0.2495
40550W        W49350  12.706   4.226   0.880  0.3517 -0.1628 -0.1537
40551W        W49351   1.454   0.685  28.834 -0.1090 -0.1382  0.1692
40552W        W49352  14.602   3.148  44.494 -0.3882 -0.1098  0.1899
40553W        W49353  19.683   0.848  15.483  0.0516  0.1637  0.2278
40554W        W49354   6.900   1.102  44.755 -0.0278  0.4112  0.1311
40555W        W49355  19.556   5.645  40.962  0.2112  0.2915 -0.2461
40556W        W49356   2.108   5.643  28.488 -0.0658  0.0983  0.0904
40557W        W49357  13.036   3.099  20.621 -0.2882  0.1509 -0.0180
40558W        W49358  14.658   1.154  34.489 -0.0322  0.0465  0.0853
40559W        W49359   7.569   2.405  26.979 -0.0536 -0.0700 -0.1637
40560W        W49360   2.526   4.569  27.124  0.0108  0.2649  0.0256
40561W        W49361   4.724   5.504   0.628  0.0372 -0.1601 -0.2660
40562W        W49362   1.853   6.384  32.408 -0.1718 -0.0516  0.0528
40563W        W49363  15.028   2.089  32.786  0.2430 -0.1729 -0.0868
40564W        W49364  14.745   4.471  10.461  0.3904 -0.3828  0.0153
40565W        W49365   9.170   6.442   8.744  0.0155 -0.0895 -0.2859
40566W        W49366  12.125   1.615  42.909 -0.0517 -0.1998  0.0827
40567W        W49367  10.288   3.791  19.538 -0.1923 -0.1564 -0.1728
40568W        W49368   7.936   0.440  30.982 -0.1092  0.1709  0.1248
40569W        W49369  17.958   1.470  37.766 -0.0106  0.0120  0.1690
40570W        W49370   5.365   0.051  24.450 -0.3094  0.2371  0.2034
40571W        W49371   4.603   4.946  15.470 -0.0095  0.1173  0.0764
40572W        W49372  17.820   1.850  39.868 -0.1944 -0.0096 -0.0775
40573W        W49373   6.686   2.916  25.658  0.1560 -0.3483  0.0324
40574W        W49374  14.123   0.159  41.064  0.1984 -0.1608 -0.1364
40575W        W49375  13.308   1.684  12.508 -0.0929  0.3025  0.1394
40576W        W49376  13.451   3.656   4.764  0.3201 -0.1871  0.3494
40577W        W49377  19.584   2.437  14.544 -0.1246 -0.3228  0.0793
40578W        W49378  11.699   1.379  12.843 -0.2771 -0.2296 -0.0710
40579W        W49379  16.558   0.134   2.132 -0.1543 -0.0526 -0.1657
40580W        W49380  16.626   3.106   2.241  0.0708 -0.0967 -0.0257
40581W        W49381   1.403   5.991  11.793 -0.4077 -0.0032 -0.1514
40582W        W49382   4.720   3.012  43.436 -0.0503 -0.0682  0.3658
40583W        W49383   9.359   0.081   1.375  0.0444  0.1709 -0.0029
40584W        W49384   4.043   5.178  31.744  0.0026  0.2184 -0.1713
40585W        W49385   8.030   2.403  11.929 -0.2365  0.3197 -0.3134
40586W        W49386  19.655   5.992  39.874 -0.2381 -0.2734  0.2112
40587W        W49387  16.569   3.183  13.398  0.1383  0.1959 -0.0624
40588W        W49388   3.561   0.487  37.999  0.0200 -0.1815  0.0332
40589W        W49389  17.777   4.348  31.369 -0.0819  0.0004  0.3524
40590W        W49390  19.824   4.863   7.697 -0.1243  0.1029  0.2949
40591W        W49391   2.891   0.585  21.962  0.0214  0.2149  0.3848
40592W        W49392   6.670   3.908  32.486  0.1633  0.4168  0.0071
40593W        W49393  10.107   2.487  36.687 -0.0289  0.3291 -0.0962
40594W        W49394  10.738   4.291  11.296  0.0828 -0.0412  0.0928
40595W        W49395  20.670   0.783   2.126 -0.1858  0.2164 -0.0128
40596W        W49396  14.995   1.214   0.456 -0.1871 -0.0655  0.4198
40597W        W49397   6.703   0.775   8.609 -0.0502  0.2226 -0.0244
40598W        W49398   3.968   3.680  20.987 -0.0015 -0.2701  0.0207
40599W        W49399  18.168   2.686  13.460 -0.1921  0.2967  0.1041
40600W        W49400   3.793   5.554  44.674  0.3464  0.0434 -0.0638
40601W        W49401  17.686   2.715  44.858  0.2373  0.2313 -0.3189
40602W        W49402  17.684   2.803  41.547 -0.1290  0.0379  0.2152
40603W        W49403   4.679   1.554  34.554  0.1115 -0.1905  0.2321
40604W        W49404  19.751   4.619  19.069 -0.4130  0.2555 -0.1105
40605W        W49405  15.348   0.097  37.383 -0.1790  0.0310  0.3632
40606W        W49406  13.902   1.116  19.462 -0.1220 -0.1118 -0.0938
40607W        W49407   9.166   4.397   5.304 -0.1795 -0.1332 -0.1194
40608W        W49408  12.285   1.949  41.733  0.0114 -0.1199 -0.2517
40609W        W49409  18.880   4.200  36.188  0.0029  0.2815  0.3325
40610W        W49410  12.262   0.612  20.901 -0.1448  0.0970  0.0750
40611W        W49411   4.070   2.565  40.508  0.0983 -0.2082 -0.0614
40612W        W49412  14.211   0.998  43.656 -0.2647 -0.1132  0.1094
40613W        W49413  17.490   3.136  30.443 -0.1318 -0.0833  0.0270
40614W        W49414   4.871   4.287  12.989 -0.2365  0.2200  0.1313
40615W        W49415  15.344   1.855  13.165 -0.0399  0.0256 -0.0852
40616W        W49416   4.050   0.531  15.150 -0.0833 -0.1886 -0.0093
40617W        W49417  17.602   4.118  33.502 -0.0146  0.0230 -0.0685
40618W        W49418   2.567   0.233  44.451 -0.0821  0.0329  0.5826
40619W        W49419  13.203   6.196  29.149  0.0864  0.2873  0.0149
40620W        W49420  16.757   5.523   2.680  0.1676 -0.0829  0.0843
40621W        W49421  13.072   3.277   4.606 -0.0451  0.1737  0.3734
40622W        W49422   9.465   4.417  17.135 -0.5656 -0.1432 -0.2342
40623W        W49423  17.186   5.245  44.028  0.0201 -0.1615  0.1545
40624W        W49424   6.014   4.161  34.777  0.0134  0.1420  0.1422
40625W        W49425   7.819   4.854  12.600 -0.1897  0.3114 -0.1846
40626W        W49426  10.778   5.132  32.662 -0.0481  0.1482 -0.0640
40627W        W49427  14.143   6.420  34.226  0.0402 -0.1409  0.0126
40628W        W49428   0.231   0.062  29.539 -0.0101  0.0505  0.0726
40629W        W49429  16.144   5.002  20.136  0.0691 -0.3215 -0.1653
40630W        W49430  16.338   4.437  10.120  0.0548  0.4021 -0.1101
40631W        W49431  18.666   3.392   9.373 -0.0531  0.2532 -0.0881
40632W        W49432   9.873   1.648   5.664 -0.1024  0.2485  0.0136
40633W        W49433   5.815   3.040  40.624  0.0686  0.0232  0.0943
40634W        W49434   7.715   1.850   2.402  0.0609 -0.0567 -0.1348
40635W        W49435   2.680   4.362  22.299 -0.1454  0.1736  0.3123
40636W        W49436   0.457   3.154  15.886  0.2456  0.1994  0.1975
40637W        W49437   0.228   1.153  34.515 -0.0807 -0.2484 -0.2953
40638W        W49438  19.617   2.371  19.384  0.0730  0.0332 -0.3620
40639W        W49439  14.732   6.248  43.491  0.0264  0.1433  0.1250
40640W        W49440  11.178   5.376  38.252 -0.1556 -0.0491 -0.2202
40641W        W49441  17.589   3.807   1.152 -0.0385  0.2971 -0.1368
40642W        W49442   2.884   1.141   1.882 -0.1370 -0.0640 -0.0586
40643W        W49443  18.194   6.349  13.321 -0.0329 -0.0567 -0.0081
40644W        W49444  10.574   3.980  10.888  0.0707  0.0396 -0.1556
40645W        W49445  19.553   4.506  10.134 -0.2907  0.2246  0.2209
40646W        W49446   7.352   5.395   8.458  0.0256 -0.0168 -0.0843
40647W        W49447   4.595   3.262   2.631  0.0410 -0.0827 -0.2227
40648W        W49448  15.625   5.347  32.220 -0.0975  0.1171 -0.2197
40649W        W49449  19.179   1.232   0.200  0.0261  0.0061  0.0517
40650W        W49450   3.478   5.190  10.983  0.3087  0.0362  0.1355
40651W        W49451   5.906   5.258   6.007 -0.1599 -0.0402  0.0033
40652W        W49452   2.551   6.353  40.768  0.1379  0.1062 -0.3323
40653W        W49453  19.338   5.610  36.151  0.1158  0.0709 -0.1068
40654W        W49454  19.896   2.653  32.951  0.0216 -0.1971 -0.0710
40655W        W49455  13.833   5.093  11.591  0.0766 -0.0331  0.1316
40656W        W49456  16.776   6.235  13.569 -0.0542 -0.0706  0.0228
40657W        W49457  17.288   1.697  34.974 -0.2265  0.0361  0.1733
40658W        W49458  10.412   0.338  44.609  0.1733  0.4795  0.0047
40659W        W49459   9.309   6.546  32.622 -0.1089  0.0451 -0.1487
40660W        W49460   2.846   6.084  44.245  0.1121  0.2844 -0.1373
40661W        W49461   1.457   4.173  35.111 -0.1120  0.2163 -0.0213
40662W        W49462  13.006   0.896  44.834  0.0149 -0.1235  0.0867
40663W        W49463  11.470   4.252  16.132  0.2256  0.1347 -0.0749
40664W        W49464   1.399   0.110  32.053  0.1630 -0.0949  0.0282
40665W        W49465  10.243   2.321   6.172  0.1243  0.0848 -0.0835
40666W        W49466  18.602   1.220  14.691  0.0348 -0.0841  0.2576
40667W        W49467   6.927   2.694  29.659  0.3819 -0.0478  0.1328
40668W        W49468  11.469   1.689   1.564  0.0042  0.0546 -0.0983
40669W        W49469   6.796   2.808  10.261  0.2546 -0.1009  0.0700
40670W        W49470  19.437   1.416  41.763 -0.0843  0.2231 -0.5478
40671W        W49471  15.210   3.484  31.264 -0.2810 -0.0474  0.2920
40672W        W49472  14.044   0.095  33.300  0.0993 -0.0604  0.0594
40673W        W49473  19.009   4.577  43.799  0.0650  0.0305 -0.2027
40674W        W49474   4.064   0.203  27.742 -0.0823 -0.0881 -0.0433
40675W        W49475   8.399   6.453  11.323  0.2630 -0.2496  0.0212
40676W        W49476  14.293   0.548  30.951  0.1521 -0.2109  0.0923
40677W        W49477   3.838   4.607  34.741 -0.3013 -0.0667 -0.0712
40678W        W49478  14.904   4.327  31.477  0.2172  0.1618  0.3041
40679W        W49479  14.667   3.764  34.077 -0.1127  0.0650 -0.3665
40680W        W49480   4.496   1.241   1.917 -0.0314 -0.4568 -0.3089
40681W        W49481   8.913   6.441  12.861 -0.1782 -0.0835  0.1308
40682W        W49482   9.840   5.377  37.864 -0.1073  0.1680 -0.1749
40683W        W49483  18.505   5.757  39.105  0.3012 -0.1479  0.1492
40684W        W49484   3.313   6.487  31.865 -0.0353 -0.3076 -0.2009
40685W        W49485  19.613   0.613  30.852  0.1815 -0.4761 -0.1580
40686W        W49486  10.012   2.940  40.794 -0.0643  0.0244 -0.0832
40687W        W49487  10.308   4.653   4.204 -0.0874  0.0297  0.0822
40688W        W49488  16.986   1.430  19.789 -0.0029 -0.2120  0.0255
40689W        W49489  19.168   2.179  15.940  0.2645  0.0281 -0.0777
40690W        W49490   1.826   2.086  43.758  0.1286 -0.0917 -0.0190
40691W        W49491  12.121   3.281  11.504  0.1306  0.0346 -0.0274
40692W        W49492   8.153   1.146  42.815  0.1043  0.2432 -0.2559
40693W        W49493   1.737   1.557   4.057 -0.0412 -0.1962  0.2864
40694W        W49494   2.240   0.501   6.105  0.0204  0.0216  0.0231
40695W        W49495  11.636   6.109   0.212 -0.0200 -0.2474  0.2191
40696W        W49496   5.924   0.497   4.987  0.1608  0.0107  0.1845
40697W        W49497   9.164   3.298  15.641 -0.1411  0.2030  0.0131
40698W        W49498  13.329   2.691  12.512  0.0390 -0.0552 -0.0299
40699W        W49499  19.095   1.484   0.901 -0.2918  0.1495 -0.2320
40700W        W49500  11.242   0.645   3.774  0.1187  0.1718 -0.4997
40701W        W49501   5.223   3.023  22.739  0.0165  0.1885 -0.2111
40702W        W49502  12.141   0.462  43.886 -0.2972  0.0174 -0.0850
40703W        W49503   7.853   2.785  11.658  0.3320  0.1005  0.3361
40704W        W49504   9.471   0.757  42.878 -0.2468 -0.1208 -0.1928
40705W        W49505   1.207   2.258  33.062  0.1428  0.1700  0.5177
40706W        W49506  16.648   6.347  38.481  0.1822  0.2570  0.2731
40707W        W49507  19.157   5.399  15.367  0.0212 -0.1673  0.3840
40708W        W49508  20.446   3.568  13.586 -0.2866 -0.2083 -0.1787
40709W        W49509   3.492   2.768  12.479 -0.1176  0.2114 -0.2096
40710W        W49510   4.347   4.343  22.263 -0.0757  0.3500  0.0802
40711W        W49511   0.653   2.008  40.823  0.0076 -0.0261  0.3047
40712W        W49512   6.282   3.903  15.136 -0.1579  0.2208 -0.1875
40713W        W49513  14.355   1.805   6.607  0.0159 -0.1062  0.4732
40714W        W49514   4.740   2.304  12.462  0.0565 -0.0056 -0.5172
40715W        W49515   2.904   0.100  40.004  0.0831 -0.3893  0.0129
40716W        W49516   3.750   2.027  30.841  0.2064 -0.0035  0.0054
40717W        W49517  13.380   5.052   8.691 -0.0401  0.0816 -0.0371
40718W        W49518   8.302   0.046   3.316  0.3324 -0.1074 -0.2549
40719W        W49519   9.691   3.878  26.605  0.0991  0.2506  0.3210
40720W        W49520   8.832   1.630   9.983  0.1274 -0.2301  0.4523
40721W        W49521  20.114   3.904  27.165 -0.0348  0.2627  0.2058
40722W        W49522  12.363   2.978  43.289 -0.0967  0.2164 -0.0730
40723W        W49523  15.134   0.387  39.429  0.1797  0.0928  0.1540
40724W        W49524   1.205   0.259  13.614  0.0153  0.1018 -0.5785
40725W        W49525   8.098   5.584  35.040 -0.2019 -0.0803  0.1436
40726W        W49526   9.784   0.356  34.448  0.3091  0.2406  0.1133
40727W        W49527   5.317   5.303  42.013 -0.0275  0.1055  0.0775
40728W        W49528  15.160   2.122  10.582 -0.0071 -0.1507  0.1705
40729W        W49529  15.979   3.933   1.661 -0.1069 -0.0396 -0.0932
40730W        W49530  13.173   3.114  21.997 -0.0364 -0.2715 -0.1702
40731W        W49531  14.247   1.547   7.560  0.1043 -0.3392 -0.1573
40732W        W49532   4.288   2.310  33.592 -0.0584  0.3237 -0.2007
40733W        W49533   6.867   2.640   4.621 -0.2627  0.0250  0.2467
40734W        W49534  18.285   5.906  30.182 -0.1213  0.1422 -0.1916
40735W        W49535  13.536   2.714  30.761 -0.1382  0.2972  0.0257
40736W        W49536  18.075   1.917  29.904 -0.0824  0.0430  0.1910
40737W        W49537  10.081   3.625   6.347  0.1817  0.2238 -0.1639
40738W        W49538  19.222   2.350  16.826  0.0226  0.1130  0.0648
40739W        W49539   3.674   3.775   5.109  0.0174  0.0950 -0.2613
40740W        W49540  14.284   1.148  42.248  0.2080  0.1157  0.0753
40741W        W49541   8.738   5.397   7.054  0.1316 -0.0562  0.1392
40742W        W49542  14.773   3.497  39.568  0.3429 -0.0686  0.0705
40743W        W49543  16.463   4.237   6.968 -0.0760  0.0355  0.0047
40744W        W49544  17.146   2.959   2.210 -0.1949  0.0793 -0.0233
40745W        W49545   9.154   0.156   0.430  0.3040 -0.3375 -0.0480
40746W        W49546  13.559   6.455  33.369  0.1528  0.2178 -0.0370
40747W        W49547   0.697   6.557   1.611  0.0413  0.2190 -0.4520
40748W        W49548   7.640   5.411   9.250 -0.0606  0.1743 -0.2631
40749W        W49549  16.156   0.451  12.762 -0.1401  0.2315 -0.0718
40750W        W49550  13.175   5.835  13.524 -0.0986 -0.0791 -0.1831
40751W        W49551  12.018   4.851  38.287  0.0295  0.0275  0.1770
40752W        W49552   9.366   5.255  38.812  0.2050  0.2024 -0.1395
40753W        W49553  13.098   0.413  16.540 -0.1114 -0.0290  0.2617
40754W        W49554  10.978   2.654   2.146 -0.3304 -0.1489  0.0505
40755W        W49555   4.774   4.588   8.628 -0.1297 -0.1991 -0.2278
40756W        W49556  13.571   6.415  39.876  0.0933  0.4064  0.0949
40757W        W49557  12.770   0.836  41.406 -0.1247 -0.0139  0.0356
40758W        W49558   4.490   0.782   9.376  0.1386 -0.1015 -0.3482
40759W        W49559   3.662   3.333  32.299 -0.0655  0.0902  0.0553
40760W        W49560   1.221   4.358  33.406  0.1357  0.1832  0.0815
40761W        W49561  17.235   1.846  20.036 -0.0263  0.1576 -0.1176
40762W        W49562   5.014   2.193  39.561  0.4080 -0.1077 -0.5032
40763W        W49563  15.909   2.878   0.665  0.1700  0.0313 -0.0628
40764W        W49564  19.746   1.710  36.312  0.0582 -0.1036 -0.0822
40765W        W49565  20.074   5.870  43.814 -0.1209  0.1172  0.1674
40766W        W49566  14.394   3.437  33.250  0.0618  0.1518  0.0303
40767W        W49567   8.957   4.429  38.239 -0.0450  0.1124  0.0712
40768W        W49568   5.439   0.580  24.009 -0.0850  0.1751 -0.0341
40769W        W49569   7.054   5.654  44.182 -0.3508 -0.4703 -0.0205
40770W        W49570  15.870   3.801   0.720  0.0111 -0.1940  0.1205
40771W        W49571  12.710   2.845   6.307 -0.1008  0.2419 -0.2035
40772W        W49572  14.279   4.899   4.603 -0.0567 -0.3333 -0.1931
40773W        W49573  19.219   0.842  27.262  0.1726 -0.0311 -0.0040
40774W        W49574   9.159   2.030  10.667  0.0676 -0.2038  0.1046
40775W        W49575   2.988   5.877  43.675  0.0601 -0.0763 -0.2772
40776W        W49576   4.911   5.543  44.930  0.1756  0.0148 -0.0909
40777W        W49577  13.271   0.315  12.506  0.3032 -0.2355 -0.0993
40778W        W49578   8.445   3.539  15.981  0.0034  0.0614 -0.1749
40779W        W49579  17.654   0.154  32.897 -0.2818 -0.3324  0.0407
40780W        W49580  15.654   0.261   5.030 -0.0850 -0.2204  0.1809
40781W        W49581   0.360   6.414  26.586 -0.1213 -0.1233 -0.1067
40782W        W49582   7.609   0.481  44.616 -0.1834 -0.0218  0.1514
40783W        W49583   0.825   2.193  29.730 -0.3430 -0.0060 -0.1699
40784W        W49584  16.995   4.942  21.408  0.1966  0.0366  0.0424
40785W        W49585   1.691   0.962  11.976 -0.0301  0.0212 -0.0639
40786W        W49586  12.434   1.306  36.843 -0.0611 -0.3448 -0.1057
40787W        W49587  16.260   4.599  35.572 -0.1515  0.1015  0.3153
40788W        W49588  18.400   4.837  11.321  0.0847  0.0961 -0.4712
40789W        W49589   5.352   0.436  41.782  0.0075 -0.1722 -0.2820
40790W        W49590   2.850   3.637  14.344 -0.0284  0.0206 -0.2041
40791W        W49591   6.182   1.015  15.594 -0.2983 -0.2000  0.2866
40792W        W49592   8.777   2.092   9.749 -0.2594 -0.0102 -0.1066
40793W        W49593  10.673   2.108  13.423 -0.3026 -0.1248 -0.2801
40794W        W49594   8.993   3.383  33.929 -0.2239 -0.0773 -0.2264
40795W        W49595   7.260   1.958  31.072 -0.0694 -0.1623  0.0570
40796W        W49596   5.778   0.076  39.673  0.1949  0.0308 -0.0965
40797W        W49597  17.830   5.210   9.339 -0.2684 -0.1394  0.0954
40798W        W49598  17.035   3.174   3.255  0.0498  0.2414  0.2487
40799W        W49599  12.103   4.616  11.019 -0.2208 -0.3723 -0.1394
40800W        W49600   3.328   4.220  44.872  0.0157  0.0090  0.1994
40801W        W49601   6.170   4.851   3.272 -0.2293 -0.0018  0.0235
40802W        W49602  17.668   4.604  41.436  0.1865  0.0529 -0.0337
40803W        W49603   5.737   5.777   1.399 -0.0108 -0.1286 -0.2726
40804W        W49604   4.663   0.358  26.272  0.3435  0.1156  0.0577
40805W        W49605  20.288   3.563   3.211 -0.0205  0.2004  0.2292
40806W        W49606   6.058   5.860   9.919 -0.0734  0.1755  0.2062
40807W        W49607  17.893   5.670   8.184  0.1492 -0.0025  0.3208
40808W        W49608  14.796   2.927  19.421  0.0067  0.3019  0.1174
40809W        W49609  15.509   3.749  33.126  0.1951  0.0302 -0.0521
40810W        W49610   8.657   5.192  32.348 -0.2325  0.1396 -0.0660
40811W        W49611  18.109   5.387   9.776 -0.0575  0.1707  0.2485
40812W        W49612  11.937   2.862  12.204  0.1257 -0.1054  0.0099
40813W        W49613   4.433   0.643  24.541 -0.0309 -0.0013 -0.0942
40814W        W49614  14.949   6.145  34.546 -0.0267 -0.1979  0.0991
40815W        W49615  15.119   2.315  34.084 -0.1219 -0.0481 -0.1321
40816W        W49616  15.775   0.940  40.031 -0.0552 -0.0472 -0.3916
40817W        W49617  20.142   5.602   5.762  0.0698  0.0087  0.0453
40818W        W49618  10.929   1.924  18.631  0.0498  0.0010  0.1598
40819W        W49619   2.393   3.274  27.202 -0.0390 -0.0946 -0.0044
40820W        W49620  14.471   2.011  18.550 -0.1039  0.3033  0.0949
40821W        W49621  14.168   5.606  13.272 -0.0485  0.0080  0.1977
40822W        W49622  13.464   3.199  38.380  0.0395 -0.0228 -0.2848
40823W        W49623   6.620   3.094  34.394  0.2319 -0.1606  0.1435
40824W        W49624   8.857   3.114  14.336 -0.0932  0.0246 -0.1518
40825W        W49625  16.787   4.914  17.877 -0.0477 -0.1256 -0.0793
40826W        W49626   1.151   4.028  44.627  0.0182  0.0084 -0.0484
40827W        W49627  14.062   3.907  12.053  0.1350 -0.0134 -0.4165
40828W        W49628   3.198   4.996  25.616 -0.1531  0.0318 -0.0382
40829W        W49629   9.818   4.584  39.519  0.1108 -0.0476  0.1808
40830W        W49630   4.710   5.560  14.770  0.0044 -0.0856  0.0806
40831W        W49631  19.463   1.980   0.835 -0.0615  0.1877  0.0825
40832W        W49632   9.302   6.152  34.671  0.1061 -0.1689 -0.0956
40833W        W49633  17.872   3.986   6.236 -0.0958  0.1365 -0.0966
40834W        W49634  14.344   1.869  11.092 -0.1309 -0.0683  0.0858
40835W        W49635  18.929   5.573  31.836  0.0688  0.1373 -0.0826
40836W        W49636  18.209   1.057   5.226 -0.3144  0.0119  0.0116
40837W        W49637   7.203   4.223   9.828  0.0466 -0.0464  0.1330
40838W        W49638  11.751   4.828  39.766 -0.1818 -0.0643  0.2145
40839W        W49639  14.446   5.863  17.630 -0.1211  0.1372 -0.1846
40840W        W49640  20.944   2.913  36.870 -0.0133  0.3771  0.1473
40841W        W49641  12.988   3.051  16.859 -0.3118 -0.0932  0.3029
40842W        W49642  12.223   5.435  37.906 -0.1160 -0.1063  0.2204
40843W        W49643  17.157   0.797  39.471  0.0232 -0.1311 -0.2070
40844W        W49644  13.580   2.415  11.130  0.0702  0.0974  0.3608
40845W        W49645  14.265   5.714   3.163  0.1182  0.0129  0.2781
40846W        W49646   7.575   3.933  36.643 -0.1612  0.0626  0.4001
40847W        W49647  10.471   0.955  18.367  0.2599  0.3462  0.1763
40848W        W49648   1.772   0.045  39.646 -0.1816 -0.1165  0.1054
40849W        W49649   2.042   0.371  29.548 -0.4130 -0.1373 -0.4440
40850W        W49650  15.964   1.767  38.399  0.0737 -0.0587  0.0534
40851W        W49651   2.990   6.432  27.344 -0.2553 -0.0348  0.1031
40852W        W49652   8.496   6.286   4.215 -0.0120 -0.0793  0.0352
40853W        W49653   1.141   5.857  24.779 -0.1939  0.1980  0.0201
40854W        W49654   4.908   1.236   5.645  0.1805 -0.1761 -0.0723
40855W        W49655  13.479   3.035  32.850  0.0674 -0.2278  0.1921
40856W        W49656   1.481   1.149  28.443 -0.1488 -0.3141 -0.5030
40857W        W49657   2.223   0.325   1.824 -0.3375 -0.2450  0.2331
40858W        W49658  13.332   2.827  40.847  0.0781  0.0286  0.2593
40859W        W49659   0.792   5.860  38.457  0.2084  0.2621 -0.0775
40860W        W49660   7.303   4.956   4.327 -0.0214 -0.1424  0.1021
40861W        W49661   5.954   5.180   8.548 -0.0634  0.2118  0.0791
40862W        W49662   7.929   5.238  29.547 -0.0767  0.0061  0.0336
40863W        W49663  17.823   2.095  11.052 -0.2061 -0.0835  0.1474
40864W        W49664   0.337   3.049   8.016  0.0646  0.3452  0.1810
40865W        W49665   3.347   3.005  25.665 -0.2762 -0.0321  0.0244
40866W        W49666   8.149   6.427   1.325 -0.0719  0.0586  0.3338
40867W        W49667  18.564   6.291  28.082 -0.0915  0.0909 -0.0863
40868W        W49668   6.117   1.393  10.363 -0.0839  0.3307 -0.1784
40869W        W49669   7.932   6.540  42.960 -0.0983 -0.1786  0.1930
40870W        W49670   5.403   6.243  40.031 -0.1810  0.1741  0.1558
40871W        W49671   0.831   0.644  25.691  0.2225 -0.0453  0.0623
40872W        W49672  15.862   5.489  42.848 -0.1666 -0.2749  0.1016
40873W        W49673  11.143   2.856  44.401  0.1297 -0.2005 -0.1827
40874W        W49674  14.144   3.128   7.754 -0.0964 -0.0733 -0.1087
40875W        W49675  14.142   2.237  45.000 -0.1714 -0.0579 -0.0789
40876W        W49676   7.629   1.519   3.906 -0.0108 -0.0703  0.1777
40877W        W49677   6.745   4.217  15.030 -0.0178  0.0619  0.1293
40878W        W49678   3.858   3.957  39.408 -0.2534 -0.1943 -0.1636
40879W        W49679  20.419   4.293  16.128 -0.0357  0.2072 -0.1587
40880W        W49680   6.823   5.081   6.632 -0.1291  0.1170  0.0055
40881W        W49681  10.487   5.463  13.129 -0.0439  0.0517  0.0015
40882W        W49682  20.624   0.439  28.260 -0.2228  0.2493 -0.2750
40883W        W49683   2.746   0.466  24.402 -0.2270 -0.0611  0.1386
40884W        W49684   6.202   5.383   3.625  0.0553  0.0527 -0.0038
40885W        W49685   9.771   3.970  41.988  0.5086 -0.0249  0.1826
40886W        W49686   2.912   2.457   1.650 -0.0265  0.2821  0.1894
40887W        W49687   9.171   2.601   9.136 -0.2798 -0.0950  0.1173
40888W        W49688  17.085   1.109  40.733 -0.0501 -0.2211  0.1811
40889W        W49689  18.239   4.796  11.835  0.0129  0.1263 -0.2368
40890W        W49690   3.622   3.186  11.803  0.0470 -0.1356  0.2476
40891W        W49691  20.362   2.033  25.572  0.2425 -0.1157  0.3571
40892W        W49692   4.368   1.370  44.956  0.2478 -0.2443 -0.1832
40893W        W49693  16.624   2.025  37.702  0.0742  0.0498 -0.3394
40894W        W49694   4.349   3.629  31.273 -0.0017 -0.1334 -0.2290
40895W        W49695   3.050   0.054  27.790  0.2152 -0.1180 -0.1222
40896W        W49696  12.328   1.365  32.552  0.3094 -0.2286  0.3399
40897W        W49697  12.333   0.656   3.022  0.0400  0.0624  0.0851
40898W        W49698  16.770   6.044  31.026 -0.0369 -0.1485  0.1101
40899W        W49699  11.250   2.224  13.291 -0.0161  0.1205  0.0519
40900W        W49700  15.694   5.931   5.991  0.0656  0.0641 -0.1174
40901W        W49701   3.612   0.215  38.932 -0.0831 -0.1749  0.0011
40902W        W49702  18.933   1.384  30.196 -0.4193 -0.0514 -0.0460
40903W        W49703  14.646   2.956   2.091 -0.2253  0.2060  0.2470
40904W        W49704   7.217   2.657   8.573  0.1702 -0.1433 -0.2140
40905W        W49705   9.007   1.444  38.678  0.3514 -0.1675  0.2598
40906W        W49706   1.880   4.213  44.202  0.0109  0.0016 -0.1336
40907W        W49707  15.600   2.650   2.932 -0.1667  0.0110 -0.1752
40908W        W49708  15.631   2.920  31.913  0.3270  0.4120  0.5593
40909W        W49709   4.177   6.532  42.875  0.0979 -0.0630  0.1447
40910W        W49710  11.493   6.005  13.948 -0.1676 -0.0567  0.3739
40911W        W49711   3.862   3.541  40.052  0.1332  0.0473 -0.3111
40912W        W49712  11.780   6.571   3.285 -0.0644 -0.2733 -0.2953
40913W        W49713  20.489   5.103  41.896 -0.0139 -0.1332 -0.2250
40914W        W49714   9.313   6.386  13.703  0.0099 -0.0634  0.0644
40915W        W49715  20.607   2.032  33.211 -0.0463 -0.0780 -0.0935
40916W        W49716   2.110   4.175  30.937 -0.1668  0.0738  0.1339
40917W        W49717   8.493   4.273  12.725 -0.4054 -0.1672 -0.0089
40918W        W49718  15.743   1.119  38.127 -0.2914  0.0634  0.0432
40919W        W49719   6.436   6.353   1.548 -0.0765  0.2171 -0.2120
40920W        W49720   8.282   1.657  44.571 -0.1353 -0.1872  0.0124
40921W        W49721   4.825   5.623  39.485 -0.1157 -0.1356 -0.2034
40922W        W49722  12.834   3.949  44.573 -0.2404  0.0338 -0.2492
40923W        W49723  16.714   0.782  42.753  0.3327 -0.2119 -0.0205
40924W        W49724  18.609   3.075  29.657  0.3798  0.1596 -0.0137
40925W        W49725  18.258   4.464  31.202 -0.1330 -0.2159  0.1552
40926W        W49726  12.096   6.156   3.340 -0.3352  0.1253  0.1445
40927W        W49727  11.292   5.436   9.005  0.1085 -0.1927 -0.0872
40928W        W49728  17.856   1.729   6.354  0.4690  0.2157  0.0307
40929W        W49729   3.921   5.359   5.374 -0.2881 -0.1248  0.1334
40930W        W49730  14.624   3.281  34.256 -0.0231  0.0266 -0.0275
40931W        W49731   0.040   1.128   9.840  0.1741  0.0988  0.0739
40932W        W49732   4.073   1.623  21.329  0.1448  0.0019  0.1268
40933W        W49733   0.187   2.324   8.306  0.2111 -0.1917 -0.1205
40934W        W49734   4.576   1.871  20.901  0.4943  0.1394 -0.0637
40935W        W49735  19.281   2.256  29.434 -0.1634 -0.2664  0.0398
40936W        W49736  10.786   4.957  16.606  0.0632 -0.1655  0.2072
40937W        W49737  15.563   0.565  12.017  0.0877  0.0942  0.3124
40938W        W49738  14.281   5.054   9.172  0.0214 -0.0463 -0.1858
40939W        W49739  19.231   2.673  31.667  0.0325  0.1748  0.0040
40940W        W49740  10.766   0.138  32.123  0.0169  0.0360  0.1004
40941W        W49741  14.169   4.055  30.768 -0.0802 -0.0352  0.0078
40942W        W49742  11.251   4.391  44.465 -0.1097  0.1909 -0.4367
40943W        W49743   5.375   3.877   1.129 -0.0943 -0.0238 -0.0022
40944W        W49744  14.841   2.867  35.617  0.0919 -0.0903 -0.1539
40945W        W49745   1.620   0.542  23.609 -0.1642  0.0130  0.1880
40946W        W49746  18.600   3.953  19.737 -0.1935  0.3032 -0.2205
40947W        W49747   8.602   0.113  28.644  0.0285 -0.1552 -0.5283
40948W        W49748   3.704   0.096  34.605  0.0633 -0.2036  0.0618
40949W        W49749  13.915   6.166  41.738  0.1492 -0.2388  0.0497
40950W        W49750  12.295   0.312  13.423 -0.1697  0.0896  0.0941
40951W        W49751  19.856   6.430  32.009 -0.2932  0.2690  0.3525
40952W        W49752   7.512   1.710  25.279 -0.2284 -0.0635  0.0098
40953W        W49753  16.727   3.409  33.593 -0.0017 -0.0484  0.2570
40954W        W49754   9.248   5.258  14.335 -0.3669  0.0056 -0.1548
40955W        W49755   7.058   4.457  10.737 -0.0273 -0.0283 -0.0768
40956W        W49756  12.910   4.532  39.910 -0.0587  0.2854 -0.1697
40957W        W49757  13.736   4.475  29.617 -0.3893 -0.1427 -0.0080
40958W        W49758  19.081   6.049  28.201  0.1385  0.0008 -0.0950
40959W        W49759  13.875   2.324   5.936 -0.0537  0.0815 -0.1156
40960W        W49760   1.232   2.518   9.512  0.2500 -0.3101  0.0943
40961W        W49761   5.474   0.262   8.331 -0.1545  0.1150 -0.1044
40962W        W49762   9.486   2.993  13.996 -0.0902  0.2414  0.0694
40963W        W49763   1.429   2.125   2.584  0.0569 -0.3828 -0.1720
40964W        W49764  12.343   2.922  21.810 -0.0345 -0.0373 -0.0162
40965W        W49765   7.227   2.978  26.138 -0.1133 -0.1585 -0.1890
40966W        W49766  18.375   6.336  35.116  0.1506 -0.1196  0.0633
40967W        W49767  14.453   4.844  40.264 -0.2054  0.1611 -0.1188
40968W        W49768   1.263   6.376  13.400 -0.0664 -0.2157 -0.2442
40969W        W49769   1.681   5.917  15.786  0.2954  0.1285 -0.0956
40970W        W49770   5.809   3.720  38.921 -0.0325 -0.1905 -0.2038
40971W        W49771  15.796   0.354  36.995  0.1697 -0.0690 -0.0887
40972W        W49772  10.866   2.543  17.526  0.2054 -0.1141  0.0446
40973W        W49773  16.367   2.105  17.177 -0.1076  0.3757 -0.0763
40974W        W49774   5.258   5.656  29.595 -0.2460  0.2100  0.0712
40975W        W49775  12.133   4.923  17.400 -0.1153  0.0726  0.2541
40976W        W49776  16.222   0.129  40.498 -0.1049  0.1270  0.1436
40977W        W49777  10.706   4.777  38.721 -0.0854 -0.1796 -0.1599
40978W        W49778   8.290   2.780  40.695 -0.2489 -0.0446 -0.0360
40979W        W49779  14.773   0.993  13.981 -0.0508 -0.0078  0.0190
40980W        W49780   8.070   5.757  28.657  0.3149 -0.4085  0.3100
40981W        W49781  15.057   1.710  16.218  0.0038  0.0657 -0.0437
40982W        W49782  15.379   1.094  23.518  0.2963  0.1586 -0.0748
40983W        W49783   4.714   5.747   9.032 -0.0704  0.0574 -0.0251
40984W        W49784  17.342   0.239   3.824  0.0032 -0.0912  0.2579
40985W        W49785   6.431   0.253   3.358  0.1860  0.2713  0.1226
40986W        W49786  11.425   1.765  43.232  0.0767 -0.1994  0.1966
40987W        W49787  12.210   3.162  28.788  0.2116  0.2113 -0.4170
40988W        W49788  10.174   5.933   2.403 -0.1161  0.1411 -0.3681
40989W        W49789   5.345   4.817  44.221  0.1381  0.1149 -0.2428
40990W        W49790   0.710   0.590  16.328  0.0706  0.1668 -0.3487
40991W        W49791  20.729   4.031   2.342  0.0441 -0.2581  0.1610
40992W        W49792   1.982   4.812  40.556 -0.1245  0.1047 -0.2956
40993W        W49793  12.162   2.310  42.788 -0.0053  0.1277  0.0175
40994W        W49794   4.985   6.447  39.177 -0.1480 -0.3784  0.1927
40995W        W49795  10.977   4.007  19.025 -0.2905 -0.3503 -0.0746
40996W        W49796  15.349   2.271  32.402 -0.0306 -0.1247  0.2402
40997W        W49797  18.371   3.840   2.245  0.1076 -0.0047  0.1453
40998W        W49798   2.190   2.024   7.310 -0.0090 -0.2934 -0.1996
40999W        W49799   3.969   0.534  28.521  0.2336  0.1065  0.0126
41000W        W49800  17.170   5.946  35.986 -0.2293 -0.2324 -0.0658
41001W        W49801  14.631   0.046  14.317 -0.0378  0.0626  0.0225
41002W        W49802   9.867   1.747  40.545  0.1759 -0.0517  0.0524
41003W        W49803  20.432   4.983   4.303  0.3690 -0.2040 -0.2042
41004W        W49804   5.890   4.975  12.380 -0.0212 -0.0323  0.1858
41005W        W49805   7.385   0.407   7.765  0.3162 -0.1653 -0.1199
41006W        W49806   0.861   5.805  32.060 -0.0916  0.1004 -0.0506
41007W        W49807   0.420   1.353  36.505  0.2367  0.0528 -0.0557
41008W        W49808  17.021   2.107  11.049  0.2168 -0.2344 -0.1840
41009W        W49809   4.159   1.260  27.907 -0.1016  0.0534  0.1469
41010W        W49810   6.766   3.224  42.938 -0.1242 -0.5297 -0.1350
41011W        W49811  17.824   0.375   8.257  0.2606  0.1412 -0.5280
41012W        W49812   4.095   4.439  15.569  0.0102  0.1440 -0.0019
41013W        W49813  17.432   3.313  32.378 -0.2477  0.1264  0.0327
41014W        W49814  15.035   4.334  17.235  0.1896  0.2053  0.2091
41015W        W49815   3.684   0.423  15.937 -0.4009  0.2194  0.0215
41016W        W49816   0.631   0.177  28.209 -0.1018 -0.0908  0.0823
41017W        W49817   4.773   3.681   5.497 -0.0229 -0.1120  0.1320
41018W        W49818  14.984   0.784   8.743  0.0182 -0.2117  0.3447
41019W        W49819   9.441   5.523  16.391  0.1942  0.0675  0.0204
41020W        W49820   9.576   5.617  43.778 -0.0377  0.0470 -0.1656
41021W        W49821   9.788   2.018  42.337 -0.0413 -0.2372  0.1929
41022W        W49822   0.929   0.921   8.086  0.0271  0.3710  0.0176
41023W        W49823   3.517   0.327  28.384  0.1171 -0.1070 -0.1297
41024W        W49824  15.816   2.820  40.309  0.2859  0.1384  0.0562
41025W        W49825   4.894   5.709  40.578  0.1274  0.0557  0.6235
41026W        W49826   2.853   6.371  43.508 -0.4587 -0.0925  0.0966
41027W        W49827   3.630   1.920  31.315 -0.1973  0.1126 -0.1870
41028W        W49828   1.145   5.739  42.982  0.3072  0.0062 -0.0088
41029W        W49829   4.454   0.983  13.678  0.1859 -0.0094  0.0331
41030W        W49830   2.641   0.202  27.317  0.1850  0.3680  0.1296
41031W        W49831  11.656   0.443  21.976  0.0112  0.1382 -0.1984
41032W        W49832  17.566   6.466  32.290 -0.1481  0.0890  0.1690
41033W        W49833   6.763   6.427  41.059 -0.1610 -0.1470  0.1418
41034W        W49834   7.946   0.424   6.711 -0.3572 -0.0756  0.0594
41035W        W49835   3.019   3.893  10.422 -0.3278  0.0774  0.4228
41036W        W49836   6.306   3.587  41.148 -0.1337  0.0892 -0.1683
41037W        W49837  19.725   3.540  13.037 -0.1904  0.0592  0.1346
41038W        W49838  17.570   4.282  39.736 -0.1274  0.1423  0.1000
41039W        W49839   5.169   5.633  26.151 -0.0248  0.2281  0.2358
41040W        W49840   1.192   0.933  32.432 -0.0972 -0.2535 -0.1218
41041W        W49841  10.258   3.014   3.889  0.0380 -0.1689 -0.1493
41042W        W49842   9.455   1.449  19.107  0.0434 -0.0668 -0.1043
41043W        W49843   3.550   2.134  44.984 -0.0911  0.0622 -0.0204
41044W        W49844   3.212   5.691  38.493  0.1799  0.0534  0.1009
41045W        W49845  19.824   2.565   4.000 -0.2200  0.0651 -0.2131
41046W        W49846  14.644   3.360  30.308  0.1169 -0.3147 -0.2617
41047W        W49847  21.140   3.534  28.519  0.2636 -0.0538 -0.2679
41048W        W49848  15.141   5.745   8.845  0.0221  0.2991  0.1009
41049W        W49849  16.163   2.293  36.973 -0.0263 -0.0532 -0.1657
41050W        W49850   7.333   1.791   6.504 -0.3767 -0.1113 -0.0912
41051W        W49851  14.398   0.626  13.127  0.2541  0.2860 -0.0248
41052W        W49852   0.124   3.507  27.833 -0.0455  0.2902 -0.1325
41053W        W49853  17.820   0.155   5.481  0.0286  0.2363 -0.3483
41054W        W49854   6.522   4.206  42.911 -0.1723 -0.4038 -0.1866
41055W        W49855  12.131   1.732  12.976 -0.0650  0.0483 -0.1217
41056W        W49856  20.990   4.804  26.457 -0.0522 -0.0997 -0.0147
41057W        W49857  19.514   5.316   4.531  0.2426  0.2162  0.2159
41058W        W49858   3.937   0.204   2.976  0.0996 -0.0095  0.0689
41059W        W49859  14.241   1.734  21.443  0.2481 -0.2824  0.0629
41060W        W49860  16.341   1.244  36.030 -0.0729 -0.2485 -0.0275
41061W        W49861  17.162   6.242  38.538  0.0388  0.0257 -0.2269
41062W        W49862   5.311   4.325  13.218 -0.0656 -0.4380 -0.0878
41063W        W49863  16.987   1.559   5.226  0.1606 -0.3459  0.3619
41064W        W49864   7.259   3.177   3.932 -0.1472  0.0224  0.1557
41065W        W49865   6.231   3.626  32.617 -0.0118  0.1498 -0.0094
41066W        W49866  19.537   5.566  13.133 -0.0164 -0.1190  0.4156
41067W        W49867   6.355   5.073  25.989  0.0763 -0.0193  0.1710
41068W        W49868   4.075   2.346   5.590  0.0999  0.1457  0.0328
41069W        W49869   0.509   4.698  37.821  0.1031 -0.0162 -0.2710
41070W        W49870  15.472   1.908  39.253  0.1846  0.2622  0.0158
41071W        W49871   5.023   0.951  34.732  0.0413  0.0147 -0.2061
41072W        W49872   7.551   3.818  25.571  0.1626 -0.2057 -0.1267
41073W        W49873   2.597   5.374  11.933  0.0896  0.1475  0.0499
41074W        W49874   0.701   1.891   5.066 -0.0114 -0.0349  0.2439
41075W        W49875  15.964   1.195   4.372  0.0642  0.0428 -0.1457
41076W        W49876   4.959   5.073   1.992 -0.0441  0.1682  0.1704
41077W        W49877  19.269   5.103  40.159  0.0949  0.0513  0.0398
41078W        W49878  14.274   2.541  23.982  0.0036  0.0089  0.2598
41079W        W49879   8.605   5.586  13.041  0.1030 -0.1690 -0.1045
41080W        W49880   0.513   4.194  26.834 -0.4755 -0.0715 -0.0766
41081W        W49881  20.395   1.466  15.115 -0.0616 -0.1714 -0.1253
41082W        W49882   7.789   6.456   3.079 -0.0586 -0.1963 -0.0779
41083W        W49883  18.547   1.165   4.791 -0.1205  0.0798 -0.2157
41084W        W49884   6.094   4.080  26.058  0.2015  0.1651  0.1956
41085W        W49885  19.447   1.158  28.146  0.2317  0.1211  0.2792
41086W        W49886   4.315   2.985  36.712  0.0548 -0.0737 -0.2983
41087W        W49887  16.402   0.608  35.080 -0.2208  0.0436 -0.1210
41088W        W49888   0.044   4.213  42.752  0.0304  0.1588 -0.0702
41089W        W49889  19.084   5.374  14.377  0.4588 -0.0843  0.1312
41090W        W49890  17.250   3.029  12.530 -0.0620  0.0265  0.0119
41091W        W49891   0.399   2.644  39.248  0.0750  0.0016 -0.0425
41092W        W49892  11.764   3.671  13.663 -0.3813  0.0849 -0.1458
41093W        W49893  15.427   0.565   3.674  0.2299 -0.0947 -0.0530
41094W        W49894   7.713   3.756  41.708 -0.0797 -0.1696  0.2043
41095W        W49895  18.964   0.053  43.223  0.1497 -0.3554  0.2093
41096W        W49896  20.098   4.437  29.724 -0.1696 -0.1319  0.2027
41097W        W49897  14.829   3.555  40.155  0.1210  0.0948 -0.1270
41098W        W49898   3.792   3.904  14.288  0.0302  0.0674 -0.1402
41099W        W49899  16.701   4.577  21.635 -0.3335 -0.1359 -0.1123
41100W        W49900  20.413   3.728  14.550 -0.0102  0.1677 -0.1124
41101W        W49901  14.772   6.095   7.430 -0.0782  0.0183  0.3467
41102W        W49902  10.927   0.077  30.489 -0.0773  0.0018 -0.0661
41103W        W49903   8.163   4.843  34.673  0.4076 -0.1218  0.2433
41104W        W49904  10.450   0.313   9.863 -0.0549  0.0396  0.2460
41105W        W49905  16.739   6.180  16.336  0.1630  0.1037 -0.3025
41106W        W49906   2.799   6.570   7.720 -0.0868  0.2103 -0.1406
41107W        W49907   4.837   2.060  30.100 -0.0149  0.2725  0.0540
41108W        W49908   4.333   2.367  41.254  0.0336  0.1507 -0.2209
41109W        W49909   2.178   4.672  25.413  0.1957  0.0588  0.3950
41110W        W49910   0.013   3.230  43.321 -0.1411 -0.3295  0.2267
41111W        W49911  18.214   0.732  37.674 -0.0514 -0.0288  0.0376
41112W        W49912  17.638   5.689   0.284  0.0843 -0.0735 -0.0760
41113W        W49913  12.340   3.485  15.680 -0.1881  0.3837  0.1337
41114W        W49914   8.284   2.279   1.467 -0.0900  0.1137 -0.0679
41115W        W49915  20.772   0.618  10.422 -0.2067 -0.1370 -0.0021
41116W        W49916   1.865   4.299  25.372  0.1092  0.4321  0.1498
41117W        W49917  20.889   4.775  43.633  0.1435  0.0158  0.1043
41118W        W49918   4.099   3.830  13.083 -0.0721  0.0677  0.2091
41119W        W49919   4.809   5.928  41.483  0.2175  0.1343 -0.1087
41120W        W49920  18.904   5.701  35.366 -0.0181 -0.1702 -0.0805
41121W        W49921   1.275   0.619  13.204  0.1042  0.2905  0.2376
41122W        W49922   9.926   5.920  19.142 -0.0169 -0.0380  0.1795
41123W        W49923  18.676   1.151   8.862  0.0501  0.1960  0.1240
41124W        W49924   8.851   5.094  33.200  0.0653 -0.0230  0.2746
41125W        W49925  12.010   0.295  16.927 -0.0133 -0.2398 -0.0001
41126W        W49926  18.035   5.136  13.816  0.2229  0.3648  0.3862
41127W        W49927  13.326   2.093   4.652 -0.0414 -0.1810 -0.2837
41128W        W49928  16.114   0.183  13.891 -0.1120  0.0808 -0.1291
41129W        W49929   3.020   4.449  12.839  0.2228  0.0598  0.0433
41130W        W49930   9.147   3.512  44.289  0.0852 -0.0224  0.1407
41131W        W49931  17.731   3.945  18.097  0.1925  0.2344  0.0441
41132W        W49932  19.003   3.415  40.904  0.0246  0.0194  0.0265
41133W        W49933  11.148   4.268  12.921 -0.1838  0.0022 -0.1774
41134W        W49934  12.271   3.091  31.686  0.0477  0.0595  0.0787
41135W        W49935  11.512   6.406  39.750  0.1374  0.0419  0.2587
41136W        W49936  14.108   4.707   7.889 -0.1067 -0.1324 -0.0619
41137W        W49937  20.709   6.348   7.088 -0.0236  0.2583  0.0411
41138W        W49938  15.737   0.030  12.076  0.1151  0.0520 -0.1143
41139W        W49939   7.225   0.331  13.242 -0.1530  0.0739  0.1619
41140W        W49940   4.200   2.169  22.949  0.0981  0.0712 -0.0310
41141W        W49941  14.465   2.823  18.865  0.1739  0.0778 -0.1970
41142W        W49942  14.669   1.214  31.883 -0.0768  0.0219  0.3286
41143W        W49943   2.110   2.095  33.042 -0.1357 -0.1896 -0.0375
41144W        W49944   8.171   0.933  34.178 -0.1829 -0.1635  0.1840
41145W        W49945  10.725   3.348   2.912 -0.1041 -0.1329  0.0417
41146W        W49946  18.251   4.716  36.998 -0.0172 -0.0173 -0.0542
41147W        W49947  10.068   6.192   0.655  0.4207 -0.1598  0.1900
41148W        W49948   6.346   5.416  27.441  0.1899  0.0888  0.1836
41149W        W49949  10.476   6.438  34.137  0.0797 -0.2640  0.1213
41150W        W49950   9.146   6.209  14.645 -0.2311  0.4031 -0.1494
41151W        W49951   4.468   3.130  25.754 -0.1364 -0.0472 -0.2800
41152W        W49952  19.498   1.922  44.878 -0.3892  0.1419  0.2606
41153W        W49953   4.145   4.108  39.000  0.0180  0.0782 -0.2565
41154W        W49954   9.064   4.228  32.790 -0.0684 -0.0889 -0.1295
41155W        W49955  16.245   6.242  20.228  0.0424  0.1915 -0.0641
41156W        W49956   4.768   0.794  10.606 -0.2235  0.1332  0.0923
41157W        W49957  10.852   1.785   4.854 -0.0541  0.1422 -0.1896
41158W        W49958  18.335   3.747  15.393  0.1957 -0.1797  0.0983
41159W        W49959  17.824   6.301   1.449  0.2244 -0.0341 -0.0444
41160W        W49960  15.551   4.505  35.600 -0.1566 -0.2214 -0.1722
41161W        W49961   4.332   3.417  19.750 -0.2249 -0.0435  0.2588
41162W        W49962   6.975   1.349  30.312 -0.1868  0.2035  0.1487
41163W        W49963   9.481   5.580  42.134  0.0799 -0.3959  0.1277
41164W        W49964  13.803   1.872  14.231  0.1015  0.2234  0.0643
41165W        W49965   7.838   2.515   5.035  0.1404 -0.2453  0.3091
41166W        W49966   1.793   4.494  10.038 -0.1808  0.0365 -0.1514
41167W        W49967   5.185   4.113  29.085 -0.2917  0.1067  0.1312
41168W        W49968   6.149   6.572  16.381 -0.0877 -0.0426  0.3182
41169W        W49969  15.227   5.305  37.383  0.0998 -0.2030  0.1203
41170W        W49970  17.261   0.934  30.074  0.0386 -0.0810  0.3260
41171W        W49971   7.332   3.737  28.708  0.0472 -0.0261  0.0381
41172W        W49972  20.085   0.503   2.561 -0.0320  0.1072  0.1292
41173W        W49973   0.779   4.205   3.166  0.0510 -0.1571  0.1290
41174W        W49974   2.955   4.101  27.996  0.1807  0.0214 -0.1779
41175W        W49975  14.474   0.157  38.875  0.0225 -0.5260  0.2483
41176W        W49976   5.139   6.465   9.734 -0.0735  0.1003  0.0084
41177W        W49977  19.487   5.350  42.559 -0.0888  0.1210 -0.1661
41178W        W49978   8.640   3.445  32.131  0.1873  0.3616 -0.3229
41179W        W49979  19.620   1.465  30.762 -0.1350 -0.2075 -0.0386
41180W        W49980   5.118   2.048  15.227 -0.1342  0.2394 -0.1385
41181W        W49981   4.813   6.009   3.592 -0.4060  0.0911  0.1763
41182W        W49982   3.693   2.479  24.549  0.2700 -0.2475  0.2408
41183W        W49983  18.936   0.966  14.153 -0.1310  0.2038  0.0534
41184W        W49984  20.679   6.019  42.964 -0.1183 -0.1549  0.2204
41185W        W49985  16.094   3.837  11.577 -0.1525 -0.1427 -0.2378
41186W        W49986  17.746   2.612  42.542  0.1964  0.2668 -0.1067
41187W        W49987   9.106   5.652   2.181 -0.0307 -0.1303  0.1995
41188W        W49988  11.886   1.769  11.642  0.3307  0.0412  0.0917
41189W        W49989   2.759   6.140  12.257 -0.0295  0.3260 -0.2644
41190W        W49990  12.755   4.984   5.103 -0.0681 -0.0557 -0.0202
41191W        W49991   9.996   4.284  33.654  0.0454  0.0457  0.2044
41192W        W49992  18.420   2.141  12.570  0.1488 -0.2444  0.0273
41193W        W49993   3.958   4.438  12.137  0.1463 -0.0551  0.0804
41194W        W49994  18.176   0.664   4.944  0.0706 -0.1520  0.0035
41195W        W49995  20.783   4.229  30.465  0.1939  0.3974  0.0379
41196W        W49996  13.634   1.656  14.617  0.1640 -0.1506  0.1946
41197W        W49997   7.834   3.323  16.286  0.2792  0.0848 -0.3934
41198W        W49998   4.446   2.549   1.971  0.0704 -0.1596  0.1167
41199W        W49999   0.622   2.285   2.599 -0.5528 -0.0714  0.0876
41200W        W50000  19.403   2.347   5.153  0.3684 -0.3081 -0.1651
41201W        W50001   7.115   5.856  23.608  0.2924 -0.1211 -0.2237
41202W        W50002   5.857   4.412   4.562  0.0369 -0.0240  0.2676
41203W        W50003  11.166   5.781  36.149 -0.0858  0.1612  0.0662
41204W        W50004  10.651   3.545  36.099  0.1663  0.1507 -0.0855
41205W        W50005   1.064   3.242  43.004  0.1216  0.3274 -0.1006
41206W        W50006   0.260   3.408  41.125  0.1185 -0.1529 -0.0980
41207W        W50007   7.921   2.751   3.211  0.2682 -0.1624  0.0682
41208W        W50008   7.706   4.854  11.411 -0.2560 -0.0082 -0.2405
41209W        W50009   3.975   3.414   7.383  0.2253 -0.4493  0.0095
41210W        W50010  21.055   3.438  34.473  0.2299 -0.1528  0.1219
41211W        W50011  19.062   4.915  37.610 -0.1349  0.4233  0.1352
41212W        W50012  19.243   0.084   2.171 -0.0586 -0.2883 -0.0013
41213W        W50013   3.467   2.612  36.207  0.0146  0.0786  0.0710
41214W        W50014  11.349   6.088  35.351 -0.0272  0.2374  0.0939
41215W        W50015   2.399   2.361  13.909 -0.0123 -0.1234  0.0584
41216W        W50016  10.539   5.524  18.482 -0.2580  0.0825 -0.0300
41217W        W50017   5.428   4.474  12.098  0.1462 -0.1277 -0.1539
41218W        W50018   6.968   6.086  41.938  0.3535 -0.0762 -0.1076
41219W        W50019  18.291   5.227   5.695 -0.1541  0.0595  0.2296
41220W        W50020   2.282   1.148  32.004 -0.0432 -0.0224 -0.1376
41221W        W50021   2.600   6.311  24.645  0.0395 -0.1155 -0.0909
41222W        W50022   2.387   1.166  29.795  0.2952 -0.0300 -0.2604
41223W        W50023   7.223   0.767  27.117  0.2313 -0.0117  0.1474
41224W        W50024  15.445   2.255   7.013  0.0056  0.0988 -0.2463
41225W        W50025  12.573   3.517   2.433 -0.1843 -0.2142 -0.1454
41226W        W50026  11.926   5.186  31.107  0.1840 -0.0931 -0.0704
41227W        W50027  15.076   1.314  41.155  0.0456  0.0774 -0.1173
41228W        W50028  20.559   3.803  43.875 -0.0770 -0.1225 -0.0600
41229W        W50029   1.762   1.598  30.137 -0.2031 -0.1910 -0.0041
41230W        W50030  14.416   1.650  20.010 -0.1429  0.0459  0.1942
41231W        W50031  19.013   2.834  33.929 -0.1656 -0.0469 -0.2880
41232W        W50032   6.798   6.327  43.264 -0.0486  0.2504  0.0890
41233W        W50033   3.278   4.181  33.449 -0.0344 -0.0808  0.4500
41234W        W50034   1.339   1.909  25.977 -0.3037  0.1414 -0.0052
41235W        W50035   5.348   3.269  33.142  0.0138  0.2246 -0.1455
41236W        W50036  14.845   4.991  16.587 -0.0346  0.0477 -0.1246
41237W        W50037   6.927   6.281  38.780 -0.0793  0.1425  0.0173
41238W        W50038  12.833   0.437  34.440 -0.0128 -0.0835 -0.2605
41239W        W50039  10.636   0.828   4.482  0.1472  0.0212  0.1995
41240W        W50040  14.739   3.234  35.943  0.2500  0.1930  0.3226
41241W        W50041  14.547   4.884  23.456  0.0419 -0.1264 -0.1362
41242W        W50042   7.601   4.605  35.519 -0.1706 -0.0570 -0.2218
41243W        W50043  15.840   5.536  33.068 -0.1261 -0.0626 -0.0840
41244W        W50044   6.951   1.028  31.660 -0.1235  0.1920 -0.0553
41245W        W50045   4.388   1.121  33.143 -0.0757  0.0898  0.0068
41246W        W50046   9.233   0.986   1.735  0.2731  0.2714  0.0281
41247W        W50047   3.645   6.094  35.693 -0.1178 -0.0828 -0.2174
41248W        W50048   0.139   4.931  14.414  0.0651 -0.0589 -0.3968
41249W        W50049   7.098   5.311  42.482 -0.4115 -0.0709  0.0152
41250W        W50050   4.943   2.074  41.986 -0.0604  0.3943 -0.2949
41251W        W50051  16.473   0.828   0.037  0.0458  0.0524 -0.2895
41252W        W50052  11.533   3.233  32.839 -0.0165  0.3227 -0.1035
41253W        W50053   1.422   0.634  35.173 -0.2045 -0.1182 -0.1551
41254W        W50054   2.527   5.178  38.077  0.4256  0.1959  0.1173
41255W        W50055   0.481   5.507  35.401 -0.0193 -0.0182  0.4481
41256W        W50056   2.316   5.703  32.117 -0.3592  0.0486 -0.0497
41257W        W50057  11.496   3.265   6.848 -0.1125 -0.1239  0.1592
41258W        W50058  16.830   3.488  36.296 -0.0712  0.0711  0.0158
41259W        W50059   1.469   4.424  31.697 -0.0269 -0.0468  0.2120
41260W        W50060   8.507   0.556  27.331 -0.2636  0.1743  0.0628
41261W        W50061   7.843   3.516  28.349 -0.0152 -0.2283  0.0239
41262W        W50062  11.066   3.068   0.070 -0.2257  0.4266  0.0139
41263W        W50063   8.989   0.666  14.749  0.3267  0.2220  0.1798
41264W        W50064  10.869   4.508  12.567  0.2480  0.0454  0.0082
41265W        W50065  13.163   5.878  16.299  0.2557 -0.3113 -0.0136
41266W        W50066  14.296   4.747   5.232 -0.1990 -0.1546  0.1773
41267W        W50067   6.166   1.600  13.142 -0.1276 -0.0284 -0.3567
41268W        W50068   3.160   6.238  36.002  0.1632 -0.0221  0.0358
41269W        W50069  11.230   6.113  37.139  0.0080  0.0620  0.2805
41270W        W50070  12.352   2.518  28.117 -0.0843  0.1333 -0.1852
41271W        W50071  19.752   0.138   5.638 -0.1239 -0.0248 -0.2046
41272W        W50072   3.312   5.452   9.277  0.1726  0.3008  0.2508
41273W        W50073  19.731   0.073   1.571 -0.0814  0.1270  0.3206
41274W        W50074  19.181   3.223   5.219  0.0770 -0.0247 -0.0470
41275W        W50075   9.781   4.757  16.897  0.1220  0.0864  0.1188
41276W        W50076  18.028   6.221   3.767  0.0983 -0.1323  0.0635
41277W        W50077  11.338   1.840  39.298 -0.1543  0.2922  0.1296
41278W        W50078  17.379   2.054  44.898 -0.0764 -0.1540 -0.0887
41279W        W50079   6.879   6.266  25.115  0.0629 -0.1931 -0.1343
41280W        W50080   0.406   4.512   6.979 -0.4017  0.1598  0.0229
41281W        W50081  17.904   5.895  45.042 -0.1575  0.2347  0.0902
41282W        W50082   7.466   5.177  26.164 -0.1486 -0.0573 -0.4083
41283W        W50083  20.294   2.276  33.539 -0.1075  0.2717 -0.0942
41284W        W50084  10.358   2.618  13.380  0.1270 -0.1317  0.2705
41285W        W50085   4.110   2.117  11.765  0.1128 -0.0095  0.0240
41286W        W50086  13.905   5.422   6.688  0.0761 -0.0197  0.1248
41287W        W50087  13.534   3.240  34.250  0.0896  0.2878 -0.1168
41288W        W50088  14.742   1.592   9.002  0.0014  0.0291  0.2197
41289W        W50089  15.164   3.066  18.417  0.0194  0.1279 -0.1439
41290W        W50090   0.619   1.208  38.130  0.2734  0.3694  0.0309
41291W        W50091   8.060   3.914  40.986 -0.0201 -0.2596 -0.1453
41292W        W50092  12.286   5.899  32.697  0.3632 -0.2223 -0.1020
41293W        W50093  18.063   3.405  18.232  0.4541 -0.1380 -0.2092
41294W        W50094   6.148   2.512   6.727 -0.0736  0.0779  0.6108
41295W        W50095  19.827   6.229  11.978  0.5038  0.1160  0.0314
41296W        W50096  11.409   5.350   7.181 -0.3606 -0.0361  0.0076
41297W        W50097  11.618   0.758  19.417  0.1726 -0.1901  0.2531
41298W        W50098  15.330   3.579  16.578 -0.0544  0.1787 -0.2184
41299W        W50099   3.407   1.054  41.752  0.0512  0.0040  0.2473
41300W        W50100  14.591   2.420  38.648  0.1082  0.2354 -0.1145
41301W        W50101  10.299   0.606  18.808 -0.1801  0.1631 -0.0037
41302W        W50102  12.643   4.117  42.604 -0.2784  0.0797  0.1159
41303W        W50103   4.074   3.672  33.771 -0.2637 -0.0823  0.0312
41304W        W50104  13.717   5.464   1.697  0.0294  0.3511  0.0123
41305W        W50105  13.668   1.147  42.517  0.2629  0.3486  0.0791
41306W        W50106   2.201   6.046   8.832  0.1193 -0.1567 -0.4205
41307W        W50107  20.625   4.145   8.393 -0.1427  0.0976 -0.1997
41308W        W50108   4.857   2.645  31.399 -0.0755 -0.1084 -0.0773
41309W        W50109   2.135   6.163   5.162  0.1061 -0.1742  0.1973
41310W        W50110  16.435   5.393  16.331  0.1669  0.1240  0.1619
41311W        W50111   6.277   1.317  27.179 -0.0505 -0.1554  0.2438
41312W        W50112  13.488   2.686   0.580 -0.0616 -0.2703  0.0407
41313W        W50113   4.025   3.559  22.363 -0.1084 -0.0081 -0.2864
41314W        W50114   1.100   0.239  35.196  0.0363  0.0274  0.0875
41315W        W50115  13.807   3.767  20.976 -0.0118  0.0200  0.0506
41316W        W50116   3.140   5.668  26.042  0.0110  0.1811 -0.1542
41317W        W50117   6.282   0.003   0.710 -0.1136 -0.2356 -0.3657
41318W        W50118   5.204   0.295  39.282 -0.0380  0.0812  0.1993
41319W        W50119   6.563   6.560   6.661  0.0973  0.0440  0.0488
41320W        W50120   2.251   5.481  26.785  0.2596 -0.0179  0.0171
41321W        W50121  10.218   0.981  20.005  0.1258  0.1680  0.0339
41322W        W50122   7.681   4.253   9.981 -0.0856 -0.0514 -0.1275
41323W        W50123  14.792   2.858  15.292  0.1303  0.3153 -0.0856
41324W        W50124   9.681   0.424  43.792  0.1257  0.2166  0.2697
41325W        W50125  19.393   5.582  33.186  0.0575 -0.2438 -0.1451
41326W        W50126  13.987   0.999   8.663 -0.0067 -0.0494 -0.0904
41327W        W50127   6.733   4.034  36.304 -0.0762  0.0086  0.2149
41328W        W50128  10.696   5.364  30.470 -0.1706  0.2315  0.0421
41329W        W50129  19.339   5.318  31.536 -0.2774 -0.0800 -0.0107
41330W        W50130   3.425   0.237   8.897  0.1782 -0.0556 -0.2615
41331W        W50131  16.426   1.015  44.725 -0.4497  0.3639  0.1800
41332W        W50132   6.470   0.041  28.644  0.1713  0.0437  0.0520
41333W        W50133   4.894   3.283   0.280  0.1098  0.2655 -0.0074
41334W        W50134  16.596   1.266  42.075 -0.0611 -0.2350  0.0402
41335W        W50135  19.265   1.883  15.075 -0.3658 -0.1992 -0.1604
41336W        W50136  19.179   3.307   8.596 -0.1794  0.1121  0.1738
41337W        W50137   1.753   0.602   8.276  0.0051  0.3062 -0.0014
41338W        W50138  18.593   0.120  30.058  0.0295  0.0427 -0.0583
41339W        W50139   9.646   4.314  13.911 -0.0812 -0.0389  0.1067
41340W        W50140   9.132   1.438   2.133 -0.1762 -0.1248 -0.1133
41341W        W50141   8.618   3.451  13.913  0.0276 -0.0793  0.4008
41342W        W50142  14.790   0.576  14.534 -0.1467  0.2085  0.0822
41343W        W50143   7.655   2.044  15.023  0.0978  0.2613  0.1138
41344W        W50144  17.016   4.184   4.738 -0.0031  0.1292 -0.1149
41345W        W50145   5.625   3.029  29.903 -0.0060  0.1324  0.1313
41346W        W50146   0.964   2.938  44.235  0.3254 -0.2199  0.1268
41347W        W50147   6.383   2.071   6.765 -0.3912  0.1022  0.4184
41348W        W50148   6.939   5.124  28.447  0.1572 -0.0180  0.1563
41349W        W50149   7.401   3.636  14.300 -0.2831 -0.1497  0.2351
41350W        W50150   9.039   5.047  14.735  0.3450 -0.0300  0.2921
41351W        W50151  13.160   0.872  38.413 -0.0198  0.0862  0.1223
41352W        W50152   0.463   6.121  24.316 -0.2212  0.5170  0.2184
41353W        W50153   2.459   4.813  11.913  0.2846 -0.1355  0.3298
41354W        W50154  19.006   2.170   3.612  0.0142  0.2047 -0.0647
41355W        W50155  16.781   3.835  37.320 -0.2486 -0.0897  0.0487
41356W        W50156   2.003   3.695  24.891  0.1787  0.0935 -0.0336
41357W        W50157  14.784   3.018  34.636  0.1129 -0.3450 -0.1174
41358W        W50158   9.940   0.433  18.539 -0.2431  0.1196 -0.1553
41359W        W50159  18.871   3.340   2.264 -0.2418  0.0923  0.0007
41360W        W50160  12.370   4.392  43.474  0.2438 -0.2141  0.1386
41361W        W50161   9.861   4.477   0.518  0.2428 -0.0570  0.1150
41362W        W50162  18.839   5.664  32.339  0.0849 -0.2622  0.1120
41363W        W50163   1.829   5.483  16.043 -0.1436  0.1233 -0.0961
41364W        W50164  19.763   2.077  12.191  0.2317 -0.1149 -0.1610
41365W        W50165  10.740   0.825  29.607  0.2212 -0.3133 -0.1980
41366W        W50166   0.722   6.594  35.457  0.1765 -0.1493  0.1620
41367W        W50167   8.887   5.980  37.659  0.2903  0.1823  0.0854
41368W        W50168   6.546   4.606   8.062 -0.0174 -0.0837 -0.0024
41369W        W50169   8.271   2.451  14.792 -0.1022  0.2304  0.0942
41370W        W50170   7.346   4.934  28.352 -0.0245  0.0630 -0.0342
41371W        W50171   6.978   3.901  11.907  0.2566  0.1574  0.2444
41372W        W50172   2.465   2.842  28.183  0.1008  0.0051  0.0236
41373W        W50173  16.633   2.682   8.735  0.1614  0.0558  0.2187
41374W        W50174  19.580   2.218  32.323 -0.3528 -0.0732 -0.2328
41375W        W50175   2.128   3.231   3.219 -0.1270  0.0137 -0.1623
41376W        W50176  16.282   0.826   6.336 -0.0460  0.1036 -0.0171
41377W        W50177   3.203   1.825  22.938 -0.1565 -0.0489 -0.1880
41378W        W50178  15.707   4.540  21.120  0.0222  0.1667  0.0592
41379W        W50179   4.531   3.597   2.237 -0.2480  0.0104 -0.5216
41380W        W50180   4.468   3.415  37.233 -0.0018  0.5868 -0.1332
41381W        W50181   8.248   6.385  27.468 -0.0326 -0.1702  0.0817
41382W        W50182   9.121   6.322  37.364  0.0073  0.3497 -0.4619
41383W        W50183   4.189   4.605  13.200 -0.3040 -0.0693  0.0272
41384W        W50184   6.917   5.724  38.918 -0.0857 -0.0098  0.3933
41385W        W50185   0.903   3.883  14.958 -0.1529  0.1765 -0.1133
41386W        W50186   7.610   0.280  12.443  0.2516  0.1144 -0.1051
41387W        W50187  14.228   0.597   7.270  0.1122  0.3286  0.3133
41388W        W50188   2.958   4.617  42.458  0.2132  0.2055  0.3115
41389W        W50189   7.457   3.192  28.561 -0.0592 -0.1467  0.2286
41390W        W50190  14.546   0.660  35.157 -0.0836 -0.3158  0.0380
41391W        W50191   0.467   3.509  28.265  0.0106 -0.2823  0.2459
41392W        W50192   2.823   3.035  26.388  0.1062 -0.4356  0.0072
41393W        W50193   4.784   1.568  45.118 -0.0968 -0.3759  0.0750
41394W        W50194  14.251   1.813  36.476  0.0586 -0.0602 -0.0362
41395W        W50195  19.550   1.942  37.684  0.0743 -0.0108  0.0206
41396W        W50196   7.995   6.243  37.078 -0.0760  0.2782  0.1213
41397W        W50197   1.160   5.855  34.740  0.0640 -0.2395  0.0404
41398W        W50198   1.521   5.385  15.673 -0.2174 -0.2307 -0.3456
41399W        W50199   1.728   4.452  11.287  0.0555  0.1133  0.0017
41400W        W50200  14.931   3.480  43.064 -0.0812  0.1395  0.0986
41401W        W50201  17.598   5.855  18.732  0.5911  0.1054  0.0532
41402W        W50202  20.370   4.574  40.757  0.1010 -0.1263 -0.4236
41403W        W50203  10.489   2.463  42.239  0.1596  0.2348  0.3565
41404W        W50204  11.162   4.741  11.147 -0.0631  0.2253  0.0691
41405W        W50205  18.071   2.948   3.062  0.0373 -0.0699  0.0867
41406W        W50206  19.958   2.957  41.728  0.0696 -0.1161  0.1246
41407W        W50207  15.351   5.545   0.980 -0.0466  0.1233  0.0298
41408W        W50208  13.333   0.018  14.889  0.0229 -0.2692  0.2706
41409W        W50209   4.372   4.692  39.823 -0.2011 -0.2581  0.1942
41410W        W50210   0.104   2.874  11.912  0.0834  0.1878  0.0452
41411W        W50211  12.268   2.705   7.002  0.1626 -0.0912 -0.0377
41412W        W50212  14.530   1.532  10.009 -0.1260  0.0936 -0.1666
41413W        W50213   0.296   1.475  33.971 -0.0418 -0.1167 -0.2249
41414W        W50214  12.615   3.256  40.088 -0.1170  0.0285  0.1175
41415W        W50215  20.849   2.898  14.726  0.0918 -0.0055  0.0302
41416W        W50216  15.887   1.310   3.197 -0.0064 -0.3266 -0.1656
41417W        W50217   0.827   5.530  28.976  0.1323 -0.1618  0.0385
41418W        W50218   3.051   1.127  31.446 -0.0434 -0.1543 -0.1576
41419W        W50219  13.045   2.909  40.162  0.1401  0.2535 -0.2408
41420W        W50220   4.534   3.626  26.604 -0.0203  0.3275  0.1870
41421W        W50221   3.724   5.769  28.675 -0.2260 -0.1120  0.1686
41422W        W50222   6.639   1.974  31.006  0.1025  0.1209  0.1562
41423W        W50223  11.823   2.018  43.012  0.0753  0.1966  0.1883
41424W        W50224   7.763   2.976  15.879 -0.3244  0.0105  0.2397
41425W        W50225   2.354   4.753   1.093 -0.3927  0.0671 -0.5067
41426W        W50226  16.458   4.989  36.780  0.0777  0.2273  0.0346
41427W        W50227   3.148   4.874  38.103 -0.0337 -0.0758  0.2424
41428W        W50228   0.528   2.423  10.227 -0.0402  0.1246  0.0988
41429W        W50229   4.564   0.824  41.886 -0.0266 -0.1814  0.2583
41430W        W50230   4.260   0.606   4.692  0.0033  0.2271  0.2219
41431W        W50231  12.248   4.950  13.076 -0.1993 -0.4447  0.1009
41432W        W50232   2.656   3.992  14.057  0.1896  0.0684  0.0046
41433W        W50233   2.344   5.910  41.528 -0.0190  0.1205 -0.1534
41434W        W50234   5.845   5.754  28.540 -0.0273 -0.3182 -0.1704
41435W        W50235   5.923   4.981  25.695  0.1530 -0.1086 -0.0641
41436W        W50236   0.745   3.393   8.875  0.0060  0.0770 -0.1507
41437W        W50237  14.760   3.386  35.378  0.0105  0.2767  0.1560
41438W        W50238  14.070   4.496  32.502  0.2152  0.1934  0.2382
41439W        W50239  18.345   2.602  16.806 -0.0169 -0.0784  0.2559
41440W        W50240   9.247   0.344  43.539 -0.0301 -0.1191  0.0569
41441W        W50241  11.709   1.639  28.559  0.3760 -0.0131  0.1385
41442W        W50242   0.325   5.728   7.146 -0.2054  0.0831 -0.0337
41443W        W50243  15.004   0.851  29.683  0.1729  0.1827 -0.1473
41444W        W50244  15.400   3.112   3.172 -0.2897  0.0824  0.1924
41445W        W50245  12.704   5.403  39.659  0.0036 -0.0677  0.0202
41446W        W50246   6.572   3.061   1.212  0.1295 -0.0290  0.0918
41447W        W50247   1.204   0.800  38.574  0.0493 -0.2923 -0.0543
41448W        W50248  20.265   3.109  39.069  0.1187 -0.0339  0.0123
41449W        W50249  20.656   2.982   1.944  0.3049  0.0362  0.2399
41450W        W50250   6.229   0.682  42.111  0.2030 -0.3146  0.1765
41451W        W50251   0.430   1.808  43.688  0.0500 -0.1472 -0.0934
41452W        W50252  20.860   1.880  31.131 -0.0857  0.1192 -0.0132
41453W        W50253   9.446   2.901   7.538  0.0154  0.3084 -0.0874
41454W        W50254  16.532   3.937  42.588 -0.0105 -0.4700 -0.2553
41455W        W50255  10.002   1.867  28.693 -0.1157  0.2255 -0.1671
41456W        W50256  17.686   0.275  45.082 -0.1872 -0.0111  0.2582
41457W        W50257   5.678   6.299  31.628  0.0739 -0.1594 -0.1213
41458W        W50258   6.462   0.617  36.197  0.2757  0.1456 -0.2194
41459W        W50259   0.018   4.786  45.128 -0.4325  0.0546 -0.1720
41460W        W50260   2.815   5.740  30.619 -0.1196  0.0120 -0.3937
41461W        W50261  12.063   4.504  34.435 -0.2862  0.2102  0.1880
41462W        W50262   4.230   0.054  22.234  0.0105  0.2569  0.0443
41463W        W50263  13.967   5.010  29.053 -0.1148 -0.3311  0.0674
41464W        W50264   8.832   0.477  11.065  0.0309 -0.2553 -0.2501
41465W        W50265  10.888   4.587  36.835 -0.3216  0.0425  0.0173
41466W        W50266   4.261   1.394  35.891  0.2465 -0.2032  0.1691
41467W        W50267   4.004   3.182  41.016 -0.1071 -0.1674 -0.2652
41468W        W50268  14.828   4.471  14.760 -0.0970  0.1640  0.0494
41469W        W50269  20.534   2.912  35.595  0.1731 -0.0551 -0.2204
41470W        W50270  10.651   1.858  32.997 -0.1889  0.0362  0.0560
41471W        W50271  16.598   0.472   1.711 -0.0362  0.0668 -0.1983
41472W        W50272  13.069   4.111  30.264  0.3407  0.1220 -0.2293
41473W        W50273  20.371   3.041   9.718 -0.3879 -0.4116 -0.2893
41474W        W50274   4.844   1.388  12.919  0.0472  0.2950  0.0507
41475W        W50275  19.093   4.395  34.762  0.1814 -0.0364  0.1699
41476W        W50276   8.558   2.095   3.156 -0.2131 -0.1596 -0.0798
41477W        W50277   2.541   2.583  12.185  0.0741 -0.0049 -0.1068
41478W        W50278   1.081   3.599   2.609 -0.1757 -0.1563 -0.1182
41479W        W50279  16.088   0.705   3.216 -0.2001 -0.1487 -0.2115
41480W        W50280  17.741   3.489  38.404 -0.1016 -0.0869 -0.3580
41481W        W50281   0.085   4.616  26.080 -0.0700 -0.2337  0.0122
41482W        W50282  16.000   1.600   3.570 -0.1341 -0.1961 -0.1789
41483W        W50283   8.633   6.068  28.757 -0.0895  0.0997 -0.2279
41484W        W50284   9.883   2.499  18.386  0.1001 -0.0563  0.0773
41485W        W50285  19.203   6.048  40.654  0.0844 -0.0793  0.0306
41486W        W50286  14.717   5.509  41.115 -0.0255  0.0592 -0.4488
41487W        W50287  11.251   3.732  17.600  0.0586 -0.1345  0.0561
41488W        W50288  14.160   5.787  38.526  0.0574 -0.2025 -0.2225
41489W        W50289  18.158   2.226   5.019 -0.2305 -0.0506  0.0727
41490W        W50290  10.771   4.170  38.497  0.0441 -0.0569  0.3234
41491W        W50291  12.327   0.521  39.337 -0.1012  0.0260 -0.1645
41492W        W50292  17.946   2.290  11.509 -0.0600  0.1409 -0.0781
41493W        W50293  13.475   1.513  23.722  0.1065  0.0228  0.0913
41494W        W50294   5.548   3.217   9.601  0.4126  0.1225  0.1827
41495W        W50295  16.671   4.635  15.078  0.0612 -0.1438  0.1937
41496W        W50296  12.198   3.231   6.307 -0.0625  0.2841 -0.0856
41497W        W50297   1.672   1.328  10.456 -0.1868 -0.0652  0.4361
41498W        W50298  18.314   4.299   9.155  0.0567  0.1565 -0.1183
41499W        W50299  20.964   3.229  34.021 -0.0453  0.0107  0.0849
41500W        W50300   7.514   4.133   6.542  0.1994 -0.1056  0.1805
41501W        W50301  10.774   1.892  37.510  0.0859  0.2815  0.1023
41502W        W50302  12.121   0.499  44.523 -0.0334 -0.0074 -0.0516
41503W        W50303  15.449   0.339   6.459 -0.0806 -0.0051  0.0173
41504W        W50304  11.348   3.712  43.329  0.0209  0.2066  0.1198
41505W        W50305   7.223   5.530   4.042 -0.2750  0.0289 -0.3421
41506W        W50306  18.236   5.997  40.287  0.0599  0.2615 -0.0644
41507W        W50307  10.960   5.650  16.902 -0.0078  0.0078  0.1083
41508W        W50308   5.181   4.927  31.923  0.4327 -0.1429  0.0337
41509W        W50309  14.968   0.060   0.191  0.0397 -0.0219  0.2307
41510W        W50310  20.932   5.046   0.286  0.2310 -0.0069  0.4992
41511W        W50311   4.192   2.138  40.792  0.2467 -0.2966 -0.0256
41512W        W50312  12.856   4.048  15.680  0.0364  0.0346 -0.0849
41513W        W50313   2.949   2.484  12.614  0.1150  0.0880  0.2484
41514W        W50314  20.448   3.756   8.703  0.2483  0.1959  0.3424
41515W        W50315  17.121   3.044  14.406 -0.0546  0.1766  0.1735
41516W        W50316  19.328   6.549   2.720  0.0191 -0.1202  0.0955
41517W        W50317   1.080   1.584   7.536  0.1912  0.2137 -0.1215
41518W        W50318   3.042   2.317  22.357  0.1073 -0.2650  0.1763
41519W        W50319   6.431   4.442   3.113 -0.1486  0.1473 -0.0349
41520W        W50320   2.257   5.614   2.846  0.3195 -0.0370  0.1448
41521W        W50321  11.878   3.638  39.917 -0.3552  0.0135  0.0718
41522W        W50322   7.428   2.535  31.149  0.0681 -0.2375  0.1206
41523W        W50323  20.206   3.450  10.617 -0.1314  0.0495 -0.1429
41524W        W50324   3.909   5.069  13.393  0.0358 -0.2767 -0.3156
41525W        W50325  11.513   6.415  19.536  0.2253 -0.0273  0.2802
41526W        W50326   9.711   1.583  12.199  0.0244  0.0087 -0.1598
41527W        W50327   1.255   2.240  14.039 -0.1402 -0.0506  0.0768
41528W        W50328   7.121   3.642   9.695  0.1223  0.1083  0.0201
41529W        W50329  16.927   1.424  14.138 -0.6313  0.1437  0.3969
41530W        W50330   2.332   0.551  27.131 -0.0687  0.1912 -0.1447
41531W        W50331   8.636   5.766  41.837  0.0821  0.1694 -0.0791
41532W        W50332  20.069   3.268   8.206 -0.0997 -0.1219  0.2221
41533W        W50333   5.452   1.668  22.581  0.3053 -0.0165  0.1207
41534W        W50334  18.921   2.756  43.297 -0.0493  0.0728 -0.0977
41535W        W50335  14.795   1.353  30.759 -0.0748  0.0651 -0.1373
41536W        W50336   2.259   0.377   2.787 -0.0181  0.1747  0.0832
41537W        W50337  14.680   5.495  31.161 -0.0670  0.1281 -0.0613
41538W        W50338  10.582   3.661  35.642 -0.2111  0.2485 -0.1291
41539W        W50339  19.933   4.194  44.072 -0.1515  0.1210  0.1630
41540W        W50340   4.788   0.026  21.367  0.4031  0.1076 -0.0209
41541W        W50341   8.081   2.621  28.190 -0.0289  0.0492 -0.1186
41542W        W50342   9.248   1.872  18.867  0.2201 -0.0436  0.2853
41543W        W50343   1.468   1.062  27.933  0.1054  0.0900 -0.2487
41544W        W50344   5.998   5.086  22.994 -0.1612  0.2820 -0.0199
41545W        W50345  19.212   1.695   7.579 -0.0997 -0.4676  0.0495
41546W        W50346  10.357   2.297   6.817  0.0432 -0.1947  0.1002
41547W        W50347  17.411   3.320  44.433 -0.2632  0.3381  0.3492
41548W        W50348   3.176   6.461  15.217  0.2352  0.0332  0.5325
41549W        W50349  12.214   2.146  39.438 -0.1032  0.1064 -0.0261
41550W        W50350   1.493   5.155  36.085  0.2081  0.1919  0.0363
41551W        W50351   1.659   3.900  12.479  0.3648 -0.0493 -0.0057
41552W        W50352  18.456   0.044  44.762  0.1368 -0.1402  0.1564
41553W        W50353  16.427   4.971   4.845  0.1744 -0.0384 -0.0011
41554W        W50354  19.013   5.636   6.183  0.1258  0.2468  0.2938
41555W        W50355  13.657   2.627  36.315  0.0529 -0.0347 -0.1400
41556W        W50356  16.507   6.303  43.324  0.2718 -0.2073 -0.1717
41557W        W50357  10.004   1.327  15.588  0.0809  0.2309 -0.1554
41558W        W50358   1.357   6.443   3.242 -0.0167 -0.0311  0.1032
41559W        W50359  15.887   1.503  17.517  0.0789  0.1027 -0.2085
41560W        W50360  14.086   2.740  22.072 -0.0114  0.1367  0.0800
41561W        W50361   4.020   1.231  26.858  0.3672  0.0272  0.1306
41562W        W50362   9.358   5.740  38.622 -0.2631  0.1438  0.2432
41563W        W50363   1.564   0.770   2.987  0.0483 -0.2094  0.1672
41564W        W50364   6.908   1.110   2.203 -0.1844  0.0505 -0.6455
41565W        W50365   5.689   0.426  11.013  0.0306  0.2672 -0.0205
41566W        W50366  10.791   1.020  44.165 -0.2117 -0.0703 -0.2385
41567W        W50367  15.937   2.983   2.977 -0.0269 -0.2199  0.1780
41568W        W50368  17.360   6.440  18.656  0.0195  0.0114  0.2210
41569W        W50369   4.266   1.380  34.741 -0.1878 -0.2814 -0.1044
41570W        W50370   6.100   3.165  39.472 -0.0582  0.2482 -0.1268
41571W        W50371  16.015   1.600  18.085 -0.0610 -0.3790 -0.0869
41572W        W50372  18.828   3.542  40.326 -0.0996 -0.1102  0.0481
41573W        W50373  11.965   2.344  41.347 -0.1255 -0.1767 -0.6567
41574W        W50374   7.871   0.155  44.893 -0.0481 -0.2696 -0.1825
41575W        W50375   0.952   1.930  32.228 -0.0231 -0.1824  0.0801
41576W        W50376  18.285   5.932  16.093 -0.0869 -0.1839 -0.2309
41577W        W50377  16.033   2.246  35.597 -0.1715  0.2644  0.0034
41578W        W50378  19.925   1.089  37.935 -0.0012  0.0792 -0.3894
41579W        W50379   2.465   0.925  25.297 -0.1158  0.2436  0.1601
41580W        W50380   5.523   4.155  44.981 -0.2772 -0.3406 -0.0792
41581W        W50381  11.727   3.080  13.701  0.1620  0.1826 -0.1095
41582W        W50382  18.033   1.457  15.321 -0.1283  0.2736  0.1967
41583W        W50383   2.510   0.725  29.689  0.1230 -0.0199 -0.2532
41584W        W50384  12.210   2.883  11.814  0.0672  0.0548 -0.2009
41585W        W50385   5.556   6.315  23.568  0.2744 -0.2397 -0.4921
41586W        W50386   1.456   3.547  43.098  0.3717 -0.1042 -0.0746
41587W        W50387  10.418   2.111  37.818 -0.0517 -0.2339 -0.3993
41588W        W50388   2.815   6.155  37.451  0.0003 -0.2578  0.0249
41589W        W50389   2.625   2.977   4.026 -0.1438  0.1701 -0.1733
41590W        W50390   8.072   2.604   8.576 -0.2947  0.0011 -0.1770
41591W        W50391   9.100   4.953   7.172 -0.1223  0.0116 -0.0365
41592W        W50392  18.183   5.895   4.544 -0.0955  0.1122  0.0609
41593W        W50393  10.922   4.925  29.131  0.1520 -0.0232  0.1705
41594W        W50394   2.725   4.988   8.100 -0.0459 -0.0043  0.3327
41595W        W50395  17.589   0.664  35.767 -0.1657  0.1378 -0.1275
41596W        W50396  20.289   5.225  38.001  0.4049  0.1417 -0.1186
41597W        W50397   8.988   6.059   5.949 -0.2267 -0.1659 -0.0585
41598W        W50398  20.119   2.040   1.163 -0.0102  0.1362 -0.2153
41599W        W50399   4.362   1.842  10.453 -0.1501  0.0570 -0.0145
41600W        W50400   2.356   2.466   0.772  0.2325  0.1084 -0.0072
41601W        W50401  15.672   1.246  17.998 -0.0318 -0.0100  0.0295
41602W        W50402   3.709   3.112  37.907 -0.1783  0.0734 -0.0383
41603W        W50403   0.689   4.296   5.887 -0.0553  0.2385 -0.1701
41604W        W50404   5.831   3.230  24.071  0.0339 -0.0630  0.1606
41605W        W50405  16.687   3.625   2.701 -0.0501 -0.3562 -0.0721
41606W        W50406  21.035   2.564  25.810 -0.0798 -0.0534 -0.3550
41607W        W50407  19.364   2.655  39.270  0.0699 -0.1749  0.0004
41608W        W50408  13.077   5.232   5.334  0.0008 -0.0695  0.1339
41609W        W50409   0.755   3.170  43.755 -0.1020  0.1745  0.1046
41610W        W50410  11.414   4.889  35.800 -0.2230 -0.0171 -0.1747
41611W        W50411  19.218   5.190  41.547  0.3154  0.3133  0.0265
41612W        W50412  15.913   1.284  12.544 -0.1369  0.1105 -0.1556
41613W        W50413   2.892   3.659  11.377 -0.0704  0.1546  0.1358
41614W        W50414   6.438   5.428  13.784 -0.2085  0.0342 -0.1075
41615W        W50415   5.243   6.233  16.287 -0.0920 -0.1101  0.0291
41616W        W50416   2.942   0.836  16.007  0.2654 -0.0198 -0.0136
41617W        W50417   8.462   5.946   8.289  0.1206  0.2143  0.2389
41618W        W50418  17.945   3.955  29.574 -0.1540  0.1151 -0.1059
41619W        W50419   3.523   4.832   2.457 -0.3428  0.1448  0.0688
41620W        W50420  20.236   1.397  30.052  0.1048 -0.0645  0.0202
41621W        W50421  17.985   4.186  30.905  0.1738 -0.1025  0.0930
41622W        W50422  17.342   4.105  13.648 -0.2298 -0.2557 -0.0511
41623W        W50423   6.230   1.197  42.144 -0.0622  0.2313 -0.0437
41624W        W50424  20.734   6.047   5.937 -0.0791  0.3604 -0.1763
41625W        W50425  18.094   3.028  16.078  0.5451  0.0986 -0.1685
41626W        W50426   2.838   6.521  42.002  0.0404  0.0425 -0.0503
41627W        W50427   3.229   4.421   7.462 -0.0248 -0.1266  0.0577
41628W        W50428  21.071   1.456  11.209  0.0708  0.1097 -0.0710
41629W        W50429  12.080   3.757  29.903  0.0075  0.2096  0.0243
41630W        W50430   1.708   2.552  36.607 -0.0907 -0.0360  0.0382
41631W        W50431   4.809   5.910  14.381  0.0937  0.1040  0.1022
41632W        W50432   1.017   4.238  45.145  0.1432 -0.2125 -0.1360
41633W        W50433  16.025   0.153  31.840 -0.0855 -0.1005  0.0252
41634W        W50434   2.118   4.664  10.351 -0.0843 -0.1590  0.2078
41635W        W50435   4.283   0.153  31.429 -0.1684  0.0141 -0.1154
41636W        W50436  15.165   3.250  42.639 -0.2087  0.3133  0.2277
41637W        W50437  16.450   1.430  10.024  0.1170  0.1163  0.0782
41638W        W50438  14.988   3.389  34.869 -0.0016  0.3250  0.0494
41639W        W50439   7.260   1.480  11.436  0.1078 -0.2379  0.3508
41640W        W50440   0.748   3.481  14.018  0.1910  0.0321  0.1979
41641W        W50441   7.609   3.126   7.651 -0.0484 -0.0951 -0.1206
41642W        W50442   2.630   4.595  25.807  0.2742  0.3269  0.3104
41643W        W50443   6.780   6.606  34.904  0.1987  0.0089  0.2616
41644W        W50444  14.892   1.953  33.726  0.0857 -0.2938  0.0983
41645W        W50445  16.751   1.006  36.005 -0.0398  0.3555 -0.0780
41646W        W50446  19.828   1.077  30.993 -0.4354  0.0558  0.0010
41647W        W50447   3.128   0.334  37.701 -0.3629 -0.2998  0.0215
41648W        W50448   0.805   6.264  35.878  0.3377  0.5158  0.1074
41649W        W50449   6.262   2.371   6.211  0.2201  0.0098  0.2407
41650W        W50450   7.190   1.545  35.545  0.1572 -0.3466 -0.2339
41651W        W50451   6.059   1.023  28.153  0.0369  0.2339  0.1787
41652W        W50452  14.527   3.777  38.610  0.2663  0.4615  0.2353
41653W        W50453  20.806   3.525   7.808  0.0163  0.1994 -0.0213
41654W        W50454  10.831   3.070   9.060 -0.2707 -0.0704  0.1207
41655W        W50455  20.872   3.650  14.351  0.2688  0.1737 -0.0809
41656W        W50456   4.816   2.148   1.779 -0.3418 -0.0662 -0.2540
41657W        W50457  13.235   3.309  19.886 -0.2016 -0.3715  0.2697
41658W        W50458   1.226   0.500   8.797 -0.0681  0.0643 -0.2272
41659W        W50459   1.237   5.838  15.559 -0.0468 -0.1113  0.1608
41660W        W50460   9.880   1.020  44.407 -0.3362  0.2662 -0.2418
41661W        W50461   9.438   2.065  17.140  0.3161 -0.2164 -0.0392
41662W        W50462   4.409   1.876  35.880 -0.2413  0.0685  0.2993
41663W        W50463   5.421   6.389  42.350 -0.1876  0.1835 -0.0204
41664W        W50464  17.335   5.082  37.060  0.0061  0.0150 -0.0006
41665W        W50465  15.298   2.378  36.740  0.3325  0.1802  0.1095
41666W        W50466   7.522   4.011  44.701  0.1398  0.1609 -0.0020
41667W        W50467   8.904   5.778  29.605 -0.3651  0.1714  0.1109
41668W        W50468  16.831   0.811  11.279 -0.2143 -0.0338  0.1539
41669W        W50469   0.182   1.492  11.795 -0.0807 -0.0810  0.2993
41670W        W50470  15.617   1.009  11.100 -0.1482  0.2415 -0.0962
41671W        W50471   2.947   5.327   6.145  0.0972 -0.0665 -0.0017
41672W        W50472   4.786   5.774   6.199  0.0190 -0.2055  0.1761
41673W        W50473  13.911   1.312  22.404 -0.1837  0.0279 -0.1730
41674W        W50474  13.880   5.637  34.961  0.2167 -0.0215  0.1647
41675W        W50475   0.886   2.447  34.314 -0.0749  0.2005  0.1787
41676W        W50476   6.614   1.928  12.865  0.0940  0.0250 -0.0596
41677W        W50477   2.800   1.224  21.788  0.1960 -0.3771  0.2402
41678W        W50478   1.338   0.493   6.450  0.1091  0.4230 -0.2523
41679W        W50479  19.103   1.712  44.632 -0.0402  0.1028 -0.1219
41680W        W50480  12.971   0.558   2.881 -0.0169  0.1767 -0.1488
41681W        W50481   6.566   2.020  31.913 -0.0283  0.0404 -0.0561
41682W        W50482   4.801   5.471  11.679  0.1682  0.1920  0.0206
41683W        W50483   1.814   2.129  10.751 -0.0117 -0.1139  0.1564
41684W        W50484  13.432   1.911   7.747  0.4103 -0.0985 -0.0499
41685W        W50485  13.183   5.685  33.609 -0.0025  0.1692  0.1790
41686W        W50486   2.534   2.905  26.741 -0.2578  0.0085 -0.3192
41687W        W50487   1.528   0.263  29.750 -0.1550  0.1354  0.2842
41688W        W50488   3.909   2.126  14.170  0.2106 -0.0183  0.0312
41689W        W50489  15.649   4.146  32.271 -0.2315  0.0007  0.3350
41690W        W50490  15.241   2.972  32.865  0.1014  0.2512  0.2995
41691W        W50491   1.500   3.840   1.414  0.1497  0.2848 -0.0800
41692W        W50492  17.972   1.594  28.564  0.0704 -0.2736 -0.1151
41693W        W50493  16.564   1.563  43.156  0.3827 -0.0415  0.0702
41694W        W50494   6.166   4.661  36.673  0.0206 -0.2269 -0.1771
41695W        W50495  14.124   1.132  42.714  0.1139  0.0422 -0.1671
41696W        W50496   6.352   5.570  30.621 -0.0552  0.0761  0.2081
41697W        W50497   1.761   0.778  35.511  0.2004 -0.2057 -0.1264
41698W        W50498  11.876   1.144  38.360 -0.2468  0.1878 -0.0367
41699W        W50499  14.188   2.391  41.270  0.3098 -0.0126  0.2367
41700W        W50500   3.071   1.797  28.380 -0.0116  0.1709 -0.1795
41701W        W50501  10.073   1.751  32.265 -0.0945  0.0443  0.1446
41702W        W50502  14.292   0.878   3.639 -0.1214  0.2743 -0.1480
41703W        W50503  14.249   5.207  31.802 -0.0799 -0.0250  0.1006
41704W        W50504  20.006   1.617  38.028  0.0929  0.3555  0.1811
41705W        W50505  21.046   2.028  13.878 -0.3489  0.1158  0.3738
41706W        W50506   3.588   6.541  26.833 -0.1393  0.1343  0.1378
41707W        W50507   2.720   4.259  35.233 -0.0741 -0.0848  0.0139
41708W        W50508   5.736   3.692   0.008 -0.0261  0.1918  0.1444
41709W        W50509  18.090   3.806  12.191  0.0263  0.0755 -0.0698
41710W        W50510   9.845   2.043  44.443  0.0409 -0.1086  0.3934
41711W        W50511   7.598   3.288   0.650  0.2346  0.1669 -0.2187
41712W        W50512   2.949   5.499  24.875  0.1227 -0.2386 -0.0645
41713W        W50513  17.238   1.898   4.998  0.1673  0.0177 -0.0852
41714W        W50514   1.070   2.276  40.961  0.3501 -0.1400  0.1286
41715W        W50515   4.462   2.602  14.367 -0.1228  0.0666 -0.1365
41716W        W50516  13.625   6.417  21.017  0.0822 -0.1767  0.0980
41717W        W50517  10.845   5.946  17.482  0.0085 -0.1165  0.2657
41718W        W50518  13.611   6.246  36.861  0.0060  0.2463  0.2081
41719W        W50519  11.878   2.561  36.682 -0.0324  0.0689 -0.0425
41720W        W50520   6.816   5.913   5.244 -0.1615 -0.1365  0.2514
41721W        W50521  16.299   0.320  11.920  0.0903  0.3632 -0.0001
41722W        W50522   9.370   1.279  27.255 -0.0259 -0.1201 -0.0139
41723W        W50523   3.920   0.824  11.129 -0.0839  0.1434 -0.0999
41724W        W50524   4.683   3.816  12.885 -0.1120 -0.1141  0.1924
41725W        W50525   1.394   5.444  34.330 -0.0227  0.2289  0.2665
41726W        W50526  10.501   6.031  33.860 -0.1905  0.0212  0.2831
41727W        W50527  15.787   0.977  10.085 -0.0909 -0.0114  0.0668
41728W        W50528   8.350   2.642  39.892  0.0235  0.1661  0.0843
41729W        W50529   4.757   4.801  14.444 -0.0424 -0.0618  0.1897
41730W        W50530   2.631   6.375  31.252 -0.0883 -0.1332  0.1916
41731W        W50531  18.723   3.556  44.839  0.0917 -0.1972 -0.0805
41732W        W50532  15.487   1.237  41.510  0.1194  0.0421  0.2697
41733W        W50533  16.055   1.327  43.965  0.2897  0.2458  0.2936
41734W        W50534   5.341   2.866  34.437 -0.1414  0.2037 -0.0626
41735W        W50535   4.423   0.385   9.649 -0.1498 -0.0564 -0.1398
41736W        W50536   4.708   6.013  44.636 -0.2307 -0.1690 -0.2839
41737W        W50537   3.016   4.167  21.907  0.0160  0.4563 -0.0458
41738W        W50538  14.541   6.447  24.316 -0.3743 -0.1004 -0.0047
41739W        W50539  20.778   4.775   5.473 -0.0947  0.1541  0.0754
41740W        W50540  12.492   4.480   2.393 -0.0755 -0.0239  0.1012
41741W        W50541  15.680   6.555  43.630  0.2257  0.0062  0.0525
41742W        W50542   8.665   1.193  17.759  0.0684 -0.2647  0.2202
41743W        W50543   0.330   5.524  42.353  0.2716  0.1154 -0.0146
41744W        W50544   8.192   0.590  28.011  0.3309 -0.0782  0.1118
41745W        W50545   7.839   2.357  27.411  0.3376 -0.1315  0.0481
41746W        W50546  12.931   5.537  36.758  0.1327  0.1289  0.1583
41747W        W50547  17.901   1.902   7.259  0.1220 -0.0476 -0.1066
41748W        W50548  17.961   1.790  38.104 -0.0914 -0.1316 -0.0078
41749W        W50549   7.557   2.581   1.947  0.1301 -0.0575 -0.2160
41750W        W50550  12.995   0.936  17.145 -0.2492  0.2588 -0.1068
41751W        W50551  12.969   4.748  40.426 -0.1123  0.2341 -0.0203
41752W        W50552  18.410   0.948  18.354  0.0412 -0.2856 -0.2950
41753W        W50553  19.376   6.404  17.267  0.1768 -0.0144  0.2039
41754W        W50554   5.723   0.251  36.005  0.3178 -0.2806 -0.0305
41755W        W50555  20.130   5.999  35.205 -0.0611  0.0572 -0.0569
41756W        W50556   8.073   2.143   3.535 -0.0003 -0.0991 -0.2810
41757W        W50557  21.097   3.795  33.584  0.0972  0.0144 -0.2447
41758W        W50558  19.121   1.347  34.244 -0.2292 -0.2010  0.1773
41759W        W50559  12.701   1.754  20.472  0.1855  0.0977 -0.1758
41760W        W50560   4.210   5.470  11.180 -0.2857  0.2477  0.1752
41761W        W50561   4.359   0.833   6.686 -0.1790  0.1393 -0.2948
41762W        W50562   9.531   2.799   9.930  0.2123 -0.1576 -0.2228
41763W        W50563   4.548   5.722  42.314  0.1012 -0.0694  0.1046
41764W        W50564  12.329   1.505  43.604 -0.0653  0.1084  0.0281
41765W        W50565  19.799   0.050  17.600  0.0765  0.2272 -0.1285
41766W        W50566   2.740   4.555   4.549  0.0360  0.2384 -0.2283
41767W        W50567   0.686   2.988  25.455 -0.0013 -0.1027  0.1363
41768W        W50568   7.892   0.039  39.533 -0.0560 -0.0728  0.3056
41769W        W50569  19.471   2.188   9.898 -0.3009  0.0052 -0.1926
41770W        W50570   2.478   0.118  39.792  0.1091 -0.2724 -0.1117
41771W        W50571  16.758   1.013  21.674  0.0363 -0.2840  0.2472
41772W        W50572  14.980   0.295   4.224  0.2266 -0.1835  0.0809
41773W        W50573   9.431   2.021  40.409 -0.0563 -0.3338  0.0803
41774W        W50574  12.234   3.360  19.007 -0.1952  0.2874 -0.1620
41775W        W50575  13.122   1.329  35.507 -0.3914 -0.0090 -0.2434
41776W        W50576   2.993   0.665  23.400 -0.1019 -0.2137 -0.0422
41777W        W50577  14.617   1.509   5.233  0.0202  0.1442 -0.0711
41778W        W50578  14.552   3.069   9.494 -0.0742 -0.1366  0.0331
41779W        W50579  13.525   0.458  38.450 -0.3273 -0.0129 -0.2664
41780W        W50580  18.733   5.530   5.752  0.1346 -0.1383 -0.1241
41781W        W50581   5.247   4.580  23.268 -0.0870 -0.0988 -0.1782
41782W        W50582   8.128   3.401  35.072 -0.0992  0.3899 -0.2334
41783W        W50583   5.329   1.735   8.721 -0.3173  0.1971 -0.0821
41784W        W50584  19.599   4.712  37.403 -0.4055 -0.1853  0.3750
41785W        W50585   5.593   1.927  34.185  0.1204 -0.0996 -0.2822
41786W        W50586  12.005   1.816  43.831  0.0447 -0.0156  0.0049
41787W        W50587   9.589   3.981  18.842  0.0104 -0.1662 -0.0315
41788W        W50588  18.471   0.755  10.549 -0.0851 -0.0968  0.1033
41789W        W50589   2.774   3.649  27.163 -0.1246 -0.2325  0.2972
41790W        W50590   2.477   2.713   3.122 -0.0260 -0.0269 -0.0076
41791W        W50591   8.312   4.620  42.586 -0.1004  0.0063 -0.0796
41792W        W50592   5.081   2.354  30.984  0.0321  0.0911  0.0543
41793W        W50593  11.768   2.602   8.354  0.0505  0.1009 -0.0420
41794W        W50594  11.882   1.597   6.689 -0.2537  0.1952  0.2843
41795W        W50595   1.689   5.769   3.800 -0.1487  0.2001  0.3166
41796W        W50596  17.535   1.273  15.557  0.2514  0.1155  0.1457
41797W        W50597  15.568   6.529   1.595 -0.1051 -0.0834  0.1876
41798W        W50598   6.887   5.066  30.440  0.2421 -0.3669  0.0973
41799W        W50599  13.381   6.477  40.366  0.1600 -0.0600 -0.0896
41800W        W50600   8.812   1.328  16.950 -0.3384  0.0904 -0.1787
41801W        W50601   8.346   1.354  43.265 -0.0786  0.2743 -0.1649
41802W        W50602   2.343   1.588  32.668 -0.1324 -0.1803 -0.3482
41803W        W50603  14.457   2.742  44.807  0.0230 -0.0496  0.1500
41804W        W50604  18.568   6.033   3.623  0.2163 -0.2129  0.2234
41805W        W50605   8.777   2.619  15.615  0.2353 -0.2801  0.1006
41806W        W50606   6.057   4.641  32.320 -0.0462 -0.0736  0.0018
41807W        W50607   6.528   5.447   7.314 -0.3950 -0.1532 -0.2549
41808W        W50608  16.064   1.253   8.341  0.2216  0.0227  0.0302
41809W        W50609  20.319   3.329  26.275 -0.1173  0.1964 -0.0774
41810W        W50610   0.405   1.815   4.224  0.2479 -0.0812  0.0600
41811W        W50611   6.385   3.237  26.349  0.0932  0.1586  0.3710
41812W        W50612  11.385   3.801   7.848  0.4263  0.0321 -0.1649
41813W        W50613   5.930   6.258   1.296  0.3312  0.1532  0.4827
41814W        W50614  15.217   0.585  37.382 -0.0774 -0.0329 -0.2246
41815W        W50615  14.833   6.552  41.705 -0.1384  0.2009  0.0190
41816W        W50616   6.348   0.479  16.290 -0.1075 -0.2390 -0.0747
41817W        W50617  10.755   0.613   6.407  0.1107  0.0573  0.3655
41818W        W50618  17.295   1.138   6.375 -0.0084  0.1431 -0.0372
41819W        W50619  15.968   2.652   6.121 -0.0698 -0.3013 -0.4285
41820W        W50620   1.743   0.942  34.423 -0.2317 -0.1845  0.1795
41821W        W50621  17.594   2.686  16.620 -0.0267 -0.1483 -0.1428
41822W        W50622  13.601   4.151  22.524 -0.0861 -0.0717 -0.1395
41823W        W50623   7.749   5.951   7.087 -0.0613 -0.1249  0.4136
41824W        W50624  11.591   2.741  29.299  0.0104 -0.0557 -0.1657
41825W        W50625  20.398   2.424  42.345 -0.2501 -0.0923 -0.2219
41826W        W50626  12.656   4.664  43.964 -0.1824 -0.0985  0.2040
41827W        W50627   3.123   1.360   9.319  0.2258  0.2109  0.0643
41828W        W50628   9.817   2.807   4.076 -0.0285  0.1899  0.0273
41829W        W50629   1.318   3.246   5.438 -0.4718  0.3466 -0.0303
41830W        W50630  19.272   4.153  33.761 -0.0253 -0.1533 -0.1321
41831W        W50631   8.961   0.284  16.906  0.1621  0.0663 -0.2022
41832W        W50632  13.220   6.283   2.421  0.1739  0.0841 -0.0778
41833W        W50633   3.320   2.381  21.157 -0.1194 -0.2464 -0.0913
41834W        W50634  14.604   3.642  29.459  0.1940 -0.0679  0.1471
41835W        W50635  10.942   4.987  11.486 -0.1125 -0.3922 -0.1659
41836W        W50636  16.687   2.807  36.395  0.1160 -0.0971  0.0733
41837W        W50637   7.390   0.965   6.756 -0.0730 -0.1994 -0.0955
41838W        W50638   9.686   5.657  11.915  0.5919 -0.1053  0.1619
41839W        W50639  16.255   1.741  32.761 -0.0981  0.2981 -0.1714
41840W        W50640   8.626   5.376  37.274  0.0163  0.0671 -0.0483
41841W        W50641   7.930   4.695   3.364 -0.0081 -0.0213 -0.2208
41842W        W50642   1.925   5.785   4.880 -0.0654  0.1622 -0.1858
41843W        W50643  10.848   6.306  44.764 -0.0899  0.3431 -0.3036
41844W        W50644   9.765   4.076  28.876 -0.1598  0.0223 -0.0889
41845W        W50645  12.634   3.460  10.756 -0.1575  0.2933  0.0103
41846W        W50646   8.006   2.751  15.149  0.3144  0.3547  0.2341
41847W        W50647  14.164   6.580  36.393 -0.0518  0.0618 -0.1661
41848W        W50648  18.836   6.282  36.711 -0.0479  0.1342 -0.1007
41849W        W50649   3.246   3.319  15.841 -0.1082  0.0457 -0.0821
41850W        W50650   0.268   5.380  25.103  0.0920  0.0136  0.1261
41851W        W50651  14.690   2.988   1.189  0.0831 -0.0925 -0.0439
41852W        W50652  11.069   6.314   8.550 -0.0425  0.2979 -0.2990
41853W        W50653  15.518   0.748  19.995  0.0618  0.0775  0.1960
41854W        W50654   5.912   0.475  11.855  0.0319  0.1288  0.0418
41855W        W50655  16.626   3.652   9.378  0.0291 -0.1498 -0.0714
41856W        W50656   1.165   2.902   3.786 -0.1125 -0.0265 -0.1572
41857W        W50657  11.212   2.215  39.565 -0.3227 -0.4383  0.1062
41858W        W50658   2.888   5.602  34.532 -0.0944  0.0000  0.0953
41859W        W50659   2.602   0.544  13.712  0.1504 -0.2545 -0.1017
41860W        W50660   6.443   3.379   5.505 -0.1295  0.3495  0.2150
41861W        W50661  13.858   4.123  38.160  0.1893  0.1171  0.0341
41862W        W50662   3.484   5.352   6.646  0.0437  0.1546 -0.0694
41863W        W50663  10.616   5.787   4.628  0.1720 -0.2360 -0.1357
41864W        W50664  21.053   3.698  41.694 -0.1211 -0.0741 -0.0485
41865W        W50665   4.417   3.025  22.215 -0.1200 -0.1499 -0.2347
41866W        W50666  10.319   6.016  14.095 -0.1458 -0.1533 -0.4405
41867W        W50667  10.445   2.860   5.085 -0.0127  0.3792  0.0555
41868W        W50668  13.818   0.035  22.468 -0.0905  0.1333 -0.2861
41869W        W50669  16.654   2.091  44.013 -0.3123  0.1103  0.0701
41870W        W50670   5.871   5.095   7.011  0.1905 -0.0707 -0.0129
41871W        W50671   6.069   0.914   4.717 -0.3588 -0.1132  0.0497
41872W        W50672   9.333   4.914  42.304 -0.1518 -0.1311  0.0481
41873W        W50673   3.233   0.035   0.428 -0.0508 -0.2674 -0.1206
41874W        W50674  18.438   3.907  18.694  0.1861  0.1041  0.2934
41875W        W50675   3.065   0.961  20.076 -0.1529 -0.0621 -0.0987
41876W        W50676   9.941   0.376  27.893 -0.2952  0.1333 -0.0382
41877W        W50677   3.406   2.281   3.565  0.1311 -0.2696 -0.0475
41878W        W50678   9.704   2.397  16.821 -0.2854 -0.1757 -0.0937
41879W        W50679  11.912   5.654  35.808  0.0798  0.4779  0.0276
41880W        W50680   4.131   1.296   6.754  0.1883  0.2156 -0.1713
41881W        W50681   2.597   1.234  22.243  0.3504  0.0053  0.0047
41882W        W50682   6.654   5.082  26.383  0.2617  0.0140 -0.0532
41883W        W50683  10.522   3.970  35.134  0.0854  0.0752  0.1632
41884W        W50684   5.606   6.153  22.179  0.2412 -0.0724 -0.3476
41885W        W50685   5.098   1.380   6.947  0.2259 -0.0163 -0.1549
41886W        W50686  15.128   5.901   7.010  0.2993 -0.0143 -0.1981
41887W        W50687   2.504   6.434  40.212 -0.0973 -0.1423  0.1228
41888W        W50688   7.532   2.490  13.883 -0.1465 -0.1061 -0.1332
41889W        W50689  16.548   1.277   2.013 -0.2387  0.0477  0.0304
41890W        W50690  20.570   2.033   8.755 -0.0364 -0.0473  0.1482
41891W        W50691  11.985   3.709  20.640 -0.1618  0.0419  0.2318
41892W        W50692  13.638   3.045  17.443 -0.3260  0.0011  0.2223
41893W        W50693   6.150   1.489  36.389  0.0066  0.0663  0.1927
41894W        W50694  19.527   5.774   3.387 -0.1445 -0.3334  0.1147
41895W        W50695   6.771   3.574  33.521 -0.0716 -0.1870 -0.1662
41896W        W50696  11.523   4.726  38.399  0.1754 -0.1521 -0.1948
41897W        W50697   0.869   3.365  36.337  0.1191 -0.0512 -0.0786
41898W        W50698   3.129   4.525  11.613  0.0025 -0.2002 -0.2442
41899W        W50699   7.845   2.610   7.674  0.0125 -0.2891  0.0251
41900W        W50700   9.622   0.576   8.732 -0.2501 -0.1918  0.0462
41901W        W50701   6.238   5.585  14.359  0.0868 -0.1348  0.0548
41902W        W50702   1.058   2.451   5.798 -0.3462  0.0448  0.1668
41903W        W50703  20.901   4.448  17.455 -0.2132  0.0635  0.1008
41904W        W50704  15.221   0.390  32.878  0.2039  0.2313 -0.1310
41905W        W50705   6.168   5.966  26.170 -0.1151  0.1194 -0.2380
41906W        W50706   7.226   2.494  24.836  0.0189  0.1974 -0.1107
41907W        W50707   2.669   0.028  24.172 -0.4354 -0.0837 -0.2641
41908W        W50708  12.153   4.820  14.848 -0.0754  0.2956  0.2503
41909W        W50709   8.285   6.511   4.682  0.0643  0.2062  0.3728
41910W        W50710   2.184   0.850  25.829 -0.0829 -0.0446  0.2135
41911W        W50711  16.388   6.330   9.808 -0.1736  0.2288  0.2209
41912W        W50712   2.035   0.871  41.162  0.0967  0.2645 -0.1104
41913W        W50713   3.031   2.253  37.926 -0.1364 -0.1673 -0.0582
41914W        W50714  13.393   6.152   5.275  0.1555 -0.2284 -0.4432
41915W        W50715  18.236   0.523  11.298  0.1123  0.2144  0.1995
41916W        W50716   7.191   2.036   3.157 -0.0140  0.3127  0.0375
41917W        W50717   2.579   1.264  44.767 -0.1229  0.0345 -0.3352
41918W        W50718   3.550   4.610  39.578 -0.1928 -0.0180  0.0599
41919W        W50719  12.026   0.559  18.590 -0.0030  0.2748  0.2583
41920W        W50720  19.543   5.968  10.721  0.1983 -0.2181  0.0362
41921W        W50721   8.452   0.866  10.238 -0.2303 -0.1875  0.3061
41922W        W50722  17.515   1.910   0.180  0.0246 -0.0303  0.2232
41923W        W50723  12.333   3.688  19.401 -0.0976  0.1526  0.2236
41924W        W50724   2.414   5.749   7.871 -0.3014 -0.0647  0.0931
41925W        W50725  12.183   0.383  20.450 -0.0313 -0.0874  0.0478
41926W        W50726  20.193   4.709   3.031 -0.0341 -0.0545  0.0439
41927W        W50727  18.186   2.481  33.771  0.0078 -0.0746 -0.0806
41928W        W50728   6.818   0.523  15.513  0.2481  0.4093 -0.0762
41929W        W50729  10.311   2.228  44.565 -0.1009 -0.0581 -0.0989
41930W        W50730   6.114   2.167  44.631 -0.2436 -0.0858  0.1239
41931W        W50731   0.830   2.710  12.469  0.3299 -0.0148 -0.0053
41932W        W50732  10.571   1.277  13.768 -0.1270 -0.0375 -0.1909
41933W        W50733  13.413   1.488   2.907 -0.2138 -0.0986 -0.0399
41934W        W50734  18.513   4.530  43.170 -0.0139  0.2816 -0.0045
41935W        W50735   2.566   4.108  12.137 -0.2124  0.3574  0.1226
41936W        W50736  16.469   2.531  37.852  0.0273  0.2741  0.2423
41937W        W50737  13.746   0.801  32.720  0.0729  0.2683 -0.0569
41938W        W50738  17.448   1.025  20.308  0.4453  0.0621 -0.0678
41939W        W50739   2.970   1.722  41.596 -0.0688 -0.1641  0.0382
41940W        W50740   8.003   4.894  10.844 -0.4047 -0.0165 -0.1782
41941W        W50741   4.113   2.669  39.987 -0.0840 -0.0145  0.1438
41942W        W50742  14.007   1.789   2.200  0.0209 -0.1269  0.0561
41943W        W50743   9.959   5.403  29.302  0.1064 -0.3088 -0.2547
41944W        W50744  19.520   5.719  30.952  0.4116  0.0005 -0.1901
41945W        W50745   5.984   0.150  42.084  0.2037 -0.2050 -0.0399
41946W        W50746   9.316   4.867  28.622  0.0146 -0.1652  0.0093
41947W        W50747  17.456   0.481  12.018 -0.2148 -0.0561 -0.2197
41948W        W50748   1.642   5.570  10.000  0.0246 -0.0736  0.2267
41949W        W50749   3.831   2.020   3.318 -0.0036  0.0041  0.2714
41950W        W50750  14.806   5.883  41.534 -0.1754  0.0847  0.2186
41951W        W50751  10.120   1.543  28.280 -0.1163  0.1822  0.1885
41952W        W50752   6.721   1.411  41.875  0.1820  0.2290 -0.1686
41953W        W50753  13.332   4.850   9.268 -0.0284  0.1476 -0.0639
41954W        W50754   0.426   0.222   5.551 -0.0143 -0.0491  0.0497
41955W        W50755  19.986   0.929   5.477  0.2001 -0.0355 -0.2005
41956W        W50756   4.128   0.426  15.656 -0.0867  0.1412  0.0430
41957W        W50757  14.034   4.109  43.661 -0.1080 -0.1016 -0.1515
41958W        W50758  13.356   1.606  17.789 -0.2034 -0.0048  0.0322
41959W        W50759   2.794   1.850  42.252  0.1511 -0.1692 -0.3794
41960W        W50760   9.077   3.485   8.082  0.3499 -0.0421 -0.2253
41961W        W50761  16.904   0.843  12.550  0.0081  0.1253 -0.3151
41962W        W50762  17.731   0.360  28.921 -0.0365  0.1420 -0.0677
41963W        W50763  16.615   3.921   4.964 -0.0031  0.1463  0.0027
41964W        W50764  10.057   2.445  34.889 -0.0849  0.2606 -0.1506
41965W        W50765  12.699   5.425  15.103  0.0845 -0.2507 -0.0947
41966W        W50766  14.389   5.297   6.645 -0.2591  0.0434 -0.1916
41967W        W50767  18.777   3.606  41.351 -0.0246 -0.1596 -0.3748
41968W        W50768  16.153   1.187  11.340 -0.0023 -0.0114  0.0065
41969W        W50769   8.103   5.714   9.230 -0.1759  0.0331 -0.0518
41970W        W50770   7.443   1.102  40.815 -0.1630 -0.3963 -0.0938
41971W        W50771  16.025   0.627  19.479  0.2940 -0.0878  0.1262
41972W        W50772   4.218   0.113  26.217 -0.0115 -0.0689  0.0162
41973W        W50773  13.103   6.543  32.533 -0.2433 -0.0148 -0.2071
41974W        W50774  19.887   0.473  43.188  0.3766  0.0433  0.0971
41975W        W50775  17.956   2.974   3.997  0.0483  0.0333 -0.1009
41976W        W50776  17.731   2.978  29.739 -0.0876  0.0733  0.0778
41977W        W50777  16.661   5.732  31.876  0.1570 -0.2813  0.0251
41978W        W50778  16.594   2.953  15.237 -0.1932 -0.0199  0.4419
41979W        W50779   0.400   6.190   6.952 -0.3255 -0.0422  0.1130
41980W        W50780  14.091   0.049  20.834 -0.1460  0.1663  0.0944
41981W        W50781   0.935   2.908  31.876 -0.4296  0.1077 -0.0968
41982W        W50782   2.622   5.169  26.817 -0.1908  0.1065  0.3659
41983W        W50783  11.354   3.379  31.935  0.2101 -0.2702 -0.2524
41984W        W50784  16.132   5.894   5.478 -0.2720 -0.2021  0.0511
41985W        W50785  11.911   5.359  40.082 -0.0822  0.1280  0.0862
41986W        W50786   3.034   2.997  24.308  0.1831 -0.2618  0.2977
41987W        W50787  10.302   3.184  35.380  0.0756 -0.1612 -0.1608
41988W        W50788  19.614   5.339  17.759  0.0110 -0.2296 -0.4209
41989W        W50789   7.216   1.625  36.021  0.1888 -0.0909  0.0149
41990W        W50790   8.883   0.300  16.389  0.4344 -0.0232 -0.1274
41991W        W50791   0.275   0.270  30.029  0.0128 -0.0453  0.0485
41992W        W50792  12.827   0.145  22.712  0.0427 -0.0814 -0.1656
41993W        W50793  13.400   5.581  17.533  0.3051 -0.0991 -0.0624
41994W        W50794  15.333   0.005  40.350  0.0915 -0.0728 -0.0943
41995W        W50795   9.819   3.109   9.516  0.0094  0.1590 -0.1166
41996W        W50796   3.645   5.291   6.201 -0.2697  0.0119 -0.2750
41997W        W50797   7.365   5.898  27.558 -0.0095  0.0219  0.3237
41998W        W50798   2.041   6.487  13.932 -0.0591 -0.0876 -0.0777
41999W        W50799  18.445   5.642  11.395 -0.2006  0.0486  0.1248
42000W        W50800  20.960   6.352   4.482  0.2284 -0.0524 -0.2228
42001W        W50801   1.558   5.460   2.954  0.0657  0.0048 -0.2755
42002W        W50802   9.244   4.592   6.275  0.1456 -0.1111  0.0944
42003W        W50803  15.323   4.373  33.131  0.0985  0.0373  0.2347
42004W        W50804  21.129   1.501   4.094 -0.1191  0.1222 -0.2087
42005W        W50805  13.942   1.926   7.702  0.1645  0.0537 -0.0559
42006W        W50806  14.420   1.251  34.907 -0.2861  0.0082  0.1659
42007W        W50807  16.862   0.285  21.093 -0.1269  0.2106  0.2070
42008W        W50808  20.897   5.775  11.845 -0.0213  0.0662  0.0643
42009W        W50809  14.944   1.456  34.810 -0.2618 -0.1265  0.2652
42010W        W50810   1.202   6.564  28.889 -0.3541  0.0010 -0.0488
42011W        W50811   2.336   4.422  33.349  0.1711 -0.3010  0.0553
42012W        W50812   8.988   4.754  29.250 -0.1576 -0.0985  0.1701
42013W        W50813  15.522   0.793  18.860  0.2874 -0.1026  0.1326
42014W        W50814  15.005   0.390   7.796 -0.0491  0.2563  0.0229
42015W        W50815   1.409   4.211  10.918 -0.3066 -0.0604  0.0051
42016W        W50816   1.024   1.312   2.338  0.2499  0.2382 -0.0547
42017W        W50817   4.405   3.530  38.260  0.0575 -0.2629 -0.1317
42018W        W50818   4.590   1.574  33.160  0.0218 -0.1149 -0.2282
42019W        W50819  19.987   5.813  13.752 -0.1152 -0.0107  0.1461
42020W        W50820  15.475   0.439   0.803 -0.2266 -0.0771  0.0210
42021W        W50821  15.597   3.280  10.946  0.1038 -0.2261  0.0240
42022W        W50822  10.287   6.359   3.262 -0.1686 -0.5631  0.0530
42023W        W50823   8.896   3.063  43.098  0.0108 -0.0744 -0.0576
42024W        W50824  12.113   6.505  35.248 -0.0348  0.2657 -0.2174
42025W        W50825  15.748   0.313   2.213 -0.1252  0.0492  0.0945
42026W        W50826  14.248   1.807  37.407  0.1104  0.1525  0.1519
42027W        W50827   2.680   2.861   2.133 -0.0954 -0.2749 -0.0482
42028W        W50828  20.226   1.010  32.652 -0.1090  0.1068  0.0520
42029W        W50829  11.876   6.369  10.208  0.1679  0.0393  0.3527
42030W        W50830  20.990   4.157   1.196  0.0789  0.0793  0.1017
42031W        W50831   1.220   3.125  29.132 -0.2195  0.1568  0.0311
42032W        W50832  20.337   4.206  30.215  0.0920 -0.4221 -0.2756
42033W        W50833   9.766   6.105  32.129 -0.0787 -0.3392  0.2107
42034W        W50834  14.722   1.548   2.434 -0.1639 -0.2313 -0.0293
42035W        W50835  19.422   3.156  10.130 -0.0025  0.2781 -0.3577
42036W        W50836   9.942   1.668   7.455  0.2046  0.1253  0.0671
42037W        W50837  15.469   4.741  14.160 -0.0549  0.2435  0.0010
42038W        W50838   1.581   1.671  10.855  0.0005 -0.0616  0.2830
42039W        W50839  15.174   1.754  21.583  0.2728  0.4591  0.2269
42040W        W50840  13.375   6.233  32.234 -0.1461  0.2632  0.0156
42041W        W50841   6.119   4.942  10.905  0.2519 -0.4396 -0.3896
42042W        W50842   5.897   1.541   9.419  0.3183 -0.2067  0.0015
42043W        W50843   2.938   5.175  39.215  0.0791  0.0882 -0.3525
42044W        W50844   6.420   2.504  29.745  0.1607 -0.3440 -0.1088
42045W        W50845  13.851   5.180  40.222 -0.1789  0.4239 -0.1023
42046W        W50846   0.516   1.694  36.898 -0.0528 -0.0433 -0.0305
42047W        W50847  12.009   2.400   7.322 -0.0169  0.1400  0.0695
42048W        W50848   5.370   6.137  26.067 -0.2504  0.2710  0.0649
42049W        W50849  16.392   4.194   4.025 -0.0259  0.3390 -0.2471
42050W        W50850   4.722   2.276  21.716 -0.1016  0.3368  0.2812
42051W        W50851   1.147   3.857  12.386 -0.0487 -0.0204  0.1523
42052W        W50852  17.091   3.578   8.430  0.3235 -0.1609 -0.0224
42053W        W50853   2.791   4.371   1.949 -0.4171 -0.3041 -0.2606
42054W        W50854   2.703   5.634  36.371  0.1444  0.1044  0.1241
42055W        W50855   0.929   0.805   7.275  0.1339 -0.2914  0.1005
42056W        W50856  16.312   6.384  13.644  0.0263  0.1037  0.1031
42057W        W50857  13.586   1.790  29.966 -0.1935 -0.1859 -0.2874
42058W        W50858   0.107   0.818  43.233 -0.1885 -0.0363  0.0326
42059W        W50859   2.990   4.194   9.914 -0.1007 -0.1414 -0.0431
42060W        W50860   6.346   5.462  22.529  0.2785 -0.1852 -0.3519
42061W        W50861   7.471   0.809  13.543 -0.2216 -0.1780 -0.2520
42062W        W50862   6.083   3.110  11.204  0.0896  0.0408 -0.3007
42063W        W50863   8.953   4.744   9.642  0.1058 -0.3779 -0.2618
42064W        W50864  18.920   1.587  37.096 -0.0470  0.2688 -0.0192
42065W        W50865   5.575   5.117  24.617 -0.2377  0.4864 -0.1329
42066W        W50866   4.419   3.072  39.815  0.3117 -0.0840  0.0152
42067W        W50867   5.551   0.810  41.433 -0.3066 -0.1433 -0.2290
42068W        W50868  17.007   0.089   8.515 -0.0216 -0.0360 -0.2030
42069W        W50869  11.845   3.168  19.535  0.2923  0.1098 -0.3594
42070W        W50870  15.298   5.582  35.615 -0.3257  0.1032 -0.2073
42071W        W50871  20.371   0.863  41.894 -0.2036  0.1154 -0.1554
42072W        W50872   2.793   1.653  44.395  0.2530 -0.0903 -0.1300
42073W        W50873  14.917   1.062   9.148  0.0918 -0.2046 -0.1780
42074W        W50874  12.439   0.597   8.633  0.1746 -0.0361 -0.1504
42075W        W50875   4.314   0.646  37.175  0.1613 -0.3199  0.0788
42076W        W50876   6.706   5.413  34.787  0.0060 -0.1719 -0.0963
42077W        W50877  11.429   2.901   1.906  0.0181 -0.2125  0.2789
42078W        W50878   5.555   1.277  43.189  0.0799 -0.0582  0.2022
42079W        W50879   4.515   1.706  13.125 -0.0296  0.0572  0.1871
42080W        W50880   5.783   1.179  28.708  0.0062 -0.0649  0.2863
42081W        W50881   5.467   2.725  10.758 -0.0663 -0.3916  0.3320
42082W        W50882   4.122   5.954  25.704  0.1772 -0.2276  0.0322
42083W        W50883  14.672   0.697  33.821  0.1192  0.1208  0.1317
42084W        W50884   8.785   3.286  12.666  0.0944  0.1434  0.0357
42085W        W50885   5.993   0.384   3.775 -0.3669  0.0907  0.0899
42086W        W50886  19.227   0.122  40.239  0.0647  0.2039 -0.0221
42087W        W50887   7.606   1.721   9.261  0.2811  0.0461  0.3146
42088W        W50888  17.041   2.701   4.568 -0.0504  0.0038 -0.3065
42089W        W50889  13.886   4.336   0.239 -0.0997  0.1807  0.0013
42090W        W50890   6.001   3.927  44.236 -0.0602  0.1389  0.1174
42091W        W50891   1.215   3.318   4.435  0.1192 -0.2219 -0.4208
42092W        W50892  13.193   4.012  43.685  0.0024  0.0940  0.2727
42093W        W50893   1.173   1.328  35.593  0.2799 -0.1522  0.0822
42094W        W50894  13.536   1.291  23.232 -0.0894  0.0208  0.0163
42095W        W50895   6.433   6.362   9.827 -0.2003  0.3681  0.0164
42096W        W50896   4.685   2.693  38.094 -0.2576  0.1627  0.3641
42097W        W50897  13.237   2.951  15.768  0.0651  0.2592 -0.0998
42098W        W50898   6.529   3.904  28.354 -0.0720 -0.3699 -0.0555
42099W        W50899  16.291   3.104   1.716  0.2400  0.3739  0.1521
42100W        W50900   7.863   6.579   7.913 -0.0576  0.1890  0.0408
42101W        W50901   9.562   3.947  37.553 -0.1375 -0.3480  0.2585
42102W        W50902   7.358   1.468   2.719 -0.0142  0.1081  0.1157
42103W        W50903   2.496   0.949  42.292 -0.3239  0.0211  0.0919
42104W        W50904   4.714   4.322  40.128 -0.3351  0.0509  0.1492
42105W        W50905  14.816   4.842  43.317 -0.0758  0.0153 -0.1687
42106W        W50906  13.543   3.839   1.713  0.0429 -0.1068 -0.1674
42107W        W50907   2.729   1.993  34.012 -0.3391 -0.2143  0.2699
42108W        W50908  13.450   3.419  11.470  0.2282  0.0341  0.0238
42109W        W50909  15.477   4.971  12.590 -0.2886 -0.1091 -0.4504
42110W        W50910   1.957   2.197  34.907 -0.2134  0.0160 -0.3024
42111W        W50911   5.091   1.546  43.444  0.1896 -0.2757 -0.1833
42112W        W50912   4.940   2.618  10.675 -0.0794 -0.0008 -0.0535
42113W        W50913  16.639   3.617   8.281  0.0739  0.0576 -0.2498
42114W        W50914   2.886   4.240  36.205  0.5394  0.0958  0.0819
42115W        W50915   5.496   1.232  13.719  0.2609 -0.3233  0.3644
42116W        W50916  14.216   3.217   4.542  0.0398 -0.3100 -0.1813
42117W        W50917   4.967   3.639  24.300 -0.0439  0.0359 -0.3813
42118W        W50918   8.143   3.582  14.874 -0.0862 -0.2356  0.2005
42119W        W50919   9.161   5.510   6.465  0.0495  0.2167  0.1642
42120W        W50920   9.735   4.125  17.472  0.3712 -0.0273  0.0457
42121W        W50921   3.844   5.405  25.054 -0.2377  0.0728  0.1475
42122W        W50922  13.026   2.446  41.197 -0.1050 -0.0200  0.2072
42123W        W50923   2.996   2.896  12.273  0.1605 -0.2201  0.2077
42124W        W50924  15.191   4.959  40.071 -0.1579  0.1255  0.0396
42125W        W50925  13.007   6.483  39.057 -0.0060  0.1406 -0.0684
42126W        W50926   0.912   5.920  23.538  0.2477  0.1289  0.1306
42127W        W50927   0.610   2.717  15.115 -0.2046 -0.2177  0.0369
42128W        W50928   6.481   3.650  10.084 -0.3391 -0.0023 -0.0719
42129W        W50929   5.495   1.183  25.830  0.1510  0.2610 -0.2496
42130W        W50930   1.208   6.355  26.810  0.0380  0.2315  0.1521
42131W        W50931  16.195   2.835  44.343 -0.2182 -0.2163  0.2561
42132W        W50932   0.413   0.315  25.668 -0.0501  0.1381  0.1235
42133W        W50933   5.301   5.993  41.253  0.0903  0.1458  0.1689
42134W        W50934   5.584   2.910   8.061 -0.1749 -0.0198 -0.0095
42135W        W50935  16.133   2.276  21.264  0.2367  0.0965  0.1119
42136W        W50936   9.725   1.487   9.240  0.2280  0.0653 -0.1837
42137W        W50937  20.782   2.105  29.559  0.1576 -0.0030  0.2851
42138W        W50938   2.708   5.324  30.237  0.2803  0.3497 -0.2063
42139W        W50939  17.058   5.437  40.205  0.0340  0.1378 -0.1668
42140W        W50940   3.053   3.946  12.939  0.3023  0.0005  0.3549
42141W        W50941   7.426   4.554   8.956 -0.2252 -0.0765 -0.0555
42142W        W50942   6.551   2.337  15.555  0.2781  0.1606 -0.2132
42143W        W50943   9.224   0.932  40.641  0.0729 -0.3025  0.0410
42144W        W50944   6.736   3.399  30.412  0.1282  0.0224 -0.1226
42145W        W50945   1.759   0.249   7.381 -0.0070 -0.0679 -0.5064
42146W        W50946   9.212   4.518  13.060  0.0532 -0.1471 -0.0587
42147W        W50947   1.225   0.040  44.614 -0.2152 -0.0474  0.1550
42148W        W50948   9.846   5.983  29.196  0.0087  0.1558 -0.0817
42149W        W50949   9.412   1.821   6.551 -0.1051  0.0292 -0.0255
42150W        W50950  18.317   5.610   1.109 -0.2976 -0.1401  0.1001
42151W        W50951  16.958   6.608   1.884  0.2454 -0.4309 -0.0101
42152W        W50952   4.401   2.855  32.186  0.4061 -0.1750  0.0586
42153W        W50953   8.718   4.484  34.589  0.0635 -0.2384  0.3786
42154W        W50954  16.442   5.321  33.654  0.0578  0.0193  0.1399
42155W        W50955  18.420   1.140  39.213  0.0458  0.1246 -0.0532
42156W        W50956   3.640   4.383  29.167 -0.0900 -0.0102 -0.1232
42157W        W50957  11.969   1.103  37.754 -0.1755 -0.0507 -0.3837
42158W        W50958   0.031   0.843  13.845  0.0942  0.1099  0.0808
42159W        W50959  16.129   0.517  38.310 -0.3697 -0.1612 -0.3245
42160W        W50960   9.121   3.482  14.621 -0.0665  0.1148  0.1839
42161W        W50961   5.140   5.792  43.112 -0.0355  0.1183  0.0165
42162W        W50962  17.426   3.589  17.779 -0.0031 -0.2252  0.0476
42163W        W50963  18.589   2.416  14.730  0.0038 -0.1867  0.1277
42164W        W50964  16.679   1.692  38.103  0.0367  0.2364 -0.1966
42165W        W50965   1.000   6.088  16.837 -0.0650  0.3212 -0.0264
42166W        W50966   4.069   4.016  35.670  0.1432 -0.1399 -0.0476
42167W        W50967  16.489   1.611  43.726 -0.2464  0.0526  0.0655
42168W        W50968  15.647   4.543  17.822 -0.1233  0.0680  0.2268
42169W        W50969  10.265   6.060  17.944 -0.5670 -0.1007  0.0512
42170W        W50970  20.684   1.287  39.630  0.1379 -0.2230 -0.3608
42171W        W50971  10.746   4.014  35.950  0.1050  0.1217 -0.0724
42172W        W50972  13.237   6.540  18.006 -0.0706 -0.0149  0.0419
42173W        W50973  16.204   2.138   6.187  0.2575  0.0061 -0.1565
42174W        W50974  14.556   4.897  16.124 -0.3699  0.0599  0.0393
42175W        W50975  18.254   5.897  29.475 -0.0126  0.0947 -0.0089
42176W        W50976  20.984   6.572  30.844  0.2154  0.0737  0.0663
42177W        W50977  19.764   4.768  13.532 -0.1381 -0.0831 -0.0135
42178W        W50978   3.837   1.063  32.218 -0.2823  0.0167 -0.3760
42179W        W50979   5.275   5.349  39.357 -0.0754  0.1233 -0.2632
42180W        W50980   7.389   2.287   6.812  0.1357 -0.2406  0.0994
42181W        W50981   3.377   3.595  14.228  0.0913  0.3321 -0.0938
42182W        W50982   8.149   3.846  16.266 -0.1008 -0.1205 -0.0732
42183W        W50983   1.679   4.928  26.849 -0.2337 -0.1393 -0.0113
42184W        W50984  11.104   5.677  12.699 -0.0104 -0.1409  0.1337
42185W        W50985   2.670   0.352  34.409 -0.0357 -0.4640  0.3980
42186W        W50986  18.029   0.739  39.095  0.2198  0.0643 -0.2634
42187W        W50987  10.241   5.896  38.116  0.1631 -0.1178 -0.1221
42188W        W50988  18.658   2.273  40.797 -0.1352  0.1165  0.0660
42189W        W50989   3.885   4.965  44.577  0.0738 -0.0488  0.0269
42190W        W50990   8.697   6.295  11.675  0.0892 -0.1028 -0.0408
42191W        W50991  19.816   5.172  13.781  0.0321 -0.2576 -0.1802
42192W        W50992   0.725   0.253  27.445 -0.3058 -0.0775  0.1920
42193W        W50993  10.852   3.318  17.561  0.0978 -0.2059 -0.0538
42194W        W50994   7.668   5.757  14.367 -0.1283  0.2514 -0.1160
42195W        W50995  15.149   5.648  17.181 -0.3687 -0.2171  0.3719
42196W        W50996  12.989   2.797  32.934 -0.1186  0.1011 -0.1362
42197W        W50997  15.201   1.966  43.220 -0.2207  0.1192 -0.2154
42198W        W50998   1.364   2.948  15.610 -0.1513  0.1518 -0.1855
42199W        W50999   1.974   6.494   5.904 -0.2261  0.3958 -0.1643
42200W        W51000  15.548   3.928  21.872 -0.2274  0.1661 -0.0767
42201W        W51001  13.529   6.152  12.157 -0.0885  0.0664  0.0021
42202W        W51002   9.233   5.965  30.855 -0.2196 -0.1595  0.2299
42203W        W51003   4.976   0.356  10.412  0.1692 -0.1062 -0.1253
42204W        W51004  11.798   4.011   6.525 -0.0121 -0.0229 -0.1520
42205W        W51005  20.304   1.141  33.157 -0.0554  0.1235 -0.1145
42206W        W51006  14.522   0.921   0.767  0.1360 -0.1078 -0.2442
42207W        W51007  12.357   6.331  44.435 -0.2651 -0.0917 -0.1162
42208W        W51008  20.336   3.126  33.735 -0.1334  0.1181 -0.0783
42209W        W51009  10.430   1.263  29.235 -0.1360  0.2218  0.0742
42210W        W51010  12.836   3.708   7.317  0.2003 -0.1699  0.0146
42211W        W51011   5.782   6.069  14.930 -0.2028  0.0906 -0.1086
42212W        W51012  12.527   1.656   4.658  0.1504 -0.1034 -0.0436
42213W        W51013   5.000   5.196   2.496 -0.1654  0.0660 -0.0257
42214W        W51014  16.779   5.386  36.006  0.2286  0.0313 -0.1407
42215W        W51015  18.714   3.258  34.007  0.2238  0.1448 -0.3949
42216W        W51016   4.592   3.042  45.094 -0.2153  0.0166 -0.0234
42217W        W51017  18.710   2.793  32.470 -0.2088  0.1836  0.0811
42218W        W51018   1.512   5.677  41.526  0.1090 -0.2489  0.1081
42219W        W51019   6.523   4.268   5.316 -0.2890  0.1393 -0.1441
42220W        W51020  13.197   4.703   3.363  0.0149  0.2786  0.3360
42221W        W51021   8.625   5.066  40.338 -0.1445 -0.3039  0.1009
42222W        W51022   4.419   4.037   8.621  0.2229 -0.0585  0.1663
42223W        W51023  11.007   0.073  14.518 -0.1291 -0.0363 -0.2352
42224W        W51024   3.130   1.850  34.812 -0.2739  0.4662 -0.2236
42225W        W51025  11.666   5.583  12.809  0.3640 -0.2416 -0.1343
42226W        W51026  17.105   0.400   7.683 -0.1541  0.0248 -0.0653
42227W        W51027  17.527   0.695  18.424  0.0308  0.3418  0.0926
42228W        W51028  14.429   4.888  38.374 -0.0101  0.0641  0.0462
42229W        W51029   6.372   3.940  37.400  0.0124  0.0122  0.0881
42230W        W51030  19.175   1.658  42.780 -0.0607  0.0231 -0.1801
42231W        W51031   9.839   0.425   4.909  0.3242 -0.1655 -0.2323
42232W        W51032   2.755   1.045   6.803 -0.0592  0.1210  0.2130
42233W        W51033  17.942   6.277  41.600  0.1938 -0.0219  0.0154
42234W        W51034   5.644   2.188  43.096 -0.0254 -0.0196  0.0023
42235W        W51035   0.887   2.336   1.628 -0.0144  0.0702  0.1326
42236W        W51036  15.269   0.274  37.913 -0.0074 -0.1484  0.2735
42237W        W51037  13.830   3.239  35.766 -0.0852  0.0531  0.1857
42238W        W51038  19.674   4.746   3.156  0.0121 -0.0565  0.1319
42239W        W51039   2.668   6.479   4.411  0.0109 -0.0025  0.0057
42240W        W51040   2.601   4.944   1.509  0.2099  0.1076 -0.3611
42241W        W51041  11.952   5.384   0.582  0.0248 -0.1608  0.1744
42242W        W51042  15.499   6.404  14.926  0.2381  0.1135 -0.0892
42243W        W51043  17.343   5.963  32.434  0.0194  0.3437 -0.3219
42244W        W51044   1.042   2.283   2.896 -0.0752 -0.0689  0.1267
42245W        W51045  19.386   2.960  16.435 -0.1756 -0.0368 -0.2541
42246W        W51046   9.381   5.894  37.100 -0.0358 -0.2364  0.4374
42247W        W51047  20.182   3.930   0.390  0.0639 -0.2094  0.1152
42248W        W51048   4.592   5.504  20.773 -0.0844 -0.0300 -0.0002
42249W        W51049   3.864   3.800  29.440  0.0768  0.1040  0.0755
42250W        W51050   5.022   1.431  24.166 -0.0639  0.0387  0.1127
42251W        W51051   5.526   5.270  36.493  0.2217  0.0323 -0.0487
42252W        W51052  20.849   3.075  29.692  0.1242  0.2678  0.1259
42253W        W51053   4.293   1.075  31.035  0.0061 -0.3952 -0.4142
42254W        W51054  13.868   2.718  29.778 -0.0032 -0.0330 -0.0112
42255W        W51055  18.825   3.554  38.341  0.0377  0.0294  0.0587
42256W        W51056  15.899   6.425   8.389 -0.1477 -0.0816  0.0562
42257W        W51057  18.117   2.158  16.991  0.3149  0.0512 -0.0566
42258W        W51058  19.355   3.953  10.249  0.1452 -0.1953 -0.1403
42259W        W51059   4.459   3.275  11.736  0.0327 -0.0886  0.0374
42260W        W51060   7.893   2.407  31.349  0.3735 -0.2186 -0.0181
42261W        W51061   1.227   1.119  16.521 -0.2558 -0.1386 -0.0179
42262W        W51062  19.163   5.988  11.967 -0.1847  0.1257 -0.0903
42263W        W51063   9.431   4.414  36.214 -0.1999 -0.0323  0.1085
42264W        W51064   5.540   2.423  25.046 -0.0403  0.2405 -0.1216
42265W        W51065  18.039   5.876  41.250  0.1681  0.0775  0.4158
42266W        W51066  19.475   1.970  34.634 -0.3078  0.1209  0.1174
42267W        W51067   5.361   0.229  25.959  0.0807  0.0116  0.1492
42268W        W51068   9.590   5.831   4.345  0.3179 -0.2383  0.1085
42269W        W51069  14.304   6.284  15.495  0.0451  0.0809  0.0016
42270W        W51070  13.606   1.732   0.730 -0.0892 -0.0245  0.0848
42271W        W51071  12.557   0.207   2.020  0.0733  0.0972  0.0271
42272W        W51072  14.271   4.159  42.744  0.1844 -0.3487 -0.1746
42273W        W51073  12.338   3.525  36.658 -0.0946  0.6179 -0.2356
42274W        W51074   1.803   4.843  24.141  0.0167 -0.0337  0.0236
42275W        W51075  15.886   3.439  18.782 -0.0142 -0.3121 -0.1578
42276W        W51076   2.091   1.801  25.120 -0.1983 -0.1614 -0.2595
42277W        W51077  21.034   2.180  35.443  0.3662  0.0563  0.1748
42278W        W51078  11.591   2.704  34.809  0.2242 -0.0887  0.0242
42279W        W51079  10.925   4.657   9.756 -0.0223  0.0011  0.2977
42280W        W51080   4.425   3.138  15.036  0.3210  0.1797 -0.0163
42281W        W51081   0.750   5.079  36.570 -0.0262 -0.0975  0.0164
42282W        W51082  13.289   2.586  34.002  0.0047 -0.2267  0.0841
42283W        W51083   4.257   4.250  36.658  0.1648  0.4703  0.0257
42284W        W51084  14.700   4.592  23.062  0.4081  0.0569 -0.1080
42285W        W51085   6.423   3.516  28.608  0.1443  0.1044  0.1615
42286W        W51086  17.061   3.905   2.542 -0.3710 -0.0559 -0.1226
42287W        W51087  14.489   5.235  20.413 -0.0901  0.1066  0.0587
42288W        W51088  13.106   2.793  21.065  0.1763 -0.1412 -0.1273
42289W        W51089   6.125   0.050  44.725 -0.0238 -0.1309 -0.1693
42290W        W51090   5.502   5.413  35.974  0.1928 -0.0274 -0.0297
42291W        W51091   0.892   0.942   5.216  0.1194 -0.0728  0.0723
42292W        W51092  13.872   3.556  39.317  0.1406  0.1684  0.0116
42293W        W51093  20.927   5.938  29.534  0.0500  0.1392 -0.0830
42294W        W51094  14.086   3.275  21.652 -0.1633  0.1242 -0.1128
42295W        W51095   0.745   2.548   3.925 -0.0696  0.1660 -0.0574
42296W        W51096  12.766   1.213  39.401  0.0216  0.1229  0.0177
42297W        W51097  14.022   6.123  20.912 -0.1820 -0.1691 -0.0318
42298W        W51098   1.377   3.631  44.894 -0.0434 -0.0278  0.0913
42299W        W51099   4.839   3.977  15.412 -0.1119  0.0076 -0.1515
42300W        W51100   4.252   5.193  23.330  0.0382  0.1064  0.3511
42301W        W51101  18.685   0.945  28.448 -0.1598  0.1169 -0.4955
42302W        W51102   6.615   1.948  25.801 -0.1452  0.1670 -0.2112
42303W        W51103   4.305   6.198   2.280  0.1616  0.1830 -0.3177
42304W        W51104  12.978   1.553   9.647  0.2178 -0.0107 -0.2629
42305W        W51105   9.340   0.790   8.402 -0.0943 -0.0957  0.0871
42306W        W51106  14.246   3.370  44.231  0.0190 -0.1982  0.0165
42307W        W51107   3.444   4.287  13.653 -0.2410  0.2676  0.3613
42308W        W51108  15.620   4.173  20.252 -0.0455  0.1547  0.0245
42309W        W51109  13.341   0.757  12.730  0.1149  0.1530  0.0443
42310W        W51110   9.315   4.400  43.879  0.2712  0.0976 -0.0457
42311W        W51111   3.858   2.965  32.022  0.0300 -0.2633  0.4102
42312W        W51112   5.684   1.347  22.288 -0.2102 -0.0939 -0.2196
42313W        W51113   7.361   2.694   4.854 -0.2649  0.1411  0.3151
42314W        W51114  19.282   1.361  40.649  0.1319 -0.0898 -0.2518
42315W        W51115  18.014   6.415  37.340  0.1894 -0.0354  0.2659
42316W        W51116   3.158   2.168  38.618 -0.2603  0.1458  0.0750
42317W        W51117   7.416   4.399  36.538  0.4776 -0.1374 -0.1177
42318W        W51118  11.441   5.509   4.611  0.2415 -0.1965  0.0895
42319W        W51119  19.156   0.734  44.053  0.0762 -0.0595  0.0308
42320W        W51120   2.861   6.288   5.170  0.1921 -0.4396 -0.0223
42321W        W51121  18.110   5.173  43.167 -0.0098  0.4433  0.2191
42322W        W51122  12.662   4.474  13.099  0.0212  0.0437  0.2576
42323W        W51123  12.409   5.976  42.461 -0.1776  0.2116 -0.1339
42324W        W51124   4.875   3.903  41.772 -0.0043 -0.4988 -0.0299
42325W        W51125   9.988   1.902   4.692  0.1255 -0.0845  0.1445
42326W        W51126  20.533   3.590  29.788 -0.2010  0.2201  0.1559
42327W        W51127   6.262   6.601  43.604  0.1180 -0.3000 -0.0699
42328W        W51128  10.678   5.844  16.539  0.1729 -0.2924 -0.0991
42329W        W51129   9.225   1.027  37.058  0.1745  0.3055  0.1934
42330W        W51130   5.742   1.412  14.738  0.1331  0.1463  0.1135
42331W        W51131   4.944   1.306   3.329  0.2363  0.1668  0.0238
42332W        W51132  14.058   6.144  30.180  0.2183 -0.2895 -0.2834
42333W        W51133  10.127   4.027  30.157 -0.1963  0.2213  0.0847
42334W        W51134  10.379   3.012  33.423 -0.2556 -0.1393 -0.0453
42335W        W51135   5.258   0.998  22.319 -0.1616  0.1929  0.0610
42336W        W51136   2.898   5.105  11.101 -0.0666 -0.0423  0.1768
42337W        W51137   4.081   0.490  10.408  0.0515 -0.0313 -0.1925
42338W        W51138  11.090   2.749  41.856 -0.4134 -0.0471 -0.1362
42339W        W51139  14.162   0.625  21.382  0.0599 -0.2512  0.1523
42340W        W51140  15.763   3.087  44.523  0.1637 -0.1300  0.0449
42341W        W51141  13.039   5.983  39.296  0.0326 -0.1354 -0.0304
42342W        W51142  18.324   6.145  18.230 -0.1416  0.0855  0.0800
42343W        W51143   2.858   6.042   4.602  0.2032 -0.1612  0.0776
42344W        W51144   9.246   0.602  39.040 -0.2653  0.1642 -0.0660
42345W        W51145  17.198   5.555   1.372 -0.0960  0.1883  0.0379
42346W        W51146  10.910   1.253   2.596 -0.2116  0.0437  0.0274
42347W        W51147   1.058   6.004   8.567  0.1260  0.1229  0.2762
42348W        W51148   1.859   1.776  10.326  0.1525  0.1691 -0.3145
42349W        W51149  17.564   2.231  12.859 -0.3568  0.0470 -0.2336
42350W        W51150  11.454   0.276  13.360  0.4362 -0.0829  0.0945
42351W        W51151   2.203   1.467  30.308 -0.3112 -0.2183  0.1153
42352W        W51152  19.784   5.606   2.937  0.3875  0.2441  0.0212
42353W        W51153  15.067   1.611  13.614  0.0226 -0.1442  0.3015
42354W        W51154  21.081   3.591  25.882 -0.0950  0.1525  0.0853
42355W        W51155  18.825   3.497  34.412 -0.2696  0.2721 -0.1703
42356W        W51156   3.417   0.714  19.811  0.1379 -0.3435  0.0890
42357W        W51157   3.713   4.744  13.021  0.4056 -0.0162  0.1043
42358W        W51158   9.578   6.235  14.462 -0.2808 -0.3833 -0.1695
42359W        W51159  10.859   0.215   1.630 -0.0375 -0.2195 -0.0822
42360W        W51160  13.444   2.458   5.162  0.1070  0.1606 -0.1795
42361W        W51161  17.021   2.213  20.245  0.1093 -0.0582  0.1678
42362W        W51162  20.523   1.146  28.880  0.0881  0.4639  0.2202
42363W        W51163   6.480   1.143   4.997 -0.0169  0.1495  0.0557
42364W        W51164  11.095   6.082   0.528 -0.0030  0.0601  0.3329
42365W        W51165  14.154   4.646  37.688 -0.3215  0.2069 -0.0480
42366W        W51166   4.943   0.504   4.697  0.2034 -0.0011  0.1627
42367W        W51167   9.272   0.569  15.570 -0.0651 -0.2208 -0.1644
42368W        W51168   4.574   3.812  24.092 -0.2633  0.0531  0.2590
42369W        W51169   0.741   2.085  32.927 -0.0745 -0.1918 -0.0216
42370W        W51170  16.355   4.509  38.526  0.1111  0.0498  0.0291
42371W        W51171   8.959   4.130  27.720  0.0900  0.0300  0.0235
42372W        W51172  17.786   4.354  12.378 -0.0892  0.2894 -0.1570
42373W        W51173  15.143   3.838  44.019  0.0110 -0.2469 -0.0505
42374W        W51174   2.238   0.306  33.124  0.1417  0.0421 -0.1098
42375W        W51175  15.209   5.775   5.719  0.1281 -0.0157 -0.0818
42376W        W51176  10.075   4.210   9.608 -0.2199  0.0881 -0.3999
42377W        W51177   0.169   3.532  35.772  0.2606 -0.4975  0.1487
42378W        W51178   9.040   6.076  17.012  0.0813  0.0186 -0.0370
42379W        W51179  11.037   4.135  39.135 -0.1401 -0.1117  0.1174
42380W        W51180  16.091   1.061   1.182  0.2104  0.1195 -0.4950
42381W        W51181   2.406   4.025   5.821 -0.0504 -0.1751 -0.0816
42382W        W51182  12.470   1.052   8.308  0.0980 -0.0699  0.1761
42383W        W51183  13.302   5.147  39.481 -0.0115 -0.1670 -0.1669
42384W        W51184  14.488   0.559  16.425  0.1536 -0.0623 -0.2505
42385W        W51185  16.327   1.777  22.965 -0.3104  0.4479 -0.3102
42386W        W51186  11.143   1.598   5.395  0.1757  0.1382 -0.0491
42387W        W51187  15.961   0.884  29.053  0.2873  0.2734 -0.1273
42388W        W51188  10.492   3.724  15.590 -0.1012  0.3173 -0.2536
42389W        W51189   8.876   0.586  12.376 -0.4236  0.3291  0.0445
42390W        W51190  10.099   5.631  39.345  0.0256 -0.1760 -0.1417
42391W        W51191  17.040   4.273  14.095  0.0568 -0.0350 -0.0162
42392W        W51192   1.520   0.714  15.092  0.0633 -0.0060  0.0940
42393W        W51193  15.152   5.364  44.053  0.0022 -0.1597  0.0293
42394W        W51194   3.961   4.033  28.375 -0.1047 -0.0110  0.0427
42395W        W51195   4.496   1.112   3.785  0.0734  0.1624  0.0950
42396W        W51196  14.195   3.282   1.349 -0.0150  0.0237 -0.1489
42397W        W51197  16.235   0.214  30.488  0.2184 -0.0534  0.1425
42398W        W51198  12.352   0.941  35.997 -0.0909 -0.3800  0.0720
42399W        W51199  10.122   1.068  14.882 -0.0430  0.0325 -0.2853
42400W        W51200   2.903   4.454  38.684 -0.2366 -0.1564  0.3048
42401W        W51201   9.909   2.660   4.947  0.0392 -0.1183 -0.2388
42402W        W51202  19.869   1.305  32.887  0.0603 -0.1227 -0.1228
42403W        W51203  19.828   2.888  14.624  0.1629 -0.1193 -0.3731
42404W        W51204   6.887   0.926  26.749  0.0535  0.0701 -0.0440
42405W        W51205  19.222   1.654   2.524  0.3405  0.2263  0.0043
42406W        W51206  13.028   3.887   0.457  0.3793 -0.2586 -0.1890
42407W        W51207   1.250   1.243  10.724  0.1010 -0.2155  0.0769
42408W        W51208  19.237   0.509   2.436  0.0374  0.1558  0.1234
42409W        W51209  16.016   5.852  31.096  0.0767  0.3936 -0.0806
42410W        W51210   7.280   1.220   9.441 -0.0172 -0.1630 -0.0851
42411W        W51211  18.382   4.549   8.333  0.0500  0.0730 -0.1344
42412W        W51212   3.083   1.898  12.053  0.1999 -0.1557  0.1377
42413W        W51213  18.828   2.168   3.135 -0.0463  0.1759  0.0188
42414W        W51214  12.647   2.164  10.658 -0.1040  0.1185  0.0152
42415W        W51215  18.983   6.526  37.585  0.0602  0.0227 -0.1035
42416W        W51216   8.198   4.906  33.828  0.2667  0.2490  0.1289
42417W        W51217  14.308   5.329  12.831  0.2274 -0.3661  0.1237
42418W        W51218  20.063   1.142  25.699  0.0608 -0.4113 -0.0377
42419W        W51219   2.792   5.249  22.610  0.0324  0.0375 -0.0043
42420W        W51220  11.940   4.545  19.947 -0.1192  0.0221  0.0759
42421W        W51221  20.965   0.461  32.693 -0.0214  0.1355 -0.4637
42422W        W51222  12.572   5.912  18.846 -0.0972 -0.0326  0.3328
42423W        W51223   3.493   5.178  31.790  0.0159 -0.2455 -0.2243
42424W        W51224  15.829   3.671   5.750  0.2712 -0.0025 -0.3230
42425W        W51225   4.422   5.552  32.430 -0.0166  0.0378 -0.3114
42426W        W51226   1.469   0.950  39.079  0.0122  0.0158  0.0719
42427W        W51227   9.918   4.537  30.030  0.0430  0.1250  0.2451
42428W        W51228  21.002   6.380   0.462 -0.1233  0.1932  0.1444
42429W        W51229  16.847   0.950  37.025  0.0034  0.0318 -0.1434
42430W        W51230   5.289   3.074  37.946  0.0289  0.0585  0.2917
42431W        W51231  18.090   6.355  38.125  0.0122 -0.0536  0.1223
42432W        W51232   0.519   6.237  17.387 -0.1786 -0.1277  0.4104
42433W        W51233   1.448   4.670  26.026  0.2397  0.0500 -0.1737
42434W        W51234  14.450   1.496  14.682 -0.0449 -0.0397 -0.1184
42435W        W51235  13.920   3.061  21.171  0.0012 -0.0318 -0.3064
42436W        W51236  19.719   2.712  41.291  0.0825  0.2411  0.2122
42437W        W51237  12.911   0.307  44.923 -0.0277  0.0498  0.3911
42438W        W51238  13.972   0.533  13.384  0.0171 -0.4780  0.3477
42439W        W51239   3.561   4.127  40.986 -0.1600  0.1805  0.1378
42440W        W51240  19.253   6.157   4.321  0.1094 -0.0206  0.2267
42441W        W51241   0.925   2.994  15.421  0.1605 -0.0415  0.1860
42442W        W51242   3.159   5.618   4.156 -0.2862 -0.1370 -0.2483
42443W        W51243   1.476   5.486  34.802  0.0175 -0.0616 -0.5334
42444W        W51244  18.691   5.043  15.960 -0.0329  0.0562 -0.1096
42445W        W51245  10.661   5.089  43.030 -0.0405  0.0421  0.0823
42446W        W51246   6.697   0.274  24.346  0.1899  0.4198 -0.0492
42447W        W51247  17.738   0.050   7.049 -0.1905 -0.0368  0.2131
42448W        W51248   7.693   0.550  25.947  0.3541  0.0574  0.0584
42449W        W51249   9.348   4.620  10.782  0.0927 -0.1607 -0.1046
42450W        W51250   7.578   6.024  33.080 -0.2576  0.0429 -0.1332
42451W        W51251  20.011   3.401   3.583 -0.0761  0.1906 -0.0346
42452W        W51252  11.113   4.089   0.214  0.1974  0.4668  0.1839
42453W        W51253  19.166   1.871  14.111  0.3141 -0.0476 -0.0495
42454W        W51254  12.752   1.294   5.448  0.2396  0.0110  0.1584
42455W        W51255   3.598   1.850  21.142 -0.0140 -0.1941 -0.1650
42456W        W51256   8.293   2.608   1.084 -0.2685  0.3033 -0.2282
42457W        W51257  16.693   6.198   7.658 -0.0551  0.0384  0.1023
42458W        W51258  13.857   0.558  18.083  0.2782 -0.1767 -0.2153
42459W        W51259  18.162   4.485  10.967  0.1811  0.2495  0.2049
42460W        W51260   0.615   3.332  45.018  0.1397  0.2186  0.3299
42461W        W51261  15.137   2.011  31.206 -0.0682 -0.3253  0.0062
42462W        W51262  18.260   2.343   1.394  0.0097 -0.3651  0.2156
42463W        W51263  13.309   5.897  23.001  0.0671 -0.0980 -0.0918
42464W        W51264   5.210   5.451  24.694 -0.0029  0.2063  0.0950
42465W        W51265  11.381   6.045  31.246 -0.0577  0.2801 -0.2131
42466W        W51266  20.616   3.469   6.548  0.0700 -0.1342 -0.1494
42467W        W51267   4.790   2.135  34.781 -0.0416 -0.1177 -0.1324
42468W        W51268   2.331   6.118  14.738 -0.0750  0.1686 -0.1590
42469W        W51269  13.657   1.328  16.043  0.0821  0.0126  0.2759
42470W        W51270   3.882   1.427  33.501 -0.0467 -0.0516 -0.1039
42471W        W51271  20.961   2.229  41.255  0.1768 -0.1450 -0.4784
42472W        W51272   1.456   5.450   7.674 -0.1385  0.1241  0.1687
42473W        W51273   8.151   4.346   7.862 -0.0579  0.0715  0.2794
42474W        W51274   5.524   4.745  40.764 -0.1502  0.2117  0.1001
42475W        W51275   3.562   0.208   7.735 -0.0054 -0.1791  0.0350
42476W        W51276   6.839   3.944  27.653 -0.0903 -0.1012  0.1036
42477W        W51277   1.274   2.221  36.116  0.4291  0.4705  0.0526
42478W        W51278   4.408   1.543   0.951  0.0437  0.1928  0.2168
42479W        W51279   5.445   4.701  25.459 -0.3527  0.0290  0.0725
42480W        W51280   8.194   0.467  44.667  0.0839  0.0496 -0.0026
42481W        W51281  15.025   3.229  37.300 -0.1116 -0.2259 -0.0590
42482W        W51282   2.178   3.159  32.850  0.2797  0.2958 -0.3899
42483W        W51283   3.688   3.534  42.808 -0.0922 -0.1704  0.2688
42484W        W51284   5.079   5.747   9.501  0.1642 -0.0568 -0.0038
42485W        W51285  20.655   2.822  30.076  0.3043  0.1876  0.1592
42486W        W51286   5.148   2.876   7.456 -0.3503 -0.4130  0.0147
42487W        W51287  18.921   5.376   0.293  0.2859 -0.2716 -0.2824
42488W        W51288  12.100   4.268  14.405  0.1520  0.0682  0.1062
42489W        W51289  19.520   4.043  31.400  0.3902 -0.1277 -0.0319
42490W        W51290  12.603   6.355   8.882 -0.1616  0.0620  0.1433
42491W        W51291   6.479   3.004   4.537 -0.1463  0.1139 -0.1474
42492W        W51292   4.635   5.053  28.238  0.3072 -0.4815 -0.0125
42493W        W51293   8.425   2.162   2.258  0.1914 -0.0871  0.1656
42494W        W51294   6.244   2.998  24.018  0.1177 -0.1314  0.3046
42495W        W51295   2.152   4.298   3.316  0.0130 -0.1148 -0.2058
42496W        W51296   1.629   4.509  39.780  0.0731  0.0441  0.0716
42497W        W51297   9.909   6.539  18.579  0.0728 -0.1469  0.1367
42498W        W51298  14.183   0.583  21.954  0.3765 -0.1567  0.1151
42499W        W51299  13.684   5.476  16.247 -0.1473 -0.0137  0.1068
42500W        W51300  10.157   2.370   1.695  0.0308  0.0262  0.1397
42501W        W51301  11.361   0.645  11.096 -0.1355  0.0596 -0.0492
42502W        W51302  12.915   0.416  35.371  0.0192  0.1530  0.0602
42503W        W51303  11.098   5.725   8.052 -0.1454  0.0731 -0.3589
42504W        W51304   1.040   0.217   3.428 -0.0311  0.0051 -0.1481
42505W        W51305   4.831   2.367  23.583 -0.0390  0.1905  0.1675
42506W        W51306  13.076   2.536  16.084 -0.3848  0.0368  0.1946
42507W        W51307  10.031   4.782  11.758  0.1764 -0.5213 -0.0154
42508W        W51308  13.771   5.577   4.706  0.0472 -0.2763  0.3286
42509W        W51309   9.312   5.319   6.891  0.1123 -0.2350 -0.0478
42510W        W51310   0.812   5.454   1.871  0.0709  0.0707  0.0223
42511W        W51311  20.400   4.883  26.908 -0.1089  0.1828  0.0158
42512W        W51312  20.742   6.060  25.578 -0.1554  0.4544 -0.0714
42513W        W51313   8.338   4.069  42.828 -0.0211  0.2677  0.1644
42514W        W51314  11.008   0.331  29.542 -0.1034 -0.0276 -0.3163
42515W        W51315   0.935   4.763  29.182 -0.1698 -0.3027 -0.1253
42516W        W51316  17.958   3.693  41.138 -0.0370  0.0605  0.1206
42517W        W51317   4.017   0.478  33.324 -0.1436  0.1905  0.1289
42518W        W51318   6.180   5.343   1.760  0.1967 -0.2394 -0.1754
42519W        W51319  17.454   4.910  10.398  0.1026 -0.2908  0.1804
42520W        W51320   1.278   0.989   6.906  0.0228  0.2051  0.0110
42521W        W51321  11.826   4.073  16.465 -0.1436 -0.1882 -0.1075
42522W        W51322   8.061   5.324  28.872  0.0229  0.0065  0.0731
42523W        W51323  19.482   5.923  32.669 -0.0334 -0.1133 -0.2554
42524W        W51324   1.650   4.188  26.811  0.2441  0.1206 -0.2328
42525W        W51325  12.119   3.532  30.340 -0.1892 -0.0989  0.1183
42526W        W51326   2.738   0.942  39.658 -0.1071  0.2567  0.1124
42527W        W51327  18.170   1.977  15.715  0.0591  0.3385 -0.0591
42528W        W51328  20.037   4.575  37.227  0.2430  0.5573 -0.3198
42529W        W51329   7.824   3.528  44.848  0.0388  0.0358  0.1414
42530W        W51330   1.078   1.330  27.289  0.1853 -0.0925 -0.0394
42531W        W51331  14.747   3.446  13.172 -0.1599 -0.1283  0.2540
42532W        W51332  15.977   1.566   8.747 -0.0039 -0.1911 -0.1543
42533W        W51333  18.412   0.699  41.001  0.2954 -0.2074  0.0983
42534W        W51334  10.199   3.722   3.891  0.1425  0.0666  0.1447
42535W        W51335  20.820   4.180   2.824 -0.0029 -0.1192 -0.1835
42536W        W51336   7.408   5.135  29.624  0.0499 -0.0508  0.1167
42537W        W51337  15.206   3.457  10.611 -0.0162  0.4058 -0.0114
42538W        W51338   3.992   0.168   4.989  0.1102  0.2426 -0.0378
42539W        W51339   2.740   0.278  43.547  0.1322  0.0767  0.2880
42540W        W51340   0.517   2.288  28.910  0.2151 -0.0220 -0.0077
42541W        W51341  15.593   5.206   7.432  0.0175 -0.1811 -0.0026
42542W        W51342   1.143   2.210  23.338 -0.0767 -0.0810  0.0900
42543W        W51343  16.059   1.965  19.533  0.0081 -0.1330  0.0684
42544W        W51344  14.366   2.040   7.474 -0.2110  0.0535  0.1196
42545W        W51345   1.719   2.250  38.613  0.2668 -0.0986  0.0115
42546W        W51346   5.839   2.413  26.078 -0.1671  0.1080  0.0119
42547W        W51347   6.491   5.875  32.216  0.0902  0.1644  0.3423
42548W        W51348   5.424   2.329   9.775  0.0764  0.0406 -0.1006
42549W        W51349  13.055   3.432  34.072 -0.1067  0.1360 -0.1155
42550W        W51350  18.826   1.175  40.436 -0.3031  0.0691 -0.4957
42551W        W51351  17.012   1.142  29.651 -0.0673  0.0682  0.2924
42552W        W51352   6.288   5.494  42.316 -0.0181  0.4193  0.2517
42553W        W51353   2.296   6.495   1.459  0.1143  0.0408  0.0251
42554W        W51354  11.232   3.101  11.550 -0.0806 -0.0566 -0.3325
42555W        W51355  12.451   5.247  40.084  0.0302 -0.1749  0.1645
42556W        W51356  12.247   0.478   2.352  0.5509  0.1476  0.0508
42557W        W51357  16.505   0.197  44.063 -0.4710 -0.3937 -0.1525
42558W        W51358  15.243   2.691   7.604 -0.0412  0.0415 -0.1483
42559W        W51359   2.544   4.739   0.097  0.0008  0.3272 -0.0294
42560W        W51360  13.248   5.448  21.355  0.0564 -0.1238 -0.3387
42561W        W51361   8.463   3.070  37.594  0.1820  0.1503 -0.1042
42562W        W51362  16.993   6.328   3.403 -0.4581 -0.0744 -0.0721
42563W        W51363   4.654   0.998  30.032  0.0069 -0.0112 -0.0359
42564W        W51364   5.739   4.968  26.897  0.2323 -0.2275  0.0581
42565W        W51365  19.330   3.404  28.321  0.0780  0.2127  0.1168
42566W        W51366   9.528   3.335  13.563  0.0746  0.2378  0.0154
42567W        W51367  11.491   0.994   6.086  0.0789  0.0774 -0.0550
42568W        W51368  17.390   4.148   0.834  0.0906 -0.2806 -0.2395
42569W        W51369  19.714   2.949   5.931 -0.0454  0.0492  0.1987
42570W        W51370   5.309   0.536  29.356 -0.0332  0.2044  0.0817
42571W        W51371   9.556   6.167  41.008  0.0312  0.1378 -0.0345
42572W        W51372  11.193   2.659  39.801 -0.1331 -0.1944  0.1231
42573W        W51373  15.687   2.574  38.528 -0.1978 -0.0153 -0.0057
42574W        W51374   1.855   1.670  16.213 -0.2904 -0.0285 -0.1484
42575W        W51375  16.489   1.489  13.265  0.1620 -0.0509 -0.1619
42576W        W51376  11.691   4.590  10.482 -0.1916 -0.0182  0.0421
42577W        W51377  16.055   3.537  39.041  0.2148  0.1135  0.1103
42578W        W51378  10.843   5.281  41.713 -0.3221  0.2086 -0.2486
42579W        W51379  19.148   3.734  38.809 -0.0033  0.3383  0.2053
42580W        W51380  19.730   0.054   2.280  0.1047  0.1074  0.3483
42581W        W51381   2.327   1.798  44.429 -0.0576  0.1054  0.1920
42582W        W51382  19.393   0.491  10.709  0.1033 -0.3183  0.1120
42583W        W51383  11.888   4.367  43.662  0.0935 -0.1460 -0.2286
42584W        W51384   2.524   4.374  11.055 -0.1071  0.1720  0.0557
42585W        W51385   5.365   1.743  23.383 -0.2208  0.0724  0.1449
42586W        W51386  12.491   1.107   4.544  0.3082 -0.4091  0.0854
42587W        W51387  14.448   0.790  22.849 -0.1315  0.2253 -0.1419
42588W        W51388   4.495   3.075  28.420 -0.3667  0.0683 -0.2254
42589W        W51389   0.639   6.068  39.561 -0.0461  0.1030 -0.0607
42590W        W51390   7.171   2.054   7.300  0.3721  0.0624  0.0003
42591W        W51391   6.104   6.503  39.208  0.0532 -0.1576 -0.2384
42592W        W51392   5.129   0.065   6.298  0.2309  0.0372 -0.1028
42593W        W51393  19.380   2.866  10.594  0.0692 -0.2632  0.1071
42594W        W51394   2.712   0.412   7.785  0.0375  0.2106 -0.0135
42595W        W51395  20.099   4.542  17.836  0.3025  0.0607  0.1205
42596W        W51396  17.016   3.228  31.615  0.0039  0.2825  0.5322
42597W        W51397  12.997   1.844  14.096  0.1015 -0.0619  0.0248
42598W        W51398   1.767   3.783  14.614 -0.0408 -0.1360 -0.0635
42599W        W51399   1.259   0.155   5.447 -0.1330  0.1701 -0.0527
42600W        W51400   2.363   3.884  35.319 -0.1771 -0.0599 -0.1234
42601W        W51401  15.720   5.281  11.098  0.1090  0.1013 -0.0091
42602W        W51402  11.839   1.611  17.800  0.1647  0.1627  0.1774
42603W        W51403  12.407   2.840  12.418  0.1556 -0.1812 -0.0568
42604W        W51404  11.276   3.792   1.488 -0.1200 -0.0138  0.3185
42605W        W51405   5.834   6.085  26.610 -0.2559  0.0070 -0.1012
42606W        W51406   1.485   4.045  27.834  0.0307 -0.3178 -0.1276
42607W        W51407   6.766   6.448   9.037 -0.2255 -0.0640  0.0653
42608W        W51408   9.536   2.452  39.501 -0.1781  0.1965 -0.0705
42609W        W51409  19.690   0.895   6.319 -0.0412  0.1543  0.0657
42610W        W51410  20.670   0.504  26.844 -0.1540 -0.2204  0.0135
42611W        W51411  19.932   5.556  36.290  0.1935 -0.1301  0.1676
42612W        W51412  18.301   2.322  29.279 -0.1505 -0.2545 -0.0479
42613W        W51413   9.566   3.995  35.126  0.0664 -0.1133  0.2449
42614W        W51414   4.353   5.568   0.254  0.0644  0.1842 -0.2250
42615W        W51415  12.203   1.377   7.493 -0.1133 -0.0616  0.1141
42616W        W51416  17.008   5.561   5.225  0.3924  0.3880 -0.1263
42617W        W51417   9.962   3.482  39.968  0.1187 -0.1769 -0.0001
42618W        W51418  10.031   2.134  18.706 -0.0089  0.1241 -0.1317
42619W        W51419   4.422   4.491  30.905  0.1559  0.2699  0.0361
42620W        W51420   2.703   0.558   8.424  0.0170  0.1058  0.2068
42621W        W51421   4.902   6.525  44.898  0.0083  0.3307  0.1424
42622W        W51422   7.460   2.068  37.467 -0.3432  0.1441  0.0042
42623W        W51423   2.249   4.839  37.717  0.0989  0.2720  0.0774
42624W        W51424  15.176   1.838   8.849  0.0233  0.1218  0.0109
42625W        W51425  20.069   1.363  10.492  0.1943  0.0760  0.0458
42626W        W51426   0.625   6.082  24.886  0.2158 -0.3218 -0.2277
42627W        W51427  11.220   5.409  10.514  0.2299  0.2532 -0.0728
42628W        W51428   9.556   6.135  32.804  0.0689 -0.0362 -0.0739
42629W        W51429  14.671   5.911  38.499 -0.1372 -0.0847  0.0023
42630W        W51430   6.543   1.596   6.685 -0.0588 -0.0733 -0.1981
42631W        W51431  15.828   1.413  35.920  0.0648  0.0377 -0.2539
42632W        W51432  16.139   4.983   5.325 -0.0468 -0.0990  0.1702
42633W        W51433   2.879   5.180  25.980  0.3319  0.0194  0.4002
42634W        W51434  18.672   2.566  38.324  0.0254  0.0766 -0.0599
42635W        W51435  14.596   0.687  40.257 -0.2043  0.2044  0.0141
42636W        W51436  18.041   1.084  18.642  0.1499 -0.1210 -0.2661
42637W        W51437   8.676   0.222   7.795  0.0123  0.0153  0.0071
42638W        W51438   4.690   4.681  11.664  0.1387  0.1253 -0.0850
42639W        W51439  17.396   4.641  30.019 -0.1180  0.0710  0.1276
42640W        W51440  12.368   3.936   5.321  0.2382 -0.0940 -0.1453
42641W        W51441  20.693   5.546   0.001 -0.2418  0.0893  0.2167
42642W        W51442  17.880   5.393   5.243 -0.1902 -0.1927 -0.2069
42643W        W51443   4.697   2.835  35.403 -0.0816 -0.1685  0.0714
42644W        W51444  20.165   2.183  30.393  0.3056 -0.1655 -0.2031
42645W        W51445   4.575   5.399  31.739  0.1702 -0.4688  0.2382
42646W        W51446   9.004   4.705  13.461 -0.0009  0.1116 -0.0138
42647W        W51447   7.047   4.976  10.969 -0.0485  0.1878  0.1032
42648W        W51448  20.853   4.201  42.141  0.1087 -0.1856  0.1985
42649W        W51449   3.259   5.871  32.909  0.0347  0.3671 -0.0239
42650W        W51450   9.416   4.347  37.783 -0.1069  0.0460  0.0699
42651W        W51451  19.294   0.657  40.947 -0.1055 -0.1096 -0.0462
42652W        W51452  16.832   5.871  29.356  0.0469  0.1193  0.1430
42653W        W51453  14.867   1.817   6.656  0.2488 -0.4334  0.1187
42654W        W51454   6.627   3.451  22.695  0.1534  0.1214  0.0843
42655W        W51455   0.389   6.288  33.717 -0.0984  0.3713  0.0234
42656W        W51456   9.593   1.323  37.011 -0.1332  0.0260 -0.2150
42657W        W51457  16.362   5.545  42.143 -0.1448 -0.0233  0.1874
42658W        W51458   6.278   3.888   1.699 -0.0384  0.0035  0.1729
42659W        W51459  16.174   1.606  42.193 -0.1102  0.0757 -0.1323
42660W        W51460   3.380   3.105  14.168 -0.0177  0.1356 -0.1034
42661W        W51461  10.538   1.569  19.405 -0.2491  0.1454  0.0247
42662W        W51462  18.024   5.019   3.958  0.2742  0.0694  0.1324
42663W        W51463   7.140   5.393   7.918  0.2131 -0.2172  0.0076
42664W        W51464   0.136   0.690  39.512  0.2463  0.1706  0.0640
42665W        W51465  12.051   0.382  41.265  0.2544 -0.2300  0.0983
42666W        W51466  20.405   2.630  34.676  0.1033 -0.1483 -0.3198
42667W        W51467   5.836   6.272   5.182 -0.1632 -0.0638  0.1128
42668W        W51468  13.741   1.614  25.222 -0.0074 -0.1686 -0.0875
42669W        W51469  12.436   4.574  29.349 -0.2175 -0.1170  0.3282
42670W        W51470   8.485   1.312  29.907  0.0699 -0.1959  0.0528
42671W        W51471  15.681   1.713   2.812 -0.1755 -0.2267 -0.1775
42672W        W51472   6.121   2.182   7.243  0.2145  0.0154  0.1150
42673W        W51473   6.925   4.926   2.599  0.3398  0.1257  0.0381
42674W        W51474   6.253   1.936  43.625 -0.0437  0.4018  0.1475
42675W        W51475   4.185   1.710  39.819  0.1550  0.0036  0.0301
42676W        W51476   6.409   6.191  44.572  0.4311  0.1023 -0.0545
42677W        W51477  15.922   3.346  17.512  0.3330  0.1385  0.1751
42678W        W51478  21.000   5.076  13.181 -0.1874  0.1349 -0.0060
42679W        W51479  12.196   1.931  21.910 -0.4029 -0.0909 -0.2522
42680W        W51480  10.744   4.429   8.718 -0.1324  0.1074 -0.1551
42681W        W51481   6.116   3.758   2.181  0.3065  0.2035  0.2455
42682W        W51482  16.836   2.989  30.181  0.0671 -0.2091  0.1328
42683W        W51483  13.185   3.586  13.971 -0.0650 -0.1061  0.1403
42684W        W51484   6.518   3.714  13.587  0.1048 -0.1353 -0.1578
42685W        W51485  15.079   4.429  37.325 -0.1008  0.0079  0.1904
42686W        W51486  18.042   1.317   4.775 -0.0552 -0.0562 -0.0269
42687W        W51487  18.852   2.860   1.103 -0.1692 -0.0637 -0.1127
42688W        W51488   8.975   5.896  38.257 -0.0952 -0.0950 -0.0731
42689W        W51489  13.458   1.912  22.604  0.1230 -0.0975 -0.0874
42690W        W51490   6.837   0.681  16.852  0.0921 -0.2844  0.2609
42691W        W51491  16.520   6.512  35.024  0.0212 -0.1113  0.2498
42692W        W51492  20.333   3.112  44.412  0.1761 -0.0920 -0.2474
42693W        W51493   6.426   2.349  26.288 -0.1223 -0.0513  0.1648
42694W        W51494   6.263   0.499   0.799 -0.1512 -0.0344  0.0656
42695W        W51495  13.511   5.842   5.655  0.0038  0.1113  0.1892
42696W        W51496   4.697   2.259   2.777  0.0989 -0.0317  0.0807
42697W        W51497   3.531   6.388  34.261  0.0011 -0.0824  0.1591
42698W        W51498  15.196   0.377  31.323 -0.1509 -0.0159 -0.0781
42699W        W51499  21.066   3.293   8.178 -0.0063 -0.0183  0.0590
42700W        W51500   8.126   5.475  42.298  0.1267  0.0399  0.3412
42701W        W51501  15.551   4.806  13.043  0.4350  0.0837  0.3233
42702W        W51502   2.655   2.979   5.192 -0.0714  0.0317  0.0749
42703W        W51503  18.685   0.067   9.848  0.0987  0.0030 -0.2500
42704W        W51504   7.112   4.464   1.766 -0.0051  0.0288 -0.1608
42705W        W51505  15.115   6.500  43.591  0.0458  0.2050  0.0831
42706W        W51506   3.109   1.145  35.020  0.0563  0.2485  0.1304
42707W        W51507  11.785   4.964  34.225  0.0334  0.1691  0.0991
42708W        W51508   6.428   1.331  33.281 -0.2604  0.4244  0.0045
42709W        W51509  20.809   5.431  40.344 -0.0292 -0.2004 -0.1131
42710W        W51510   0.744   5.245   1.397 -0.2643 -0.0897  0.0845
42711W        W51511  10.854   0.891   5.091  0.1234  0.0021 -0.0115
42712W        W51512  20.253   0.271  15.687  0.2234 -0.1515  0.0160
42713W        W51513   2.993   2.296   4.821  0.0158  0.0068  0.2834
42714W        W51514  16.811   3.001  43.342  0.0666 -0.0141 -0.1354
42715W        W51515   2.695   4.443  42.893 -0.2927 -0.0040  0.1454
42716W        W51516  18.222   0.346  45.072 -0.0095 -0.0163  0.0690
42717W        W51517  16.467   1.275  42.600 -0.1074 -0.1897  0.0498
42718W        W51518   9.622   6.462  35.346  0.1622  0.1772 -0.2268
42719W        W51519  20.021   4.292   9.353  0.2067 -0.0297  0.2160
42720W        W51520  10.706   0.857  31.364 -0.1173  0.3350  0.0350
42721W        W51521   2.746   2.984  28.759  0.5168 -0.0113  0.0570
42722W        W51522  15.541   3.022  18.812 -0.0444  0.1100 -0.0261
42723W        W51523   7.994   1.374  36.055 -0.1303  0.2357  0.0840
42724W        W51524   5.871   3.032  15.708 -0.1940  0.3188 -0.1282
42725W        W51525   2.094   1.333  31.605  0.1531 -0.2130 -0.1545
42726W        W51526   1.232   4.865  37.371 -0.1079  0.0980  0.1408
42727W        W51527   5.552   5.109   1.958 -0.1117 -0.4134 -0.0327
42728W        W51528   1.061   2.841  31.037  0.1491 -0.0460  0.1238
42729W        W51529  21.042   1.955   6.265  0.0221 -0.2652  0.0387
42730W        W51530   7.516   2.066  37.961 -0.1077 -0.0058  0.0494
42731W        W51531   3.788   4.508   5.696  0.2929 -0.3538 -0.1476
42732W        W51532  19.803   1.051  41.511 -0.0592 -0.0978 -0.0153
42733W        W51533   9.047   5.455   1.198 -0.1137  0.4404 -0.1893
42734W        W51534  15.887   0.735  37.887 -0.1422 -0.0200 -0.2341
42735W        W51535   8.547   1.235  34.113  0.2479  0.0712 -0.0519
42736W        W51536  18.355   5.607  17.944  0.1235  0.1588 -0.0083
42737W        W51537   2.975   3.247   6.174  0.1200  0.0377 -0.1170
42738W        W51538  12.327   0.182  10.346 -0.1857 -0.1614  0.2443
42739W        W51539  19.530   0.443  18.361  0.1069  0.2178 -0.0479
42740W        W51540  19.516   0.281  41.654  0.4164  0.1805  0.0245
42741W        W51541   3.307   5.085  11.426  0.3221  0.2672 -0.0612
42742W        W51542   6.615   4.594  25.036 -0.2014  0.2468  0.1695
42743W        W51543  13.450   5.227   6.764  0.1529 -0.1507 -0.0300
42744W        W51544  15.869   3.963  10.842  0.0918  0.0345 -0.2245
42745W        W51545  14.949   5.604  44.804 -0.0279 -0.1142 -0.0309
42746W        W51546  12.310   4.063   8.083  0.5328  0.1478 -0.2894
42747W        W51547  18.303   2.530  28.440 -0.0139  0.5051  0.1430
42748W        W51548  13.327   0.919  21.681 -0.0883 -0.3139  0.1921
42749W        W51549   6.111   3.663  39.435  0.3470 -0.0381  0.1823
42750W        W51550  10.742   0.035   5.166  0.1647  0.1242 -0.1547
42751W        W51551   5.476   6.230  39.495 -0.2814 -0.1381 -0.0846
42752W        W51552   7.593   5.279  29.142  0.1488 -0.1824  0.0914
42753W        W51553   6.755   2.861  23.406  0.1352 -0.0516 -0.0773
42754W        W51554   6.500   0.568  30.722  0.2392  0.1982  0.0506
42755W        W51555  13.392   0.545  34.164  0.0793 -0.3494  0.2231
42756W        W51556   7.549   5.398  42.352 -0.1318 -0.0597 -0.0806
42757W        W51557   1.505   3.009  31.808 -0.2396 -0.0964  0.3678
42758W        W51558  16.167   4.229   5.100 -0.1836 -0.4072 -0.0823
42759W        W51559  10.288   4.180  35.578  0.0916 -0.0890 -0.1803
42760W        W51560  12.596   6.052  11.144  0.0188  0.2139 -0.1607
42761W        W51561  16.220   6.294  16.354 -0.2137 -0.1335  0.0065
42762W        W51562   8.369   5.365  27.755 -0.2447 -0.0145 -0.0035
42763W        W51563   9.466   3.426  10.883 -0.2510 -0.1539  0.0802
42764W        W51564  16.414   2.350  43.673  0.1090  0.0215 -0.1729
42765W        W51565   0.474   1.447  44.059 -0.2008  0.1339  0.3006
42766W        W51566  19.273   5.685   2.896  0.0598 -0.2955 -0.3297
42767W        W51567  13.647   4.878  11.153 -0.0973  0.1617  0.1360
42768W        W51568  10.916   3.850  13.820 -0.1931  0.1056 -0.0413
42769W        W51569  15.663   3.880  10.389  0.0408  0.1090 -0.1209
42770W        W51570  12.763   0.938  40.815  0.3365 -0.2925  0.2201
42771W        W51571  17.614   6.427   3.622 -0.1135  0.1755 -0.2449
42772W        W51572  10.740   2.583  40.061 -0.1314 -0.3236  0.2103
42773W        W51573   8.572   1.725   3.535  0.1500 -0.0843  0.1347
42774W        W51574  10.841   5.100  17.684  0.2899 -0.1461 -0.0376
42775W        W51575   7.818   5.167  34.788 -0.0862 -0.0985  0.0224
42776W        W51576  16.370   0.478  10.918  0.1023 -0.0404 -0.0158
42777W        W51577  19.308   4.047   1.158 -0.1062 -0.1042 -0.1160
42778W        W51578  19.632   3.131   2.083 -0.0716  0.4572  0.2461
42779W        W51579   3.427   3.224  28.342 -0.3030  0.0254 -0.1240
42780W        W51580   2.642   3.681  28.188 -0.1867  0.1160  0.0171
42781W        W51581   9.214   4.577  35.308 -0.2237 -0.2297 -0.1865
42782W        W51582  19.691   2.542   8.149  0.0309  0.1587 -0.4113
42783W        W51583   1.674   2.983  28.344  0.0673  0.0790  0.0836
42784W        W51584  17.482   6.082  41.418  0.1933 -0.1147 -0.0647
42785W        W51585   1.319   6.468  24.196 -0.1382 -0.0315 -0.2401
42786W        W51586  14.285   3.116  32.499  0.1519 -0.2303  0.0824
42787W        W51587   6.467   4.910   8.534 -0.0047 -0.0776  0.2196
42788W        W51588  11.237   3.111   9.414  0.0188 -0.0563  0.0667
42789W        W51589   5.678   4.517   0.550  0.0034  0.0075 -0.0305
42790W        W51590   7.708   1.995  29.883  0.0988 -0.0268  0.2857
42791W        W51591   6.546   0.352  11.071  0.2252  0.0620 -0.1505
42792W        W51592   5.372   1.831  10.529 -0.2013  0.0636 -0.3108
42793W        W51593  20.872   5.205  39.023 -0.2369  0.2197 -0.2180
42794W        W51594   2.493   3.473  41.987 -0.0182  0.2157  0.1147
42795W        W51595   8.511   4.158   6.481 -0.1598  0.0062 -0.1815
42796W        W51596   3.691   3.493  10.826 -0.2492  0.0699  0.0258
42797W        W51597   9.460   3.010  27.741  0.0314  0.1337 -0.3128
42798W        W51598  18.672   6.448  33.871 -0.1410  0.1991 -0.0233
42799W        W51599  11.824   0.161   8.049  0.0688 -0.1972  0.0238
42800W        W51600  17.684   6.202   7.332 -0.0340  0.0260  0.1617
42801W        W51601  16.875   2.730  15.862  0.1757  0.0497 -0.2869
42802W        W51602   9.709   4.907   9.339 -0.0462 -0.1495  0.2474
42803W        W51603  20.139   3.076  28.429  0.1542  0.2053  0.2020
42804W        W51604  19.131   4.833  40.709  0.1542 -0.0423  0.1186
42805W        W51605   5.006   4.690  30.750 -0.0577  0.0275 -0.0261
42806W        W51606  18.870   5.473  27.540  0.3904 -0.1193 -0.0043
42807W        W51607  11.205   4.210  17.713 -0.0750  0.0829 -0.0084
42808W        W51608  11.266   0.827  41.090  0.2350 -0.3869 -0.0488
42809W        W51609   7.165   0.325  26.818 -0.1849 -0.0366  0.2741
42810W        W51610  11.200   3.050   6.329  0.4533  0.1632  0.0394
42811W        W51611  14.965   2.094  35.221  0.0924  0.1032  0.1315
42812W        W51612  15.699   4.397   8.899 -0.0807  0.1219 -0.1405
42813W        W51613  17.361   1.390  10.603 -0.0761  0.1937  0.1579
42814W        W51614  13.356   4.485   4.868 -0.2317 -0.1092  0.2233
42815W        W51615   7.092   2.800  32.430  0.3340  0.1893 -0.3399
42816W        W51616   3.633   4.936  25.135 -0.1433 -0.0086  0.2013
42817W        W51617  11.224   5.377  20.586  0.1516 -0.2099  0.2294
42818W        W51618  10.229   0.285  10.352 -0.0283 -0.1659 -0.0505
42819W        W51619  18.480   5.552  14.260  0.3121  0.2482 -0.0175
42820W        W51620  11.356   3.082  41.055  0.0968  0.0560  0.0844
42821W        W51621  16.023   3.839  42.294 -0.0864 -0.0291  0.0289
42822W        W51622  12.727   6.253   8.110 -0.0521  0.1730 -0.0241
42823W        W51623   9.898   4.386  34.414 -0.3912  0.0671 -0.3545
42824W        W51624  16.131   2.021   3.891  0.0867  0.2203  0.2690
42825W        W51625  10.452   6.432  35.940  0.3901 -0.2033 -0.3993
42826W        W51626  18.398   3.915  41.161  0.1307  0.0601  0.0289
42827W        W51627  16.008   5.185  45.136  0.0470  0.1708  0.0560
42828W        W51628   5.768   3.222  12.559  0.0743  0.0627 -0.2241
42829W        W51629  12.466   4.104   1.579  0.4243  0.1724  0.1031
42830W        W51630   7.385   4.437  28.438 -0.1600  0.0709  0.0210
42831W        W51631  14.017   5.768   1.259  0.4503  0.2916 -0.0476
42832W        W51632  12.068   0.902  38.747 -0.2648 -0.3450  0.1421
42833W        W51633  20.162   4.203  43.493 -0.0770  0.0505  0.3210
42834W        W51634   4.074   5.218  35.270  0.2842  0.1249  0.2683
42835W        W51635   6.712   1.968  29.890  0.2206 -0.1101 -0.0403
42836W        W51636   7.895   4.461  39.710  0.0513 -0.0834  0.4275
42837W        W51637  20.457   1.104  34.423 -0.3258 -0.1116  0.1924
42838W        W51638   6.512   1.110  24.091  0.0278 -0.0426  0.2756
42839W        W51639   0.122   0.763  11.219 -0.2616  0.1428  0.0792
42840W        W51640   4.912   2.443   5.553 -0.1837  0.0563  0.1243
42841W        W51641   7.813   0.497  25.316 -0.2194 -0.2102 -0.1562
42842W        W51642   7.048   1.814  13.131  0.0346 -0.2773  0.1630
42843W        W51643  20.622   0.466   6.531  0.0918  0.0214  0.0218
42844W        W51644  10.703   4.093  39.585  0.3106  0.0095  0.1605
42845W        W51645   8.548   0.829  42.924 -0.2295 -0.0082  0.1862
42846W        W51646  13.702   5.321  36.268 -0.1732 -0.0867  0.2049
42847W        W51647  12.012   1.399  32.134 -0.3168 -0.1190 -0.2020
42848W        W51648  11.841   4.557  38.761  0.1214  0.0905 -0.0806
42849W        W51649  17.150   4.558  33.129 -0.1189  0.2664 -0.0708
42850W        W51650  15.109   1.767  12.709 -0.1690 -0.1052  0.0640
42851W        W51651   0.950   6.123  24.122  0.1937  0.0466 -0.1953
42852W        W51652  19.442   1.813  30.412  0.0035  0.3108  0.0806
42853W        W51653  20.182   0.811   6.171  0.1768 -0.3414  0.2532
42854W        W51654  10.707   2.477  38.754 -0.1923 -0.0599 -0.2908
42855W        W51655   9.295   1.968  44.135  0.1403  0.2596  0.0937
42856W        W51656   4.925   2.105  32.051 -0.1245 -0.0469 -0.2445
42857W        W51657  18.286   0.165  32.550  0.1320  0.4029  0.0902
42858W        W51658  12.672   5.790  17.717  0.0165  0.0219 -0.2319
42859W        W51659   4.926   0.232   2.382  0.1067  0.1547  0.0721
42860W        W51660   5.950   6.091  42.861  0.0503  0.1661 -0.0616
42861W        W51661   3.442   5.261  32.359  0.0356 -0.1190 -0.2805
42862W        W51662  10.664   2.613  44.510 -0.2498  0.0675  0.2666
42863W        W51663  16.850   0.520   6.822  0.1268 -0.1126  0.0342
42864W        W51664   5.906   1.035  13.959  0.2848  0.0187 -0.0497
42865W        W51665   0.841   2.679  25.031  0.1073 -0.2543  0.0521
42866W        W51666   3.007   1.903  36.706 -0.0762 -0.1436  0.2005
42867W        W51667  20.983   2.081  12.948  0.0048 -0.0043  0.1181
42868W        W51668  16.071   0.680  13.180 -0.0063 -0.3242 -0.2319
42869W        W51669   4.159   2.829  41.447  0.2614 -0.1672  0.1580
42870W        W51670  14.728   2.648  11.825  0.0139  0.1193 -0.0356
42871W        W51671   8.147   1.521  38.183 -0.3479 -0.3238 -0.2048
42872W        W51672  20.277   1.358  37.731 -0.0686  0.0893 -0.0702
42873W        W51673   6.148   2.436  38.941 -0.1501  0.5079  0.1231
42874W        W51674   9.073   0.609  43.150 -0.0942  0.0913  0.0747
42875W        W51675  12.323   4.549  38.510 -0.1605  0.1794  0.1616
42876W        W51676  17.715   6.380  36.597  0.1759  0.1619  0.1964
42877W        W51677  14.417   4.654   9.438 -0.0830 -0.1380  0.2125
42878W        W51678  15.971   6.181   4.561  0.1694 -0.2606  0.1736
42879W        W51679   2.579   3.863  29.747  0.0566 -0.0053  0.0028
42880W        W51680   8.075   0.559   6.229 -0.0342 -0.0134  0.0528
42881W        W51681  15.467   2.937  21.009  0.0346  0.1653 -0.1116
42882W        W51682  18.780   0.024   1.997 -0.2709 -0.0775 -0.0690
42883W        W51683  18.397   4.272  16.156 -0.2847 -0.0371  0.0807
42884W        W51684  18.618   3.730   8.255 -0.0364 -0.1612  0.0716
42885W        W51685  10.042   2.386  38.133  0.0052 -0.0292 -0.1744
42886W        W51686  10.690   6.007  30.732 -0.1186 -0.1939  0.1880
42887W        W51687  11.231   5.422   5.798  0.2236  0.0448  0.1034
42888W        W51688   4.423   5.851  41.854  0.1288  0.1089  0.1960
42889W        W51689   0.325   5.057   1.680  0.4244 -0.1432 -0.2600
42890W        W51690  15.749   2.942   8.770  0.0459 -0.1302  0.1636
42891W        W51691  13.638   3.663  40.363 -0.0131 -0.2619  0.0217
42892W        W51692  18.982   1.884  29.465  0.2935 -0.1974 -0.3863
42893W        W51693  14.521   0.001  42.833  0.0470 -0.0080  0.3894
42894W        W51694   3.519   4.127   4.709 -0.0405  0.2497 -0.0106
42895W        W51695  10.397   5.245  18.040  0.2860 -0.3901  0.0462
42896W        W51696  13.848   1.714  41.995 -0.0137 -0.0097  0.0670
42897W        W51697  15.570   0.383  35.041 -0.1798  0.0428 -0.0258
42898W        W51698  12.024   0.740  20.057 -0.1911 -0.1743  0.1044
42899W        W51699  19.402   4.941  35.385 -0.0847  0.1842 -0.0738
42900W        W51700  18.997   1.230  42.681 -0.1992  0.0605 -0.2352
42901W        W51701  18.505   0.425  36.831  0.4246 -0.3111 -0.2043
42902W        W51702   3.428   1.637   4.391  0.0073  0.2585 -0.0839
42903W        W51703  17.495   1.298   4.210  0.1129  0.0746  0.1923
42904W        W51704  19.031   5.082   7.957  0.0949 -0.3355  0.0094
42905W        W51705   1.126   1.411  28.116 -0.2789  0.0820 -0.1094
42906W        W51706  18.823   5.019  39.864  0.2061 -0.0765  0.1600
42907W        W51707   3.053   4.295  39.602 -0.0273 -0.0239  0.1419
42908W        W51708   6.422   5.360   6.792 -0.0320  0.0020 -0.0255
42909W        W51709   8.875   4.848  17.698  0.2035  0.2717  0.0887
42910W        W51710   3.633   3.844  12.858 -0.0405 -0.0945  0.0013
42911W        W51711   0.688   2.493  44.134 -0.1836  0.1961 -0.2168
42912W        W51712   9.934   3.458  11.368 -0.2490  0.1569  0.2271
42913W        W51713   4.020   3.499  13.653 -0.1394  0.3542  0.0631
42914W        W51714  13.798   3.449   9.658  0.0935 -0.0469 -0.0996
42915W        W51715   6.523   1.081  10.619 -0.1510 -0.1698 -0.0707
42916W        W51716   4.955   0.872  38.471  0.0837 -0.1816  0.0768
42917W        W51717   1.536   5.692  33.111  0.1617  0.0898 -0.1705
42918W        W51718  14.955   6.440  11.610 -0.1165 -0.0238 -0.1451
42919W        W51719   3.285   6.067  22.674  0.0193  0.1196 -0.2112
42920W        W51720   0.542   5.040  40.699 -0.3273 -0.0536  0.1941
42921W        W51721   6.776   0.010  11.346 -0.0904  0.1269  0.1085
42922W        W51722  19.780   4.320   1.301  0.0610  0.0395 -0.1145
42923W        W51723   2.744   0.480  27.899  0.3998 -0.4080 -0.1690
42924W        W51724   2.912   0.193  31.816 -0.0819 -0.2300  0.1270
42925W        W51725  11.064   3.343   5.550  0.1169  0.4167 -0.0694
42926W        W51726  19.992   2.835   7.218  0.0928  0.0836 -0.1194
42927W        W51727  10.853   3.916  16.806  0.1646  0.0374  0.2691
42928W        W51728   3.850   5.025   7.906 -0.0532 -0.0452  0.2994
42929W        W51729   8.304   6.253  40.209 -0.1156 -0.2234  0.2157
42930W        W51730  16.579   4.478   0.452  0.2030 -0.1243 -0.0592
42931W        W51731  13.074   3.798  21.696  0.1539 -0.2016 -0.2064
42932W        W51732   4.750   6.005  22.058 -0.1922  0.1975  0.0401
42933W        W51733  13.429   1.941  19.394 -0.1520  0.1077 -0.2172
42934W        W51734  12.688   2.372  32.783 -0.2024  0.1805 -0.2133
42935W        W51735   0.809   3.868  40.490  0.0375  0.1563  0.0678
42936W        W51736  10.236   2.593   2.282 -0.0037 -0.2572 -0.2057
42937W        W51737  17.127   1.028  35.627 -0.1653  0.0406 -0.1919
42938W        W51738  17.191   3.023  42.939  0.1115  0.1184 -0.0096
42939W        W51739  18.247   0.756  30.576  0.3775 -0.0919 -0.1591
42940W        W51740  10.116   5.631  18.172 -0.0923 -0.0553 -0.0401
42941W        W51741  17.642   2.450  34.344 -0.4031  0.1387 -0.0186
42942W        W51742  18.633   2.738  11.117 -0.2522 -0.0730  0.1301
42943W        W51743  17.550   6.252  31.809  0.1941  0.1500 -0.0347
42944W        W51744   6.645   3.360  37.744  0.0660  0.0091 -0.2093
42945W        W51745   9.919   5.160  38.691  0.0005 -0.3377  0.0756
42946W        W51746   6.993   0.209   6.582 -0.0319 -0.0004 -0.0824
42947W        W51747  19.166   4.619  40.119  0.3347 -0.0806 -0.0824
42948W        W51748  20.421   6.449  15.062  0.1968  0.0460 -0.0435
42949W        W51749  17.681   2.723   3.545  0.1346 -0.1737  0.1667
42950W        W51750   7.548   1.677  12.439  0.0846  0.1254  0.1346
42951W        W51751   4.922   5.649  23.398  0.0235 -0.1127 -0.0235
42952W        W51752   8.515   4.468  12.275 -0.3586 -0.0587  0.1943
42953W        W51753  15.582   3.395  15.329 -0.0336  0.3342 -0.0763
42954W        W51754  10.506   5.641   2.223  0.1387  0.1116  0.0524
42955W        W51755   2.552   4.339  45.005 -0.1619  0.1049 -0.0824
42956W        W51756  17.540   4.198   9.896 -0.0994  0.1459 -0.1687
42957W        W51757   3.451   6.075  43.943  0.1427 -0.0076  0.1102
42958W        W51758  19.571   6.393  45.037 -0.0946  0.0788 -0.0180
42959W        W51759  12.759   5.085  19.718  0.3086 -0.1805  0.0451
42960W        W51760  18.957   2.020   2.647 -0.0361 -0.0686 -0.0031
42961W        W51761  16.137   4.044  40.401 -0.0965  0.0335 -0.0590
42962W        W51762  12.365   3.545  40.708 -0.1085 -0.2378  0.1214
42963W        W51763   9.681   5.594  27.199  0.1022 -0.0404  0.2757
42964W        W51764   8.304   5.763   3.743 -0.0238  0.1337 -0.1699
42965W        W51765   7.691   0.400   5.877  0.1032 -0.1000  0.2774
42966W        W51766   8.950   5.284  29.517  0.1074  0.1634  0.0562
42967W        W51767   5.137   4.586  43.619 -0.0532 -0.0635 -0.1429
42968W        W51768  16.734   0.107  32.597  0.0553  0.1354  0.0293
42969W        W51769  16.289   1.244  12.161  0.3801  0.2058 -0.0896
42970W        W51770  10.317   2.382  13.853  0.0667  0.0235 -0.1656
42971W        W51771  20.858   0.652  25.383 -0.1595 -0.1288 -0.1746
42972W        W51772   1.025   0.923   8.580 -0.1107 -0.2490 -0.1054
42973W        W51773  14.981   0.693  42.362 -0.3044  0.1127  0.1112
42974W        W51774  15.180   3.246  22.053 -0.1054 -0.2407  0.1764
42975W        W51775   7.786   2.678  40.737 -0.3876 -0.0811  0.0988
42976W        W51776  14.251   4.830  32.124  0.1789  0.0447 -0.1605
42977W        W51777   7.965   5.132  33.008 -0.1438  0.1726  0.0846
42978W        W51778  17.507   3.847   4.751  0.3371  0.1193  0.1760
42979W        W51779   5.266   3.931  28.266  0.1969 -0.2294  0.1373
42980W        W51780   4.727   1.063   5.201 -0.0223  0.2188 -0.0790
42981W        W51781   4.118   4.636  12.650  0.0031  0.2733 -0.0915
42982W        W51782  16.033   1.978   9.027  0.1170 -0.2096  0.0749
42983W        W51783   4.104   6.269  35.363  0.0714  0.1480  0.0284
42984W        W51784   6.328   2.734  27.967 -0.0168  0.0164 -0.0083
42985W        W51785  14.515   6.322  13.468 -0.0390 -0.0943  0.1831
42986W        W51786  10.730   3.565   7.136  0.1373 -0.3715  0.1899
42987W        W51787   0.047   2.403  27.421  0.0706 -0.0100 -0.1769
42988W        W51788   4.998   3.970  21.647  0.1315 -0.0076  0.0547
42989W        W51789  12.560   4.668  11.391  0.0386 -0.1758 -0.1829
42990W        W51790  18.674   4.394  12.183  0.0356 -0.2371 -0.1020
42991W        W51791  12.041   4.460  31.220 -0.0744  0.2656 -0.2980
42992W        W51792  19.946   2.491  29.837  0.3204  0.1281  0.1854
42993W        W51793  21.132   1.118  30.287  0.0653 -0.0413  0.0105
42994W        W51794   2.274   2.770  15.116  0.0533 -0.0100 -0.2052
42995W        W51795  11.288   0.850  35.972  0.2258  0.1311  0.1176
42996W        W51796  11.165   3.299   7.779  0.1930  0.1060  0.4373
42997W        W51797  10.836   1.508  40.168  0.0424 -0.1393  0.1636
42998W        W51798   5.248   0.029  34.050  0.1104 -0.0113  0.1313
42999W        W51799   7.913   4.536  42.287 -0.1027 -0.2659 -0.1723
43000W        W51800   2.330   4.744   4.290 -0.0571 -0.3478 -0.2723
43001W        W51801  11.090   3.955  16.313 -0.2312 -0.0162 -0.3000
43002W        W51802   3.293   2.590  37.030  0.3857 -0.0680 -0.0222
43003W        W51803  20.159   4.638  25.500  0.2725 -0.0808  0.1617
43004W        W51804  11.955   4.878  29.234  0.0940  0.1784 -0.0261
43005W        W51805  12.462   3.589  42.094 -0.3770  0.0094  0.4420
43006W        W51806  17.953   3.517  28.716  0.0045 -0.0397  0.0313
43007W        W51807   0.044   6.395  12.662  0.1624 -0.2416 -0.0125
43008W        W51808  18.082   5.602  15.850 -0.0397  0.0963  0.3469
43009W        W51809   0.496   6.411  32.700  0.2659  0.1690  0.0504
43010W        W51810   0.724   6.114  34.721  0.1187 -0.0274  0.1655
43011W        W51811   1.479   6.336  31.161 -0.1330  0.1177  0.0571
43012W        W51812   7.206   0.882   7.932  0.2124  0.1821  0.3126
43013W        W51813   1.431   1.925  13.648 -0.1071 -0.0966  0.3964
43014W        W51814  19.492   6.323  12.957 -0.4206  0.1192  0.2488
43015W        W51815   9.282   1.695   9.595 -0.0377  0.1581  0.0666
43016W        W51816   5.673   1.141  40.998  0.3358 -0.0704  0.0717
43017W        W51817  10.496   3.490  43.896  0.2201  0.2464 -0.1093
43018W        W51818   0.152   4.262  32.720  0.1397  0.3152 -0.0744
43019W        W51819   7.180   1.070  36.789 -0.2406 -0.0547 -0.4176
43020W        W51820   2.504   3.101  42.733 -0.0918 -0.0751  0.0433
43021W        W51821  21.056   0.168   4.237 -0.2077 -0.0725  0.1796
43022W        W51822  10.022   4.981   0.985 -0.0426 -0.2552 -0.0407
43023W        W51823   1.878   5.272  27.280 -0.1620  0.0880 -0.0787
43024W        W51824   9.778   4.035  34.056  0.1715  0.0509  0.0637
43025W        W51825  13.149   5.647  32.252 -0.0797  0.0287  0.0334
43026W        W51826  16.760   0.580   9.523 -0.1071  0.1403  0.2188
43027W        W51827   4.353   2.205   3.276  0.2517  0.2830  0.0836
43028W        W51828   0.584   2.232  43.413 -0.2188  0.1708 -0.0787
43029W        W51829   3.866   2.289  20.990 -0.2433 -0.0422 -0.0308
43030W        W51830   4.677   4.062  44.558  0.2320  0.1744 -0.0641
43031W        W51831  16.887   5.283   4.845  0.0790 -0.0300  0.0945
43032W        W51832  16.427   5.746  30.815  0.0839  0.1661 -0.1100
43033W        W51833   1.744   5.966   0.174 -0.0211 -0.1201  0.0212
43034W        W51834  20.399   4.845   0.336 -0.3109 -0.1455 -0.0241
43035W        W51835  10.994   5.648  33.924 -0.1579 -0.2928 -0.1174
43036W        W51836  10.791   4.889   0.981  0.0158 -0.2555  0.0503
43037W        W51837   3.003   6.520   0.878  0.1367  0.1104  0.2961
43038W        W51838   4.905   2.268  43.859 -0.2709 -0.0341 -0.3011
43039W        W51839  17.546   2.128   6.931 -0.0902 -0.0331  0.2449
43040W        W51840  17.005   0.805  40.387  0.3020 -0.1703 -0.0006
43041W        W51841   7.479   2.959  13.461  0.2508  0.3405  0.0556
43042W        W51842   3.344   2.183  29.650 -0.1297 -0.0394 -0.0776
43043W        W51843  11.831   4.175  20.894 -0.2009  0.0914 -0.0661
43044W        W51844   4.190   1.459  28.803  0.2001  0.1556  0.0389
43045W        W51845   3.819   0.117  43.940 -0.1300 -0.2930  0.0432
43046W        W51846  17.925   4.907   6.640  0.2354  0.0231 -0.0251
43047W        W51847  18.599   5.849  28.294  0.1363  0.1638 -0.2353
43048W        W51848   3.618   4.224  28.718  0.2374  0.2737  0.3345
43049W        W51849   4.650   2.740  43.020  0.2421 -0.0160  0.0871
43050W        W51850  11.087   2.259  15.854  0.2226  0.3837  0.0327
43051W        W51851  13.526   4.881  30.319  0.1516  0.1153  0.0001
43052W        W51852   2.866   2.999  13.320 -0.2951  0.0465 -0.0171
43053W        W51853  15.002   5.699  42.487 -0.2281  0.0597 -0.0119
43054W        W51854  13.637   4.798   7.259  0.2660  0.0480 -0.1831
43055W        W51855   4.751   0.732  14.128 -0.1122  0.0428 -0.0808
43056W        W51856   6.316   0.755  34.597 -0.1581 -0.1937  0.1894
43057W        W51857  13.211   5.030  41.821 -0.0490  0.2222  0.0029
43058W        W51858  19.372   6.015  26.741  0.1342  0.0603  0.0159
43059W        W51859  17.503   3.714   7.417 -0.1581 -0.0984 -0.1577
43060W        W51860  19.324   2.640   6.145 -0.1055  0.0223 -0.0142
43061W        W51861   1.221   0.491  11.443 -0.0188 -0.1731 -0.2056
43062W        W51862   3.334   0.307  14.105  0.0381  0.0501 -0.3116
43063W        W51863  12.859   0.518   0.284  0.3064  0.0464  0.5189
43064W        W51864   1.073   6.097  26.411  0.0070 -0.1381 -0.1382
43065W        W51865  18.561   0.680  41.931  0.0421  0.0075  0.0761
43066W        W51866  21.027   2.130  15.343 -0.1145  0.1662  0.1155
43067W        W51867   6.304   5.217  10.340 -0.1294  0.2148 -0.2321
43068W        W51868  15.621   5.704  34.246 -0.3484  0.2332 -0.2346
43069W        W51869  17.953   6.537  30.113 -0.0293  0.0578 -0.1117
43070W        W51870  16.491   2.077  35.876  0.2219  0.1218 -0.1481
43071W        W51871  20.023   1.479  12.011  0.0487 -0.2645  0.0274
43072W        W51872   0.150   3.505   0.872 -0.0088  0.1589  0.0122
43073W        W51873   7.087   5.144  12.594  0.1426 -0.1635 -0.0640
43074W        W51874   5.720   5.563   1.899 -0.0630  0.0434 -0.0544
43075W        W51875  14.421   3.248  33.758 -0.1577  0.4004  0.0244
43076W        W51876  18.617   4.808  44.058 -0.0132  0.0932  0.0486
43077W        W51877   8.864   2.238   4.248 -0.0027 -0.1122 -0.0443
43078W        W51878  10.978   1.267  17.522  0.0711 -0.0590  0.0787
43079W        W51879   1.555   2.613  12.416  0.1089 -0.1863 -0.0759
43080W        W51880   6.484   3.808  14.166 -0.0283 -0.0470  0.1819
43081W        W51881  12.802   4.286  20.072  0.1144 -0.3026  0.3762
43082W        W51882   0.596   3.149  35.659 -0.0803 -0.0656 -0.0833
43083W        W51883  14.301   4.879  15.186  0.1265 -0.0922 -0.2032
43084W        W51884  20.817   1.032   4.944  0.1578  0.0530 -0.1372
43085W        W51885  15.603   3.730  35.933  0.0033  0.1017  0.5329
43086W        W51886   1.423   2.010  10.434  0.0280  0.3324  0.0599
43087W        W51887   8.431   1.870  37.941 -0.0905  0.1907  0.1543
43088W        W51888  15.044   6.283  20.734  0.2580  0.1716 -0.2557
43089W        W51889   6.707   4.988  23.601 -0.0026  0.1454  0.0216
43090W        W51890   6.131   5.464   1.204  0.0171  0.3040 -0.0003
43091W        W51891   9.195   6.475  43.806  0.0301  0.0362  0.0584
43092W        W51892  18.158   1.886   4.673  0.2916  0.1994 -0.1045
43093W        W51893  19.318   5.094  42.108 -0.1353 -0.2680  0.0937
43094W        W51894   4.016   1.965  44.035 -0.0871 -0.0288  0.0026
43095W        W51895   6.419   1.611  24.141  0.1008 -0.0246 -0.0555
43096W        W51896   3.142   4.052  33.892  0.2385  0.1486 -0.1058
43097W        W51897   1.446   1.258   1.462 -0.0531  0.2984 -0.2571
43098W        W51898  17.152   1.566  35.783 -0.0411  0.2685  0.1139
43099W        W51899  14.521   5.903  22.661 -0.1099 -0.1973  0.2932
43100W        W51900  19.842   0.684  27.189 -0.2998  0.1371  0.0984
43101W        W51901  10.541   5.564   3.723 -0.2615 -0.1977 -0.0906
43102W        W51902   8.498   4.154  41.044 -0.1909 -0.3550  0.2826
43103W        W51903  12.699   0.488  15.675 -0.1301 -0.1101 -0.1193
43104W        W51904  19.531   2.643  41.872 -0.0608  0.2388 -0.1902
43105W        W51905  16.955   3.889  36.487 -0.0462  0.1078 -0.0830
43106W        W51906  12.358   2.291   0.040  0.2225  0.2785  0.2486
43107W        W51907  17.133   4.077  19.500  0.5566  0.1890 -0.0855
43108W        W51908  18.985   4.701  26.633 -0.2387  0.0873 -0.1755
43109W        W51909  12.614   3.563  38.206  0.1355 -0.2499 -0.1622
43110W        W51910  20.310   2.047   9.197 -0.0817 -0.1115 -0.0821
43111W        W51911  13.247   0.541   6.525  0.2622  0.0500  0.1382
43112W        W51912  15.665   1.688  15.098 -0.1947  0.0011 -0.0554
43113W        W51913   3.422   3.031   4.622  0.1023 -0.2356 -0.0112
43114W        W51914   6.496   0.134  40.672 -0.0212  0.4272 -0.3249
43115W        W51915   4.636   4.610  20.619  0.1860 -0.0596  0.2494
43116W        W51916   9.332   2.517  31.052 -0.0195 -0.1709  0.1158
43117W        W51917  17.602   2.538  32.005  0.2856 -0.0681 -0.0994
43118W        W51918  10.388   1.607  27.876 -0.1156  0.2207  0.2099
43119W        W51919  17.564   5.997  31.297  0.0130 -0.3623 -0.2867
43120W        W51920   8.755   0.654   0.127 -0.0371 -0.0649 -0.4375
43121W        W51921  11.453   5.613   7.612 -0.0896 -0.2157  0.2128
43122W        W51922  20.219   4.304  38.284  0.1408 -0.2538  0.0017
43123W        W51923   2.543   0.025   5.283 -0.1546 -0.0416 -0.2197
43124W        W51924  20.771   2.923  33.630  0.0047 -0.2578 -0.2052
43125W        W51925  16.250   5.508  20.128 -0.0016  0.0762 -0.1187
43126W        W51926   6.221   1.031  13.146  0.0737  0.0348  0.0521
43127W        W51927   6.055   1.174  33.691 -0.1870 -0.3373  0.3151
43128W        W51928   9.984   5.170  44.679 -0.3885  0.3404 -0.2655
43129W        W51929  17.711   6.426  42.864 -0.3038  0.0960 -0.1334
43130W        W51930  13.175   2.580  13.667  0.3932 -0.0084  0.1054
43131W        W51931  15.477   1.611   1.698  0.1301 -0.0962 -0.2583
43132W        W51932   9.004   2.082  12.024 -0.0035  0.0627  0.0070
43133W        W51933   1.773   3.380  26.648 -0.1387 -0.1477 -0.2724
43134W        W51934  10.682   1.618  42.450  0.1560 -0.0300  0.2370
43135W        W51935   3.845   2.438  22.661  0.1725 -0.2231 -0.0427
43136W        W51936   8.675   4.625  13.847  0.0417 -0.2487 -0.0466
43137W        W51937   6.902   4.949  25.400 -0.0847  0.1221 -0.4653
43138W        W51938   5.711   4.854  11.923  0.1594 -0.0305 -0.0757
43139W        W51939  17.975   3.258  40.850  0.1406  0.2401 -0.0121
43140W        W51940  15.263   5.207  20.808 -0.2172 -0.0652  0.0836
43141W        W51941  10.299   1.723  35.648  0.0674 -0.2198  0.0204
43142W        W51942  12.228   3.439  14.826 -0.2508 -0.1822  0.1328
43143W        W51943  11.608   6.498  35.099  0.0201  0.2443 -0.1631
43144W        W51944  20.983   0.002  44.380 -0.2012 -0.1657 -0.1193
43145W        W51945   2.165   0.050  44.071  0.0555 -0.0665 -0.2848
43146W        W51946  14.899   4.094  36.490  0.1670  0.2770 -0.0508
43147W        W51947  18.982   5.837  33.683 -0.2535  0.0588 -0.0942
43148W        W51948  18.288   1.565  28.924 -0.1517 -0.0248  0.1208
43149W        W51949  15.982   2.726  35.428 -0.1887  0.0905  0.2234
43150W        W51950   5.060   5.899  26.924  0.0407 -0.3377  0.0568
43151W        W51951   0.287   0.599   8.838  0.0006 -0.2686  0.0795
43152W        W51952  11.924   4.112  45.012  0.0290 -0.2840  0.3498
43153W        W51953   7.829   4.911  33.427 -0.3172 -0.0876  0.0409
43154W        W51954   9.942   2.324  11.133 -0.0905  0.1641 -0.3237
43155W        W51955   3.969   6.267  27.859  0.2818 -0.1690  0.3475
43156W        W51956   1.556   2.138  39.138  0.0584  0.1802  0.3406
43157W        W51957  10.581   4.023  16.320  0.2523 -0.1666 -0.1951
43158W        W51958   4.343   2.093  36.355  0.5519 -0.2630  0.0263
43159W        W51959  12.031   3.532  29.062  0.1184  0.1152 -0.0977
43160W        W51960   0.500   4.262  41.914 -0.1649  0.1641  0.1080
43161W        W51961   4.083   6.352  37.727 -0.0576 -0.0651 -0.1336
43162W        W51962   6.732   2.676  33.208 -0.0147  0.1763 -0.1640
43163W        W51963   3.004   1.060  43.544 -0.4108  0.0783  0.0019
43164W        W51964  14.590   1.642   1.876 -0.0600 -0.0406  0.0789
43165W        W51965  19.437   2.237   6.879  0.1163  0.0219  0.2170
43166W        W51966  11.608   4.342  44.059 -0.1525  0.2797  0.3185
43167W        W51967   7.512   3.090  11.933 -0.2774  0.0613  0.0912
43168W        W51968  12.906   4.944  19.187  0.2207 -0.1267 -0.0582
43169W        W51969  17.198   1.667  30.534  0.1866 -0.2831 -0.2359
43170W        W51970  13.312   1.795   9.297 -0.0159  0.1295 -0.0460
43171W        W51971   4.022   0.625  14.639 -0.0241 -0.0802  0.0612
43172W        W51972   7.446   4.010  38.647 -0.0432  0.1065  0.3328
43173W        W51973  12.732   5.109  14.054 -0.0504 -0.0711  0.2355
43174W        W51974   6.064   3.987  28.604 -0.0874  0.1949 -0.4552
43175W        W51975   7.342   1.308   3.183 -0.2401  0.0035  0.1690
43176W        W51976   5.956   6.230  42.017 -0.0402  0.3134 -0.1276
43177W        W51977   8.348   0.279   7.339  0.0674 -0.1119  0.2266
43178W        W51978  12.289   3.865  36.264  0.0921  0.3213 -0.0323
43179W        W51979  17.522   2.605  11.819 -0.1909 -0.1526 -0.0515
43180W        W51980  10.568   1.302  40.657  0.0437  0.0083  0.2490
43181W        W51981  19.354   6.089  16.452 -0.1912 -0.1241 -0.0628
43182W        W51982   4.070   2.571  25.707 -0.1674  0.1252  0.0876
43183W        W51983  10.091   0.547   6.169 -0.1375 -0.4440  0.0482
43184W        W51984  18.860   1.322  38.871 -0.0976 -0.0384  0.0668
43185W        W51985  18.489   0.953  10.991 -0.0431  0.0773 -0.2961
43186W        W51986  16.995   2.075   3.964 -0.0564 -0.0132 -0.2495
43187W        W51987   5.474   1.757  36.125  0.2381  0.0803  0.2392
43188W        W51988   5.295   2.382  42.276  0.1271  0.3813  0.0126
43189W        W51989  12.323   3.332  36.195  0.0431 -0.0608 -0.3886
43190W        W51990   9.005   5.846   4.391 -0.1464  0.1581  0.2786
43191W        W51991   5.008   3.641  43.254  0.0975 -0.1907  0.1016
43192W        W51992  12.419   3.078   0.313  0.2823 -0.0027 -0.0250
43193W        W51993   7.773   5.939   0.004 -0.0984 -0.1341  0.1551
43194W        W51994  11.233   5.901  39.034  0.1207 -0.0733  0.1786
43195W        W51995  17.087   0.170   9.060  0.0791 -0.1845 -0.2178
43196W        W51996  12.770   0.320   6.472 -0.0058  0.2153  0.2774
43197W        W51997  17.025   2.427  16.391 -0.1071 -0.0979  0.1595
43198W        W51998   9.909   1.910  10.344 -0.0780  0.1491  0.0657
43199W        W51999   5.785   1.163  32.566 -0.2383  0.0707 -0.3046
43200W        W52000   1.669   0.899  26.014  0.2025 -0.0393  0.2653
43201W        W52001  14.278   4.992  36.314 -0.3910  0.1231  0.0380
43202W        W52002  18.529   5.442  32.821  0.1823 -0.1930  0.0784
43203W        W52003  16.143   5.477  31.560 -0.0763  0.3403 -0.0438
43204W        W52004  16.961   1.574   6.326  0.2104 -0.2221 -0.1432
43205W        W52005   4.154   1.994   5.975  0.4394  0.2289  0.0079
43206W        W52006   1.534   5.428  25.069 -0.1826 -0.1818  0.0794
43207W        W52007  12.551   1.180  35.624 -0.1112 -0.0230  0.0660
43208W        W52008  12.777   0.213   4.723  0.1542 -0.1819 -0.1930
43209W        W52009  12.502   6.469  10.864  0.0908 -0.1448 -0.0537
43210W        W52010   0.276   1.150  14.083 -0.1141 -0.1949 -0.1156
43211W        W52011   3.896   5.277  26.042  0.0749 -0.0434  0.1416
43212W        W52012  19.384   2.242  10.382  0.3000  0.1529 -0.0461
43213W        W52013   6.602   2.987  27.401 -0.0089 -0.0279  0.1067
43214W        W52014   8.231   6.190  34.907 -0.2939 -0.0725  0.3259
43215W        W52015   5.789   2.802   5.541  0.0582 -0.0794 -0.2338
43216W        W52016  19.662   2.803   5.346  0.0806  0.0263  0.0740
43217W        W52017   2.929   2.718   6.225  0.0940 -0.1659  0.1123
43218W        W52018  14.461   6.263  15.040  0.1243  0.1080  0.1075
43219W        W52019  11.480   6.055  17.635  0.1713 -0.2191 -0.1255
43220W        W52020  20.701   0.835  41.200  0.1930 -0.4439 -0.2399
43221W        W52021   4.345   1.072  36.234  0.0243  0.1585 -0.0063
43222W        W52022  17.404   5.342  12.804 -0.0977 -0.2020  0.2147
43223W        W52023  10.449   1.662  36.524 -0.0103  0.1117  0.0787
43224W        W52024   0.668   3.478  40.777  0.0305 -0.4059  0.0893
43225W        W52025  15.611   2.217  43.854 -0.2019  0.0947 -0.3277
43226W        W52026   1.867   1.783  32.744  0.0963  0.1986  0.0202
43227W        W52027  18.970   0.053  10.861 -0.0565  0.0027 -0.1160
43228W        W52028   3.857   2.084  13.211 -0.2544 -0.0070 -0.2424
43229W        W52029  13.762   4.238  11.833  0.0194  0.1754 -0.1207
43230W        W52030   7.138   5.900   7.881 -0.0495 -0.2598  0.2100
43231W        W52031  18.609   1.998  37.116  0.3357  0.1321 -0.1076
43232W        W52032  14.877   1.206  38.148 -0.1185 -0.0449  0.1285
43233W        W52033  14.989   1.474  13.082 -0.4174 -0.0134 -0.3039
43234W        W52034  14.632   5.429   8.985  0.2075  0.0982  0.0125
43235W        W52035  16.976   3.574  39.879 -0.0251 -0.0067 -0.0527
43236W        W52036   5.475   6.562  12.642 -0.0234 -0.0873 -0.1699
43237W        W52037  19.518   5.206  36.519 -0.0110  0.1178 -0.0514
43238W        W52038   7.743   2.914  26.031  0.4218  0.0174  0.0224
43239W        W52039  19.253   0.953  35.023  0.0104  0.5828 -0.1547
43240W        W52040   9.403   4.183  41.205  0.1431  0.3839 -0.1937
43241W        W52041  10.933   0.621  30.941  0.3138 -0.2621  0.0062
43242W        W52042   7.796   1.217  13.536 -0.0247  0.1878 -0.0343
43243W        W52043  10.640   2.826   4.133  0.0705  0.0583  0.1595
43244W        W52044   2.417   1.461  14.337  0.2900  0.1031 -0.0971
43245W        W52045   0.118   3.703  31.899  0.1160 -0.0470 -0.0963
43246W        W52046  10.519   0.852  16.190  0.0705 -0.0057 -0.0511
43247W        W52047   6.292   5.863  11.254 -0.2395  0.3018  0.0064
43248W        W52048  18.587   5.737  12.690  0.0005  0.2139  0.0226
43249W        W52049   6.387   4.551  24.422  0.0045  0.1599  0.2201
43250W        W52050   6.102   0.087  30.807  0.0273  0.1576  0.2301
43251W        W52051   5.468   2.206  25.788  0.2171  0.0900 -0.1634
43252W        W52052  20.052   1.652  11.533  0.1666 -0.2371 -0.0401
43253W        W52053  17.529   4.900  33.196 -0.2987  0.0212  0.2408
43254W        W52054  19.234   1.429   2.046 -0.0453 -0.1223  0.2520
43255W        W52055  10.846   3.489  37.635  0.2027 -0.1599 -0.0214
43256W        W52056  16.154   4.976   3.033 -0.0228 -0.0481  0.1832
43257W        W52057  11.980   6.114  41.518 -0.1200 -0.0480 -0.3436
43258W        W52058   4.625   3.255  26.952 -0.1472 -0.1247 -0.1419
43259W        W52059  12.888   3.895  18.244 -0.2312 -0.0500 -0.2216
43260W        W52060  17.985   3.423   4.260  0.4910 -0.2603  0.1543
43261W        W52061  16.568   2.160  11.489 -0.1416  0.2258  0.0416
43262W        W52062  21.050   4.447   4.140 -0.0544  0.1986 -0.0474
43263W        W52063   6.970   5.499  16.533  0.0022 -0.0774 -0.1532
43264W        W52064  16.408   1.474  31.013  0.4427 -0.0394  0.1753
43265W        W52065  12.724   4.430  18.015  0.0584  0.0317 -0.0736
43266W        W52066   5.890   2.355  13.674  0.2713  0.0147  0.2838
43267W        W52067   2.962   6.109  42.693 -0.0985 -0.1136 -0.2876
43268W        W52068  20.800   5.607  10.810  0.1100  0.0946  0.0070
43269W        W52069  16.295   4.136  13.642  0.1341  0.1848 -0.0006
43270W        W52070   6.677   1.002  42.209  0.1698  0.0777  0.1744
43271W        W52071   7.935   2.053  41.841  0.0785 -0.1339  0.1650
43272W        W52072  20.742   1.755  14.715  0.0968  0.2918  0.0829
43273W        W52073  10.240   2.484   5.695 -0.0541 -0.1515  0.1205
43274W        W52074   4.591   2.446   3.712 -0.0904  0.0814 -0.3507
43275W        W52075  12.135   0.612  10.581 -0.2350  0.1907 -0.0576
43276W        W52076  10.537   3.141  14.332 -0.0415  0.0775 -0.0339
43277W        W52077   7.936   5.137   4.636  0.0885 -0.3374 -0.1507
43278W        W52078  14.535   2.158  29.527  0.0707  0.2075  0.0411
43279W        W52079   2.912   3.592  15.493  0.0087  0.1860 -0.1896
43280W        W52080  19.318   3.990   2.415  0.0854  0.0401 -0.3552
43281W        W52081  18.240   2.710  42.332  0.0408 -0.3489 -0.1506
43282W        W52082   5.065   3.347  38.771  0.4416  0.1337  0.0791
43283W        W52083   5.826   1.906  35.054 -0.0836 -0.0582 -0.2037
43284W        W52084  17.317   4.566  35.088  0.0679 -0.1017 -0.1246
43285W        W52085   4.393   4.728  27.278 -0.0899 -0.0820 -0.0568
43286W        W52086  14.667   1.784  40.307  0.0498 -0.0323  0.0423
43287W        W52087   8.915   1.003  39.778  0.0666  0.2157  0.0738
43288W        W52088  17.865   4.039  16.112 -0.2625 -0.1566  0.0834
43289W        W52089  10.995   4.304  40.016 -0.0000 -0.3000 -0.4973
43290W        W52090  16.617   5.405   6.550  0.0325  0.3148  0.0250
43291W        W52091  18.089   6.603  14.317 -0.2020  0.0124 -0.0766
43292W        W52092  13.641   0.775  18.530 -0.0158 -0.1224  0.1009
43293W        W52093   7.806   0.939  44.666 -0.0236 -0.0721 -0.1827
43294W        W52094   2.848   3.863   3.539 -0.0802 -0.1798  0.1269
43295W        W52095  19.089   0.642   7.978 -0.0232  0.2032 -0.1406
43296W        W52096   7.708   3.963  45.157 -0.0780  0.1049  0.0635
43297W        W52097   3.400   0.130  41.838 -0.1663  0.3252  0.0640
43298W        W52098   8.342   4.423  31.958  0.0543  0.1559  0.1708
43299W        W52099  17.262   3.642  30.444  0.1637  0.0922  0.2235
43300W        W52100   1.294   2.566  31.590  0.1794 -0.1469 -0.0069
43301W        W52101  12.132   1.179   2.142 -0.0639  0.0623  0.1283
43302W        W52102   4.953   5.489  10.511 -0.1346 -0.0454 -0.1483
43303W        W52103  10.711   6.226   8.936 -0.0143 -0.1678 -0.5520
43304W        W52104  16.938   5.102  15.467  0.0493  0.0119  0.0529
43305W        W52105   6.524   4.296  25.903 -0.0361 -0.0729 -0.0267
43306W        W52106   5.317   5.990   0.222  0.0641  0.3935 -0.0586
43307W        W52107   3.782   0.057  32.140  0.1362  0.0166 -0.2249
43308W        W52108  13.308   2.839  31.832 -0.0047 -0.1777 -0.1801
43309W        W52109   3.231   6.419  21.670 -0.2935  0.0268 -0.1559
43310W        W52110  14.116   1.826  31.500  0.1830 -0.1188  0.2258
43311W        W52111   2.563   3.219  25.501  0.2264  0.2253  0.5390
43312W        W52112  12.415   3.573  31.092  0.1682  0.0259 -0.1833
43313W        W52113  13.332   3.700  21.141  0.1251  0.0439 -0.3223
43314W        W52114  16.614   4.754  12.560  0.0270  0.0207 -0.2690
43315W        W52115  20.504   6.149  29.641  0.0626  0.0044 -0.3656
43316W        W52116   3.551   2.363  12.862  0.1752  0.0957  0.1809
43317W        W52117  18.253   1.114  43.599 -0.0185  0.0105 -0.0317
43318W        W52118   6.563   0.618  23.910  0.2103 -0.3134  0.1238
43319W        W52119  19.145   2.696  43.776  0.0477 -0.1194  0.0932
43320W        W52120  10.362   3.466  16.465 -0.1610 -0.3726  0.3141
43321W        W52121   2.378   6.439   9.103  0.1823  0.1767  0.1606
43322W        W52122   5.532   5.497   0.386 -0.0340  0.0961 -0.1937
43323W        W52123   3.745   5.472  37.463 -0.3175 -0.1268 -0.2606
43324W        W52124  10.086   4.121  10.602 -0.0354 -0.0873  0.1521
43325W        W52125  21.159   6.442  38.379  0.3285 -0.0088 -0.2714
43326W        W52126   2.255   1.137   2.513 -0.2860 -0.2220  0.0275
43327W        W52127  17.847   5.358  19.829 -0.1878 -0.2921  0.1280
43328W        W52128   0.012   1.623  37.646 -0.3925  0.1145  0.3058
43329W        W52129   8.761   5.123  13.938 -0.1716  0.1230 -0.0010
43330W        W52130   7.469   6.389  30.920 -0.0101 -0.2005 -0.0426
43331W        W52131   6.980   2.551  35.968  0.0690 -0.2292 -0.0656
43332W        W52132   9.176   6.521  14.272  0.2976  0.2382 -0.1565
43333W        W52133  19.667   4.354  28.342 -0.0468 -0.1458  0.0266
43334W        W52134  20.782   4.906  29.751  0.0334  0.2741 -0.0240
43335W        W52135  17.280   1.736   1.410  0.0903  0.0665 -0.0400
43336W        W52136  12.853   5.482  37.732 -0.1918  0.0019  0.1988
43337W        W52137  17.708   6.390  43.820  0.1619  0.1659 -0.1746
43338W        W52138  20.539   5.552   2.266  0.2065  0.2393  0.0543
43339W        W52139  12.320   0.319   1.188 -0.1375  0.0246 -0.0137
43340W        W52140  12.104   5.379  40.928 -0.1230  0.3587  0.1655
43341W        W52141   6.907   2.916   4.215 -0.1350 -0.0833 -0.0250
43342W        W52142   6.531   2.295  42.891 -0.0748 -0.0482 -0.1184
43343W        W52143   7.156   1.045  34.849  0.2549  0.0242 -0.1235
43344W        W52144   9.366   2.388  28.384  0.0849  0.2843 -0.0547
43345W        W52145   4.172   0.867  29.660 -0.0558  0.4461  0.0340
43346W        W52146  12.824   4.356   2.787  0.2656  0.0025  0.1136
43347W        W52147  13.060   3.672  34.749  0.3393 -0.0590  0.3365
43348W        W52148   4.994   2.744  42.606 -0.0457 -0.0762 -0.3129
43349W        W52149  20.298   3.516  12.105  0.1216 -0.1075  0.0021
43350W        W52150  12.498   4.569  19.298  0.1391 -0.1497  0.0220
43351W        W52151  17.838   2.864  30.751  0.0538  0.1739  0.1878
43352W        W52152   9.738   2.946  30.243 -0.0739  0.0677  0.0149
43353W        W52153  12.813   1.705  32.497  0.0197 -0.0231  0.1334
43354W        W52154   3.263   1.689  42.417 -0.0272 -0.0466  0.0619
43355W        W52155   7.024   5.992  14.424  0.2121  0.0257  0.0049
43356W        W52156   1.846   6.516  28.905 -0.2352  0.1738  0.0558
43357W        W52157   0.416   5.681  23.050 -0.2497  0.2079 -0.4136
43358W        W52158   4.732   5.610   2.400 -0.0824 -0.0176  0.0664
43359W        W52159   4.036   1.149  38.319  0.1005  0.2851  0.0837
43360W        W52160  17.340   2.435  37.035  0.0207  0.1233  0.2607
43361W        W52161  18.215   2.983  40.163  0.2116  0.2406  0.2040
43362W        W52162   2.349   6.243  24.229  0.0017  0.1491 -0.0964
43363W        W52163   9.771   2.285   8.237  0.1136 -0.0391 -0.1892
43364W        W52164  10.878   0.758   0.164  0.2021  0.2229 -0.1651
43365W        W52165  16.310   3.314   7.956 -0.1277  0.0485 -0.0474
43366W        W52166   4.687   0.653  40.460 -0.0368 -0.0622  0.0243
43367W        W52167  10.709   4.678   2.037 -0.0159  0.5095  0.2421
43368W        W52168  19.829   2.119   9.538 -0.0873 -0.0207  0.4923
43369W        W52169  15.854   0.351   8.152  0.1701  0.3627 -0.2041
43370W        W52170  10.724   2.862   4.656  0.1519  0.2982 -0.1342
43371W        W52171   7.116   5.156  35.166  0.2174 -0.1727 -0.0733
43372W        W52172  13.887   5.747  41.079  0.0258 -0.0140 -0.0928
43373W        W52173   6.857   5.159  36.101  0.1033 -0.1701 -0.3223
43374W        W52174   4.642   2.357  32.417  0.0978  0.0295  0.0081
43375W        W52175  19.050   3.948  34.606  0.0455  0.0601  0.0789
43376W        W52176  21.171   5.344  33.170 -0.0392 -0.0538  0.0011
43377W        W52177   5.913   0.512   9.999 -0.2282  0.0585  0.1378
43378W        W52178  19.526   2.903  40.129 -0.2488  0.0420 -0.3791
43379W        W52179   6.743   4.159   7.198 -0.1208 -0.2272  0.1603
43380W        W52180  11.987   6.018  36.612 -0.1411 -0.1062  0.2065
43381W        W52181  11.251   5.728  30.107  0.1411 -0.0014  0.0685
43382W        W52182   6.356   2.019  38.778  0.2062 -0.2392 -0.1685
43383W        W52183   7.503   2.316  24.343 -0.1700  0.0922  0.2966
43384W        W52184  15.007   4.390  19.791 -0.0681 -0.0440  0.1510
43385W        W52185  10.358   2.358  18.373 -0.2166 -0.2023 -0.3669
43386W        W52186  14.890   4.057   0.368 -0.0543 -0.3140 -0.0825
43387W        W52187   2.349   1.024  31.293 -0.0009  0.0834 -0.0996
43388W        W52188  11.769   6.064  16.169 -0.1259  0.0981  0.0261
43389W        W52189   3.238   4.839   8.134  0.1266 -0.0769  0.0032
43390W        W52190   9.725   3.652  12.601 -0.0877  0.1242 -0.1569
43391W        W52191  12.383   4.129  18.196  0.0884  0.0150  0.2188
43392W        W52192   2.377   0.562  44.055  0.0135 -0.0282  0.1957
43393W        W52193   1.583   6.569  13.669 -0.1067  0.2433 -0.2611
43394W        W52194  15.169   3.179  15.723  0.1536  0.2644 -0.0139
43395W        W52195   5.399   2.595  26.909  0.0300 -0.0399  0.0222
43396W        W52196   2.682   6.268  12.921  0.2694  0.2111  0.0014
43397W        W52197   7.026   2.576   2.160 -0.0541 -0.0413 -0.0599
43398W        W52198   2.033   0.051   7.017  0.1083 -0.1448  0.0908
43399W        W52199   4.597   0.979  21.265  0.1736  0.0648  0.1450
43400W        W52200  19.452   1.512  18.358 -0.1721  0.2608 -0.0638
43401W        W52201   4.882   5.884   5.665 -0.0016  0.4864  0.1062
43402W        W52202  14.824   0.954   7.919  0.1308  0.2498 -0.2571
43403W        W52203  11.230   1.640  15.072 -0.0399 -0.1594  0.0064
43404W        W52204   8.857   1.554  32.056 -0.0861  0.2181  0.0078
43405W        W52205  16.130   3.404   7.016  0.3810  0.0144  0.1392
43406W        W52206  13.292   4.074  28.528 -0.1893 -0.0290  0.1550
43407W        W52207   8.821   5.210  43.990 -0.1293 -0.1692  0.2250
43408W        W52208  17.358   2.868   4.885 -0.1676 -0.0968  0.0424
43409W        W52209  15.708   4.130  31.746  0.0807 -0.0620 -0.0998
43410W        W52210  10.826   3.138  14.721 -0.2276 -0.1104  0.0749
43411W        W52211  18.919   5.352  42.806  0.1140  0.0314  0.3134
43412W        W52212   9.880   6.032  38.733  0.0124 -0.0918 -0.1545
43413W        W52213   9.606   5.920  34.233 -0.1127  0.1783  0.4135
43414W        W52214  18.186   5.114  15.741 -0.0819 -0.3263  0.1299
43415W        W52215   2.486   5.315  28.703  0.1419 -0.0701  0.0027
43416W        W52216   1.450   4.081  41.944  0.0296  0.0199  0.1580
43417W        W52217   8.290   3.305  26.960 -0.3374 -0.1561 -0.3855
43418W        W52218  15.026   3.437  20.756  0.3357  0.3580 -0.1442
43419W        W52219   5.385   0.785  14.066 -0.0002 -0.0320 -0.0648
43420W        W52220   3.693   5.398   7.132 -0.3049 -0.4859 -0.0091
43421W        W52221  20.729   6.502  37.130  0.1051  0.0249 -0.2476
43422W        W52222  20.658   4.916  40.484  0.3513  0.0237  0.0385
43423W        W52223  17.827   0.170  44.152 -0.2501  0.0414 -0.0338
43424W        W52224  17.317   4.190  41.956 -0.0063 -0.0666 -0.2915
43425W        W52225  19.470   2.818   9.235  0.0292 -0.0987  0.5679
43426W        W52226   8.184   5.680  10.750 -0.0525  0.1437  0.1099
43427W        W52227   2.454   0.605  31.077  0.0963  0.0927  0.0233
43428W        W52228   7.492   1.759  15.563 -0.0918 -0.0172 -0.1634
43429W        W52229   3.260   5.858  25.610  0.0302  0.0539  0.1166
43430W        W52230  18.369   2.318  30.198  0.0640  0.0622  0.0797
43431W        W52231   4.695   1.076  24.358  0.0332  0.1529  0.0939
43432W        W52232  16.668   0.143  15.643 -0.0433 -0.1925  0.1162
43433W        W52233   1.531   2.822  39.832 -0.2287  0.1969  0.0760
43434W        W52234   7.770   2.109  43.887  0.4334 -0.0321 -0.0103
43435W        W52235   2.801   0.754  25.617  0.4988 -0.2199  0.0284
43436W        W52236   2.071   5.089  41.382 -0.2350  0.1441 -0.1581
43437W        W52237   4.846   2.413  27.837  0.0312  0.1637  0.0451
43438W        W52238   1.180   1.342  23.876 -0.0762  0.1838 -0.4891
43439W        W52239  19.356   2.871  38.393 -0.0189 -0.3339  0.2009
43440W        W52240   8.179   1.884   0.495 -0.0996 -0.1857  0.2853
43441W        W52241  20.449   5.638   9.819  0.1190  0.1116 -0.0567
43442W        W52242   5.573   5.876  38.252  0.0921 -0.0746 -0.1619
43443W        W52243  10.735   3.142  19.313 -0.2728  0.3613 -0.1814
43444W        W52244   4.421   6.590   5.259 -0.0918  0.2512 -0.2620
43445W        W52245  13.803   4.898   0.186  0.0778 -0.0073  0.3770
43446W        W52246   1.967   5.637   3.232 -0.0878 -0.0214  0.1070
43447W        W52247   9.739   3.534  42.615  0.1272 -0.0101  0.0417
43448W        W52248   4.165   0.766   3.785  0.0401 -0.0333  0.0224
43449W        W52249  12.215   5.582  39.694 -0.1559 -0.0955  0.1008
43450W        W52250  10.653   6.208   2.852 -0.0096  0.0845  0.1754
43451W        W52251  10.775   5.644   1.549  0.2203  0.0473 -0.2328
43452W        W52252   5.072   1.756  24.814 -0.0673  0.2338 -0.1154
43453W        W52253   1.555   1.212  24.641  0.0617  0.1867  0.0954
43454W        W52254   5.142   1.796  37.873 -0.0476 -0.0270  0.4354
43455W        W52255   1.562   1.981   0.963 -0.2790 -0.0057 -0.0624
43456W        W52256   8.991   3.793   4.636 -0.1823  0.4326  0.0194
43457W        W52257   3.442   0.239  11.518  0.0066 -0.2255  0.1739
43458W        W52258  13.606   4.145   6.479  0.0993  0.0090  0.0623
43459W        W52259   4.062   4.258  21.751 -0.1820  0.0300  0.0936
43460W        W52260   7.364   3.065  37.328  0.2212  0.1711  0.1488
43461W        W52261   3.298   5.011   7.682 -0.2476  0.0585 -0.2170
43462W        W52262   5.226   2.406   4.901  0.3238 -0.2231  0.1416
43463W        W52263  12.010   2.638   0.446  0.0828  0.1965  0.1469
43464W        W52264  10.196   2.437  19.620 -0.1291 -0.1789  0.0257
43465W        W52265   1.738   4.506   7.734  0.0493  0.0033 -0.2353
43466W        W52266   5.972   3.733  34.349  0.2688  0.0041 -0.1213
43467W        W52267  18.777   0.315  39.991  0.1217 -0.0598 -0.2529
43468W        W52268   1.004   4.243  32.949  0.1225 -0.1292 -0.0906
43469W        W52269  17.655   4.202  30.549  0.0311  0.0640 -0.0450
43470W        W52270   5.671   5.738  36.276 -0.2327 -0.0262  0.2719
43471W        W52271  12.337   3.127  32.205  0.4049 -0.1015  0.0418
43472W        W52272   9.339   5.334  36.471  0.1878 -0.1421 -0.1508
43473W        W52273  19.088   0.422   5.085 -0.0319  0.1409 -0.1803
43474W        W52274  19.373   6.435  29.037 -0.1011  0.3295 -0.2782
43475W        W52275  13.682   5.841  33.655 -0.1963  0.4382 -0.2602
43476W        W52276   2.406   5.623  11.246 -0.0294  0.0947 -0.0157
43477W        W52277   8.794   2.802  38.879 -0.2295  0.0828 -0.0479
43478W        W52278  10.812   0.017  32.755 -0.0242  0.0101  0.2536
43479W        W52279  20.906   1.694   8.610  0.2228  0.3836 -0.0040
43480W        W52280   6.123   1.120   5.746  0.0535 -0.1657  0.1748
43481W        W52281  11.485   1.458  44.699 -0.0344  0.0564 -0.2322
43482W        W52282  18.378   2.548  39.306 -0.0071 -0.0262  0.3178
43483W        W52283   7.355   2.054  30.512  0.3205 -0.1680  0.0097
43484W        W52284  19.636   5.740  37.345  0.2269  0.0154  0.2011
43485W        W52285   8.745   4.834  26.520 -0.0280  0.0821 -0.4830
43486W        W52286  13.601   5.431  39.916  0.2545 -0.1379  0.2206
43487W        W52287  13.489   2.741  18.992 -0.0060 -0.0366 -0.1051
43488W        W52288  15.805   6.582  34.777 -0.0081  0.1567 -0.1340
43489W        W52289   3.579   2.391  27.311  0.1759  0.3604  0.1195
43490W        W52290  19.707   5.512  44.560  0.3174  0.0114  0.1058
43491W        W52291  16.856   3.755  28.676 -0.1440  0.0277 -0.2200
43492W        W52292  16.401   1.432   3.256 -0.3170 -0.2158  0.2164
43493W        W52293   7.298   5.647  33.688  0.2295  0.2419 -0.1754
43494W        W52294   2.637   5.418  10.008  0.2967 -0.3179  0.0284
43495W        W52295   3.469   6.491   1.067 -0.1221 -0.4419  0.0665
43496W        W52296   1.327   0.006  41.462  0.0345  0.0607 -0.3127
43497W        W52297  10.625   3.581  13.520 -0.3512  0.1807 -0.0514
43498W        W52298  10.315   2.965  43.943 -0.1470  0.4805 -0.0737
43499W        W52299  15.385   4.485  35.008 -0.1896 -0.0198  0.0021
43500W        W52300  17.172   3.965   0.439 -0.0008  0.2309  0.1546
43501W        W52301   9.053   0.620  44.704  0.0297  0.1215  0.2516
43502W        W52302  20.436   1.493   4.302 -0.0332 -0.0740 -0.2938
43503W        W52303  13.650   1.253  33.534 -0.3460 -0.2500 -0.0023
43504W        W52304  13.560   0.594  13.690  0.2514  0.3749 -0.0530
43505W        W52305  15.413   1.212  10.283 -0.1305  0.1372  0.1945
43506W        W52306  13.428   1.778   8.760 -0.0760 -0.2300  0.0368
43507W        W52307  15.331   2.035   0.602  0.1636 -0.0289  0.3463
43508W        W52308  10.878   0.983   0.685  0.2863  0.0649 -0.0350
43509W        W52309   9.485   1.543  42.358  0.0942 -0.0974  0.0504
43510W        W52310   7.945   5.864  34.657 -0.2417  0.0908  0.1371
43511W        W52311   4.423   4.176  13.320 -0.1828 -0.3462 -0.1384
43512W        W52312  17.536   4.217   5.159  0.0584 -0.0536  0.2011
43513W        W52313   8.118   3.653   3.203 -0.0554 -0.1170  0.4619
43514W        W52314  19.296   4.118  27.281 -0.0669  0.1004 -0.0409
43515W        W52315  11.236   3.253   2.880  0.0592 -0.0178 -0.3307
43516W        W52316   7.614   0.080  16.808  0.2331 -0.1853 -0.2229
43517W        W52317  11.894   3.507  10.187  0.0689 -0.3591  0.0040
43518W        W52318  16.365   0.901  33.224 -0.5222 -0.1777  0.0446
43519W        W52319   6.895   6.332  44.679 -0.1405 -0.0237  0.0941
43520W        W52320   2.625   2.592  43.484 -0.1830 -0.0482 -0.0436
43521W        W52321  12.111   0.859  15.190 -0.0503  0.0688  0.2895
43522W        W52322   1.783   4.815   5.015  0.2245 -0.0936  0.3060
43523W        W52323   2.883   4.549   7.842 -0.0988 -0.1456 -0.2279
43524W        W52324   8.600   6.303   8.611 -0.4069 -0.1296  0.0973
43525W        W52325   6.226   0.362  39.108 -0.0706  0.0330  0.0050
43526W        W52326  18.798   4.653  33.065  0.1108  0.1244 -0.1224
43527W        W52327   6.580   6.074  23.748 -0.1058 -0.2271 -0.0988
43528W        W52328  15.352   4.192  23.716 -0.1180 -0.1558 -0.0776
43529W        W52329   6.329   4.789  15.795 -0.0184  0.0189  0.0102
43530W        W52330   2.663   5.850  21.958 -0.1420 -0.0920 -0.0104
43531W        W52331  16.864   0.766  18.383 -0.1926  0.0866  0.2237
43532W        W52332  11.456   1.380  20.561  0.1082 -0.1180  0.5677
43533W        W52333  20.430   1.029   4.580  0.3322 -0.1052 -0.1047
43534W        W52334  17.745   6.034  42.477  0.0538 -0.0549  0.4750
43535W        W52335  15.359   0.835  31.541  0.1171 -0.0894 -0.1158
43536W        W52336   7.305   1.066  25.001 -0.3114  0.0929  0.1645
43537W        W52337   1.682   3.039  29.283  0.1062 -0.2154 -0.0558
43538W        W52338  17.815   3.463  30.609 -0.1887  0.1415 -0.3025
43539W        W52339  18.537   0.320   4.009 -0.1512  0.1027  0.1420
43540W        W52340   1.822   2.363  35.446  0.0525  0.0876  0.0193
43541W        W52341  19.040   1.627  33.821  0.2442 -0.1034 -0.2330
43542W        W52342  16.884   4.767   3.048  0.2170 -0.1745  0.1736
43543W        W52343   1.541   0.600   4.202 -0.1573 -0.1190 -0.0464
43544W        W52344  10.490   5.385  12.146  0.0906 -0.0118  0.1763
43545W        W52345  13.102   5.675  14.713 -0.1768  0.1305  0.0289
43546W        W52346   4.004   5.396  14.931 -0.0327  0.1197  0.2002
43547W        W52347   5.044   6.344  34.398  0.1193  0.1161 -0.1633
43548W        W52348  20.315   5.649   0.325 -0.1765 -0.0215  0.1851
43549W        W52349  11.448   1.236   7.936  0.2286  0.0086  0.0420
43550W        W52350  13.708   3.628  13.878  0.2025  0.3291  0.1583
43551W        W52351   9.243   0.701   0.898 -0.0905  0.1502  0.1952
43552W        W52352   6.597   5.830  24.876  0.0096 -0.1081 -0.1333
43553W        W52353  10.810   0.424  31.698  0.1496  0.1699  0.0432
43554W        W52354  21.119   3.569   4.915  0.2450 -0.2859 -0.1840
43555W        W52355   0.457   4.965   7.696 -0.0043 -0.1877 -0.0046
43556W        W52356   5.296   2.099  21.671  0.1901 -0.1820  0.1608
43557W        W52357  10.995   0.238   9.618  0.4127 -0.0116 -0.0957
43558W        W52358  14.686   3.885  23.578  0.1727  0.1878  0.0336
43559W        W52359  18.019   0.303   7.797  0.0274 -0.2636 -0.2330
43560W        W52360  13.922   5.079  33.130 -0.1041 -0.0525 -0.2120
43561W        W52361   4.001   3.206  21.948  0.1296  0.0550 -0.1474
43562W        W52362  16.293   3.769  30.683 -0.0603 -0.1551 -0.1124
43563W        W52363   1.416   2.776  39.284 -0.2210  0.1762 -0.3429
43564W        W52364   7.627   0.621  26.716  0.2268 -0.1212  0.0225
43565W        W52365  17.100   2.918   7.198 -0.1339  0.2951  0.2243
43566W        W52366  13.632   0.971   0.154 -0.0848  0.0135  0.0605
43567W        W52367   5.361   2.948  37.407  0.0318 -0.4391  0.0335
43568W        W52368  15.891   3.426   2.432 -0.0434 -0.0323 -0.3674
43569W        W52369   4.387   5.891  30.634  0.0726  0.0124 -0.1163
43570W        W52370   6.642   3.748  10.579 -0.0167  0.0776  0.0564
43571W        W52371  13.645   1.700  29.497  0.1185  0.0202  0.1759
43572W        W52372   1.143   3.821  23.697  0.0644 -0.2828  0.1177
43573W        W52373   3.583   5.809  32.547  0.0859  0.2658  0.0315
43574W        W52374   5.433   0.632   4.736  0.2540  0.1111 -0.1736
43575W        W52375  20.298   2.552  37.702  0.1749 -0.1623 -0.0631
43576W        W52376  16.788   6.145   0.320 -0.0169  0.2106  0.0987
43577W        W52377   5.888   5.685  28.045  0.0159  0.1407  0.1629
43578W        W52378  16.252   3.859  16.619 -0.2596  0.0253  0.2519
43579W        W52379   0.791   5.345  24.403  0.1079  0.1129 -0.1013
43580W        W52380  11.076   2.609  43.478  0.0431 -0.0434  0.1946
43581W        W52381   1.300   1.206   8.927 -0.2328 -0.0836 -0.0567
43582W        W52382  17.706   4.146  30.036  0.1522  0.0543 -0.0477
43583W        W52383  20.737   1.313  32.666 -0.2044  0.0782  0.0680
43584W        W52384   1.953   6.349  26.945  0.1723  0.1578 -0.0749
43585W        W52385  10.280   4.720  43.052 -0.2590  0.2060 -0.0292
43586W        W52386  18.711   6.246  29.985 -0.0449  0.2652 -0.1581
43587W        W52387   5.325   1.205   0.763 -0.1213 -0.3302  0.0237
43588W        W52388   9.956   6.263  41.856 -0.0476  0.1736  0.1477
43589W        W52389  18.021   3.330  36.947 -0.1260 -0.0263  0.0438
43590W        W52390  19.978   1.417  43.678  0.0530 -0.2685  0.2201
43591W        W52391   4.600   0.879   1.221  0.1433 -0.1504  0.2776
43592W        W52392  14.973   1.221  11.786 -0.2834 -0.1816 -0.1150
43593W        W52393   9.810   4.569   8.564  0.4052 -0.1232 -0.0273
43594W        W52394   0.475   0.552   4.071  0.0508 -0.1842  0.1445
43595W        W52395   0.804   4.370  15.283  0.0747 -0.1135  0.0225
43596W        W52396  18.050   0.020  15.684 -0.0883 -0.1214 -0.1228
43597W        W52397  11.844   3.875   7.075 -0.5061  0.0179 -0.1049
43598W        W52398   1.886   6.496  24.066 -0.1685  0.0839 -0.0785
43599W        W52399   5.310   1.220  13.306  0.1591  0.3044 -0.2148
43600W        W52400   8.652   2.162  36.474  0.0172 -0.0368  0.1606
43601W        W52401   6.646   3.377  24.042 -0.0426 -0.0737  0.0032
43602W        W52402   8.425   1.579   4.199 -0.0252  0.1463  0.2986
43603W        W52403   7.964   2.106  16.321  0.0488 -0.0532  0.1877
43604W        W52404   5.668   3.722  36.743 -0.0722  0.1319  0.2741
43605W        W52405   7.395   2.070  31.544  0.0173 -0.1892 -0.0168
43606W        W52406   7.496   1.254  16.885  0.1196 -0.2463 -0.2424
43607W        W52407   0.352   6.282  35.550 -0.0533  0.0357 -0.1984
43608W        W52408  16.698   1.356  10.625  0.0542  0.1066  0.0964
43609W        W52409   8.756   3.896  42.907 -0.2761 -0.0403  0.0655
43610W        W52410  13.602   0.211  30.608 -0.1520 -0.2217  0.1354
43611W        W52411   5.646   3.821   2.412 -0.1791 -0.3767 -0.2597
43612W        W52412   3.252   0.979  44.146 -0.0426  0.0549  0.4499
43613W        W52413   8.184   0.652  11.605  0.0144  0.0866  0.0306
43614W        W52414   1.641   3.013  30.472  0.0097 -0.1127  0.1678
43615W        W52415  14.507   6.536  11.345  0.2585  0.1157 -0.2695
43616W        W52416   4.163   2.355  35.860 -0.1707 -0.0304  0.0438
43617W        W52417  16.831   0.055  14.386 -0.0619 -0.0197 -0.1104
43618W        W52418   9.734   1.728   2.203 -0.0854  0.2456 -0.5023
43619W        W52419  19.855   1.544  17.030  0.1067  0.0236  0.0840
43620W        W52420   7.665   3.380  37.042 -0.0817 -0.0317 -0.1925
43621W        W52421   1.252   6.537  26.320 -0.0992  0.2129 -0.0634
43622W        W52422   9.701   4.054  38.061  0.0273  0.0493  0.0971
43623W        W52423   7.183   1.330  25.438 -0.2913 -0.0535 -0.1105
43624W        W52424   4.272   4.988  29.091  0.1336 -0.1824 -0.0116
43625W        W52425  19.238   6.372  34.947 -0.0713  0.1016 -0.1974
43626W        W52426  18.903   1.508  32.851 -0.3180  0.0165 -0.1468
43627W        W52427   3.843   0.866  37.030 -0.0473 -0.1508 -0.2976
43628W        W52428   2.543   0.121  30.914  0.0478 -0.0359  0.2047
43629W        W52429   1.734   2.284  30.912  0.0640  0.4907  0.2037
43630W        W52430  13.397   1.489  20.420 -0.0060 -0.2710  0.0306
43631W        W52431   0.851   4.254  41.376 -0.0254 -0.0051 -0.1872
43632W        W52432  15.430   2.815  16.045  0.1085  0.1775 -0.0733
43633W        W52433   9.169   5.412  33.991 -0.1255 -0.1168  0.0892
43634W        W52434  19.971   4.386  39.981 -0.2183 -0.1140  0.1221
43635W        W52435   3.474   2.453  14.334  0.0356 -0.3949 -0.0586
43636W        W52436  12.479   4.317  28.549 -0.1408  0.0070 -0.4716
43637W        W52437   7.013   4.518  37.171 -0.2731 -0.1440 -0.0740
43638W        W52438   1.824   2.402   2.536 -0.0062  0.3161 -0.2928
43639W        W52439  17.658   0.772  16.346  0.3501 -0.3460  0.0014
43640W        W52440  10.804   2.495  30.681  0.2706 -0.1037  0.1315
43641W        W52441  18.432   3.026  11.609 -0.0991  0.1142  0.0406
43642W        W52442   0.887   5.210  33.281  0.1996  0.1923  0.0768
43643W        W52443   5.989   0.985  33.252 -0.0907  0.1776 -0.2369
43644W        W52444  13.038   4.285  33.095 -0.0395 -0.1282 -0.0231
43645W        W52445  18.473   5.987   4.975  0.2314 -0.2075  0.2025
43646W        W52446  18.880   0.696  39.682 -0.0910 -0.2567 -0.1027
43647W        W52447   9.711   5.517  43.009  0.3243  0.0669  0.0739
43648W        W52448   9.670   6.269  29.913  0.0083  0.1181  0.0390
43649W        W52449  19.966   5.517  13.387  0.0320  0.0117  0.1306
43650W        W52450   4.238   5.171   6.446  0.1557 -0.0397 -0.1797
43651W        W52451  13.774   6.209   1.182  0.2132 -0.1406 -0.1693
43652W        W52452  12.433   4.144   9.163  0.0459 -0.1599 -0.2053
43653W        W52453  17.156   5.080  39.005  0.3232  0.2357 -0.3173
43654W        W52454   7.130   6.269  10.948 -0.0910 -0.0940  0.0053
43655W        W52455   0.901   0.735  23.724 -0.1098 -0.1307 -0.1893
43656W        W52456  18.056   6.126  15.235 -0.0399  0.2536  0.1015
43657W        W52457  13.841   2.727  19.438  0.2903 -0.0665 -0.0740
43658W        W52458  18.559   4.045  28.950 -0.1767  0.0872  0.0309
43659W        W52459   9.483   5.778  19.239 -0.1409 -0.3548  0.1710
43660W        W52460   2.447   2.104  30.919 -0.2687 -0.0342 -0.1827
43661W        W52461  10.253   3.847   1.754 -0.2224  0.1377  0.0940
43662W        W52462  17.848   1.746  36.743 -0.0531  0.0203  0.0309
43663W        W52463  13.757   1.173   4.560 -0.2300  0.1793 -0.0447
43664W        W52464  21.093   5.151  40.100  0.1370 -0.2240  0.0121
43665W        W52465   3.342   5.804  30.556 -0.0312  0.0732  0.2412
43666W        W52466  19.167   0.992  11.433  0.1359  0.0054  0.3381
43667W        W52467  13.866   1.754  33.327  0.0981 -0.0527 -0.1142
43668W        W52468  15.942   2.501  38.097 -0.1468  0.0343 -0.2462
43669W        W52469  10.222   1.320  17.949  0.0752  0.2463 -0.0159
43670W        W52470   6.833   2.547  10.785  0.0461  0.1583  0.1627
43671W        W52471  13.565   4.085  35.448  0.0581 -0.0939 -0.0708
43672W        W52472   6.864   0.307  26.402  0.0234  0.0594  0.2616
43673W        W52473   2.889   5.346  12.743  0.0667  0.1272  0.2101
43674W        W52474   7.232   1.792   0.215 -0.1521 -0.1090 -0.1801
43675W        W52475   5.486   1.823  15.516  0.4474  0.0310  0.0074
43676W        W52476   7.501   2.423  28.950  0.0189  0.3186 -0.0563
43677W        W52477   4.238   5.327  40.474 -0.0909 -0.1056  0.1950
43678W        W52478  19.694   5.278   7.397 -0.1851  0.1672  0.2368
43679W        W52479   7.267   3.790  33.425 -0.3734  0.1060 -0.0873
43680W        W52480  13.613   1.878   6.075 -0.0210  0.2657 -0.0064
43681W        W52481   9.044   5.889  16.024 -0.0859 -0.0479  0.2323
43682W        W52482  18.083   0.882   2.989 -0.2069  0.2682  0.0676
43683W        W52483  13.543   2.187   0.546  0.0049 -0.0268 -0.2983
43684W        W52484  18.697   1.447  35.827 -0.1781 -0.2927  0.1621
43685W        W52485   9.517   5.158   2.987 -0.4085  0.5500 -0.1618
43686W        W52486  15.643   2.399   8.769  0.1808  0.0678  0.1458
43687W        W52487   9.173   2.286   1.472  0.0812 -0.1037 -0.1614
43688W        W52488  16.253   1.302  29.900  0.1194  0.1350  0.2222
43689W        W52489   7.484   5.179  32.881 -0.1972  0.4281 -0.0280
43690W        W52490  20.232   5.095  33.089 -0.0945 -0.0503 -0.0432
43691W        W52491  15.153   2.815   2.804  0.0717  0.1241  0.0556
43692W        W52492   6.375   4.989  44.419 -0.1671 -0.0590 -0.1359
43693W        W52493   1.681   6.143  10.706  0.2900 -0.0176 -0.2308
43694W        W52494  16.041   5.762   1.522 -0.0657  0.1673  0.0834
43695W        W52495   6.795   5.195  40.268  0.1529 -0.1049  0.0246
43696W        W52496  11.597   0.760   7.205 -0.2205  0.1742  0.1621
43697W        W52497   7.974   5.920  26.324 -0.0895  0.0724  0.0647
43698W        W52498  17.636   1.975  29.683 -0.0287  0.0983  0.0205
43699W        W52499  12.165   5.753  43.292 -0.0044  0.1955 -0.3297
43700W        W52500   8.067   6.055  36.485 -0.0891 -0.0261 -0.3301
43701W        W52501  18.125   2.802  36.684  0.2430  0.3446 -0.0199
43702W        W52502   2.119   3.764   5.000  0.1119  0.3268 -0.0292
43703W        W52503  13.833   4.789   5.486 -0.1853  0.1942  0.3768
43704W        W52504  12.689   6.300  44.892 -0.0069 -0.1490  0.1906
43705W        W52505  18.578   5.664  10.610 -0.0043 -0.4129  0.0805
43706W        W52506  19.496   1.929  39.351  0.2525 -0.3339  0.2468
43707W        W52507  17.475   5.580   2.787  0.0188 -0.0511  0.0200
43708W        W52508  10.131   5.434   5.653 -0.0126  0.2299 -0.1381
43709W        W52509  21.073   4.142  11.190 -0.0595 -0.3991  0.0499
43710W        W52510  20.617   3.844  13.931  0.1814 -0.1371 -0.1538
43711W        W52511   0.567   5.076   2.118  0.1050 -0.0082 -0.3137
43712W        W52512  11.621   5.500  22.291  0.2857 -0.1701 -0.0350
43713W        W52513  14.316   4.549   0.171 -0.0762  0.0299 -0.1911
43714W        W52514  16.864   5.115  14.971  0.1471 -0.1727  0.0657
43715W        W52515  20.625   5.339   7.194  0.2000  0.3335  0.0398
43716W        W52516  17.538   4.556  39.308  0.0085 -0.0439  0.0028
43717W        W52517   5.941   3.554   7.603 -0.1008 -0.2073 -0.2983
43718W        W52518   0.223   1.705  40.808 -0.1501 -0.3548 -0.0482
43719W        W52519  14.235   0.706   3.100  0.1549  0.0875  0.0968
43720W        W52520  20.837   6.132  31.092  0.0417 -0.3361  0.2280
43721W        W52521  20.932   1.240  12.741 -0.0121  0.1976  0.2425
43722W        W52522   2.636   2.020   6.948 -0.1740 -0.0131 -0.2229
43723W        W52523   6.909   0.394  40.438 -0.1975  0.0137 -0.0344
43724W        W52524  10.157   0.940  13.909 -0.1619  0.0243  0.0912
43725W        W52525  16.566   2.714   5.885  0.0332  0.1617  0.1607
43726W        W52526  20.008   0.677   9.844 -0.1374  0.0360  0.2121
43727W        W52527   7.672   2.079  25.616 -0.1489 -0.0534  0.2528
43728W        W52528  20.471   5.426  36.726  0.2049  0.0182  0.1248
43729W        W52529   7.740   5.043   8.601 -0.0004  0.0071  0.1036
43730W        W52530   6.300   3.464  32.107  0.0432  0.1307 -0.0787
43731W        W52531  10.616   6.399  17.704  0.2289  0.0485  0.2029
43732W        W52532  18.892   5.067  13.188  0.3412 -0.1019 -0.1119
43733W        W52533   3.895   2.439  19.965  0.2655  0.0862 -0.3136
43734W        W52534   8.137   5.575  35.817 -0.0852  0.3418  0.2331
43735W        W52535   5.156   3.063  12.403  0.0399  0.1603 -0.1873
43736W        W52536  11.868   2.140  43.500  0.1112  0.1327  0.2488
43737W        W52537  14.743   0.221   2.093  0.3708 -0.1301  0.1313
43738W        W52538   0.434   2.708  15.602 -0.0468  0.0036  0.0355
43739W        W52539   6.175   5.805  36.265 -0.1632 -0.1019 -0.2832
43740W        W52540   4.746   4.081  36.680 -0.4004 -0.1469 -0.0561
43741W        W52541   2.062   5.102  26.531 -0.1903  0.1998  0.1032
43742W        W52542  10.482   4.433  33.685 -0.2800  0.1036 -0.1615
43743W        W52543   0.973   6.188  44.302 -0.0202  0.0996 -0.2593
43744W        W52544   0.208   0.384  36.619 -0.2478 -0.0122 -0.1408
43745W        W52545   7.743   3.789  44.367 -0.0274  0.1319  0.1899
43746W        W52546  13.035   2.042  16.430 -0.2499  0.1701  0.1694
43747W        W52547   8.854   0.702  15.789  0.2682  0.2862  0.0684
43748W        W52548   2.738   5.081  24.863 -0.2808  0.0440 -0.0108
43749W        W52549   8.126   0.450  31.481 -0.0284  0.0659 -0.1874
43750W        W52550   6.991   0.509   8.997  0.2246 -0.1482 -0.0309
43751W        W52551  13.709   3.227  31.790  0.2343  0.0222  0.6203
43752W        W52552  20.559   1.931  38.505 -0.1535  0.2413  0.1230
43753W        W52553  20.249   0.800  35.806  0.0532 -0.0565 -0.2298
43754W        W52554   3.396   3.824   9.341  0.0345  0.0384 -0.3152
43755W        W52555   3.605   5.472   8.118  0.3127 -0.0683  0.0489
43756W        W52556   2.979   6.566  36.396 -0.0324  0.0006 -0.0258
43757W        W52557   3.513   0.883  34.960  0.0620  0.1808 -0.1448
43758W        W52558   0.033   6.194  24.039 -0.0087 -0.0834  0.0562
43759W        W52559   6.519   5.290  30.203 -0.0223  0.1599  0.1944
43760W        W52560  12.616   1.268   1.365 -0.0587  0.1680 -0.0957
43761W        W52561   2.642   0.342   1.619 -0.0944 -0.1200 -0.0025
43762W        W52562  10.844   5.334  19.607 -0.2857  0.1221 -0.2613
43763W        W52563   7.215   5.340  28.084  0.2906 -0.0803 -0.0408
43764W        W52564  16.299   5.268  43.962 -0.1424  0.0158 -0.0158
43765W        W52565   7.636   1.094   5.975 -0.2435 -0.2945 -0.1973
43766W        W52566  20.764   3.849  34.180 -0.1529  0.0429 -0.0547
43767W        W52567   9.595   1.194   8.756  0.1271 -0.0876  0.2260
43768W        W52568   4.502   0.952  27.415 -0.1428 -0.1650 -0.0269
43769W        W52569   4.960   6.344  27.687  0.0739 -0.0682  0.1500
43770W        W52570  15.999   4.795   8.785 -0.3630 -0.0936  0.1710
43771W        W52571  17.618   0.142  20.288 -0.0932 -0.2054 -0.0972
43772W        W52572  11.307   0.131  34.780  0.1695 -0.2734 -0.1307
43773W        W52573   7.998   4.803   8.208  0.0220 -0.2271  0.1470
43774W        W52574  10.362   1.526   3.352  0.0107  0.2129  0.0196
43775W        W52575   2.354   5.573  34.535  0.2772 -0.0029 -0.0790
43776W        W52576   5.622   5.405  13.102  0.0694  0.2608 -0.0399
43777W        W52577   1.334   5.461  31.812  0.0920  0.1574  0.2807
43778W        W52578   3.673   6.187  25.495 -0.2634  0.0596 -0.0247
43779W        W52579   7.583   4.654  31.346  0.1587 -0.1226 -0.1381
43780W        W52580  13.467   5.000  42.223  0.0655  0.2349  0.2695
43781W        W52581   0.693   6.236  26.126  0.2906  0.0210  0.1816
43782W        W52582   3.911   4.247  34.221  0.2431  0.3556  0.0304
43783W        W52583  10.649   4.542   3.647 -0.1830  0.0457 -0.0677
43784W        W52584   4.346   6.059   6.301 -0.2298  0.0748  0.2278
43785W        W52585   6.079   2.767   0.569  0.0226  0.0849 -0.1505
43786W        W52586  17.357   5.346  34.263 -0.3587 -0.0771 -0.1618
43787W        W52587  17.252   5.606  36.790 -0.1279 -0.1238  0.4122
43788W        W52588   9.025   5.854  34.936 -0.1593  0.1173  0.1404
43789W        W52589   2.959   2.963  31.738 -0.2355 -0.2517 -0.0803
43790W        W52590   2.428   2.865  30.853  0.1207 -0.2174  0.0411
43791W        W52591  19.672   6.511  36.327  0.0033  0.0780  0.1006
43792W        W52592   5.710   6.426  37.068  0.0018  0.1269 -0.2592
43793W        W52593   8.892   6.133   6.474 -0.1305 -0.0451 -0.0763
43794W        W52594   2.191   2.278  10.461  0.1039 -0.1878  0.0244
43795W        W52595  16.388   4.083  10.504 -0.1354  0.0617  0.4451
43796W        W52596   9.689   5.336  13.989  0.1994 -0.3164  0.0447
43797W        W52597   7.423   6.508  29.083 -0.2725  0.3085 -0.3291
43798W        W52598   3.482   3.311  12.724 -0.0278 -0.0785  0.2667
43799W        W52599  13.744   3.365  24.288 -0.0038  0.0702  0.0475
43800W        W52600  18.873   6.085   9.223 -0.1369  0.2077 -0.1416
43801W        W52601   8.999   6.456  28.948  0.4715  0.2035 -0.2406
43802W        W52602   3.779   2.994  26.467 -0.0643  0.2611 -0.0142
43803W        W52603  17.916   4.408  19.297 -0.1121  0.0108 -0.0577
43804W        W52604  14.026   4.583   2.817 -0.1661 -0.2616 -0.0395
43805W        W52605  15.087   2.191  23.573  0.0787  0.0303 -0.3317
43806W        W52606  11.264   1.639   7.698 -0.0707  0.0134 -0.1034
43807W        W52607   3.280   6.375  42.263  0.2817 -0.0382  0.0230
43808W        W52608  12.849   2.348  13.054  0.1595  0.0580  0.0002
43809W        W52609  10.770   6.307  37.335  0.1293  0.0674  0.0055
43810W        W52610   8.720   0.928  36.921 -0.3781 -0.1156 -0.0294
43811W        W52611   2.879   1.723   0.638 -0.1973 -0.0919  0.1916
43812W        W52612   8.815   4.338   8.475 -0.2594  0.0532 -0.2211
43813W        W52613  20.979   4.994   2.633  0.2628  0.0987  0.1747
43814W        W52614   4.887   6.520  14.919  0.1793 -0.0519  0.2100
43815W        W52615   0.808   6.602  31.311 -0.0657  0.0995  0.0076
43816W        W52616   9.687   5.412  17.732  0.2126  0.0552  0.0123
43817W        W52617  12.399   1.365  20.486  0.2050 -0.0625 -0.3408
43818W        W52618   0.591   0.019  42.156  0.2785 -0.3137 -0.0921
43819W        W52619   0.865   6.036  10.576 -0.2955 -0.1904  0.0840
43820W        W52620  10.415   3.133  20.019  0.1532  0.1147 -0.1132
43821W        W52621  12.121   3.589  28.266  0.3124  0.0237  0.2088
43822W        W52622  14.541   5.135  40.874 -0.0755 -0.1190 -0.0267
43823W        W52623  17.460   6.422  20.579 -0.2610 -0.2127  0.1031
43824W        W52624   0.065   3.355  11.769 -0.0175  0.2083 -0.1793
43825W        W52625   8.848   4.261  15.779 -0.2806  0.0153  0.0665
43826W        W52626  14.499   3.728  21.749  0.2937  0.1708 -0.0529
43827W        W52627  11.945   2.952  33.133  0.0420 -0.1452 -0.0331
43828W        W52628   1.382   2.946  13.560 -0.0038  0.0022  0.1744
43829W        W52629  17.982   3.198  30.176  0.0904 -0.2082  0.1803
43830W        W52630   9.866   3.018  13.188  0.0325  0.3544 -0.3575
43831W        W52631  16.323   5.985  14.000 -0.0314 -0.2212 -0.0403
43832W        W52632  10.868   5.253   5.435  0.3014  0.0527  0.0066
43833W        W52633  16.006   4.158   1.121  0.1315  0.1085 -0.2446
43834W        W52634   0.454   2.900  12.737 -0.2822  0.1401  0.0269
43835W        W52635  19.915   0.150  31.021 -0.0331 -0.0772  0.1687
43836W        W52636  13.970   3.993  37.636  0.3353  0.0819 -0.1973
43837W        W52637  19.713   6.341  32.852 -0.0333 -0.1648 -0.3121
43838W        W52638   6.654   2.489  38.999 -0.1619  0.0022  0.0506
43839W        W52639  11.328   6.331  34.143 -0.3623 -0.1492  0.0069
43840W        W52640   8.407   6.293   9.107  0.4166  0.0896  0.2274
43841W        W52641  12.833   0.405  30.272 -0.1108 -0.0107 -0.0391
43842W        W52642  14.938   1.771  19.163  0.1545 -0.0135 -0.0422
43843W        W52643  15.368   3.818  33.928 -0.1174 -0.0971  0.1289
43844W        W52644   0.547   5.582  39.447  0.0489  0.2623 -0.0436
43845W        W52645  15.643   0.187  13.959  0.0490  0.1274 -0.2383
43846W        W52646   8.273   4.217  31.005  0.1227 -0.0180  0.0473
43847W        W52647   3.998   2.459   3.512 -0.1113 -0.0447 -0.0229
43848W        W52648   8.641   4.030  16.720 -0.0767 -0.0471 -0.0128
43849W        W52649  11.128   1.831  14.233  0.5184  0.2097  0.1057
43850W        W52650  16.765   1.765  33.564 -0.1909  0.2733 -0.0896
43851W        W52651  14.456   0.406   0.400  0.0568  0.3722 -0.1027
43852W        W52652   2.594   2.957  38.702 -0.0013 -0.2135 -0.1183
43853W        W52653  19.736   3.649  37.998  0.0191  0.3220 -0.0780
43854W        W52654  15.631   1.793  30.459  0.0373 -0.0817 -0.0638
43855W        W52655   7.660   5.279  37.981  0.0713  0.0120  0.2148
43856W        W52656  10.104   4.031  37.771 -0.1177 -0.0168  0.3243
43857W        W52657  18.860   1.660  16.308  0.0782  0.0080 -0.3357
43858W        W52658   3.529   5.754  40.067  0.1606  0.1956  0.0252
43859W        W52659   8.191   2.610  26.021 -0.0132 -0.1372 -0.1329
43860W        W52660   9.246   0.614  16.591 -0.0482 -0.0213 -0.1556
43861W        W52661   2.049   1.405  39.382 -0.0279  0.0925 -0.0700
43862W        W52662   5.805   5.984   7.684  0.1816 -0.0542  0.0853
43863W        W52663  10.737   0.369  13.266 -0.0390 -0.1083 -0.0146
43864W        W52664   7.914   6.080  36.044  0.3043 -0.2384  0.0659
43865W        W52665   3.782   1.620   2.100 -0.0425 -0.0127  0.1223
43866W        W52666  12.215   2.425  18.307 -0.0631 -0.0752  0.1078
43867W        W52667   9.293   2.963   4.763  0.0740 -0.0407  0.2962
43868W        W52668  14.425   3.175  40.003 -0.0208 -0.1643 -0.5363
43869W        W52669   8.230   5.683  15.901 -0.2848 -0.3444  0.1070
43870W        W52670  18.489   0.855  31.043 -0.3159 -0.3191 -0.2710
43871W        W52671  14.055   6.437  38.993 -0.0395  0.4235 -0.1956
43872W        W52672  19.255   0.890  40.518 -0.1029 -0.0831  0.1408
43873W        W52673   9.831   2.020   2.611  0.0747 -0.0041 -0.4159
43874W        W52674  15.590   4.563  42.759  0.3374  0.0646  0.0504
43875W        W52675  18.667   2.503  12.915 -0.0805  0.1193 -0.0423
43876W        W52676  14.346   4.377  17.663  0.0855 -0.0681  0.1430
43877W        W52677   7.214   0.580  40.134 -0.1976  0.1929  0.4332
43878W        W52678   1.711   2.566  37.877 -0.1788  0.2222  0.0751
43879W        W52679  13.780   3.169   4.820 -0.1494 -0.0237  0.1421
43880W        W52680   2.714   5.994  13.388 -0.0106  0.0805  0.0221
43881W        W52681   6.587   6.518  44.295  0.0419 -0.1254  0.3113
43882W        W52682   0.774   3.718  13.385  0.0554  0.1924 -0.1156
43883W        W52683   1.642   5.532  38.170 -0.1461  0.2020 -0.0124
43884W        W52684   1.291   5.289  10.267 -0.1359 -0.1829  0.1774
43885W        W52685  14.385   4.048  29.853 -0.1200  0.1592  0.0258
43886W        W52686  17.914   0.325  33.364  0.1850 -0.0276 -0.0304
43887W        W52687   8.097   4.836   0.893  0.0793 -0.1360 -0.2761
43888W        W52688   4.505   5.236  10.779  0.1285  0.0181  0.2133
43889W        W52689   9.682   0.455  38.538  0.2121 -0.2888 -0.1855
43890W        W52690  18.753   2.955   5.021  0.1443 -0.3596 -0.0475
43891W        W52691   4.333   2.262  40.213  0.0542  0.2780 -0.1500
43892W        W52692  15.877   4.038  44.414  0.0967  0.0708  0.2352
43893W        W52693   7.671   5.662  31.576  0.4590  0.0535  0.1450
43894W        W52694  13.703   2.044  37.652  0.1901  0.2476  0.2744
43895W        W52695   3.968   2.548   0.685 -0.2613  0.3900 -0.2432
43896W        W52696  12.203   6.240  19.960 -0.0497  0.2951  0.1271
43897W        W52697  11.556   4.823  32.269 -0.0736  0.4686  0.4670
43898W        W52698   7.191   4.327  31.390 -0.0828 -0.1460 -0.2406
43899W        W52699   4.450   0.692  33.536  0.2061 -0.1272 -0.2754
43900W        W52700   5.807   4.094  11.111  0.0028 -0.2728  0.0265
43901W        W52701   2.792   6.590  37.857  0.2833 -0.2192 -0.2670
43902W        W52702  17.650   1.739   0.623  0.0486  0.1451  0.1015
43903W        W52703   8.509   2.761  30.045  0.2592 -0.0104 -0.0093
43904W        W52704  18.083   1.921   1.172  0.1199 -0.3511  0.4213
43905W        W52705  11.402   3.829  34.392 -0.0366 -0.0807 -0.0468
43906W        W52706  20.463   0.630  29.782  0.0577  0.0199  0.1292
43907W        W52707   2.933   5.818  29.287  0.0862 -0.2220  0.0011
43908W        W52708  12.491   3.342   8.181 -0.2350  0.1550  0.0609
43909W        W52709  17.870   3.594  15.240  0.1615  0.3684 -0.1279
43910W        W52710   4.167   1.402  15.804  0.0982  0.1469 -0.3226
43911W        W52711   6.885   4.580   8.478 -0.0984 -0.0153 -0.1617
43912W        W52712   6.709   4.631  41.403  0.1933 -0.1298 -0.0255
43913W        W52713   8.298   2.964  15.571  0.1317 -0.1339  0.2200
43914W        W52714  14.104   1.370  31.167  0.0325  0.1738 -0.2344
43915W        W52715  19.999   2.274   5.228 -0.1050 -0.0317 -0.0249
43916W        W52716  12.363   4.170  31.586 -0.1770  0.2957 -0.0645
43917W        W52717  10.929   3.937  44.356  0.0388  0.1962 -0.3274
43918W        W52718  17.046   5.627  38.371 -0.3563 -0.1724 -0.0152
43919W        W52719   2.239   5.368  35.362 -0.2163 -0.1906 -0.1396
43920W        W52720  17.324   2.717  14.044 -0.1601  0.4534 -0.1829
43921W        W52721  17.032   2.318   7.616 -0.1749 -0.1711  0.0903
43922W        W52722  10.817   1.899  12.966  0.0651  0.1734 -0.1314
43923W        W52723   1.608   5.962  27.875 -0.0246  0.0298  0.2446
43924W        W52724   4.756   2.108  28.255 -0.0968  0.0659 -0.0465
43925W        W52725   9.390   5.220  44.063  0.0295  0.0437  0.0734
43926W        W52726  16.149   6.495   3.022  0.4195  0.1881  0.0122
43927W        W52727   8.748   5.671  30.916 -0.1548  0.1219  0.1275
43928W        W52728   3.222   0.084   6.432 -0.1256  0.0260  0.1262
43929W        W52729   9.321   3.865  29.550  0.0276  0.3743 -0.0962
43930W        W52730  19.030   0.895  30.235 -0.1177 -0.3036 -0.0958
43931W        W52731  18.312   5.651   5.985 -0.0921  0.1744  0.2989
43932W        W52732   9.607   2.292   1.289 -0.1811 -0.2896  0.0438
43933W        W52733  17.667   4.086  10.811 -0.1092  0.1043  0.1154
43934W        W52734   4.032   3.119   9.483  0.2571 -0.1432  0.0239
43935W        W52735  14.125   0.105   1.355 -0.0514  0.0164  0.1894
43936W        W52736  15.616   6.045  29.651 -0.2821 -0.2426 -0.0846
43937W        W52737  11.404   4.908   6.860 -0.1284 -0.1495 -0.2721
43938W        W52738  17.572   6.029  29.053  0.0352  0.4043  0.1392
43939W        W52739  16.296   0.372   2.911  0.0054 -0.4486  0.0727
43940W        W52740  15.802   1.554  11.332 -0.1506  0.1983  0.1198
43941W        W52741   4.644   5.463   5.528  0.0858  0.1276 -0.1855
43942W        W52742   5.944   2.068   1.881  0.2114  0.1233  0.1811
43943W        W52743  19.405   3.119  41.808 -0.0012  0.0507  0.2909
43944W        W52744  21.071   6.131  37.965  0.0499  0.2309 -0.0004
43945W        W52745  12.805   1.002   0.238 -0.1743 -0.1022  0.0885
43946W        W52746   5.204   6.229  32.432  0.0938  0.0687 -0.3200
43947W        W52747  17.729   1.441   8.903  0.0955  0.2369  0.0988
43948W        W52748  19.571   1.395   0.989  0.0187  0.1518  0.0866
43949W        W52749  11.454   6.077   0.978 -0.1422 -0.2306 -0.3542
43950W        W52750  19.939   5.091  10.462  0.1466  0.1745 -0.3245
43951W        W52751   2.337   2.073  43.785  0.0852  0.0925  0.0858
43952W        W52752   4.781   3.974   0.959  0.2306 -0.2036  0.3882
43953W        W52753   9.347   0.569   5.622 -0.4191  0.0593 -0.0564
43954W        W52754  12.450   6.164  17.391 -0.0711  0.0596  0.1376
43955W        W52755   4.570   6.450  30.764  0.2597  0.0183  0.1753
43956W        W52756  18.734   3.549  16.058  0.2235 -0.1307 -0.0204
43957W        W52757  16.351   6.344   2.282  0.0456 -0.2616  0.0145
43958W        W52758  11.792   3.830   9.859 -0.2496  0.0178  0.0948
43959W        W52759  10.348   4.262  31.816 -0.0566  0.3350 -0.0188
43960W        W52760   5.749   5.960  42.367  0.1470 -0.0182  0.0432
43961W        W52761   0.316   1.364  42.024 -0.1454  0.0115  0.3330
43962W        W52762   3.292   5.051  24.286 -0.2073 -0.1447 -0.3205
43963W        W52763  18.162   2.892   7.866 -0.0365  0.3340  0.1178
43964W        W52764  12.484   0.332  31.350  0.2636  0.1114  0.0642
43965W        W52765  19.843   6.322  17.283  0.1946  0.0070  0.0854
43966W        W52766  19.077   2.145  39.089 -0.1948  0.1568  0.0080
43967W        W52767   2.353   0.868  41.489 -0.0459  0.1112 -0.1912
43968W        W52768   2.144   1.264   8.731 -0.0512  0.3034 -0.0928
43969W        W52769   5.319   5.814   7.588 -0.1910 -0.1437  0.1173
43970W        W52770  10.806   5.294  15.702 -0.1317 -0.1906  0.2452
43971W        W52771   2.702   3.088   0.622  0.1363  0.1464  0.0637
43972W        W52772  19.895   0.822   8.155 -0.2151  0.1070 -0.2360
43973W        W52773   0.026   3.396  32.267  0.1485  0.1490 -0.3323
43974W        W52774   1.437   5.895  42.046 -0.1699 -0.3533  0.0648
43975W        W52775   6.003   2.724   8.338  0.0374  0.2621  0.0789
43976W        W52776   0.648   4.879  27.865  0.2589  0.0511 -0.0714
43977W        W52777   5.226   0.664  45.025  0.3113 -0.0495 -0.0069
43978W        W52778   1.867   4.121   9.039  0.0705 -0.0850  0.1592
43979W        W52779   5.406   3.307  13.777 -0.0099  0.0968  0.1782
43980W        W52780   4.962   0.872   3.603  0.0238 -0.0690  0.0892
43981W        W52781   0.877   2.448  26.129  0.1662 -0.0028 -0.0629
43982W        W52782  10.080   5.704  28.843 -0.0492 -0.0828 -0.1616
43983W        W52783   6.866   5.469  25.120 -0.4185 -0.1991  0.2214
43984W        W52784  14.903   1.932  17.843 -0.3570  0.2470  0.0868
43985W        W52785  17.023   6.013   8.041 -0.0649  0.0401 -0.0734
43986W        W52786   8.589   4.232  38.728 -0.0232 -0.2276 -0.0552
43987W        W52787   6.984   4.505  31.876 -0.3205  0.0401  0.2355
43988W        W52788   8.446   1.208  39.914 -0.0479  0.1003  0.0163
43989W        W52789  10.067   2.700  29.972  0.0401 -0.1582 -0.2808
43990W        W52790  19.151   2.112   7.832 -0.0696  0.1559 -0.0552
43991W        W52791   9.816   3.310  28.417 -0.2373  0.2572  0.0924
43992W        W52792   0.789   2.891  26.443  0.2083  0.1394  0.0839
43993W        W52793  18.133   4.204  45.151  0.1571  0.2825 -0.0070
43994W        W52794  11.511   3.145  30.538  0.1458 -0.1419 -0.1171
43995W        W52795   6.983   2.360  31.833 -0.4289  0.2564  0.0944
43996W        W52796  18.008   4.231   3.712 -0.1857 -0.2612 -0.2645
43997W        W52797  19.569   1.996  15.568 -0.0839  0.2877 -0.1125
43998W        W52798   9.163   0.922  11.642 -0.0518 -0.0203 -0.1219
43999W        W52799   2.600   4.162   6.313  0.5107  0.0556 -0.1437
44000W        W52800   3.121   1.052  38.582  0.4674  0.1864 -0.4214
44001W        W52801  13.708   6.304  14.757  0.0705 -0.0269 -0.1002
44002W        W52802   5.695   5.399  37.043 -0.0735  0.1143  0.0235
44003W        W52803  18.432   2.871  38.889  0.3241 -0.1336 -0.0093
44004W        W52804  10.538   2.684  36.620  0.0038 -0.2407 -0.0136
44005W        W52805   8.051   0.389  26.332  0.0355 -0.1271  0.1160
44006W        W52806  17.328   1.138  33.762  0.0737 -0.1385  0.1180
44007W        W52807   7.658   4.317  32.693  0.1988 -0.1307  0.1560
44008W        W52808   2.974   3.237  13.787  0.0703  0.0867  0.0156
44009W        W52809   6.512   3.869  25.696 -0.0815 -0.2187  0.1435
44010W        W52810  14.276   2.345  31.647 -0.0972 -0.0002  0.1265
44011W        W52811   5.673   6.141  28.304  0.1557 -0.1993 -0.1613
44012W        W52812   1.662   2.281  44.992 -0.1651 -0.1615 -0.0635
44013W        W52813   4.128   4.836  34.378 -0.0113 -0.1586  0.0702
44014W        W52814  12.137   6.455   1.154  0.0348 -0.1808  0.1839
44015W        W52815   6.761   2.256  32.317 -0.3395  0.0540  0.0967
44016W        W52816  17.497   3.193  41.801 -0.2434  0.0975 -0.0750
44017W        W52817   4.095   5.277  14.247 -0.0713  0.0203  0.0863
44018W        W52818  11.664   2.805  19.868  0.0191 -0.0491 -0.1129
44019W        W52819  19.024   0.339  29.243 -0.2395 -0.1577 -0.1715
44020W        W52820  12.866   3.568  38.717  0.3674 -0.0946  0.3306
44021W        W52821   2.501   2.944   9.533 -0.1219 -0.0165 -0.0099
44022W        W52822   4.021   2.016  32.921 -0.0272  0.0306  0.4846
44023W        W52823   5.313   3.880  41.991  0.1153 -0.0132 -0.2541
44024W        W52824   7.052   4.497  13.126  0.1558  0.0862 -0.4290
44025W        W52825   0.828   2.274  39.946 -0.1625  0.0546 -0.2936
44026W        W52826  10.004   6.595  16.828  0.3245 -0.2189  0.1593
44027W        W52827   8.971   0.309  26.324 -0.1157  0.0444  0.0290
44028W        W52828  20.198   5.169  25.965 -0.2344  0.2139  0.0838
44029W        W52829  15.884   6.548   7.859  0.1329 -0.0082  0.2607
44030W        W52830  10.699   3.321  32.986 -0.1819 -0.1148  0.1810
44031W        W52831  15.346   5.085  42.282  0.2270 -0.0461  0.3854
44032W        W52832  16.756   5.737   1.364  0.5229  0.0983  0.1443
44033W        W52833   8.447   0.749   8.514  0.0362 -0.0689  0.2319
44034W        W52834  17.545   2.767  20.423 -0.1137 -0.1707  0.1932
44035W        W52835   0.423   1.394   1.532 -0.0266 -0.0819  0.0130
44036W        W52836   5.052   3.501   2.353  0.0609  0.0566 -0.0156
44037W        W52837   3.337   3.097  38.226  0.1599 -0.0838 -0.2333
44038W        W52838  16.027   2.799  29.743  0.3671  0.0836  0.1454
44039W        W52839  19.821   2.307  31.125  0.1192  0.2080  0.0272
44040W        W52840  13.815   5.484  38.024  0.1623  0.1131 -0.1700
44041W        W52841   1.099   3.032  35.577  0.0311  0.1074 -0.1426
44042W        W52842  20.346   1.310  26.141  0.1330  0.0839  0.2818
44043W        W52843   4.344   0.723  32.869  0.1521 -0.0957 -0.2078
44044W        W52844  12.904   3.389  31.019 -0.1691 -0.0857  0.1629
44045W        W52845  15.828   2.417  14.302 -0.0184 -0.2428  0.0443
44046W        W52846  15.294   1.110  32.426 -0.1492  0.0464 -0.3153
44047W        W52847   8.948   5.996  11.287  0.1739 -0.1266 -0.2422
44048W        W52848   1.660   0.378  33.289  0.2842 -0.1579  0.0686
44049W        W52849   3.267   5.234  12.411  0.0536 -0.1839  0.1287
44050W        W52850   5.001   4.925  30.247  0.1782  0.1381  0.1577
44051W        W52851   7.454   2.738  12.909  0.0848  0.2396  0.2332
44052W        W52852   2.049   4.830  29.821 -0.0218  0.1509 -0.0672
44053W        W52853   9.169   5.765  19.647 -0.0781  0.2288 -0.1713
44054W        W52854  13.121   2.341  15.056 -0.1818  0.3978 -0.1176
44055W        W52855  12.990   4.118  23.313  0.2915  0.0776  0.1347
44056W        W52856   2.499   5.631  20.801 -0.0407  0.0686 -0.0803
44057W        W52857   1.783   2.754  28.858 -0.2506  0.0572  0.0672
44058W        W52858   1.217   4.193  12.794 -0.1249  0.0223  0.3063
44059W        W52859   4.544   0.145  42.037  0.0155 -0.1371  0.0793
44060W        W52860   6.862   2.695  34.108 -0.2765 -0.0464 -0.0582
44061W        W52861  14.518   1.987   0.086 -0.1448 -0.2728 -0.1407
44062W        W52862   2.467   0.245  29.740  0.4638 -0.1038  0.0507
44063W        W52863  20.353   6.556  14.561  0.0501 -0.0661  0.1888
44064W        W52864  11.061   3.964   2.371  0.1027  0.0201  0.0217
44065W        W52865   5.867   3.809  30.738  0.3920 -0.2019  0.0797
44066W        W52866   2.774   5.538  13.583 -0.2131 -0.1373 -0.0012
44067W        W52867  13.411   4.635   5.769 -0.2143 -0.1746  0.2150
44068W        W52868   7.559   0.062   4.373 -0.0897  0.1676  0.3076
44069W        W52869   1.743   1.411  43.055  0.2192 -0.1024  0.0016
44070W        W52870  20.246   6.092  32.054 -0.4151  0.0156 -0.0206
44071W        W52871  12.073   4.087  39.902 -0.1983 -0.2332 -0.1255
44072W        W52872  15.563   3.832  13.210 -0.0494  0.2101 -0.1505
44073W        W52873  14.645   5.410  15.913 -0.0914  0.0412  0.0790
44074W        W52874  14.363   3.766  16.543 -0.0937 -0.1592 -0.0726
44075W        W52875   9.923   2.399   7.107 -0.0107 -0.1860  0.2458
44076W        W52876  11.891   0.958  39.218  0.1707 -0.1763 -0.0639
44077W        W52877   7.498   6.052  34.541  0.0287  0.5632 -0.2651
44078W        W52878   0.934   3.112  41.774  0.1771  0.2415 -0.1672
44079W        W52879   5.985   2.071   0.862  0.0503 -0.0329  0.0083
44080W        W52880   7.722   6.506  15.965  0.1510  0.1697  0.0473
44081W        W52881   6.584   3.096  11.195 -0.4496  0.3001 -0.1349
44082W        W52882  11.030   2.703  44.904  0.1925 -0.0252 -0.3369
44083W        W52883  17.427   3.004   5.422 -0.2268  0.1438 -0.0034
44084W        W52884   4.990   1.794   7.453  0.1201 -0.0481  0.0034
44085W        W52885  20.027   2.935  45.152 -0.1355  0.0533  0.4034
44086W        W52886  20.286   5.987  34.098  0.1529 -0.2162  0.1689
44087W        W52887   2.175   4.368  14.133 -0.0350  0.0233  0.2085
44088W        W52888  12.551   5.138  44.084  0.1023  0.0958  0.1029
44089W        W52889   1.738   5.263  22.552  0.0523  0.0561  0.0924
44090W        W52890  20.600   2.164  13.779  0.0524  0.1527 -0.0868
44091W        W52891  17.343   1.186   2.615  0.1884  0.0822  0.2898
44092W        W52892   5.764   3.768  32.680  0.0416 -0.3874 -0.0769
44093W        W52893   6.896   6.518  33.326  0.0839  0.0086  0.0373
44094W        W52894  21.094   5.505   0.333  0.2236  0.0886  0.0123
44095W        W52895  20.649   5.089   2.197  0.0291  0.1670  0.0783
44096W        W52896  16.556   6.567  34.230  0.0737 -0.2133  0.1474
44097W        W52897   8.129   0.366  29.320  0.0457  0.1985 -0.0414
44098W        W52898  16.144   2.983  32.174 -0.3719 -0.0359 -0.1850
44099W        W52899  15.887   4.000   0.189  0.1707  0.0708  0.0265
44100W        W52900  10.084   5.685   4.552  0.1037 -0.1504 -0.0203
44101W        W52901  15.579   4.323  30.798  0.0578 -0.3773  0.2337
44102W        W52902  15.072   2.476  16.048  0.0601  0.0409 -0.2353
44103W        W52903   5.649   4.538  34.991 -0.2811  0.4757 -0.1809
44104W        W52904  14.827   1.459   4.749  0.1092  0.1698 -0.1735
44105W        W52905   9.480   3.918  17.015  0.1607 -0.2151 -0.1583
44106W        W52906  17.130   4.418   1.686 -0.1054  0.0725  0.2549
44107W        W52907  13.816   4.223   1.759 -0.1509  0.0353 -0.0403
44108W        W52908   4.729   3.147  10.791  0.0332 -0.2003 -0.0569
44109W        W52909  21.021   0.525  14.611 -0.0469  0.0906 -0.0291
44110W        W52910  20.511   1.359   3.399 -0.1705  0.1921 -0.1173
44111W        W52911  15.969   1.914  29.104  0.0806 -0.1544  0.0768
44112W        W52912   8.418   2.316   8.358  0.2950  0.1576  0.0760
44113W        W52913  18.061   2.355  28.818  0.0490  0.2505 -0.0250
44114W        W52914   0.524   0.808  36.790  0.0374  0.0424 -0.1029
44115W        W52915  15.759   3.121  33.644 -0.3607  0.2183  0.3499
44116W        W52916  12.728   4.476  20.525  0.2168 -0.0850  0.2583
44117W        W52917  17.797   3.917  41.987 -0.2540 -0.0847 -0.0526
44118W        W52918   3.605   2.454  40.569 -0.2768 -0.2206 -0.0771
44119W        W52919  21.142   0.497  44.384 -0.0114 -0.1775 -0.4636
44120W        W52920  17.084   2.326  12.046  0.1896 -0.0818 -0.2059
44121W        W52921   6.997   4.785  16.099 -0.0688  0.0558  0.1224
44122W        W52922  13.297   2.889  28.980  0.0327  0.1880 -0.1379
44123W        W52923  20.512   0.329  14.822 -0.2068 -0.1855 -0.0092
44124W        W52924  10.556   3.046  16.024 -0.0538  0.2807 -0.0052
44125W        W52925   0.292   2.978   2.867 -0.1130  0.3227  0.0105
44126W        W52926   9.988   0.041   6.393  0.2198 -0.1083 -0.1509
44127W        W52927   9.344   4.873  43.712 -0.0394  0.0829  0.0494
44128W        W52928   4.200   2.678  34.776  0.2367  0.3231  0.0445
44129W        W52929  16.149   5.499  13.415 -0.0093  0.0338  0.0455
44130W        W52930  15.633   0.446   3.214  0.1245 -0.2445  0.0283
44131W        W52931  11.178   2.781  12.360  0.2669 -0.4012 -0.0392
44132W        W52932  16.286   5.848  22.184 -0.2370  0.0723 -0.1993
44133W        W52933  17.501   1.002  38.062 -0.0250  0.0670 -0.1191
44134W        W52934  10.657   5.871   7.900 -0.1904  0.2008  0.0702
44135W        W52935  19.931   6.511  38.662 -0.2996  0.1267 -0.3230
44136W        W52936   1.831   6.122  40.617  0.0265 -0.1326  0.1070
44137W        W52937  16.954   1.214  16.986  0.0240  0.0460 -0.1202
44138W        W52938  18.145   4.126  10.528  0.0782 -0.3162 -0.4372
44139W        W52939  21.135   3.998  17.193 -0.1152  0.1033 -0.0072
44140W        W52940   1.811   5.750  29.304  0.1141  0.1368 -0.0774
44141W        W52941   3.841   0.933  44.523  0.0601 -0.1505 -0.0113
44142W        W52942   9.440   6.272  15.069  0.1671 -0.1977  0.1242
44143W        W52943  19.990   0.852  34.067  0.0043  0.0805  0.3702
44144W        W52944  14.824   6.381   5.117  0.2065 -0.0204  0.0781
44145W        W52945   9.626   4.400  10.332  0.3638  0.1161 -0.0002
44146W        W52946   5.511   4.182  12.694 -0.1175  0.1625 -0.1837
44147W        W52947   4.326   1.091  37.944 -0.0096  0.1473 -0.1944
44148W        W52948  14.263   4.311  39.392  0.0439  0.0138 -0.0866
44149W        W52949   2.539   1.707   5.475 -0.0260 -0.1097  0.0400
44150W        W52950  16.439   3.477  37.266  0.0910 -0.2336 -0.3034
44151W        W52951  15.631   2.067  21.340  0.0014  0.2480  0.0707
44152W        W52952  17.025   3.305  20.136  0.0001  0.1197 -0.1553
44153W        W52953   9.671   0.448   3.021 -0.1339 -0.0374 -0.1726
44154W        W52954  11.465   1.955  14.674  0.0012 -0.0883 -0.1484
44155W        W52955  19.528   6.128  44.581  0.0095 -0.0460 -0.1271
44156W        W52956   6.759   0.937   9.529 -0.1608 -0.0450  0.1063
44157W        W52957  13.355   2.970   8.360  0.1119  0.1076  0.2075
44158W        W52958   8.641   2.691  29.186  0.1972 -0.1428  0.2612
44159W        W52959  13.151   0.175  11.567 -0.3026  0.1133 -0.0925
44160W        W52960   4.897   3.140   4.189 -0.1313 -0.2998 -0.0115
44161W        W52961  17.835   0.588  14.947 -0.3817  0.0734  0.3587
44162W        W52962  12.584   3.575  28.132  0.0685 -0.2358 -0.2248
44163W        W52963  19.376   3.909  37.269  0.0185  0.0369 -0.1076
44164W        W52964   0.072   2.755   2.042 -0.2613  0.1366  0.0437
44165W        W52965  20.514   3.948   6.344  0.0463  0.0612  0.1093
44166W        W52966  11.179   5.423  37.670 -0.1561  0.1325 -0.1494
44167W        W52967   0.275   4.724   3.709 -0.0009  0.0711  0.2391
44168W        W52968  12.605   6.431   2.477  0.2124  0.1520  0.1677
44169W        W52969   5.964   3.725  11.880  0.0361  0.1537  0.2765
44170W        W52970   7.605   2.028  13.157  0.0389 -0.0708 -0.0375
44171W        W52971   7.751   1.985  11.275  0.0286 -0.0584  0.0681
44172W        W52972   9.953   6.531  37.128 -0.0222 -0.0199  0.2228
44173W        W52973   6.303   1.152  11.470 -0.0984 -0.1815  0.0101
44174W        W52974  20.225   2.671  30.254  0.1170 -0.1928 -0.0553
44175W        W52975  15.830   6.030  44.374  0.0567 -0.1345  0.0563
44176W        W52976  14.974   5.681  23.519  0.0529  0.0855  0.0825
44177W        W52977   7.336   1.887  41.357 -0.0644  0.0574  0.0280
44178W        W52978  11.063   2.492   7.344 -0.0876  0.0809  0.1086
44179W        W52979   8.510   3.640  28.574  0.0034  0.1247  0.0356
44180W        W52980  17.198   2.559  33.310  0.1088 -0.1152 -0.0990
44181W        W52981   1.843   5.506  36.179  0.1887  0.0817  0.0729
44182W        W52982   1.889   5.296  33.326 -0.1779 -0.1580  0.1730
44183W        W52983   8.469   5.944  11.483  0.0585  0.1612  0.1572
44184W        W52984  13.278   3.569   9.907  0.1772  0.1898 -0.0246
44185W        W52985   5.706   1.757  39.333 -0.0091  0.1077  0.0998
44186W        W52986  15.916   0.558  32.268  0.1926 -0.4066  0.0038
44187W        W52987  17.300   4.961   3.441  0.0395  0.0944 -0.0448
44188W        W52988  13.994   6.454   5.834  0.0475 -0.2538 -0.2453
44189W        W52989   6.797   3.905  26.682 -0.0781 -0.0104  0.2974
44190W        W52990  19.661   2.890  10.999  0.0356 -0.2805  0.2588
44191W        W52991   7.602   2.272  34.481 -0.0352  0.0818 -0.0955
44192W        W52992  14.921   3.114  43.518  0.1168 -0.3727  0.0650
44193W        W52993   5.749   2.357  39.918 -0.0952  0.0219 -0.1456
44194W        W52994   1.576   4.510   6.003  0.2498 -0.0463  0.0863
44195W        W52995   1.443   2.386   8.814 -0.0517 -0.0092 -0.2496
44196W        W52996   0.373   2.015  38.523  0.0815  0.2148  0.0245
44197W        W52997  20.141   5.558  33.864  0.0827  0.1806  0.0607
44198W        W52998   1.513   1.762  40.581  0.0965 -0.0618 -0.1218
44199W        W52999   0.223   6.088   8.242  0.2754 -0.1093  0.0597
44200W        W53000   3.820   2.228   3.876  0.1471 -0.0769  0.0347
44201W        W53001  15.019   5.973  35.043 -0.0984 -0.3906  0.5625
44202W        W53002  18.593   6.531  19.084 -0.0221 -0.0404  0.1131
44203W        W53003   1.458   2.671   2.246  0.1347 -0.0393 -0.2843
44204W        W53004  13.509   5.007  35.671 -0.0562  0.0647 -0.0985
44205W        W53005  12.909   0.335  36.175 -0.2035 -0.0270 -0.0447
44206W        W53006   1.533   0.707  29.329  0.0909  0.1078 -0.2674
44207W        W53007  18.869   4.378  40.575 -0.2465 -0.0217 -0.1601
44208W        W53008  21.138   1.082  40.498  0.3549  0.1454 -0.1282
44209W        W53009  16.623   2.992  41.185  0.0690 -0.3426  0.1057
44210W        W53010   8.272   4.499  13.562 -0.1954 -0.1100 -0.1970
44211W        W53011  11.188   6.348   0.063 -0.1764 -0.0017 -0.2124
44212W        W53012   2.294   4.784   7.824 -0.4108  0.1177 -0.2595
44213W        W53013  16.282   1.110  29.432 -0.0167 -0.0935  0.0219
44214W        W53014  19.750   0.992  14.478  0.2682  0.1105 -0.1386
44215W        W53015  12.982   3.541  12.994 -0.3073 -0.1358 -0.0020
44216W        W53016   2.605   1.133  36.988  0.0829  0.0600  0.3459
44217W        W53017  20.702   0.396   2.913 -0.0935  0.1786 -0.2781
44218W        W53018   3.268   2.109  13.197  0.2144  0.0682 -0.1266
44219W        W53019  11.395   2.546   5.476  0.1290  0.2398 -0.3213
44220W        W53020  16.344   1.064  31.779 -0.0731  0.0417 -0.1434
44221W        W53021  10.264   5.122   9.708 -0.1297 -0.1073 -0.2382
44222W        W53022   6.376   3.279  13.883  0.0414 -0.4930  0.0698
44223W        W53023  12.167   6.214  39.338 -0.0845 -0.1710 -0.4487
44224W        W53024   3.766   1.625  13.977 -0.0313  0.1675  0.1146
44225W        W53025   5.180   5.184  15.597 -0.1430  0.0781 -0.1009
44226W        W53026  17.668   0.247  17.506  0.0816  0.2815 -0.3443
44227W        W53027  21.043   4.464  31.324 -0.0069  0.0139 -0.0573
44228W        W53028   8.772   3.957  33.808  0.3427  0.2516 -0.0793
44229W        W53029   7.426   0.376  25.598 -0.1414 -0.3295  0.2987
44230W        W53030   4.904   6.488  37.991  0.1590  0.1329 -0.2030
44231W        W53031   9.211   4.461  28.276 -0.1110  0.4236  0.1680
44232W        W53032   8.096   4.542   9.171  0.1238 -0.3033  0.2658
44233W        W53033  19.419   2.165  29.898 -0.1486 -0.2118 -0.2844
44234W        W53034   7.276   4.571  30.943 -0.0052  0.0552  0.0176
44235W        W53035   5.686   4.204  23.177 -0.0739  0.1250 -0.1032
44236W        W53036  15.823   6.397  17.530 -0.0556  0.0469  0.0651
44237W        W53037   3.124   1.546  33.227 -0.0316 -0.2437 -0.1677
44238W        W53038  12.578   5.756   0.459  0.0551 -0.4019  0.1568
44239W        W53039  13.822   6.532   5.255 -0.1412 -0.1314  0.2007
44240W        W53040  15.305   6.503  15.395  0.1486 -0.1799 -0.1043
44241W        W53041   6.146   4.821  28.833 -0.1185  0.0474  0.1966
44242W        W53042   3.262   2.157  41.493  0.1218 -0.1849 -0.2728
44243W        W53043  12.214   5.019  39.710 -0.0728  0.2148  0.1211
44244W        W53044   4.239   5.474  36.235 -0.0895 -0.1456  0.1841
44245W        W53045   2.634   1.189  25.817  0.0092 -0.0448  0.0996
44246W        W53046   3.053   0.703  38.239 -0.1818 -0.2399  0.1429
44247W        W53047  17.446   3.200  28.737  0.1154  0.0542 -0.2912
44248W        W53048  14.846   2.400  42.925 -0.1067 -0.2355 -0.1720
44249W        W53049  12.252   5.999  21.301  0.1281  0.1461  0.2646
44250W        W53050  14.634   3.341   1.638  0.0602  0.0757 -0.0599
44251W        W53051  16.685   1.963  17.578 -0.0105 -0.1564  0.3994
44252W        W53052  16.810   1.744  15.780  0.0080 -0.1709 -0.1175
44253W        W53053  10.247   5.236  11.399  0.1106 -0.4068  0.2943
44254W        W53054  11.153   6.191  18.580 -0.0984 -0.3589 -0.1156
44255W        W53055  17.129   0.989  19.975  0.2022  0.1826 -0.0378
44256W        W53056   2.636   2.001  13.585 -0.1429  0.0519  0.2092
44257W        W53057  19.800   4.913  25.722 -0.1872  0.1691  0.0482
44258W        W53058  15.173   5.197   5.020  0.1508 -0.1047  0.0162
44259W        W53059   7.381   5.980  31.226  0.2061 -0.0966 -0.1019
44260W        W53060  18.986   3.014  33.037 -0.3888 -0.1616 -0.0429
44261W        W53061  15.200   0.591  17.990  0.1050  0.0216 -0.1381
44262W        W53062   5.221   5.270   1.561  0.0550 -0.3310 -0.1244
44263W        W53063  19.583   5.315  43.434  0.0377  0.1165 -0.1599
44264W        W53064  11.474   5.077  29.006 -0.3347  0.1627  0.0922
44265W        W53065   7.839   0.751  17.586  0.0707 -0.3642  0.0861
44266W        W53066  15.127   3.698  12.237 -0.0476 -0.2001  0.0679
44267W        W53067   4.587   0.239  42.761  0.1509  0.0478  0.0420
44268W        W53068  18.914   1.983   9.054 -0.4646 -0.2205 -0.0687
44269W        W53069  20.994   2.685   8.328 -0.1265  0.2638 -0.1180
44270W        W53070   5.679   6.259  32.301 -0.2656 -0.2139  0.1047
44271W        W53071  20.333   1.935   4.544 -0.1380 -0.1209 -0.0804
44272W        W53072   4.383   5.931  14.870 -0.0416  0.1161  0.1181
44273W        W53073   7.592   0.747  39.897 -0.0497  0.0288  0.0683
44274W        W53074  12.450   5.728  36.793 -0.1727  0.2258  0.4527
44275W        W53075  20.058   1.248  25.208  0.0708  0.0939 -0.2113
44276W        W53076   5.852   6.043   0.226  0.2173 -0.1789 -0.2848
44277W        W53077   1.268   3.089  26.706  0.0253 -0.0631  0.0098
44278W        W53078  10.452   1.506   1.454  0.1087  0.0162  0.1599
44279W        W53079  13.352   5.398  21.847 -0.0367  0.0407 -0.0838
44280W        W53080  19.970   1.257  28.231  0.0039  0.0799 -0.1494
44281W        W53081   3.160   2.337  31.681  0.2194  0.1811  0.1824
44282W        W53082  15.682   0.631  32.803 -0.3074  0.0653 -0.0234
44283W        W53083   9.710   5.962   4.801  0.0739  0.0419 -0.1775
44284W        W53084   4.706   3.521  30.951  0.3616  0.0847 -0.1580
44285W        W53085  14.420   3.115  15.535 -0.0677 -0.0258  0.0633
44286W        W53086  13.098   5.185  14.825 -0.1238  0.2761 -0.0498
44287W        W53087  12.745   0.008  13.729 -0.1362  0.0410  0.0917
44288W        W53088  20.958   4.383  39.128  0.0413 -0.0816  0.3649
44289W        W53089   1.618   2.895   5.252 -0.0766  0.0503 -0.1195
44290W        W53090  14.037   3.650  32.801 -0.0104  0.0404 -0.1599
44291W        W53091  15.731   1.748  44.018  0.0275  0.1419 -0.1397
44292W        W53092   2.094   1.148   0.588  0.1016  0.1578 -0.2372
44293W        W53093   5.581   0.434  42.303 -0.1153  0.0209 -0.1999
44294W        W53094   0.556   0.845   3.151  0.2100  0.2669 -0.1052
44295W        W53095   7.315   0.984  28.447 -0.1094 -0.2837  0.0710
44296W        W53096   5.029   3.446  14.209 -0.2835 -0.0574  0.2191
44297W        W53097  19.699   1.164  29.817  0.1134  0.0985  0.2207
44298W        W53098  10.545   5.871  28.926  0.2213  0.1503 -0.0960
44299W        W53099  17.238   2.330   1.399  0.0441 -0.0890  0.1091
44300W        W53100   9.007   4.638  37.764 -0.0805  0.0816  0.0594
44301W        W53101  11.682   6.515  18.560 -0.1543 -0.1965 -0.0586
44302W        W53102  18.905   6.443  32.928 -0.0592 -0.1331 -0.1489
44303W        W53103   3.881   3.744  10.066 -0.0553 -0.0840 -0.0019
44304W        W53104  12.899   2.609  28.088 -0.1285 -0.1607  0.2269
44305W        W53105   5.606   4.247  36.407  0.0628 -0.3577 -0.1065
44306W        W53106   5.186   0.870  24.388  0.2132  0.0018 -0.1005
44307W        W53107  20.936   1.862   3.001 -0.0061 -0.0230  0.0156
44308W        W53108   9.013   3.776  32.295  0.0758 -0.2784 -0.0648
44309W        W53109  14.447   3.699  44.664 -0.0271  0.3097 -0.0821
44310W        W53110  10.991   3.733   7.511 -0.2372 -0.1441  0.1624
44311W        W53111  11.004   4.935  19.418 -0.0787  0.4166  0.0088
44312W        W53112  13.568   4.709  11.836 -0.1277  0.1598 -0.2085
44313W        W53113  15.313   2.607  37.313  0.4975  0.1225 -0.1218
44314W        W53114   5.823   3.609  27.073 -0.2570 -0.1052 -0.0963
44315W        W53115  14.459   6.281  17.937  0.3410  0.2731 -0.2118
44316W        W53116  18.654   3.303  19.681  0.2126  0.3391 -0.3754
44317W        W53117  19.557   1.627  13.854 -0.2469 -0.2855 -0.2005
44318W        W53118  13.244   0.986  11.315 -0.1792 -0.1541 -0.0386
44319W        W53119   5.854   3.129  28.194  0.4304 -0.1621 -0.1294
44320W        W53120   9.416   0.244  31.074 -0.2298 -0.0208 -0.2116
44321W        W53121   6.977   4.887   7.112 -0.0302  0.1301 -0.1187
44322W        W53122  19.601   5.769  36.560  0.0192  0.0777  0.0276
44323W        W53123  13.164   6.309   9.483 -0.0093 -0.0758 -0.1752
44324W        W53124   6.970   2.036  27.500  0.0475  0.1849 -0.0435
44325W        W53125   8.667   2.747  27.802 -0.0676  0.2734  0.1818
44326W        W53126  16.296   1.608  35.214 -0.0445  0.0556  0.1119
44327W        W53127   3.940   0.097   0.956  0.0062  0.1212  0.2884
44328W        W53128   8.127   2.030  11.614  0.1452  0.0060 -0.0868
44329W        W53129  11.123   6.392  35.030 -0.0590 -0.1133  0.0683
44330W        W53130  19.454   2.359  40.168 -0.1110  0.0002 -0.1235
44331W        W53131  15.442   2.388  43.441 -0.0215 -0.0385  0.2122
44332W        W53132  12.913   0.184   8.718 -0.1350  0.1530  0.1165
44333W        W53133  11.662   0.809  10.212 -0.3267 -0.0446  0.2652
44334W        W53134  11.571   6.066  30.265  0.1770 -0.1150  0.0393
44335W        W53135   6.043   0.880  25.198 -0.0257  0.1272  0.1471
44336W        W53136  10.200   3.080  39.137 -0.1204  0.0417 -0.1898
44337W        W53137   1.335   3.976  39.783 -0.1010  0.1635  0.1124
44338W        W53138  14.059   3.847   0.474  0.3203 -0.3236  0.1996
44339W        W53139  14.331   2.829  21.521  0.0389  0.0556  0.3250
44340W        W53140   7.005   0.144   7.535  0.2778 -0.0052  0.2850
44341W        W53141  12.156   2.219  43.961 -0.2985 -0.1011 -0.0369
44342W        W53142   9.737   6.512  29.133 -0.3245 -0.2021  0.0840
44343W        W53143   6.106   1.054  43.901 -0.1222 -0.0136  0.0145
44344W        W53144   5.746   6.468  33.724  0.0656  0.2916  0.2484
44345W        W53145   1.734   5.566   1.767 -0.1808 -0.2435 -0.2798
44346W        W53146   2.798   3.519  33.373  0.1537 -0.3209  0.0040
44347W        W53147  20.405   6.541  39.810 -0.4230 -0.2502 -0.2066
44348W        W53148   8.736   0.677  44.338 -0.3480  0.0931 -0.1726
44349W        W53149  11.345   3.617  38.072 -0.0124  0.0620  0.1469
44350W        W53150  16.149   3.939  17.084  0.2782  0.1754  0.0930
44351W        W53151   0.656   4.786  43.146  0.3298 -0.1851  0.2481
44352W        W53152   8.364   3.936  40.579 -0.0041  0.0785 -0.0886
44353W        W53153  17.164   4.676  37.279  0.2406  0.1272  0.2214
44354W        W53154   4.130   6.181  39.349 -0.2711 -0.1439  0.0388
44355W        W53155  17.586   2.644   4.469 -0.0136  0.1733 -0.0310
44356W        W53156   7.559   0.615  28.691 -0.2827  0.2391 -0.0740
44357W        W53157  12.235   2.529   4.190  0.0735 -0.1574 -0.2428
44358W        W53158  17.669   4.441  15.841  0.1160 -0.0772  0.1137
44359W        W53159   2.081   5.147  12.232  0.0668  0.0048 -0.1793
44360W        W53160  17.285   5.009  43.492  0.1877 -0.0975 -0.2596
44361W        W53161   5.406   0.210  15.038 -0.1158  0.0810 -0.1133
44362W        W53162  20.343   5.313  42.371 -0.0368  0.1764 -0.1505
44363W        W53163  16.563   6.588   2.737  0.1824  0.0301 -0.0788
44364W        W53164   8.639   3.201  44.489 -0.1316 -0.0965 -0.3328
44365W        W53165   1.581   0.268  25.399 -0.0088  0.1293 -0.2384
44366W        W53166  12.478   4.486  15.738  0.0232 -0.0060 -0.0569
44367W        W53167  10.016   2.345  39.516  0.2438 -0.0982 -0.1417
44368W        W53168  16.995   4.556  39.085 -0.0287 -0.1220 -0.0225
44369W        W53169  13.238   1.610   6.300  0.1170 -0.3877 -0.3214
44370W        W53170  10.341   3.511  34.186 -0.2728 -0.0770  0.0552
44371W        W53171   4.024   5.889   3.636  0.3888 -0.1347  0.2204
44372W        W53172   4.921   3.761   1.417  0.0012  0.1038  0.2457
44373W        W53173  18.420   5.086  33.221  0.2530  0.4271  0.1946
44374W        W53174   4.899   6.252   8.145  0.2992  0.2797 -0.2405
44375W        W53175  14.211   1.536  38.398 -0.3649 -0.0130  0.2240
44376W        W53176  17.513   5.732  35.088  0.1395  0.0380  0.2627
44377W        W53177   1.912   4.596  44.515  0.0959  0.0391 -0.0593
44378W        W53178   3.279   1.391  37.679 -0.0316 -0.0663  0.1032
44379W        W53179   2.915   4.548  12.060 -0.1505  0.1464 -0.2929
44380W        W53180   4.537   1.380  14.615 -0.3586 -0.2449  0.1413
44381W        W53181  11.829   4.815  34.726  0.0463 -0.3364 -0.1884
44382W        W53182   1.218   4.745  42.848  0.2431 -0.3358 -0.0496
44383W        W53183  10.292   5.537   3.243 -0.1793  0.2148 -0.2227
44384W        W53184   4.494   3.697  32.564 -0.1852  0.3031  0.1697
44385W        W53185  20.811   0.427   5.814  0.0166  0.1012 -0.0186
44386W        W53186   2.228   1.693   2.628 -0.2741  0.0354 -0.0467
44387W        W53187  18.501   0.998   2.469  0.0368 -0.0301 -0.0595
44388W        W53188   1.492   1.435  41.635  0.0352  0.0225  0.1057
44389W        W53189  18.150   0.052   7.340  0.1795 -0.0160 -0.2352
44390W        W53190   1.080   6.215  34.319  0.0864  0.0589  0.2153
44391W        W53191   2.959   4.756  36.230  0.0892  0.0007  0.0396
44392W        W53192   3.155   5.564   3.099  0.1102  0.0776 -0.1822
44393W        W53193  19.439   5.232  31.027 -0.2624 -0.1010 -0.0673
44394W        W53194   8.571   5.899   6.127 -0.0241 -0.1930  0.1433
44395W        W53195  16.505   1.874  18.756 -0.1201 -0.2752 -0.1245
44396W        W53196   2.087   5.460  24.881  0.1918  0.2290  0.0329
44397W        W53197   4.068   5.565  42.245 -0.0680 -0.2696 -0.1794
44398W        W53198  14.963   2.221  16.983 -0.2802  0.0029 -0.3300
44399W        W53199   6.807   0.464   4.354  0.2047 -0.2808 -0.0057
44400W        W53200   4.922   0.403  38.053 -0.2460  0.3112 -0.2210
44401W        W53201  15.389   3.450   2.302  0.1330 -0.1646 -0.0966
44402W        W53202  10.099   2.871  12.343  0.2401  0.1980  0.0989
44403W        W53203  12.753   5.226  28.246 -0.1291  0.0220 -0.0222
44404W        W53204   3.202   1.355  35.821  0.2973  0.0419 -0.2771
44405W        W53205   8.248   5.377  34.554  0.1204  0.2267  0.0925
44406W        W53206   6.293   1.724  42.103  0.1071  0.2711  0.0454
44407W        W53207   5.265   6.294  11.571 -0.0588 -0.0075 -0.0264
44408W        W53208   9.942   1.027  43.669  0.0117 -0.0624 -0.1357
44409W        W53209  19.560   0.833  12.661 -0.0480  0.0287  0.2348
44410W        W53210  11.667   5.730  19.403  0.3205  0.2387  0.0296
44411W        W53211  20.916   0.146   8.132  0.2593  0.0791 -0.1150
44412W        W53212  11.931   5.697  38.262 -0.0927  0.3120  0.1034
44413W        W53213  16.492   6.418  18.614 -0.0178  0.3346  0.0458
44414W        W53214  14.097   6.480  29.146 -0.2870  0.0248 -0.1475
44415W        W53215  19.679   0.338  28.355 -0.1412 -0.1526 -0.2060
44416W        W53216  10.223   1.910  17.570  0.3228  0.0373  0.0550
44417W        W53217   3.825   3.967  30.545  0.1255  0.1210  0.0222
44418W        W53218   0.654   0.672  31.885 -0.2612  0.0331 -0.2716
44419W        W53219   9.627   5.917  17.649  0.0449 -0.1488 -0.3660
44420W        W53220   7.989   4.117   5.064  0.2315 -0.0683  0.1760
44421W        W53221   2.645   0.194  38.861  0.1654  0.0622  0.1512
44422W        W53222  19.907   4.821  26.751 -0.2718  0.0834  0.0694
44423W        W53223  16.724   2.976  44.847 -0.1373 -0.0739 -0.3638
44424W        W53224  15.785   2.093  13.412  0.3347 -0.0957 -0.1868
44425W        W53225  10.251   5.531  38.729  0.1214 -0.3715 -0.3188
44426W        W53226  12.228   3.878  44.334  0.1304 -0.0579  0.1234
44427W        W53227   4.283   6.246  27.462 -0.2199 -0.0987 -0.1363
44428W        W53228  14.603   1.996   5.329 -0.1016 -0.3321 -0.3521
44429W        W53229   2.344   4.433  44.154  0.0756 -0.0750  0.0078
44430W        W53230   6.039   6.603  38.708  0.0210 -0.1386 -0.2152
44431W        W53231  11.992   2.367  22.807 -0.0903 -0.1535  0.0175
44432W        W53232   2.980   2.722  38.216  0.0725  0.0702 -0.4654
44433W        W53233   5.374   3.773  38.601  0.0303  0.2360 -0.0392
44434W        W53234   7.684   0.323  29.133 -0.0586  0.0881 -0.1455
44435W        W53235  16.451   5.586  39.362 -0.1718 -0.2226 -0.0125
44436W        W53236  20.734   5.779  31.940  0.0200  0.0836 -0.1784
44437W        W53237  12.988   4.829  13.701  0.1644  0.2053 -0.2833
44438W        W53238  12.373   5.894  37.989 -0.1881 -0.0779  0.1095
44439W        W53239  19.381   6.132  39.002 -0.1495  0.2292 -0.3601
44440W        W53240   4.642   3.824  27.961 -0.4626 -0.1411 -0.0460
44441W        W53241  17.154   5.292  37.945 -0.0625 -0.1158  0.3895
44442W        W53242  18.832   0.417  37.224  0.0372  0.0586  0.0135
44443W        W53243  13.057   2.839   0.292 -0.1982 -0.2495 -0.4140
44444W        W53244   4.191   0.365  12.469  0.2069  0.1112 -0.2254
44445W        W53245  10.924   1.053  38.615  0.0499  0.2017  0.0802
44446W        W53246  16.480   2.602  40.881 -0.1395 -0.1215 -0.1755
44447W        W53247   4.216   3.965  26.226 -0.0385 -0.1807 -0.0277
44448W        W53248  19.758   0.877  14.954 -0.1122  0.2044 -0.1420
44449W        W53249  19.519   0.263  30.083  0.4857  0.2331 -0.1425
44450W        W53250   7.530   3.878  30.307 -0.2301 -0.0057 -0.0627
44451W        W53251   3.581   1.168  20.232  0.0055  0.0725 -0.3012
44452W        W53252  16.845   0.723  42.209 -0.1849  0.1261  0.0222
44453W        W53253  20.827   3.805  40.373 -0.0334  0.2093 -0.0014
44454W        W53254   2.893   6.342   8.481 -0.0108  0.1366 -0.1253
44455W        W53255  14.982   1.006   6.853 -0.0208 -0.0817 -0.0940
44456W        W53256  13.562   6.495  41.981 -0.1373 -0.0608  0.0213
44457W        W53257   1.705   3.471   6.215 -0.0311 -0.0112 -0.2725
44458W        W53258  14.617   2.198  42.081 -0.0657  0.2915 -0.0902
44459W        W53259   2.975   3.180  20.551  0.2957 -0.0392 -0.0634
44460W        W53260   4.071   3.146  28.159  0.2320 -0.4937  0.1729
44461W        W53261   5.071   0.580  41.364  0.0689  0.3092 -0.0359
44462W        W53262   0.752   0.692  33.872  0.0774  0.5267 -0.2723
44463W        W53263  20.482   4.394   0.507 -0.1695  0.0156 -0.0039
44464W        W53264   0.003   0.488  41.369  0.1218 -0.0237 -0.2540
44465W        W53265   5.641   4.449   4.061  0.0724  0.0311  0.2075
44466W        W53266   2.183   3.659  26.721 -0.0618  0.1605  0.0345
44467W        W53267  13.913   0.711  35.529  0.2424  0.1627  0.1971
44468W        W53268   3.576   3.405  35.239  0.1468  0.3049  0.1273
44469W        W53269  18.375   1.667   6.477 -0.1994 -0.1299 -0.0659
44470W        W53270  19.182   6.083  34.043 -0.0303 -0.0569  0.0647
44471W        W53271  14.540   0.803  21.084  0.1134  0.0631 -0.1982
44472W        W53272  16.404   6.569  37.202  0.1173 -0.0259  0.3862
44473W        W53273   4.298   0.539  31.076 -0.3023  0.0870 -0.0206
44474W        W53274   3.803   0.889  22.415 -0.0617  0.0932 -0.0339
44475W        W53275  17.862   2.235  19.596 -0.0360  0.0764  0.1850
44476W        W53276   1.568   0.569  31.429  0.0227 -0.0442 -0.1186
44477W        W53277   4.851   1.005  27.033  0.1293  0.1653  0.0584
44478W        W53278  12.342   1.201  38.067 -0.2108  0.1491 -0.0066
44479W        W53279  13.638   4.257  40.476  0.0499 -0.2542  0.1778
44480W        W53280  14.831   4.607  42.377 -0.0101 -0.3508  0.3550
44481W        W53281  19.015   3.022  32.103 -0.1406  0.1216  0.1197
44482W        W53282   1.553   6.346   7.611 -0.1165 -0.5325 -0.0237
44483W        W53283   4.092   1.147   7.726  0.1020  0.5064 -0.0683
44484W        W53284  16.017   6.331   0.911  0.0806 -0.1337 -0.0574
44485W        W53285  17.821   3.251  11.124  0.0305 -0.1131 -0.4015
44486W        W53286  18.702   4.179  31.433  0.1411 -0.1596 -0.1678
44487W        W53287   4.321   2.842  12.899  0.2230 -0.1066 -0.1040
44488W        W53288  14.127   5.740  32.133 -0.1488 -0.0852  0.1372
44489W        W53289  12.155   1.588  11.999  0.1034  0.0292  0.1400
44490W        W53290   4.358   5.799  40.222 -0.3958  0.1507  0.0117
44491W        W53291  19.670   3.784  38.738  0.1320 -0.0642  0.1095
44492W        W53292  16.340   4.927   0.287  0.2206 -0.0280  0.1827
44493W        W53293  11.694   6.064  13.440  0.2653  0.0929 -0.0211
44494W        W53294  13.379   1.591  33.228  0.0389  0.2896 -0.1293
44495W        W53295   9.639   0.322   4.488 -0.2165  0.2645  0.2037
44496W        W53296  20.081   3.250   6.414 -0.0224 -0.1786  0.1054
44497W        W53297   4.123   3.922  11.915  0.2898  0.0602  0.1958
44498W        W53298   7.557   5.041  35.771 -0.0833  0.0326 -0.2237
44499W        W53299   3.215   2.097   5.379  0.2483 -0.0195 -0.0280
44500W        W53300   3.794   0.215  26.525 -0.0432 -0.1483  0.0002
44501W        W53301  16.193   3.565  12.570 -0.1678 -0.1519 -0.1169
44502W        W53302   2.986   0.335   9.124  0.2964 -0.0184 -0.0880
44503W        W53303  20.754   0.235  26.433  0.1330  0.2181 -0.1809
44504W        W53304   3.607   3.839  37.624  0.0965  0.1988  0.0684
44505W        W53305   5.127   2.148   8.976  0.0034 -0.1201  0.2199
44506W        W53306  14.210   4.502  18.177 -0.2978  0.1371  0.1867
44507W        W53307   8.060   0.420  14.833  0.2163 -0.1310 -0.0831
44508W        W53308  14.790   0.494  17.624 -0.0135  0.1353 -0.0276
44509W        W53309   3.975   6.530  10.527 -0.1381  0.2711  0.1785
44510W        W53310   2.542   3.797   8.710 -0.0112  0.2066 -0.0305
44511W        W53311  14.556   5.551  35.188  0.0495 -0.0870 -0.0561
44512W        W53312   8.018   3.611  40.036  0.1075  0.3475 -0.3081
44513W        W53313  10.519   0.285  13.773 -0.0761  0.0820  0.0545
44514W        W53314   3.632   5.795   0.555 -0.2326 -0.0250  0.1975
44515W        W53315   5.232   3.444  29.275  0.1202 -0.1944 -0.2919
44516W        W53316  16.808   1.125   9.998 -0.0432 -0.0624 -0.1383
44517W        W53317  20.111   5.271  18.336 -0.0073 -0.2838 -0.1918
44518W        W53318  12.479   3.719  34.401  0.1446  0.0059 -0.3799
44519W        W53319  13.759   3.853  11.537 -0.2070  0.0575  0.1351
44520W        W53320  11.887   0.382  39.003  0.0856  0.0410 -0.2551
44521W        W53321  12.024   4.829  19.213 -0.0799  0.1128  0.1181
44522W        W53322  19.685   1.982  44.211 -0.2285  0.0332 -0.1335
44523W        W53323  12.687   2.116  30.042 -0.2115 -0.0966 -0.2032
44524W        W53324  11.420   0.526  38.906 -0.0489  0.1021  0.1651
44525W        W53325  14.783   1.712   3.429  0.0078 -0.1139 -0.1744
44526W        W53326   7.271   1.912  35.213  0.0938  0.0910 -0.2002
44527W        W53327  17.070   5.728  19.504 -0.1087 -0.0555 -0.2957
44528W        W53328   0.310   0.470  23.385  0.0329 -0.2654  0.1305
44529W        W53329   3.800   5.579   1.059 -0.3176 -0.0848  0.1205
44530W        W53330   9.807   0.911  38.342 -0.0403 -0.1993  0.0735
44531W        W53331  19.134   0.912  32.163 -0.1102  0.0060 -0.0378
44532W        W53332   1.862   1.348  40.848  0.2869  0.1542 -0.0571
44533W        W53333  15.665   4.645   8.443  0.0257  0.0017  0.0131
44534W        W53334  16.230   4.055  14.359 -0.2920 -0.0334 -0.1440
44535W        W53335  18.737   0.313  32.755  0.2243 -0.0811  0.2556
44536W        W53336   2.849   1.914  31.752 -0.1626  0.0189  0.2264
44537W        W53337  15.502   0.694  35.660 -0.0700  0.0503  0.2588
44538W        W53338   2.276   6.010  27.127 -0.0871  0.0418 -0.2057
44539W        W53339   9.804   4.450  40.027 -0.1916  0.1762 -0.0799
44540W        W53340  10.424   3.044  43.466  0.2865 -0.0267  0.3240
44541W        W53341   7.275   1.609  16.582  0.1442 -0.1072 -0.0605
44542W        W53342  10.229   4.318  19.521 -0.3195 -0.1493  0.0432
44543W        W53343   7.714   0.004  25.984 -0.0156 -0.1769  0.2040
44544W        W53344   2.230   3.910  14.400 -0.0886  0.0198 -0.3939
44545W        W53345  16.027   1.670  18.783 -0.0424 -0.0098  0.1812
44546W        W53346  16.043   3.161  39.640 -0.2153  0.5258 -0.2441
44547W        W53347  15.238   1.203  18.625  0.1619 -0.0247 -0.1780
44548W        W53348   8.646   0.605  42.355  0.0611 -0.1644 -0.1823
44549W        W53349   7.933   5.442  26.226 -0.1793 -0.1229  0.0450
44550W        W53350  18.175   5.593  20.434  0.1550  0.1634 -0.0814
44551W        W53351   5.799   6.129   8.397 -0.2883  0.0325 -0.1195
44552W        W53352   1.332   4.577   7.422 -0.2297 -0.0067  0.0989
44553W        W53353  11.821   5.632   7.144 -0.0294 -0.0294  0.1558
44554W        W53354   7.405   3.256  26.884 -0.0234 -0.2156  0.1239
44555W        W53355  17.325   2.705  29.998 -0.1351 -0.2565  0.2865
44556W        W53356   8.995   2.099  37.664 -0.0412 -0.1037 -0.2075
44557W        W53357  11.383   5.543  18.157 -0.0389  0.0109  0.2765
44558W        W53358  20.391   3.510  28.484 -0.1597  0.0200  0.2225
44559W        W53359   3.380   0.191  36.632 -0.1520  0.0338 -0.0115
44560W        W53360  12.706   5.789  31.959  0.0518 -0.0398  0.0116
44561W        W53361  14.088   0.342   3.473  0.0698 -0.1441 -0.1280
44562W        W53362  12.513   0.783  35.290  0.1667 -0.0344 -0.1493
44563W        W53363   4.913   1.442   6.104  0.2108 -0.2510 -0.1230
44564W        W53364  20.247   3.902  10.445 -0.4202 -0.0761  0.0567
44565W        W53365  16.788   1.778  32.712 -0.0363 -0.0496 -0.0446
44566W        W53366   4.701   5.904  37.328 -0.2281 -0.0304 -0.1151
44567W        W53367  14.605   0.172  33.993  0.4672 -0.0600 -0.2142
44568W        W53368   9.538   4.960  16.072  0.0856 -0.0728 -0.0982
44569W        W53369   0.085   3.362  44.755  0.0084  0.2363  0.2405
44570W        W53370  18.569   0.907  32.117 -0.2399  0.0283 -0.0704
44571W        W53371  16.534   4.121  19.184 -0.2058 -0.2967  0.1337
44572W        W53372   2.941   0.596  33.028 -0.2759 -0.0112  0.0549
44573W        W53373   8.679   5.571  30.030 -0.0087 -0.2489  0.4870
44574W        W53374  12.708   1.546  21.341 -0.1289  0.1872 -0.1710
44575W        W53375  14.087   1.879  11.955  0.1448 -0.2274  0.1818
44576W        W53376   2.222   6.048  23.739  0.0185  0.0148 -0.0992
44577W        W53377  11.746   3.795  15.682 -0.1155  0.0279  0.0335
44578W        W53378  20.913   1.925  32.139 -0.1970 -0.0031 -0.1146
44579W        W53379  14.557   5.293  44.197 -0.0765  0.0188  0.2554
44580W        W53380   5.162   6.586  38.730 -0.2462 -0.0443  0.1238
44581W        W53381  11.148   4.681  32.686  0.2398  0.1187 -0.0318
44582W        W53382   9.139   4.734  34.857 -0.1247 -0.1000  0.2407
44583W        W53383   2.903   3.774  35.450  0.1215 -0.1437 -0.0373
44584W        W53384   8.553   0.333  17.204  0.0533 -0.2405  0.1718
44585W        W53385   8.311   6.508  32.875  0.1226  0.0549 -0.0026
44586W        W53386  16.050   3.186   0.290 -0.0392 -0.2908  0.0993
44587W        W53387   4.093   6.234   7.599  0.2000  0.0727  0.3804
44588W        W53388  12.611   2.980  22.235 -0.1017  0.2628  0.0553
44589W        W53389   0.292   3.604   6.610 -0.0284  0.1087 -0.0803
44590W        W53390  19.435   0.543   0.225 -0.0380  0.0499  0.0981
44591W        W53391  20.446   5.086   8.926  0.0199  0.2269 -0.3145
44592W        W53392   0.147   1.078  44.850 -0.0787  0.2747 -0.1684
44593W        W53393  19.408   4.237  36.307 -0.3010 -0.2659 -0.1882
44594W        W53394   9.331   0.000  15.495 -0.1657  0.3071  0.3993
44595W        W53395  17.894   5.761   5.674  0.4239  0.1612  0.2405
44596W        W53396   7.541   5.691  10.238  0.0178 -0.2331  0.4388
44597W        W53397  13.198   4.559  29.917 -0.0046  0.2778 -0.2278
44598W        W53398   8.438   3.585  43.149 -0.1739 -0.0104 -0.0207
44599W        W53399  13.733   4.958  18.080 -0.2052  0.1522  0.0938
44600W        W53400   6.619   4.916  39.885 -0.0628  0.0549 -0.1106
44601W        W53401  17.997   5.070  15.228 -0.2320 -0.1666 -0.1106
44602W        W53402   1.740   2.522  30.298 -0.1009 -0.0486  0.2165
44603W        W53403  11.244   3.276  12.583  0.1519 -0.1539  0.0622
44604W        W53404  13.468   2.051  40.217 -0.1018 -0.0112 -0.0811
44605W        W53405  16.548   4.550  36.994 -0.0983  0.1674  0.0321
44606W        W53406  12.854   3.815   5.917 -0.1087  0.0711 -0.0511
44607W        W53407  16.743   3.298  35.074 -0.2180 -0.0305  0.1139
44608W        W53408  18.086   5.855   7.222 -0.3133  0.2259  0.3578
44609W        W53409   4.861   1.652  40.910 -0.5559  0.0827  0.2097
44610W        W53410   2.942   2.221  39.158 -0.2804 -0.0323  0.1842
44611W        W53411   2.714   5.878  32.756 -0.0253  0.0607 -0.1059
44612W        W53412   4.221   5.439  30.368 -0.2675 -0.1003 -0.1430
44613W        W53413   0.860   2.232  27.102 -0.1129 -0.0037 -0.1231
44614W        W53414  11.861   1.946  18.520  0.0526  0.1729  0.1110
44615W        W53415  11.464   1.951  41.227  0.3586 -0.1371 -0.0053
44616W        W53416  19.810   1.809  35.871 -0.0187  0.2952  0.1359
44617W        W53417   5.356   1.387  28.821  0.2590  0.0096  0.1669
44618W        W53418  19.713   2.710   0.284  0.0267 -0.0909 -0.0851
44619W        W53419   6.465   4.463  35.341  0.1400 -0.0618 -0.4063
44620W        W53420   8.508   1.875  42.917  0.2199  0.0600 -0.1524
44621W        W53421  14.706   3.278  14.517 -0.3395 -0.0478 -0.1043
44622W        W53422   5.382   0.996   8.132  0.0495 -0.2337  0.2388
44623W        W53423  12.448   5.733   7.596  0.1306  0.0935 -0.0889
44624W        W53424   6.650   4.935   3.058  0.2360 -0.1635 -0.1896
44625W        W53425   4.964   5.982   8.553  0.1677 -0.2547  0.2029
44626W        W53426   3.588   1.396  40.574 -0.1740  0.2044 -0.2166
44627W        W53427  11.849   1.859  39.172 -0.1592 -0.0647  0.2210
44628W        W53428  18.022   3.933  34.806  0.0395  0.2569 -0.2752
44629W        W53429  14.683   3.787  24.108 -0.1386 -0.0328 -0.0184
44630W        W53430   6.336   0.922  31.886 -0.0357  0.1177 -0.1819
44631W        W53431   3.092   2.689  29.019 -0.0353  0.0506 -0.2810
44632W        W53432   3.603   4.923  33.274  0.3440 -0.1403  0.1562
44633W        W53433   1.089   2.943  23.866  0.1245 -0.3150  0.0855
44634W        W53434   5.811   0.810   9.003  0.0913 -0.2005  0.0258
44635W        W53435   5.988   0.423   8.201 -0.0479 -0.2717 -0.0412
44636W        W53436  13.992   1.775  44.688  0.0412 -0.2076  0.0792
44637W        W53437   4.586   6.280  42.792  0.0770 -0.0418 -0.2118
44638W        W53438  16.023   4.182  41.449 -0.1046  0.0656  0.0468
44639W        W53439  11.970   2.356  36.177  0.0139  0.2194 -0.1466
44640W        W53440   5.229   0.105  36.309  0.0901 -0.0447 -0.2097
44641W        W53441  16.134   3.534   8.391 -0.0050 -0.1154  0.1224
44642W        W53442  17.278   2.841  32.322  0.3505 -0.0992 -0.3369
44643W        W53443   3.948   6.603  20.081  0.0784 -0.0860  0.1335
44644W        W53444  15.327   4.222   3.981  0.0926  0.1483  0.1251
44645W        W53445  12.808   6.602  40.953 -0.0503 -0.1071 -0.0058
44646W        W53446   2.250   3.306  31.038 -0.3976  0.0343 -0.1082
44647W        W53447  17.520   6.338   9.918  0.1469  0.0602 -0.0308
44648W        W53448   1.296   4.622  12.001 -0.0394  0.0702 -0.0847
44649W        W53449   7.180   3.611   6.488  0.0941 -0.1441  0.0611
44650W        W53450   6.478   3.084  28.919  0.0153  0.1676  0.0514
44651W        W53451  13.033   4.934  12.681  0.1724  0.0398  0.4613
44652W        W53452   8.918   1.893  40.246  0.1565 -0.5419 -0.1719
44653W        W53453   3.802   2.747   4.905 -0.0097 -0.1657  0.1674
44654W        W53454   7.569   3.083  40.966 -0.2539 -0.2190  0.0660
44655W        W53455   9.413   3.532  40.503 -0.0729 -0.1602 -0.0150
44656W        W53456   1.660   3.699  10.222 -0.3006 -0.2809  0.0368
44657W        W53457  16.625   6.530   3.766 -0.0779 -0.1710  0.2458
44658W        W53458   5.102   5.102  26.269  0.0171  0.0644 -0.0038
44659W        W53459   7.509   0.432  32.804  0.1409  0.0344 -0.0595
44660W        W53460   4.354   2.263   1.541  0.0025 -0.1420  0.1400
44661W        W53461  12.070   1.429   9.058  0.0053  0.2574  0.1121
44662W        W53462   3.505   3.113  44.091 -0.2376  0.1247  0.1245
44663W        W53463   0.932   3.237  41.107  0.1466 -0.0616  0.0925
44664W        W53464   7.925   0.875  37.703  0.1167 -0.1512 -0.0520
44665W        W53465  21.047   0.078  10.698 -0.0042 -0.0546 -0.4368
44666W        W53466   1.442   1.972  37.398 -0.1717 -0.1504 -0.0601
44667W        W53467  16.718   3.860  33.373  0.0980  0.0856 -0.3856
44668W        W53468   1.282   5.198  40.115 -0.0351  0.3534 -0.0238
44669W        W53469  13.866   4.569  15.018 -0.0993 -0.0460 -0.2364
44670W        W53470   8.766   1.206   4.765 -0.2155 -0.4513 -0.1241
44671W        W53471   7.757   5.917  28.290  0.0679  0.2822  0.0984
44672W        W53472  15.511   5.931   4.796 -0.0909  0.3040  0.0014
44673W        W53473   8.002   0.608  24.336  0.1363  0.2624  0.0937
44674W        W53474  20.773   2.062  26.751 -0.0001  0.2521  0.1450
44675W        W53475  21.035   4.512   6.762  0.2397  0.2289  0.0676
44676W        W53476   4.632   5.338   7.396 -0.1069 -0.0894  0.2475
44677W        W53477   4.775   0.854   1.721  0.2136 -0.1140  0.2072
44678W        W53478   1.018   2.161   8.830 -0.0827  0.1895  0.1044
44679W        W53479   3.627   0.488  28.855 -0.0789 -0.0651 -0.2057
44680W        W53480   9.726   6.574  40.043  0.3371  0.2094  0.0965
44681W        W53481  15.894   4.686  38.423 -0.1912 -0.2010  0.2153
44682W        W53482  16.087   1.215   9.786 -0.0946 -0.1334  0.0550
44683W        W53483   7.415   4.831   1.730 -0.2802 -0.2756 -0.0486
44684W        W53484   3.729   2.145   2.267  0.1355  0.3498  0.3036
44685W        W53485   5.406   0.826  28.879 -0.2504  0.2009 -0.2001
44686W        W53486  16.661   2.487   5.400  0.3561 -0.1247  0.0045
44687W        W53487  11.080   5.669   0.913  0.0684 -0.2616  0.1366
44688W        W53488   9.267   5.104   9.445  0.0022  0.0988 -0.1158
44689W        W53489   5.145   4.540   3.877 -0.0194  0.0947  0.1996
44690W        W53490   8.338   5.115  36.493  0.2307  0.1388  0.2743
44691W        W53491  12.099   1.049  18.627  0.3292 -0.0388  0.0136
44692W        W53492  16.570   4.438   6.538 -0.0174 -0.0457  0.1164
44693W        W53493  15.972   2.305  38.956  0.1025  0.4901 -0.1374
44694W        W53494  11.216   0.492  44.033  0.3552  0.1046 -0.4351
44695W        W53495  10.623   6.336   4.566 -0.1704  0.1442  0.0259
44696W        W53496   0.654   0.309  25.194  0.1039  0.0527 -0.0251
44697W        W53497   9.089   5.934  42.030 -0.1293  0.2552 -0.0752
44698W        W53498  18.603   6.250  38.086  0.0133  0.0206 -0.1159
44699W        W53499   8.309   2.199   9.673  0.0728  0.1826 -0.2846
44700W        W53500   9.883   1.278  34.972  0.2699  0.3135  0.0505
44701W        W53501  16.990   6.131  29.756  0.0358 -0.0204 -0.1159
44702W        W53502   2.357   5.243  13.592 -0.0373 -0.0132  0.0302
44703W        W53503  15.141   0.352  42.722 -0.2451 -0.2351 -0.0357
44704W        W53504  17.834   1.858  19.235 -0.1556 -0.3110 -0.1501
44705W        W53505  16.566   0.919  32.692  0.3395  0.0673  0.0180
44706W        W53506  20.907   1.440  32.198  0.0041 -0.0552 -0.2878
44707W        W53507   3.955   6.348   9.582 -0.1463  0.0382 -0.1871
44708W        W53508  10.686   0.538  39.818 -0.0384 -0.0457  0.0881
44709W        W53509   7.393   0.472  11.565 -0.0356  0.1667  0.2883
44710W        W53510  13.862   2.730   3.281 -0.0772 -0.1599  0.2738
44711W        W53511   6.577   0.311  33.688 -0.0601  0.1734 -0.2179
44712W        W53512  20.616   1.879  42.279 -0.3084 -0.1698 -0.1555
44713W        W53513   2.386   2.150  34.361  0.0703  0.1387  0.0217
44714W        W53514   8.927   1.101  10.205  0.2349  0.1116 -0.0087
44715W        W53515   0.539   4.475  32.938 -0.2987 -0.2746 -0.0288
44716W        W53516  18.492   5.046  12.792 -0.1243 -0.0728  0.1359
44717W        W53517   7.858   1.030  28.359 -0.2930 -0.0274 -0.1452
44718W        W53518   5.016   4.437   6.903 -0.0419  0.2039  0.0311
44719W        W53519   4.963   1.481  34.106  0.1958  0.2131  0.0209
44720W        W53520   1.359   1.236   3.107 -0.2023 -0.2000 -0.0160
44721W        W53521  16.700   1.000   6.661 -0.0124 -0.0633 -0.1626
44722W        W53522   2.826   6.244  14.037 -0.1071  0.0548  0.0505
44723W        W53523  10.363   3.975  43.224 -0.0693  0.0192  0.1046
44724W        W53524  11.535   3.116  36.557  0.1041 -0.2364 -0.1398
44725W        W53525   7.938   3.866  42.544 -0.0087  0.1327 -0.3672
44726W        W53526  14.127   4.645   2.217 -0.1901  0.3730 -0.0996
44727W        W53527   8.428   0.761  17.514  0.1274 -0.1702 -0.0048
44728W        W53528   8.301   1.116   2.418  0.0321 -0.2770  0.4266
44729W        W53529   4.531   0.491   2.162  0.0925 -0.0089 -0.0640
44730W        W53530   2.970   5.251  13.251  0.1011 -0.0014  0.0552
44731W        W53531   7.836   0.496  41.617  0.0452 -0.2504 -0.1385
44732W        W53532   9.010   0.551  31.007  0.0086  0.3703 -0.0730
44733W        W53533  14.686   4.003  35.578  0.1217  0.3328  0.0996
44734W        W53534   5.822   2.614  34.597 -0.1731  0.2567 -0.2355
44735W        W53535  13.774   6.115  38.675 -0.0422 -0.1424 -0.1214
44736W        W53536   0.523   1.788  28.136 -0.0377  0.3433  0.1039
44737W        W53537   4.007   2.643  37.200  0.2778  0.3622  0.0447
44738W        W53538   0.282   4.698  16.134 -0.1021 -0.1943  0.1877
44739W        W53539  21.139   3.115  12.835 -0.0278  0.1436 -0.2189
44740W        W53540  15.118   5.290  11.740 -0.0780  0.1857 -0.3724
44741W        W53541   3.663   3.357  33.381  0.0064 -0.0081 -0.1496
44742W        W53542  12.652   0.396  20.652 -0.0874 -0.0068  0.2739
44743W        W53543   1.743   0.797   1.191  0.2888  0.1654  0.0943
44744W        W53544   9.308   2.662  11.423 -0.1032 -0.0260  0.1313
44745W        W53545   2.655   2.083  28.333  0.2821  0.0335 -0.1655
44746W        W53546   7.685   0.705  43.626  0.1413  0.3107 -0.1181
44747W        W53547   3.555   1.419  30.513  0.2569 -0.2918  0.0183
44748W        W53548  19.711   5.195  29.155  0.0664 -0.1203  0.0687
44749W        W53549  19.740   2.857  18.150 -0.0297  0.0931 -0.0274
44750W        W53550   0.364   1.837  12.063 -0.1188 -0.0070  0.0186
44751W        W53551   6.715   2.008  39.123  0.2289  0.0905 -0.0184
44752W        W53552  11.760   1.278  19.155 -0.2192 -0.2226  0.2342
44753W        W53553  16.405   4.137   0.145  0.1450  0.1539 -0.0218
44754W        W53554   2.436   1.342   2.021  0.1130  0.2606  0.0623
44755W        W53555  20.762   6.598  36.057  0.1429 -0.1413 -0.1671
44756W        W53556   8.246   6.541  10.261 -0.4105 -0.2838  0.2439
44757W        W53557  12.988   4.419  12.695 -0.1560  0.1183 -0.0968
44758W        W53558  19.106   4.895  28.865  0.0326  0.3640 -0.0288
44759W        W53559   0.553   5.394  27.521  0.1318 -0.0598  0.0350
44760W        W53560   1.688   2.885  33.631 -0.0026 -0.0519 -0.1902
44761W        W53561   0.783   3.205  26.858  0.0457  0.1927  0.1234
44762W        W53562  14.532   5.085  42.055  0.2006 -0.0404  0.0275
44763W        W53563   5.754   2.603  31.276  0.1891  0.1467 -0.2769
44764W        W53564   6.129   4.127   0.734  0.1317  0.1412  0.2084
44765W        W53565   1.170   6.436   8.213 -0.3269  0.0930 -0.3225
44766W        W53566  10.785   1.257  36.638  0.0370 -0.1558  0.0319
44767W        W53567  11.753   3.708   1.433  0.1586  0.0088 -0.1039
44768W        W53568  15.524   6.164   6.929  0.0941  0.3921  0.0254
44769W        W53569   1.995   1.982  12.694 -0.0127 -0.0423 -0.3254
44770W        W53570  11.676   3.863  29.173 -0.2784 -0.1001  0.0068
44771W        W53571  18.773   0.776  18.853  0.1465  0.0498  0.2494
44772W        W53572   3.409   6.277  15.619 -0.0576 -0.2468  0.0542
44773W        W53573  10.959   0.667  39.000 -0.1798  0.0897 -0.0218
44774W        W53574   8.571   1.279  28.538  0.0289  0.0556 -0.0981
44775W        W53575   1.203   4.218   6.070 -0.1974 -0.2478  0.3442
44776W        W53576  17.421   2.960  31.321  0.2832  0.0280  0.0325
44777W        W53577   7.033   0.943  40.468  0.1043 -0.1429  0.1158
44778W        W53578   2.097   3.246   7.044  0.2808  0.0931 -0.2418
44779W        W53579   9.607   6.289  11.960 -0.0068  0.0602  0.0940
44780W        W53580  17.063   6.185  15.670  0.1092 -0.2409  0.2188
44781W        W53581  15.060   3.287   1.334  0.1091  0.0069 -0.0169
44782W        W53582   4.386   5.011  37.930 -0.2451  0.0447  0.1001
44783W        W53583   7.446   4.871  30.586  0.1693 -0.0937  0.1341
44784W        W53584  11.824   3.723   2.058  0.5025 -0.0477  0.2482
44785W        W53585  17.975   2.211   2.787 -0.1327 -0.1219  0.1197
44786W        W53586  15.322   1.300  37.967  0.2116 -0.1476 -0.2398
44787W        W53587   3.633   4.736  20.840 -0.1777 -0.3757  0.1495
44788W        W53588  20.863   6.566  28.442 -0.0661  0.1241 -0.1698
44789W        W53589  14.831   2.879  32.619  0.2861  0.2579 -0.0903
44790W        W53590   3.660   0.285   0.538  0.0606 -0.0841  0.1601
44791W        W53591  14.012   2.632  17.280  0.3713  0.2543 -0.2893
44792W        W53592  18.822   1.761  13.789 -0.0926  0.1326  0.0544
44793W        W53593   3.642   4.902   6.909  0.0703 -0.2150  0.1036
44794W        W53594  12.371   4.068   0.142 -0.0735 -0.4306 -0.1735
44795W        W53595   8.504   0.868  11.132  0.0687 -0.0699  0.2688
44796W        W53596  12.621   6.329  11.842  0.0216  0.0429  0.3823
44797W        W53597   7.282   3.968  17.206  0.1654  0.2387 -0.2905
44798W        W53598  10.791   5.818  33.472 -0.1471  0.1541  0.2247
44799W        W53599  12.036   4.934  33.052  0.0247 -0.2963  0.0840
44800W        W53600  18.955   3.560  44.271  0.1212  0.1987  0.0595
44801W        W53601   3.415   3.019   6.069 -0.1667 -0.2963  0.1269
44802W        W53602  19.653   5.225  40.496 -0.1466  0.2065 -0.3378
44803W        W53603   2.453   2.504  29.472  0.1686  0.1425  0.1458
44804W        W53604   5.927   0.587  38.682  0.0696  0.1110 -0.1399
44805W        W53605  15.728   6.470  33.955 -0.1544 -0.0836  0.1525
44806W        W53606  17.930   2.555  16.223  0.0859 -0.2370 -0.1738
44807W        W53607  20.644   4.905  32.171  0.0053  0.0628  0.1164
44808W        W53608   2.238   4.372  35.096  0.0845 -0.0784 -0.0180
44809W        W53609   5.175   0.540  25.300 -0.0170  0.2904 -0.0518
44810W        W53610   8.590   6.155  35.254 -0.0697 -0.2720  0.0415
44811W        W53611  16.216   2.598  20.436  0.0297  0.3499 -0.2001
44812W        W53612   4.274   3.636  28.325  0.0120  0.0049 -0.0617
44813W        W53613   6.549   1.425  42.471  0.1137  0.1730 -0.0097
44814W        W53614   0.546   2.449  25.316 -0.1358  0.4497 -0.0809
44815W        W53615  16.619   5.218  33.192  0.1210 -0.0281  0.2443
44816W        W53616   9.318   5.428  15.007  0.0240  0.3964 -0.1320
44817W        W53617   2.775   5.295   3.345  0.3324 -0.2122 -0.1147
44818W        W53618  12.418   2.251  22.251  0.1749 -0.0284 -0.2663
44819W        W53619   0.181   6.524  15.053 -0.2338 -0.0370 -0.0775
44820W        W53620   4.811   6.294  40.512 -0.1416 -0.2121 -0.1388
44821W        W53621  20.842   4.674  30.746 -0.2394  0.3510 -0.0877
44822W        W53622   4.459   0.857  32.417 -0.1086 -0.1128  0.2803
44823W        W53623  13.951   4.740  30.471 -0.2238  0.0778 -0.2327
44824W        W53624  12.535   1.867  42.682 -0.1747  0.0869  0.1897
44825W        W53625  20.884   6.201   0.912 -0.2652  0.1413  0.0044
44826W        W53626   9.126   6.189   7.021 -0.1120  0.0507  0.0598
44827W        W53627  14.735   4.363  36.908  0.0145 -0.1976 -0.1167
44828W        W53628   5.758   2.775   9.292  0.0516 -0.2784 -0.1968
44829W        W53629  16.281   5.081  13.635  0.0595  0.1981  0.1262
44830W        W53630   0.074   5.118  11.385 -0.0932  0.1870  0.0563
44831W        W53631  11.127   1.393  39.384 -0.0847  0.0767 -0.3209
44832W        W53632  11.991   3.720  40.993 -0.0293  0.0478 -0.0428
44833W        W53633   0.426   4.339  43.516  0.0478 -0.1069 -0.2336
44834W        W53634   7.991   0.462   9.521  0.1374  0.3404 -0.1394
44835W        W53635  11.793   2.085  36.554  0.1820  0.0834  0.2817
44836W        W53636  18.216   2.955  33.189  0.1886 -0.0385  0.0302
44837W        W53637   4.599   3.016  33.040 -0.1361  0.1610 -0.0158
44838W        W53638   2.016   3.619  39.075  0.1091 -0.2103  0.0417
44839W        W53639  15.123   4.429  30.457  0.2326 -0.1200  0.0876
44840W        W53640  17.848   6.045   2.823  0.2684  0.1434 -0.0597
44841W        W53641   0.297   3.517  38.471 -0.0832 -0.1181 -0.0780
44842W        W53642   5.479   1.149  37.276 -0.2389  0.2027  0.0151
44843W        W53643  13.692   6.059  14.064 -0.3131  0.0406  0.1167
44844W        W53644   1.598   4.193   3.472  0.0626 -0.0835  0.1065
44845W        W53645  19.344   2.450  11.769 -0.1442 -0.0915 -0.1969
44846W        W53646  14.917   1.497  12.286  0.3162  0.1769  0.0716
44847W        W53647  12.573   0.626  34.822 -0.1085  0.1635  0.0722
44848W        W53648  14.188   6.280  16.056 -0.0774  0.0432 -0.0632
44849W        W53649   2.426   2.669   1.714 -0.2861 -0.1179 -0.2806
44850W        W53650  20.436   0.550  31.907 -0.1528 -0.0418 -0.0338
44851W        W53651  16.612   0.068   3.218  0.1905  0.1497 -0.2869
44852W        W53652   7.778   5.875  31.994  0.1184  0.2027 -0.0512
44853W        W53653   3.080   0.533  34.934 -0.2616  0.0644  0.1710
44854W        W53654   3.077   0.190   1.801  0.2058 -0.0042 -0.2767
44855W        W53655  19.820   0.112  25.940  0.2376  0.0446  0.1509
44856W        W53656   8.823   5.019  12.016 -0.0089 -0.0330 -0.2147
44857W        W53657  18.633   1.906  38.221  0.1495 -0.0565 -0.1010
44858W        W53658  16.423   3.887   6.569  0.0402  0.0610 -0.0525
44859W        W53659  12.910   2.335  36.071 -0.4460 -0.0838  0.2152
44860W        W53660  20.292   4.617  26.004 -0.0116  0.0604 -0.0571
44861W        W53661   9.502   2.579   3.288  0.0415 -0.2175  0.1206
44862W        W53662  19.507   0.384   8.267 -0.0580 -0.1151  0.0215
44863W        W53663  18.523   3.674  32.774 -0.0396 -0.0527  0.1261
44864W        W53664   3.074   4.263  31.065 -0.4359  0.1436  0.0490
44865W        W53665  14.683   5.078  35.380 -0.2783 -0.2660 -0.1577
44866W        W53666  14.495   2.977  35.265 -0.0743  0.2090 -0.2447
44867W        W53667   7.824   3.897   2.913  0.0808  0.2018  0.0849
44868W        W53668  20.912   0.411  30.621  0.6828  0.1378 -0.0051
44869W        W53669   0.728   0.446  37.564  0.0877 -0.0453  0.0934
44870W        W53670  16.234   3.213  44.937 -0.1143  0.0941  0.2520
44871W        W53671  17.122   0.057  15.639  0.1165  0.1578  0.1714
44872W        W53672  12.039   6.449  10.636  0.2276  0.0537  0.1043
44873W        W53673   9.571   3.509  41.649 -0.0276 -0.1524  0.0690
44874W        W53674   7.801   0.312   0.698  0.0363 -0.1065 -0.0484
44875W        W53675  10.659   4.402   5.089  0.2026 -0.1838  0.1661
44876W        W53676  14.187   1.309  31.638 -0.1685 -0.1656 -0.1290
44877W        W53677   3.943   0.309  25.688 -0.0396 -0.1956 -0.0535
44878W        W53678   7.820   4.850  26.358  0.1160  0.3723 -0.2232
44879W        W53679   8.416   3.762  38.927  0.0891  0.0674  0.0467
44880W        W53680  18.654   4.660   9.806 -0.1244  0.1454  0.2024
44881W        W53681   6.820   4.430  31.036 -0.0702 -0.0578 -0.0350
44882W        W53682  16.978   6.335  41.444 -0.3187  0.0624  0.0920
44883W        W53683   7.121   5.763   2.827  0.0022 -0.0760  0.1050
44884W        W53684  10.771   2.956  38.314 -0.1873 -0.0009  0.0598
44885W        W53685   0.161   0.716  28.729  0.2633 -0.2627 -0.1425
44886W        W53686  15.570   5.057   4.672 -0.3390 -0.1290 -0.0866
44887W        W53687   2.739   2.933  14.735 -0.1620 -0.1177 -0.0052
44888W        W53688   4.347   0.919  14.382  0.0337 -0.1672 -0.1166
44889W        W53689  16.882   5.838  39.148 -0.1752 -0.3227  0.2640
44890W        W53690  18.657   3.083   6.062  0.0280 -0.1454 -0.0493
44891W        W53691  10.387   1.168  13.216  0.0967 -0.1202  0.1633
44892W        W53692   8.749   1.114  38.255 -0.2137  0.1926 -0.2643
44893W        W53693   1.090   3.376  25.481  0.1188  0.4606  0.1467
44894W        W53694  15.766   5.398  19.850  0.2463  0.0875 -0.5329
44895W        W53695  15.064   5.262  29.933  0.1097  0.1641 -0.5096
44896W        W53696   0.059   4.553   0.982 -0.0089 -0.0404 -0.1582
44897W        W53697  13.355   4.056  22.065 -0.0399  0.2168  0.1425
44898W        W53698   7.629   5.257  31.930  0.2792  0.1337 -0.2253
44899W        W53699   5.661   4.351  30.144 -0.0069 -0.1928  0.0075
44900W        W53700  20.261   3.796   2.177 -0.1210  0.0878  0.0651
44901W        W53701   3.399   0.195   7.103 -0.0030  0.0281  0.1769
44902W        W53702  13.258   3.221  31.511 -0.0041 -0.0302 -0.2737
44903W        W53703  10.924   6.133  32.540 -0.0164 -0.0186  0.1495
44904W        W53704  17.206   1.426  38.121 -0.0496 -0.0763  0.4543
44905W        W53705  20.390   1.590  16.898 -0.1467  0.1358 -0.1934
44906W        W53706  14.179   2.902  10.166 -0.0887  0.1738 -0.1185
44907W        W53707   0.836   4.330   9.691 -0.0752 -0.0602  0.2730
44908W        W53708   2.385   3.332  40.861  0.1313  0.1519  0.1378
44909W        W53709   0.171   4.877   4.231  0.0854  0.1800 -0.1489
44910W        W53710   3.071   4.679  41.729  0.1327 -0.2842 -0.0569
44911W        W53711  21.027   6.446   4.966 -0.0502 -0.1408 -0.1175
44912W        W53712   8.948   4.491  12.608 -0.2144  0.1584 -0.3045
44913W        W53713   1.268   4.027  30.332 -0.5330 -0.1152  0.0937
44914W        W53714   1.836   1.755  31.724 -0.1461 -0.0686  0.1367
44915W        W53715   9.635   4.582   3.577 -0.2431 -0.1365 -0.0387
44916W        W53716   5.069   5.540  30.216  0.0073 -0.0497  0.3429
44917W        W53717  18.907   5.475  18.043 -0.0104  0.2094 -0.1674
44918W        W53718   6.578   5.732  15.299 -0.0375 -0.0187  0.4708
44919W        W53719  11.840   1.143  12.019 -0.0735  0.0652 -0.2178
44920W        W53720  16.124   5.739  16.397  0.3484  0.0843 -0.1495
44921W        W53721   3.432   0.220   2.697 -0.1903  0.3869  0.0185
44922W        W53722  19.026   6.376  13.268 -0.1388  0.1537  0.3720
44923W        W53723   5.154   1.511  35.820 -0.2115 -0.2019  0.1785
44924W        W53724  10.357   3.661  13.100 -0.0243 -0.1157 -0.0853
44925W        W53725   5.564   5.273  35.266 -0.2376  0.1530  0.0064
44926W        W53726   4.748   5.129  10.245  0.0555 -0.0425 -0.3151
44927W        W53727  16.882   2.914  35.680 -0.1969 -0.0511  0.0232
44928W        W53728  14.599   0.742  20.136 -0.0078  0.0678 -0.2470
44929W        W53729  15.650   6.603   9.213 -0.0436 -0.1686 -0.0513
44930W        W53730  11.720   6.463  17.787  0.1077 -0.1063 -0.1698
44931W        W53731  15.783   6.420  40.421  0.0119 -0.4701 -0.2785
44932W        W53732   6.954   4.514   5.194 -0.1274  0.1473  0.1376
44933W        W53733   7.044   1.578  13.561  0.0389  0.0666 -0.0640
44934W        W53734   5.373   2.898   8.961  0.0626  0.0601 -0.0271
44935W        W53735   2.865   0.372  23.780 -0.0591 -0.1390  0.0945
44936W        W53736  11.376   4.465  41.909  0.1212 -0.0527 -0.2281
44937W        W53737  16.470   5.832  34.525 -0.3257  0.2441 -0.1035
44938W        W53738   2.398   6.274  21.967 -0.0611  0.1675  0.5987
44939W        W53739   9.096   1.982  31.723 -0.0579  0.1404  0.0638
44940W        W53740  18.661   5.211  17.592 -0.0340  0.2008 -0.4387
44941W        W53741   6.539   1.166  36.111  0.2217  0.1961 -0.2425
44942W        W53742  13.757   0.893  22.640 -0.1664 -0.2067  0.2106
44943W        W53743   8.555   1.993  31.884 -0.1324  0.2237  0.0640
44944W        W53744  13.722   3.323  10.891 -0.1568  0.1419 -0.1817
44945W        W53745   6.436   2.431  30.249  0.1107  0.2332 -0.2364
44946W        W53746  19.196   0.753  16.147 -0.0580  0.2586 -0.1068
44947W        W53747  17.983   4.023  38.246  0.2755  0.2213 -0.1415
44948W        W53748   5.135   2.580  32.534 -0.1592  0.1988  0.3129
44949W        W53749   7.030   4.404  36.085  0.3530  0.0469  0.3542
44950W        W53750   3.315   5.326   2.719 -0.1910  0.1226  0.3679
44951W        W53751   5.353   6.040   4.491 -0.0126 -0.1863 -0.1850
44952W        W53752   1.391   0.621  25.707 -0.0388 -0.0080  0.2122
44953W        W53753   3.615   2.856   9.405  0.0308  0.1690  0.3105
44954W        W53754  13.380   4.761  32.725 -0.0492  0.0909 -0.1611
44955W        W53755   3.464   5.537  11.505  0.0615  0.2268  0.0050
44956W        W53756  16.855   1.667  11.450 -0.0410 -0.0823 -0.0214
44957W        W53757  20.422   3.683  15.154 -0.1081  0.0219 -0.0042
44958W        W53758  20.333   5.125  34.063 -0.0401  0.1527  0.1503
44959W        W53759  17.886   5.743  11.356 -0.2018 -0.2296 -0.2623
44960W        W53760  15.841   6.305  31.211  0.1491  0.2062  0.1003
44961W        W53761  14.435   2.845  12.245  0.1657  0.0808  0.4276
44962W        W53762   2.875   4.736  36.736  0.1215 -0.0211  0.0571
44963W        W53763   3.841   3.536  38.206 -0.0104 -0.2536 -0.1431
44964W        W53764   3.207   1.132  11.676  0.2104 -0.1702  0.2270
44965W        W53765  12.457   0.636   7.277  0.1820  0.1511 -0.1396
44966W        W53766   0.712   3.349   7.611 -0.0071 -0.3184 -0.2941
44967W        W53767  17.691   2.000  17.767 -0.1109 -0.1578 -0.2652
44968W        W53768  16.582   4.251  21.288  0.4863 -0.0840  0.0261
44969W        W53769  10.396   2.161  41.262  0.0563 -0.2063 -0.1090
44970W        W53770   6.204   6.101   0.630 -0.1587  0.3210 -0.0945
44971W        W53771   6.491   2.469  25.598 -0.0752  0.1445  0.1721
44972W        W53772  17.712   4.355   8.183 -0.0077 -0.2753  0.0262
44973W        W53773   7.408   5.632  25.318  0.1254  0.2433  0.2047
44974W        W53774   9.819   6.579  31.172  0.1910  0.1234  0.0398
44975W        W53775  14.262   2.626  16.507 -0.1204  0.0445  0.2947
44976W        W53776   6.937   0.794  25.435 -0.1944  0.0512 -0.0205
44977W        W53777  16.772   1.421  20.627 -0.1440  0.0254 -0.0518
44978W        W53778  14.511   5.722  19.588  0.0555 -0.0448 -0.0697
44979W        W53779   7.046   1.669  26.464  0.1067 -0.1278 -0.0176
44980W        W53780  12.567   4.264  32.875 -0.0505  0.1538  0.2155
44981W        W53781  10.739   1.524   8.904  0.0559 -0.1400 -0.0171
44982W        W53782  15.304   0.660  38.752 -0.2544 -0.0794 -0.1392
44983W        W53783  12.318   4.936  42.283 -0.1204 -0.0146 -0.0126
44984W        W53784   8.358   2.020  33.112  0.0628  0.1155  0.0891
44985W        W53785   0.748   1.622   9.438 -0.0223 -0.1341 -0.0216
44986W        W53786  11.997   0.424  19.073 -0.2435  0.1714  0.4361
44987W        W53787  11.422   5.680   3.077  0.0021 -0.3031  0.3215
44988W        W53788   6.871   2.348  15.157 -0.2020  0.2859 -0.0443
44989W        W53789  14.417   0.237   2.934 -0.0071  0.0333 -0.2907
44990W        W53790   9.948   2.138  31.788  0.0497  0.4548  0.2085
44991W        W53791   3.532   3.056  24.290  0.2240 -0.1995 -0.0583
44992W        W53792  20.338   5.307  31.936 -0.1759 -0.2715  0.1873
44993W        W53793   7.555   0.661   0.858 -0.0723  0.2122 -0.1724
44994W        W53794  11.462   5.514  39.202 -0.3618 -0.4161  0.0954
44995W        W53795   6.030   4.555  26.224  0.0170 -0.0386 -0.2126
44996W        W53796  12.894   1.281  20.404 -0.1494  0.0482  0.0500
44997W        W53797  10.217   1.425  14.111 -0.2909 -0.0935 -0.0310
44998W        W53798   5.899   5.086  26.263  0.2331 -0.2370 -0.0422
44999W        W53799   4.818   4.435  39.531 -0.3657 -0.0737 -0.0853
45000W        W53800  15.288   4.822  22.347  0.2364  0.1601  0.2180
45001W        W53801   9.332   2.951  33.284  0.4032  0.1594 -0.0935
45002W        W53802   2.673   5.073  44.788  0.3003 -0.1189  0.0027
45003W        W53803  20.331   5.236  17.051  0.1617 -0.0952  0.0731
45004W        W53804  16.224   6.601   5.314 -0.0689  0.0518  0.1310
45005W        W53805  11.943   6.289  18.212 -0.2290  0.0272 -0.0763
45006W        W53806   7.564   1.366  36.943  0.1028  0.2776 -0.1999
45007W        W53807  12.917   3.407  41.821 -0.0806  0.1126  0.2426
45008W        W53808  11.479   6.288  38.745 -0.1539 -0.3036 -0.0325
45009W        W53809   1.955   4.972  36.203 -0.1290  0.1597  0.2626
45010W        W53810   7.873   6.153  30.133 -0.1260 -0.1638  0.0368
45011W        W53811   9.018   4.460   7.529 -0.2252  0.0346  0.0739
45012W        W53812  16.969   4.132   3.321  0.6165 -0.0049  0.2775
45013W        W53813   1.752   4.171  27.306 -0.0469  0.1045 -0.2748
45014W        W53814   2.224   2.200  26.535  0.0106 -0.1397  0.0523
45015W        W53815  11.693   1.372   5.571 -0.3768 -0.0119 -0.3161
45016W        W53816  14.947   3.337   9.842  0.1021 -0.1756 -0.1506
45017W        W53817  11.309   4.031  10.520  0.0039  0.2806 -0.0655
45018W        W53818  20.336   2.989  37.515  0.1102  0.0640 -0.0947
45019W        W53819  18.493   6.466  40.126 -0.1440  0.3195  0.0332
45020W        W53820   4.216   4.475  20.379  0.0313 -0.1798  0.1469
45021W        W53821   8.233   1.362   1.695  0.0168 -0.3628 -0.2073
45022W        W53822   3.237   5.826  28.877  0.0770  0.2970 -0.3164
45023W        W53823  12.145   4.598   0.942 -0.0933 -0.0769  0.3613
45024W        W53824   0.652   4.355  36.234  0.0504  0.0616 -0.1044
45025W        W53825   9.878   0.795  18.999  0.0332  0.0023 -0.3849
45026W        W53826   3.879   2.626  31.474 -0.2049 -0.2422  0.3226
45027W        W53827  10.569   2.970  30.883  0.1712 -0.0227  0.0235
45028W        W53828   7.139   1.272  42.722  0.0446 -0.0039 -0.2706
45029W        W53829  11.165   3.008  39.412  0.0914  0.2017  0.0415
45030W        W53830  17.044   1.506  30.032 -0.1880 -0.0270  0.0447
45031W        W53831  13.900   0.772  14.403 -0.0147 -0.4048  0.2903
45032W        W53832  14.957   3.079  14.067 -0.0652  0.3139  0.0541
45033W        W53833  18.203   2.670  18.524  0.5316 -0.0437  0.0834
45034W        W53834  16.482   0.849  39.937  0.1301 -0.1525  0.2910
45035W        W53835   2.945   1.619  14.198  0.2212  0.2419  0.0565
45036W        W53836  13.247   0.544   8.815  0.1450  0.1574  0.1126
45037W        W53837   6.573   2.158   9.021  0.0181 -0.0792 -0.0020
45038W        W53838   6.238   0.238  23.958  0.3831  0.0980  0.1711
45039W        W53839  19.044   2.058  28.923  0.0900  0.0248  0.1309
45040W        W53840  17.711   0.297  10.645  0.3560  0.1040  0.2272
45041W        W53841  17.148   3.097  10.427 -0.1458 -0.2066 -0.2879
45042W        W53842  19.080   6.216  39.401 -0.0963 -0.2540  0.2260
45043W        W53843   9.023   1.646  42.559 -0.0715  0.3729  0.1997
45044W        W53844  18.394   2.419   8.999  0.0300  0.0448  0.0406
45045W        W53845   5.225   5.192  44.628  0.1720 -0.0245 -0.0654
45046W        W53846  20.413   3.212  14.588 -0.3647  0.0133 -0.0490
45047W        W53847   2.740   3.533   1.642 -0.0588  0.0029 -0.1762
45048W        W53848  16.258   0.925  34.689 -0.2981 -0.1348  0.2809
45049W        W53849   3.901   5.407  27.532  0.1333 -0.0101  0.0983
45050W        W53850  11.903   0.628  41.713 -0.1594  0.4144  0.0467
45051W        W53851   1.869   4.337   9.526  0.1350  0.3729  0.2884
45052W        W53852  17.375   2.573  17.513 -0.1122 -0.1404 -0.0009
45053W        W53853   8.059   5.977  13.668 -0.1540 -0.0903  0.3607
45054W        W53854  17.820   5.115  32.380  0.0641  0.2965  0.3746
45055W        W53855  17.280   0.743  34.024  0.1068 -0.0612 -0.1634
45056W        W53856   5.633   4.767  14.617  0.0168  0.3028  0.2014
45057W        W53857  13.189   3.513  19.098  0.0322 -0.0078 -0.0446
45058W        W53858  17.762   0.176  14.656 -0.0042  0.2206 -0.0335
45059W        W53859   2.403   5.993  36.586 -0.0211  0.0406  0.0967
45060W        W53860  13.994   6.234  32.321  0.0931  0.0264  0.0771
45061W        W53861  11.292   5.124  34.057 -0.1841 -0.2163 -0.3115
45062W        W53862   5.321   4.892  23.754 -0.0917 -0.1052 -0.0387
45063W        W53863   3.785   4.392  43.204 -0.0767 -0.0720 -0.0564
45064W        W53864   5.176   2.079  14.723 -0.0273 -0.2511 -0.1252
45065W        W53865   1.148   6.248   1.933 -0.0706 -0.1946  0.0607
45066W        W53866  15.387   0.254  18.749 -0.1233 -0.1216  0.1671
45067W        W53867  11.532   5.260  41.706  0.1837  0.0066 -0.2300
45068W        W53868  19.268   4.741  30.882  0.0643 -0.0786  0.0986
45069W        W53869   4.666   1.093  27.940  0.0171 -0.3212 -0.0753
45070W        W53870   0.213   3.222  26.085  0.2700  0.0302  0.3104
45071W        W53871  16.412   3.655   4.174 -0.1492  0.1071  0.0553
45072W        W53872   1.915   3.850  36.114  0.1373  0.0170  0.1758
45073W        W53873   2.423   1.480   3.536  0.3038  0.1399 -0.2702
45074W        W53874  19.475   6.431   5.328  0.1760 -0.0907 -0.0326
45075W        W53875   4.523   6.057  14.021  0.0339  0.0344  0.0570
45076W        W53876  17.573   6.386  34.029  0.2132 -0.1497 -0.2399
45077W        W53877   9.327   4.681   0.415  0.2069  0.0332  0.1892
45078W        W53878  20.993   4.384  44.295  0.1433  0.2003 -0.0605
45079W        W53879   6.241   5.422  34.509 -0.1086 -0.0450  0.0435
45080W        W53880  12.058   3.857  12.623 -0.0143  0.0101  0.1540
45081W        W53881  21.042   0.713   3.432 -0.1647  0.0098 -0.0432
45082W        W53882  20.097   2.304   7.901 -0.1804 -0.0969 -0.1880
45083W        W53883  14.706   2.489   1.239 -0.0789  0.2008  0.0006
45084W        W53884  14.169   5.054  30.101  0.0187 -0.0219 -0.1324
45085W        W53885   6.941   5.156   9.767 -0.1636  0.0693 -0.2199
45086W        W53886  15.100   0.438  41.105 -0.0831 -0.0825  0.0816
45087W        W53887   8.712   3.603  14.911  0.0980 -0.2214 -0.3269
45088W        W53888   2.280   4.653  34.183  0.0335 -0.4062 -0.1049
45089W        W53889  18.298   5.786   0.173 -0.1486  0.1423 -0.1679
45090W        W53890  12.616   6.315   6.893 -0.0967 -0.0013  0.0650
45091W        W53891   7.859   1.291  31.939  0.1227  0.2535  0.0626
45092W        W53892   4.850   6.073   4.114  0.1140  0.1211 -0.3384
45093W        W53893   6.134   3.372  39.021 -0.0626 -0.1168  0.0343
45094W        W53894  12.146   6.252  20.918  0.1699  0.2020 -0.1899
45095W        W53895   3.933   0.222  14.158 -0.0348 -0.2903 -0.1732
45096W        W53896   1.875   2.947  14.560  0.0845  0.0486 -0.1421
45097W        W53897  15.174   0.938  33.771  0.2611  0.1535  0.0368
45098W        W53898   9.020   2.493   7.602 -0.0517  0.1015  0.2648
45099W        W53899  17.822   0.684   1.437  0.0591 -0.0477  0.1257
45100W        W53900  18.366   3.856  31.950 -0.2356  0.2678 -0.0912
45101W        W53901   7.315   3.653   8.430 -0.0437 -0.1029 -0.0196
45102W        W53902   8.144   1.127  16.203 -0.2525 -0.0842  0.0297
45103W        W53903   9.629   4.223  26.981  0.4970 -0.1016 -0.0183
45104W        W53904   2.388   0.071  41.130  0.2392 -0.1509  0.0608
45105W        W53905   4.619   1.917  22.758  0.0965 -0.1940  0.0416
45106W        W53906  15.537   4.319  17.081 -0.3050 -0.0919 -0.3363
45107W        W53907   3.678   5.777   6.472  0.0266  0.1906  0.1661
45108W        W53908   8.876   2.001  28.065 -0.1206 -0.3047  0.1094
45109W        W53909   1.921   1.514  34.085 -0.1057 -0.1769 -0.1239
45110W        W53910  15.702   1.849  41.903  0.0863 -0.1022  0.5991
45111W        W53911   5.127   6.012  44.879  0.0827  0.1117 -0.0682
45112W        W53912   0.283   2.471  41.462 -0.1167  0.0722  0.0613
45113W        W53913   3.221   5.837   3.641  0.2277 -0.0847 -0.4599
45114W        W53914  12.665   4.789   0.793 -0.2410  0.1935  0.1139
45115W        W53915  11.221   5.582  34.384 -0.1027 -0.1334  0.0496
45116W        W53916  20.994   2.319  15.844 -0.0472  0.0464  0.0997
45117W        W53917  13.544   6.328   5.805  0.1860 -0.0651 -0.1710
45118W        W53918  19.978   1.983  35.394  0.1128 -0.1280  0.3300
45119W        W53919  17.878   0.126  39.703  0.0242 -0.1895 -0.1280
45120W        W53920  16.560   4.190  44.822 -0.1957 -0.0978  0.2302
45121W        W53921  18.972   1.790  40.596  0.0014  0.2893 -0.1547
45122W        W53922  14.646   2.281   4.960  0.2851  0.1508 -0.1411
45123W        W53923   0.138   6.223  32.992 -0.1080 -0.0513  0.3376
45124W        W53924  13.372   0.575  24.728 -0.1338 -0.0280 -0.1651
45125W        W53925   3.940   1.638  19.971  0.0213  0.0515  0.1638
45126W        W53926   6.542   2.878   7.724 -0.4924  0.1184 -0.0488
45127W        W53927  11.582   0.056  17.104 -0.0276 -0.0563  0.0174
45128W        W53928  18.747   4.210   9.580  0.0385 -0.1672  0.1420
45129W        W53929  20.466   1.590  39.297  0.3210 -0.0025 -0.1961
45130W        W53930  17.265   0.511  15.706  0.1657 -0.0688 -0.3082
45131W        W53931   0.238   1.903  30.965 -0.0230  0.0786 -0.0031
45132W        W53932  10.263   3.765  17.691 -0.0271  0.1289 -0.0098
45133W        W53933   1.382   4.463   6.465 -0.0971  0.0388  0.2570
45134W        W53934  10.759   0.318  16.980  0.1816  0.0373  0.2473
45135W        W53935   8.076   1.047  35.672 -0.1207  0.2314  0.1616
45136W        W53936   4.916   4.309  38.634  0.0225  0.0626 -0.0927
45137W        W53937  19.852   5.810  43.243  0.0101 -0.0221  0.1070
45138W        W53938  16.906   6.160  40.744 -0.1786 -0.0303 -0.1085
45139W        W53939  14.606   3.672  25.929  0.0421 -0.0124 -0.0229
45140W        W53940  18.707   5.509  11.994  0.0854  0.2991 -0.2119
45141W        W53941  14.687   3.549  31.185 -0.0857 -0.0782  0.2054
45142W        W53942   2.109   4.566  12.353 -0.0362  0.2266  0.1088
45143W        W53943  12.533   1.335  18.471 -0.0609 -0.1669 -0.2299
45144W        W53944   8.225   1.449  39.093 -0.1841 -0.4299  0.1924
45145W        W53945  12.773   4.743  44.951 -0.0861  0.2630  0.1383
45146W        W53946   4.277   6.295  30.382 -0.0218  0.0061  0.0397
45147W        W53947  13.104   2.880  29.421  0.2909  0.0054 -0.0448
45148W        W53948   7.287   0.555  41.624  0.0679  0.1899 -0.0735
45149W        W53949   0.044   3.513   1.362  0.1892  0.1719  0.1921
45150W        W53950   0.653   1.738  29.843  0.5907  0.2361 -0.0467
45151W        W53951  19.331   3.323  12.135  0.1258  0.1465 -0.1092
45152W        W53952   4.809   3.369   7.532  0.0526  0.0016  0.1284
45153W        W53953   3.718   0.663  23.995 -0.0313  0.0172 -0.0270
45154W        W53954   2.313   1.712  12.383  0.0903 -0.0376  0.0848
45155W        W53955   9.632   6.544  38.977 -0.1346  0.0191 -0.2600
45156W        W53956   9.012   2.806   9.756 -0.2365 -0.3174  0.0073
45157W        W53957  20.918   1.597  40.522 -0.2010 -0.0488 -0.0132
45158W        W53958   1.455   0.793  26.529  0.1711  0.3717 -0.1061
45159W        W53959  12.343   2.788  32.931 -0.0676 -0.0504  0.2713
45160W        W53960   0.662   3.409   9.508 -0.1903  0.1151 -0.0389
45161W        W53961   9.833   3.523  26.304  0.2487 -0.0623 -0.4008
45162W        W53962   3.062   0.914  11.091 -0.0798 -0.2558 -0.1547
45163W        W53963  18.092   6.264  28.511  0.2061  0.0391 -0.0081
45164W        W53964   2.147   3.777  42.364 -0.1465  0.0306  0.0991
45165W        W53965   8.949   3.105  36.234  0.0474 -0.0421 -0.3622
45166W        W53966   8.098   2.983   4.286  0.1669  0.0433 -0.0379
45167W        W53967   2.387   0.060  35.470 -0.0010  0.4440 -0.3069
45168W        W53968  10.445   5.087  19.321  0.1242 -0.1565  0.1827
45169W        W53969   7.774   1.334   9.010  0.1434  0.1359 -0.1323
45170W        W53970   0.242   4.566   6.040 -0.2499  0.0370 -0.0425
45171W        W53971  19.212   3.779  33.460 -0.3644 -0.0686  0.1333
45172W        W53972   3.828   2.571  23.201  0.3085 -0.1917 -0.0114
45173W        W53973  18.658   1.042  30.546  0.0011  0.5689 -0.1146
45174W        W53974   9.104   2.517  42.393 -0.1298  0.3124 -0.0276
45175W        W53975  14.115   3.153   9.275 -0.0602 -0.1445 -0.0227
45176W        W53976   0.892   4.682  35.310  0.1451 -0.3023 -0.1773
45177W        W53977  17.903   2.350  10.387  0.1644 -0.4403  0.0745
45178W        W53978  10.402   0.818  33.844  0.1138 -0.3647  0.0666
45179W        W53979  14.354   0.094  21.628  0.2154  0.0621  0.0225
45180W        W53980  19.536   4.756  39.712 -0.4727  0.1027 -0.0263
45181W        W53981   3.167   3.967  26.417 -0.3549 -0.1849  0.1717
45182W        W53982  20.253   1.642   7.167 -0.1752  0.0672 -0.0299
45183W        W53983  16.823   4.040   6.213 -0.2615 -0.2145 -0.1566
45184W        W53984   9.960   0.649  28.511 -0.0940  0.1027  0.0911
45185W        W53985   7.474   3.847   0.817 -0.1276  0.2786 -0.1268
45186W        W53986  17.359   3.677  41.947  0.2007 -0.3055  0.3292
45187W        W53987   7.633   0.695   6.293  0.0313 -0.1492  0.2396
45188W        W53988  10.945   0.773  32.153  0.1840  0.1535 -0.0023
45189W        W53989   8.306   3.476  12.642  0.2034 -0.5014 -0.1176
45190W        W53990   1.299   3.468   7.969  0.1423 -0.0266  0.3833
45191W        W53991  10.228   3.727  40.369  0.0726  0.1880 -0.2879
45192W        W53992   4.070   5.794   5.495 -0.0829 -0.3474  0.1085
45193W        W53993  12.123   4.025  17.377 -0.3603 -0.1244 -0.3437
45194W        W53994  15.808   3.514  45.130  0.0576  0.0276 -0.0578
45195W        W53995  15.924   6.205   0.390  0.1718 -0.0792  0.1666
45196W        W53996   2.844   4.078  39.113  0.0783 -0.0428 -0.2236
45197W        W53997  13.706   0.022  32.031  0.1245  0.0638 -0.1026
45198W        W53998   1.557   6.259  11.301  0.0185 -0.2316  0.1868
45199W        W53999   8.227   1.077  31.705  0.0235 -0.0213 -0.1559
45200W        W54000  18.678   2.550  33.734 -0.2178 -0.2121  0.1729
45201W        W54001   6.398   2.113  36.706 -0.0933  0.0395 -0.1377
45202W        W54002  12.325   2.384  40.550 -0.1944  0.1937 -0.0489
45203W        W54003  16.968   1.003  45.147 -0.0589 -0.2053 -0.0138
45204W        W54004   8.706   1.246  10.681 -0.1409 -0.1156  0.2379
45205W        W54005   6.984   0.351  42.994  0.0008 -0.2871 -0.0295
45206W        W54006   4.397   3.069  11.134  0.0948  0.3735  0.1015
45207W        W54007   0.617   4.299  39.812  0.0264  0.0572  0.0740
45208W        W54008   8.993   6.389  38.999  0.2248  0.0139 -0.2812
45209W        W54009  13.452   2.211  41.434 -0.0412 -0.0647 -0.1480
45210W        W54010  11.425   4.756   3.225  0.0069 -0.1656 -0.0405
45211W        W54011   5.392   1.486   7.373 -0.0676 -0.0732 -0.2080
45212W        W54012  11.770   6.286  35.523 -0.0677 -0.0115  0.2096
45213W        W54013   9.586   0.031  40.874  0.0325  0.2518  0.0318
45214W        W54014   4.727   1.424  37.940 -0.1150 -0.2001 -0.2627
45215W        W54015   3.609   1.137   9.340  0.2265 -0.1117  0.0642
45216W        W54016  19.145   0.987  28.926 -0.0815  0.0572 -0.0023
45217W        W54017   2.172   6.374   0.966  0.3242 -0.0133 -0.2660
45218W        W54018  12.664   1.865  39.356 -0.2631 -0.1056  0.0877
45219W        W54019   6.806   5.099   7.603 -0.0123 -0.1768 -0.3215
45220W        W54020  17.522   1.022   8.840 -0.1363 -0.2004  0.1226
45221W        W54021  15.341   3.756  22.355 -0.0642 -0.1461  0.1525
45222W        W54022   4.554   5.029   4.818 -0.2780 -0.1243 -0.1104
45223W        W54023   3.407   4.918  10.226 -0.1918 -0.2975 -0.1248
45224W        W54024   9.357   5.536  31.219  0.2274 -0.0677  0.1281
45225W        W54025   6.001   3.146  16.521 -0.0094  0.3330 -0.1518
45226W        W54026  12.178   5.300  37.415 -0.0139  0.0382 -0.1482
45227W        W54027  20.089   0.291  29.527 -0.0627 -0.0994  0.0187
45228W        W54028   6.286   4.057   7.490 -0.0099  0.2818  0.1099
45229W        W54029   2.123   0.123  27.308  0.1400 -0.0573 -0.2455
45230W        W54030  10.186   4.551  14.652 -0.0912  0.1557 -0.1337
45231W        W54031  16.824   4.534  19.287  0.2281  0.3515 -0.0708
45232W        W54032   2.799   3.049  41.519 -0.1063 -0.0059 -0.1885
45233W        W54033  15.383   1.888  16.967 -0.1946 -0.1021 -0.3149
45234W        W54034  12.387   4.915   4.817  0.0364 -0.1672 -0.1238
45235W        W54035  18.999   6.201   0.703 -0.1136  0.1839 -0.1866
45236W        W54036  13.323   0.171  16.998  0.1215 -0.2634 -0.0984
45237W        W54037   5.596   5.298   2.431 -0.0705  0.2161 -0.0123
45238W        W54038   1.778   1.102   4.381 -0.2482  0.2693  0.1692
45239W        W54039  10.342   5.579  42.399 -0.0387 -0.0638  0.2360
45240W        W54040   2.540   1.872  30.428  0.0164 -0.0923 -0.4166
45241W        W54041  12.465   3.234   1.154  0.1632  0.3074  0.0469
45242W        W54042  20.450   2.250  28.126  0.0419  0.0330  0.0649
45243W        W54043  10.376   0.820   7.303 -0.0420  0.1101  0.0532
45244W        W54044   3.355   5.084  21.755 -0.0372  0.4455  0.3626
45245W        W54045   9.428   5.225   4.996 -0.0072 -0.3253 -0.1906
45246W        W54046   9.863   3.616   1.521  0.0291 -0.0029  0.2136
45247W        W54047   9.317   4.889  17.289 -0.1215 -0.2518  0.0210
45248W        W54048  13.077   1.507   3.262 -0.0337  0.1895  0.0167
45249W        W54049   3.885   5.713   1.599  0.3755 -0.1382 -0.0740
45250W        W54050  15.467   6.432   5.904 -0.2481 -0.1291 -0.0952
45251W        W54051   8.740   5.023  27.278  0.1245  0.0867  0.0011
45252W        W54052   4.041   0.646  38.294  0.0810  0.1655 -0.2282
45253W        W54053  19.459   0.764  36.082  0.1478  0.1405  0.0790
45254W        W54054  12.820   5.922   8.645  0.1368  0.1804  0.1573
45255W        W54055   6.575   6.131   1.994 -0.0249  0.1047 -0.1079
45256W        W54056  13.313   0.484  34.693 -0.0865 -0.0052 -0.0670
45257W        W54057   9.857   3.016  11.914 -0.0278 -0.0061 -0.1371
45258W        W54058   4.999   6.367  41.156 -0.2489 -0.0653  0.2052
45259W        W54059   9.942   0.136   4.112  0.0177  0.1767 -0.4462
45260W        W54060  11.071   4.244  43.229  0.0435  0.0080  0.0504
45261W        W54061   1.011   0.621   4.261  0.0383 -0.2483  0.1684
45262W        W54062  15.169   3.348  11.118  0.1425 -0.1383 -0.2020
45263W        W54063   7.840   1.801  44.315 -0.3045 -0.0998  0.0052
45264W        W54064   9.590   1.323   6.451  0.0744 -0.1268 -0.1269
45265W        W54065  17.878   0.668  36.586  0.2366  0.0738 -0.1779
45266W        W54066  15.636   3.037  42.755 -0.0777 -0.0244 -0.0723
45267W        W54067  18.436   4.040   3.247  0.0321 -0.1865 -0.2063
45268W        W54068  13.616   3.277  10.092 -0.2229 -0.0584  0.0965
45269W        W54069   7.746   6.261  14.202 -0.0956 -0.0790 -0.1569
45270W        W54070  15.454   3.170  43.600  0.0357  0.0542 -0.2736
45271W        W54071   0.183   1.236  25.790  0.0346  0.0336 -0.0331
45272W        W54072  21.098   3.117  40.872  0.1360  0.1502 -0.1473
45273W        W54073   5.159   2.995  21.854 -0.1457 -0.0381 -0.3248
45274W        W54074   9.686   4.623   5.915 -0.1017  0.1601 -0.0494
45275W        W54075  11.432   4.167  30.479  0.0654  0.0398 -0.1789
45276W        W54076  13.579   2.023  31.715  0.1041  0.2216  0.0268
45277W        W54077   3.175   1.093  25.168 -0.2594  0.1595 -0.1675
45278W        W54078   9.013   1.591   5.004 -0.1385  0.0222  0.1981
45279W        W54079  17.923   6.166  34.348 -0.0491  0.0412 -0.1857
45280W        W54080  15.022   0.277   7.229 -0.0862  0.2713  0.0326
45281W        W54081   0.904   4.575  38.804  0.0929 -0.0449 -0.0558
45282W        W54082  20.982   0.108  34.928  0.0822  0.1638  0.0844
45283W        W54083   0.367   0.485  31.506 -0.2643  0.1857 -0.3210
45284W        W54084  11.522   4.795   0.081  0.0749 -0.0437  0.0978
45285W        W54085   8.080   2.184  13.045 -0.0775 -0.1837 -0.1551
45286W        W54086   7.274   1.417   0.727  0.0196 -0.1372  0.1462
45287W        W54087  14.173   0.329  25.341 -0.1477 -0.2365 -0.1753
45288W        W54088   4.811   4.546  24.394 -0.1244 -0.0835  0.0401
45289W        W54089   9.267   1.969  32.773 -0.0620 -0.2146  0.1069
45290W        W54090   7.072   5.656   8.816 -0.1576 -0.2369 -0.2785
45291W        W54091   2.060   3.206  35.437  0.2339 -0.2698  0.0049
45292W        W54092   1.355   2.404  25.927  0.1040  0.0608 -0.0767
45293W        W54093  14.117   6.199   4.433 -0.2509  0.0460  0.1427
45294W        W54094  16.746   5.650  39.833  0.0643 -0.1667  0.1085
45295W        W54095   1.363   4.945  34.498  0.4394 -0.0146  0.1064
45296W        W54096  11.783   0.620  12.189 -0.2626 -0.2861  0.3763
45297W        W54097  14.826   5.853  29.173  0.0844 -0.1967 -0.0480
45298W        W54098   1.520   6.502  22.744 -0.0921  0.2833  0.0307
45299W        W54099   0.573   2.101  37.887  0.2213 -0.2238  0.0536
45300W        W54100   4.275   5.539  21.358  0.3164  0.3040  0.1114
45301W        W54101  11.477   3.509  15.422 -0.0483  0.2916 -0.1849
45302W        W54102   9.715   0.555   9.786 -0.0715 -0.0814 -0.3186
45303W        W54103   8.420   0.860  39.570 -0.2492 -0.3304 -0.1688
45304W        W54104  17.570   5.239  32.787  0.2065 -0.0519  0.1056
45305W        W54105  13.936   2.403  23.146 -0.0549 -0.1387  0.0504
45306W        W54106   1.832   5.587  30.747 -0.1508 -0.0837 -0.0063
45307W        W54107  15.618   5.891  20.885 -0.1595 -0.1130 -0.0353
45308W        W54108  14.422   5.676   7.185 -0.2933 -0.1600 -0.1159
45309W        W54109   3.087   1.315  39.449 -0.2025  0.1876 -0.0141
45310W        W54110  11.054   1.980   1.723 -0.5047 -0.0026 -0.0149
45311W        W54111   3.907   6.346   8.566 -0.1456 -0.1641  0.0300
45312W        W54112   3.815   5.179  10.024  0.1026 -0.0758  0.1202
45313W        W54113   5.432   3.171   4.272  0.0114 -0.4730 -0.0748
45314W        W54114  18.853   6.506  39.699 -0.0764  0.0984  0.0805
45315W        W54115   0.135   1.791  34.355  0.0024 -0.2849  0.0328
45316W        W54116  16.448   5.333  40.763  0.0943  0.2458 -0.1802
45317W        W54117  15.235   6.032  16.198 -0.2991  0.0641 -0.0152
45318W        W54118   1.520   3.761  37.859  0.2213  0.1585 -0.1836
45319W        W54119  14.928   5.969   9.256  0.1562  0.2854  0.1409
45320W        W54120  14.662   6.252   8.048  0.0859  0.0332 -0.4486
45321W        W54121   8.829   4.494   1.330  0.0168  0.0018  0.0906
45322W        W54122  15.666   0.062  32.606  0.0131  0.1720 -0.0092
45323W        W54123   8.125   1.592  35.621  0.1715 -0.0973  0.1719
45324W        W54124  19.617   2.932  42.655 -0.3635 -0.2010 -0.0607
45325W        W54125   9.223   3.643  29.987 -0.0380 -0.0163 -0.1618
45326W        W54126  11.251   5.336  29.793 -0.0241  0.0464  0.2253
45327W        W54127  19.327   1.916   4.007 -0.1915 -0.0751  0.2614
45328W        W54128  12.840   5.707  42.342 -0.0156  0.0394  0.2060
45329W        W54129   3.859   2.547  38.004 -0.0511 -0.1611  0.1238
45330W        W54130  10.745   4.939  21.067  0.0786  0.0520  0.0841
45331W        W54131   5.656   3.388  37.651 -0.4002  0.0619  0.0158
45332W        W54132  18.987   2.659  41.825 -0.0486  0.1440 -0.3134
45333W        W54133  15.124   2.853  11.129  0.2499 -0.1730 -0.0002
45334W        W54134   5.822   0.683  38.226  0.0752  0.0403 -0.0415
45335W        W54135   6.087   6.559   0.262 -0.2060 -0.2103 -0.0718
45336W        W54136  17.348   4.888  19.990  0.0768 -0.0158  0.0852
45337W        W54137   8.023   1.096  42.215 -0.1541  0.1293 -0.3047
45338W        W54138  19.864   3.106  12.760  0.1766 -0.1095 -0.1240
45339W        W54139  20.575   6.258  16.441 -0.0353  0.1654  0.3092
45340W        W54140   5.885   6.173  13.395  0.0072 -0.0681  0.1564
45341W        W54141   4.382   2.122  15.890 -0.1806  0.0435 -0.1400
45342W        W54142  12.300   3.246  44.165 -0.0188  0.0362 -0.0138
45343W        W54143   9.817   4.638  32.978 -0.2857  0.0222 -0.0506
45344W        W54144   8.046   2.912  35.058 -0.3504 -0.1310 -0.0972
45345W        W54145   3.115   2.113  31.115 -0.0207  0.3246  0.0941
45346W        W54146   0.677   5.874  10.979 -0.1811  0.0176  0.0537
45347W        W54147  10.160   0.361  16.076  0.2078 -0.1751  0.2206
45348W        W54148   2.166   4.890  27.458 -0.1622  0.0255  0.0871
45349W        W54149  19.724   1.237  16.675  0.0953  0.0659 -0.1069
45350W        W54150  12.073   3.613   4.664  0.0041  0.2755  0.0800
45351W        W54151  20.140   6.019  33.649  0.2725  0.1514  0.0816
45352W        W54152  17.744   4.910  36.271  0.1884 -0.0974  0.2592
45353W        W54153   0.123   0.691  27.007  0.1961 -0.1272 -0.2340
45354W        W54154   7.798   4.682  40.259 -0.2670 -0.0051 -0.0038
45355W        W54155  11.313   3.342  29.717 -0.1742 -0.3010  0.0218
45356W        W54156  15.794   1.011  12.121 -0.0393 -0.1302 -0.2303
45357W        W54157  10.861   2.361  15.388 -0.1028  0.1086 -0.2757
45358W        W54158  17.027   1.966  41.446 -0.0777  0.1039  0.2229
45359W        W54159  18.868   0.389  40.951 -0.1512 -0.1133  0.0016
45360W        W54160  18.263   2.052  31.405 -0.2745 -0.0459  0.1250
45361W        W54161  17.368   1.888  20.620  0.0204  0.1835 -0.0037
45362W        W54162  10.859   5.980  35.091 -0.0749  0.0301 -0.1461
45363W        W54163   9.314   2.151   9.707 -0.0185 -0.0870 -0.1726
45364W        W54164  20.543   0.123  10.507  0.0096 -0.1628 -0.0463
45365W        W54165  11.743   0.895   3.796 -0.4178 -0.0163  0.0936
45366W        W54166  16.018   2.051  42.274  0.1959 -0.5249 -0.0700
45367W        W54167   3.877   5.736  40.600 -0.1883  0.0974 -0.1725
45368W        W54168   8.265   2.555  33.297  0.0860 -0.0212  0.1129
45369W        W54169  15.972   5.333  10.641  0.0664  0.1577  0.1419
45370W        W54170  21.018   2.432  39.332 -0.3970  0.0723  0.1376
45371W        W54171  13.467   0.539   7.540 -0.1544  0.1610  0.1760
45372W        W54172  20.697   5.139  26.598  0.0942 -0.0139  0.2218
45373W        W54173  18.206   3.448   9.826  0.1580  0.1192  0.3606
45374W        W54174   2.619   4.017   4.334 -0.1477 -0.0676 -0.0100
45375W        W54175  12.174   4.683  32.017  0.3282  0.0927  0.1237
45376W        W54176   1.482   5.124   0.273 -0.0150 -0.0904  0.2530
45377W        W54177  10.267   5.368  32.746 -0.1569  0.0452  0.1974
45378W        W54178  19.545   0.638  38.025  0.0253 -0.0581  0.1793
45379W        W54179  19.197   4.284  31.632  0.0038 -0.3154 -0.3431
45380W        W54180  10.265   3.345  39.604 -0.2478  0.1919  0.1991
45381W        W54181   7.764   5.230  30.556  0.0793 -0.0955 -0.3620
45382W        W54182  12.180   6.297  37.686 -0.0164  0.0741  0.0384
45383W        W54183  16.844   2.810  10.803  0.1805  0.2644 -0.1094
45384W        W54184  16.557   5.831  29.828 -0.0438 -0.1284  0.0112
45385W        W54185  13.621   2.318  44.624  0.0013 -0.0744  0.1419
45386W        W54186  18.832   4.732  10.344 -0.3091  0.0848  0.1188
45387W        W54187   0.228   1.292   5.617 -0.1817 -0.0543  0.1596
45388W        W54188   2.563   4.331  34.536  0.1181  0.1075 -0.1862
45389W        W54189   7.027   6.605   4.503 -0.0928  0.1795 -0.1462
45390W        W54190   6.921   3.483  36.370 -0.4228 -0.2691  0.3667
45391W        W54191  10.500   0.195  12.140 -0.2309 -0.1036  0.2538
45392W        W54192   7.088   0.341  31.551  0.1134 -0.1467 -0.0352
45393W        W54193   9.201   5.028  31.598 -0.0446 -0.1886 -0.1676
45394W        W54194   4.333   4.929  43.902  0.0520  0.0011 -0.0148
45395W        W54195  11.235   5.073  16.149  0.0317  0.1872  0.1522
45396W        W54196  15.282   0.053  16.869 -0.1944 -0.2940 -0.1533
45397W        W54197   6.722   1.837  28.475 -0.0976  0.0392 -0.1335
45398W        W54198   1.343   0.338  44.214 -0.3509 -0.2714 -0.0843
45399W        W54199  13.761   5.192  12.096  0.1473 -0.2040 -0.2401
45400W        W54200   1.886   6.365   9.727  0.0528  0.0822 -0.0037
45401W        W54201  15.587   5.436  39.968  0.3162  0.1763 -0.1734
45402W        W54202   7.501   2.706  35.885 -0.1179 -0.2129  0.2545
45403W        W54203  12.933   6.192  19.146  0.0452  0.1797 -0.1868
45404W        W54204  13.676   4.414  15.815  0.0459 -0.3179  0.3328
45405W        W54205  18.511   0.377   5.967  0.5548  0.1897 -0.1576
45406W        W54206   9.492   1.971  34.078 -0.0439 -0.2607 -0.3271
45407W        W54207   6.090   2.662  41.860  0.3390  0.1073  0.1547
45408W        W54208   6.410   4.622   1.110  0.4784  0.2682 -0.0170
45409W        W54209  14.002   3.878   5.760  0.0489 -0.2089  0.2264
45410W        W54210  13.402   1.390   6.905  0.2263 -0.1722  0.0696
45411W        W54211   8.309   5.940   1.192 -0.1325 -0.1447 -0.1349
45412W        W54212  16.790   5.780  42.124  0.1972 -0.0913  0.1415
45413W        W54213   4.868   6.541  42.427 -0.1853 -0.0538  0.0889
45414W        W54214  10.583   1.296  34.655  0.2107  0.1572  0.0876
45415W        W54215  17.418   5.736   6.976  0.2630 -0.1204 -0.3472
45416W        W54216   8.032   6.359  38.632 -0.0565  0.3067  0.0996
45417W        W54217  13.459   0.189  12.047 -0.0389  0.0602  0.0856
45418W        W54218   5.555   0.625   5.336 -0.2331  0.3391  0.1014
45419W        W54219   3.444   5.383  36.377  0.0016 -0.1475  0.0776
45420W        W54220  21.124   4.523  25.019  0.0114  0.0964  0.0449
45421W        W54221   7.813   5.927  39.557  0.1771 -0.1076 -0.3810
45422W        W54222   4.164   4.039   2.079 -0.1536 -0.1085  0.1623
45423W        W54223  14.616   0.583  18.613  0.0814 -0.3456 -0.0439
45424W        W54224   2.067   5.026   6.302 -0.0969 -0.0405 -0.1363
45425W        W54225   1.311   4.212  26.210  0.2568 -0.0991 -0.0015
45426W        W54226  15.093   1.477  22.748 -0.0756 -0.0242  0.0835
45427W        W54227  20.022   2.656  11.215 -0.0444  0.0124  0.1198
45428W        W54228  16.569   3.591  16.949  0.1675  0.1317  0.5144
45429W        W54229  14.437   1.196  12.203 -0.0098  0.1326  0.2033
45430W        W54230   8.453   2.052  34.977 -0.0955  0.2850  0.1835
45431W        W54231   3.132   0.398  13.580 -0.3568 -0.1414  0.2198
45432W        W54232  12.717   0.703   6.827  0.0862  0.1540  0.0048
45433W        W54233  16.864   5.290  14.218  0.2399 -0.1502 -0.0278
45434W        W54234   9.590   1.376  16.617  0.0411  0.0594 -0.0839
45435W        W54235   9.369   1.147  35.825 -0.0025  0.1550  0.0127
45436W        W54236   3.114   0.498  20.752  0.0508 -0.2867 -0.2926
45437W        W54237   1.730   4.736   1.855  0.4176  0.1454  0.3594
45438W        W54238  10.729   0.454  18.620 -0.3322  0.0543 -0.1694
45439W        W54239  11.061   1.322  34.773  0.1276 -0.0092 -0.1271
45440W        W54240  13.457   1.630  37.858 -0.1333 -0.0619  0.1050
45441W        W54241  13.255   3.570  16.782  0.2416  0.2451  0.3809
45442W        W54242   9.117   2.982  45.102 -0.2846  0.2201 -0.0058
45443W        W54243  18.105   3.992  36.657  0.0019 -0.0870 -0.1454
45444W        W54244   8.737   6.004  39.954  0.0150  0.2345 -0.1255
45445W        W54245  18.305   2.711   7.403 -0.0969 -0.0566  0.0159
45446W        W54246   2.067   1.639   1.830  0.0963 -0.2955  0.3784
45447W        W54247   2.678   6.341  10.467 -0.0756  0.1031  0.1385
45448W        W54248   4.260   4.132  12.358 -0.0124 -0.1677 -0.0226
45449W        W54249   2.647   0.042   9.900  0.0697  0.1643  0.0135
45450W        W54250  14.791   0.488  20.712 -0.0024  0.0468  0.1952
45451W        W54251  19.672   1.791   2.999 -0.2291 -0.1255  0.1796
45452W        W54252  20.635   3.530  41.757  0.3591  0.1827  0.1514
45453W        W54253   4.280   2.844  42.276 -0.0355  0.1636  0.1167
45454W        W54254   4.011   4.518  37.882 -0.2879  0.2345  0.1047
45455W        W54255  16.427   1.379  14.853  0.2183  0.0029  0.0507
45456W        W54256   4.559   6.313  22.404 -0.3041  0.1447  0.2642
45457W        W54257   9.808   2.952  44.016 -0.1997  0.0175 -0.1552
45458W        W54258   8.322   0.225  36.638  0.0084  0.4418 -0.2169
45459W        W54259  20.134   5.628  32.244 -0.0474 -0.1899 -0.1715
45460W        W54260   0.969   2.277   6.282  0.1715 -0.2888  0.0658
45461W        W54261   9.113   2.622  43.308 -0.1110 -0.0809  0.2439
45462W        W54262   2.532   6.175  11.189 -0.1493  0.0955 -0.2672
45463W        W54263  16.765   4.775  42.298  0.1276 -0.0706  0.3309
45464W        W54264   0.604   0.890  25.211  0.0489  0.0709 -0.1897
45465W        W54265   8.604   5.582   9.946  0.1127 -0.3461 -0.2971
45466W        W54266  12.561   6.228   7.612 -0.0005  0.1892  0.0753
45467W        W54267  19.548   3.146  33.020  0.1621 -0.0782  0.0035
45468W        W54268  17.197   5.120  20.458 -0.0345 -0.1755  0.2064
45469W        W54269  20.988   1.353  26.497 -0.0984  0.1621  0.1069
45470W        W54270  10.925   5.243  12.837  0.2456  0.1159  0.1937
45471W        W54271   7.724   5.894  42.281 -0.0081 -0.2758 -0.2366
45472W        W54272   6.248   4.455  37.616 -0.1764  0.0195 -0.1917
45473W        W54273   5.500   2.257  10.275  0.1244  0.0329 -0.0406
45474W        W54274   1.908   3.880   2.175 -0.0468  0.0513 -0.1615
45475W        W54275  15.858   4.501  33.522 -0.0293 -0.0669 -0.0964
45476W        W54276  11.665   2.765  45.120 -0.1857  0.2655 -0.2327
45477W        W54277   3.316   3.248  31.956 -0.0522  0.0853 -0.2608
45478W        W54278   4.180   0.151   0.511 -0.0455  0.0417 -0.1593
45479W        W54279  20.451   3.563  37.482  0.1584  0.0838  0.1794
45480W        W54280   2.744   5.625   2.897  0.2954  0.3287  0.3586
45481W        W54281  20.004   4.476   0.343 -0.0020  0.1426 -0.0315
45482W        W54282   7.242   1.749  37.164  0.0163 -0.1741 -0.0810
45483W        W54283   9.249   4.822   2.695  0.0113  0.0693  0.0434
45484W        W54284  17.100   4.933  41.963 -0.1740  0.0887  0.0984
45485W        W54285   0.658   5.032  38.683  0.2077  0.2367  0.1019
45486W        W54286  17.234   1.604  44.041  0.0649 -0.1482  0.0134
45487W        W54287   1.716   6.295  43.332  0.0138  0.0051  0.0671
45488W        W54288  20.798   2.893  29.236  0.0994 -0.1447 -0.1295
45489W        W54289  11.845   5.289   7.538  0.1321 -0.0228 -0.1607
45490W        W54290  14.487   0.757   5.713 -0.0411  0.1548 -0.0530
45491W        W54291  15.711   3.876  35.031 -0.1647  0.1101  0.2494
45492W        W54292   3.734   1.566   1.092  0.0966 -0.1284 -0.0078
45493W        W54293   4.393   0.060  11.036 -0.1983  0.0649 -0.3047
45494W        W54294  10.914   2.510  39.225 -0.1244  0.0141  0.0680
45495W        W54295   0.550   4.520  10.003  0.1951  0.1122 -0.2797
45496W        W54296   4.677   1.402  12.396  0.1344  0.0684 -0.0191
45497W        W54297  20.848   4.445  32.724  0.0848  0.1473  0.2230
45498W        W54298   3.998   4.322  39.703 -0.2611  0.1726 -0.1642
45499W        W54299   5.717   1.947  44.528 -0.0441  0.3021 -0.1849
45500W        W54300  18.555   5.440  15.126 -0.1421  0.1243 -0.2670
45501W        W54301  10.249   4.523  10.838 -0.2895  0.2009 -0.0678
45502W        W54302  20.329   5.234  13.289 -0.0374  0.0889 -0.0828
45503W        W54303   6.085   0.785   0.437 -0.3239 -0.1589  0.4120
45504W        W54304  20.852   0.532  33.826 -0.1286 -0.3629  0.0149
45505W        W54305   3.289   0.872  41.209 -0.3091 -0.2869 -0.0977
45506W        W54306  14.237   2.526   8.497  0.0591  0.0061 -0.2709
45507W        W54307  16.876   0.659  17.415 -0.1597 -0.0466  0.2130
45508W        W54308  18.234   2.977  19.634  0.1084 -0.0399 -0.0342
45509W        W54309   4.219   5.427  38.778  0.1527  0.2774  0.0072
45510W        W54310   1.622   4.251  30.824  0.1454  0.1334  0.1097
45511W        W54311  14.334   1.994  30.124 -0.3684  0.0959  0.0710
45512W        W54312  17.891   2.657  17.083 -0.3914  0.1056 -0.1300
45513W        W54313   0.309   4.231  26.297  0.1649 -0.0033 -0.3381
45514W        W54314   0.805   5.390   3.425 -0.2017  0.2568 -0.2108
45515W        W54315  20.624   3.402  10.945  0.1863 -0.2012 -0.0457
45516W        W54316   8.342   1.164   4.513  0.0627  0.1551  0.0964
45517W        W54317  18.464   6.387  15.759  0.1691 -0.1045  0.2687
45518W        W54318  11.314   3.338  37.569 -0.1726  0.1679 -0.1152
45519W        W54319   1.181   1.191  43.876  0.1498 -0.0525 -0.1563
45520W        W54320   3.278   4.971   0.668  0.0448  0.0835 -0.0456
45521W        W54321   6.572   5.820  43.295  0.0271  0.1710 -0.0747
45522W        W54322   8.169   1.037   8.928 -0.2585 -0.0563  0.3893
45523W        W54323  19.506   4.099  17.148 -0.0681 -0.1682  0.1099
45524W        W54324  10.152   0.721  36.866 -0.2982  0.1934  0.2029
45525W        W54325  17.953   2.452  12.077 -0.3811 -0.1417  0.2724
45526W        W54326  10.450   1.796  33.738 -0.0676 -0.0373 -0.0695
45527W        W54327   8.792   4.576   6.549 -0.1920  0.0241 -0.0166
45528W        W54328  10.534   2.619   8.165 -0.2208 -0.2081  0.0733
45529W        W54329  11.537   0.883  30.339 -0.2300 -0.1168  0.1313
45530W        W54330   7.387   3.567  14.851 -0.1715 -0.1131  0.1030
45531W        W54331  17.388   4.537  11.544  0.0279 -0.0503  0.3700
45532W        W54332   4.542   5.966  24.973  0.0056  0.2370  0.0310
45533W        W54333   6.319   0.360  40.285  0.0365  0.3980 -0.0013
45534W        W54334   0.067   0.094  41.670 -0.2029 -0.2171  0.0504
45535W        W54335  20.300   4.629  26.491  0.3567 -0.1363  0.2265
45536W        W54336  10.081   6.470  15.871  0.3022 -0.1007 -0.4411
45537W        W54337  17.480   4.476  18.972  0.0238 -0.0990  0.1343
45538W        W54338  11.100   2.038   3.941 -0.1675 -0.4322 -0.1187
45539W        W54339  17.780   5.853   4.172  0.1652 -0.1439 -0.0284
45540W        W54340   3.102   0.070  24.474 -0.4735  0.1046 -0.0468
45541W        W54341   3.713   2.727  26.045  0.0616 -0.1847 -0.0273
45542W        W54342   8.433   2.210  18.727 -0.2239 -0.0982 -0.1746
45543W        W54343  19.830   2.757  28.772 -0.1217  0.2766  0.1167
45544W        W54344  13.915   3.195  38.177  0.0218 -0.0499  0.0760
45545W        W54345   9.658   3.458   2.479 -0.0334 -0.0920  0.0792
45546W        W54346   9.351   0.743  36.664  0.0008  0.0726 -0.1788
45547W        W54347   7.788   5.036  40.595  0.2300  0.1457  0.1145
45548W        W54348   0.454   3.989   7.560  0.1880 -0.0381 -0.0583
45549W        W54349  14.041   4.339   5.523 -0.1275 -0.1017  0.0723
45550W        W54350   9.611   3.535   6.173 -0.2600 -0.4128  0.1799
45551W        W54351   7.167   5.509  37.979 -0.1823  0.0077  0.1697
45552W        W54352   8.965   4.989   1.961 -0.3639 -0.0598 -0.0554
45553W        W54353  13.667   3.349   8.410  0.0619 -0.1192  0.0313
45554W        W54354  14.938   2.082  36.732 -0.2157  0.3072  0.0948
45555W        W54355   2.037   4.834  32.511  0.0407  0.2170 -0.0928
45556W        W54356   4.665   4.888  23.479 -0.1645 -0.2640 -0.0194
45557W        W54357  11.207   6.369  33.287 -0.2452 -0.1824  0.1762
45558W        W54358  15.391   0.735  39.807 -0.3321 -0.2376 -0.1757
45559W        W54359  20.085   5.088   0.596  0.2053 -0.3728 -0.0066
45560W        W54360   0.366   3.400  35.242 -0.1632 -0.2119 -0.0578
45561W        W54361   6.889   1.764  11.152 -0.1214 -0.1707  0.2899
45562W        W54362  10.512   5.571   2.777  0.3589  0.0042  0.0258
45563W        W54363   0.972   3.571  44.486 -0.0151 -0.1081 -0.0986
45564W        W54364   1.698   6.066  35.566 -0.0804 -0.0109  0.0226
45565W        W54365  17.756   0.806   5.549 -0.0261 -0.1452 -0.4755
45566W        W54366  19.270   5.094  43.070  0.0019 -0.1036 -0.1217
45567W        W54367  16.259   3.207   8.769 -0.3155  0.0087 -0.1163
45568W        W54368  16.758   1.433  31.968 -0.3073  0.4069 -0.0346
45569W        W54369   1.109   5.810  43.798 -0.2823 -0.0040  0.1101
45570W        W54370   4.131   6.591   4.044 -0.1399 -0.3606  0.0253
45571W        W54371   5.923   5.967  33.801 -0.1168  0.0542  0.1206
45572W        W54372  11.635   4.196   6.089 -0.2079  0.0814 -0.0666
45573W        W54373  18.881   1.046  13.534 -0.0166  0.4712 -0.0325
45574W        W54374   2.986   3.763  29.328  0.4872  0.4031 -0.1334
45575W        W54375  12.661   2.637  40.229 -0.2329  0.0820 -0.1605
45576W        W54376  13.984   0.383  31.767 -0.1516  0.2003  0.0859
45577W        W54377   4.101   5.733   9.855 -0.1574 -0.1053 -0.1671
45578W        W54378   2.863   0.734  43.884  0.1756 -0.0340 -0.1139
45579W        W54379  14.374   4.204  14.771 -0.0438 -0.0736  0.0503
45580W        W54380  19.717   4.080   0.279 -0.1476  0.1992  0.2813
45581W        W54381  15.878   5.127  44.678 -0.2115 -0.2502  0.1928
45582W        W54382  11.531   5.698  37.412  0.0857  0.0162  0.1611
45583W        W54383   8.922   0.939  42.562 -0.0156 -0.0588 -0.0912
45584W        W54384   0.024   2.599  27.906 -0.5815  0.0164 -0.0856
45585W        W54385   9.424   2.251  12.705 -0.3061  0.1032  0.1292
45586W        W54386  11.231   6.075  43.872  0.3348 -0.0351 -0.2819
45587W        W54387   1.637   3.074   0.484  0.0530  0.2263  0.1931
45588W        W54388   9.722   5.625   6.376 -0.2686 -0.2320  0.1529
45589W        W54389   4.327   0.290  26.701 -0.0536 -0.0433  0.0798
45590W        W54390  16.645   2.392  31.329 -0.0067 -0.2293 -0.0500
45591W        W54391   8.707   0.686  34.107 -0.0051 -0.1372 -0.0764
45592W        W54392  19.388   5.013  14.648  0.1618 -0.3432  0.2331
45593W        W54393  13.999   6.291  22.187 -0.2283  0.2659 -0.0895
45594W        W54394  11.829   0.676  42.434  0.0442 -0.1916 -0.1337
45595W        W54395  13.300   4.017   7.302  0.2268  0.0165 -0.1748
45596W        W54396  20.465   3.951   1.041 -0.0075  0.0872 -0.1809
45597W        W54397   2.202   0.162   2.311 -0.1860  0.2298  0.1381
45598W        W54398  12.654   4.607  14.040  0.0975  0.1348  0.3328
45599W        W54399  20.024   5.758  36.776 -0.0599 -0.2516  0.1910
45600W        W54400   9.399   2.958   1.924 -0.0980  0.0542  0.0986
45601W        W54401   3.269   6.081   8.261 -0.0922  0.0519 -0.2842
45602W        W54402  16.222   0.009   4.780 -0.0586 -0.0810 -0.0198
45603W        W54403  15.015   2.243  18.219 -0.4193  0.0755 -0.1796
45604W        W54404  13.024   2.988   4.980 -0.0648 -0.3134 -0.1100
45605W        W54405  12.604   0.229   2.832 -0.1589 -0.0763 -0.1181
45606W        W54406  14.844   1.016  12.443 -0.0901 -0.0086 -0.1721
45607W        W54407   9.824   2.007   9.447  0.1429  0.0905 -0.2035
45608W        W54408   4.445   4.032  42.986  0.0508 -0.0718  0.0160
45609W        W54409  19.345   1.218  44.882  0.1622  0.3141  0.2783
45610W        W54410   9.235   6.558  30.049  0.1578  0.2283  0.0313
45611W        W54411   8.918   3.135  33.039 -0.2427 -0.0580  0.0625
45612W        W54412   8.210   3.869   5.471  0.1977  0.4092 -0.0168
45613W        W54413  14.469   3.606  41.966 -0.0319 -0.3164 -0.0110
45614W        W54414   9.588   2.991   5.287 -0.3064 -0.0945 -0.1148
45615W        W54415  11.615   1.504   9.870 -0.2342 -0.1145 -0.1942
45616W        W54416   9.172   0.320  30.616  0.0657 -0.2273  0.5053
45617W        W54417  11.040   5.806  11.828  0.0833  0.0008 -0.0424
45618W        W54418   2.988   1.151  27.222  0.1219  0.2850  0.1610
45619W        W54419   1.935   2.106  33.516 -0.0729 -0.0714  0.2517
45620W        W54420  16.729   1.967  43.439  0.0343 -0.0057  0.0748
45621W        W54421   1.453   1.713  14.123 -0.0356 -0.0638  0.1633
45622W        W54422  19.897   2.480   9.196  0.0825  0.1953  0.0595
45623W        W54423   1.024   3.544  41.532  0.1299 -0.0178 -0.1753
45624W        W54424  19.994   2.028   3.284  0.1176  0.0106  0.2972
45625W        W54425   1.010   2.953   9.790  0.3319 -0.0756  0.1268
45626W        W54426  20.446   1.154   5.868  0.1689 -0.0379  0.1736
45627W        W54427  15.322   1.957  24.080 -0.0714  0.2715 -0.0419
45628W        W54428  10.640   0.268   8.190 -0.0786  0.0646  0.0880
45629W        W54429  12.525   0.772  13.187 -0.1961  0.0744 -0.2212
45630W        W54430  15.123   5.951  14.139 -0.1591 -0.0268  0.0210
45631W        W54431  15.295   5.033   1.308  0.2784 -0.1349  0.0242
45632W        W54432   5.577   4.552  32.769  0.2386  0.1327  0.0138
45633W        W54433  12.618   2.583  13.875  0.0747  0.2789  0.0964
45634W        W54434  16.917   4.682  29.795  0.1210  0.2608  0.2748
45635W        W54435   7.445   4.775  30.037 -0.2372  0.4028 -0.2117
45636W        W54436  18.676   3.261   8.505  0.1153 -0.0951  0.0976
45637W        W54437   9.487   0.859  13.488 -0.3973 -0.1370  0.0197
45638W        W54438   0.152   5.000  30.260  0.0054  0.0116 -0.0230
45639W        W54439   0.825   4.097  39.427  0.1350  0.1051 -0.0531
45640W        W54440   4.794   3.929  22.160 -0.1845  0.0184 -0.1177
45641W        W54441   9.762   1.692  30.039  0.1441  0.0377 -0.0692
45642W        W54442   7.619   1.146  32.368 -0.1766 -0.0437  0.2336
45643W        W54443  14.293   3.683   0.034  0.1807  0.2111 -0.1675
45644W        W54444   1.503   4.886  31.831  0.1771  0.0947 -0.0014
45645W        W54445  12.301   4.057  38.560  0.1168  0.0404 -0.2939
45646W        W54446   1.512   6.317  28.556 -0.1716 -0.0002 -0.1902
45647W        W54447   4.958   0.420  15.047  0.2677 -0.2133 -0.1625
45648W        W54448  15.819   0.584   9.738 -0.2205  0.1334  0.4494
45649W        W54449  17.570   1.151  44.296 -0.0115 -0.0085 -0.1027
45650W        W54450   3.425   0.077  40.025  0.4765 -0.1583  0.0979
45651W        W54451   3.935   0.776  11.623  0.0811  0.1094 -0.2719
45652W        W54452  10.114   1.581  43.912  0.0918 -0.1237  0.5575
45653W        W54453  17.283   1.253  39.209  0.1102 -0.0281  0.0228
45654W        W54454  19.054   6.120  42.407  0.3353 -0.1868  0.0808
45655W        W54455   5.568   3.675   7.955 -0.0415 -0.0015  0.1562
45656W        W54456  16.853   3.830  39.023 -0.3037 -0.2379  0.4004
45657W        W54457  14.412   3.512  22.532 -0.0843  0.1709  0.0002
45658W        W54458   9.788   6.233  10.616  0.2626 -0.2725  0.2107
45659W        W54459  16.634   1.947   6.871  0.2777 -0.0703  0.1036
45660W        W54460  20.074   4.369   2.686  0.1881 -0.0845 -0.0660
45661W        W54461  16.372   2.383  13.427  0.1744  0.0872 -0.1296
45662W        W54462  15.774   6.377  42.795  0.3495  0.0602  0.2874
45663W        W54463   7.068   5.468   1.440  0.1582 -0.0097 -0.0155
45664W        W54464  11.999   6.602   7.614  0.2072  0.2126 -0.1866
45665W        W54465   4.671   3.187  12.160 -0.0414  0.1656 -0.1612
45666W        W54466  18.935   6.149   8.717  0.1681  0.1369  0.1764
45667W        W54467   0.642   3.593  15.803  0.1271 -0.0675  0.3121
45668W        W54468   2.151   6.546  32.772  0.4089 -0.0620 -0.0183
45669W        W54469  10.063   1.373  19.487  0.1653 -0.3303 -0.1270
45670W        W54470   7.629   5.703  12.493 -0.2136 -0.4408  0.2483
45671W        W54471   5.375   4.557  20.990  0.1312  0.1334  0.1168
45672W        W54472  11.115   5.700   7.155 -0.1602  0.1859 -0.0381
45673W        W54473  18.573   4.507  35.904 -0.1448 -0.0073  0.0124
45674W        W54474  11.078   4.144   4.709  0.2054  0.3008  0.0441
45675W        W54475  11.315   3.916  32.699 -0.0955  0.1343 -0.0837
45676W        W54476   3.347   1.361  30.023  0.0639 -0.1866  0.2233
45677W        W54477  16.658   2.056  41.007  0.0522 -0.1120 -0.0125
45678W        W54478  19.374   5.306   0.590  0.2081 -0.0596 -0.0169
45679W        W54479   0.100   4.523   1.500 -0.0101  0.2522 -0.2700
45680W        W54480  10.297   3.661   1.258  0.2451  0.1279  0.0513
45681W        W54481   7.028   0.794  24.119  0.0394 -0.1322 -0.5079
45682W        W54482   4.088   5.531   2.612 -0.0575  0.0962  0.1355
45683W        W54483   3.662   4.514   9.985  0.0330  0.3014 -0.0286
45684W        W54484  20.659   6.041  39.706  0.2130 -0.0554  0.1369
45685W        W54485   3.460   3.970  19.656 -0.0672  0.3650 -0.1136
45686W        W54486  10.561   2.848   5.584 -0.0771  0.5102  0.0907
45687W        W54487   3.616   1.771  33.165  0.0863 -0.0637  0.0909
45688W        W54488   8.205   4.986  13.772 -0.0768  0.3500  0.0817
45689W        W54489  18.397   2.304  36.374 -0.2111  0.2124 -0.1574
45690W        W54490  16.817   4.321  35.198 -0.0171 -0.1040  0.1021
45691W        W54491  13.958   3.511  42.102  0.0526  0.0729 -0.4941
45692W        W54492  19.996   6.346  34.228  0.1595 -0.1792  0.0957
45693W        W54493   4.056   5.402  37.891 -0.2275  0.0371 -0.0195
45694W        W54494  13.259   6.257  24.651  0.0275  0.0235  0.1742
45695W        W54495  20.715   4.078  28.867  0.1647 -0.2900  0.0708
45696W        W54496   3.250   1.445  13.384  0.0170  0.3449 -0.0177
45697W        W54497  10.423   4.120  13.418 -0.0003  0.3644  0.1734
45698W        W54498   1.451   1.021   8.281  0.1199  0.1008  0.0552
45699W        W54499   2.361   4.150   2.916  0.2656  0.0148 -0.1079
45700W        W54500  19.226   5.822  15.587  0.0651 -0.2213 -0.0538
45701W        W54501  12.634   0.127  37.110  0.1233  0.3244  0.2545
45702W        W54502   8.416   1.777   1.360  0.0577  0.1534 -0.3896
45703W        W54503  10.200   1.000   5.921  0.1378  0.0043  0.1158
45704W        W54504   3.387   4.431  42.354 -0.1345 -0.0039  0.1101
45705W        W54505  12.489   1.457   7.897 -0.1496 -0.1025 -0.0789
45706W        W54506  14.700   5.839  32.344 -0.1134 -0.1142  0.1660
45707W        W54507   2.346   1.716  34.872 -0.2211 -0.1112 -0.1610
45708W        W54508  11.112   4.866   5.172 -0.0479 -0.0674 -0.1453
45709W        W54509  13.258   4.217   1.895 -0.1700  0.0485 -0.1814
45710W        W54510   1.463   2.629  27.962 -0.1620 -0.3335 -0.1453
45711W        W54511  19.584   6.358  27.629 -0.0341 -0.1374 -0.0768
45712W        W54512  15.090   3.223  17.906 -0.0386 -0.0762  0.1923
45713W        W54513   5.012   1.534  42.497 -0.1667  0.1890  0.0049
45714W        W54514  20.915   5.108  34.036  0.1559 -0.1298 -0.0398
45715W        W54515   3.251   3.462  24.244  0.0822  0.1081  0.0821
45716W        W54516  17.309   6.472  40.566 -0.1006  0.3827  0.1020
45717W        W54517  10.136   0.060   8.097  0.0591 -0.0722 -0.0034
45718W        W54518   1.098   1.734  32.681  0.2387 -0.2687  0.0404
45719W        W54519   5.806   3.130   4.017 -0.0564 -0.0381 -0.0612
45720W        W54520   8.648   2.484  42.274  0.0918 -0.2095 -0.3090
45721W        W54521   2.441   4.430  40.560 -0.0414 -0.0722 -0.2942
45722W        W54522  12.344   0.614   6.538 -0.1315  0.4136  0.0512
45723W        W54523   1.126   4.870   8.337  0.2206  0.2041 -0.0769
45724W        W54524   4.765   0.428  35.652  0.2012  0.0388 -0.1085
45725W        W54525   8.828   1.619  44.520 -0.0635  0.2848  0.1801
45726W        W54526   0.829   6.515  26.475 -0.1262  0.1957 -0.1878
45727W        W54527  19.014   4.534  13.063  0.1641  0.1446  0.3909
45728W        W54528  13.966   1.509   4.184  0.0319 -0.0692 -0.2671
45729W        W54529   7.976   3.379  32.817 -0.3237 -0.1442 -0.0056
45730W        W54530  15.430   2.047   4.960 -0.0331 -0.1273  0.1280
45731W        W54531  20.086   6.563   6.099 -0.1710  0.2030  0.0198
45732W        W54532   1.804   2.937  37.579 -0.0392  0.0121 -0.0381
45733W        W54533   4.816   2.018  16.205  0.1658 -0.5448  0.1216
45734W        W54534   7.297   4.847  13.456 -0.0193 -0.0063  0.3349
45735W        W54535  15.016   0.290  42.066  0.0070  0.1423 -0.1776
45736W        W54536   4.729   4.806   9.709 -0.2752  0.1816 -0.2410
45737W        W54537  13.723   5.796  30.914 -0.2662  0.2141 -0.2378
45738W        W54538  16.395   4.579  13.604  0.0915 -0.1901 -0.1849
45739W        W54539   9.855   3.038  37.181  0.2238 -0.1302  0.0346
45740W        W54540   3.046   2.753  13.953  0.2239 -0.0975 -0.0365
45741W        W54541  15.451   3.080   0.743 -0.3350  0.0047 -0.1607
45742W        W54542   0.338   5.353  41.029  0.1312 -0.2269 -0.0236
45743W        W54543  16.392   3.478  21.825 -0.1083 -0.1913 -0.1356
45744W        W54544  15.549   6.215  21.964 -0.1327 -0.5514 -0.4709
45745W        W54545  20.372   2.910  36.094 -0.3238 -0.0109 -0.1596
45746W        W54546   4.996   4.339   5.869  0.0885 -0.1919  0.0601
45747W        W54547  17.532   4.448  36.410  0.0952  0.3355 -0.0319
45748W        W54548   1.963   1.902  40.803  0.0996 -0.2904 -0.0849
45749W        W54549  20.594   6.166  40.213 -0.0341  0.3452  0.3329
45750W        W54550  14.354   2.645   7.607  0.0317 -0.0548 -0.3282
45751W        W54551   7.058   3.050   1.963  0.1060  0.2913 -0.0636
45752W        W54552  15.842   4.581   5.353 -0.0176 -0.4396  0.1059
45753W        W54553  15.931   3.561  16.383 -0.0570 -0.2710  0.2152
45754W        W54554   0.082   2.956   1.553  0.0478  0.2923  0.4648
45755W        W54555  17.484   0.808  39.074 -0.3271  0.1227 -0.1537
45756W        W54556   8.169   6.260   1.905  0.4474 -0.1404 -0.2959
45757W        W54557   0.021   5.200  26.731 -0.1403  0.1451 -0.0041
45758W        W54558   2.704   3.548   9.326 -0.0541 -0.0805  0.0600
45759W        W54559   6.469   4.113   2.242 -0.0255  0.0036  0.4518
45760W        W54560  14.231   1.629  12.333  0.1309  0.1421  0.0921
45761W        W54561  17.171   5.870   0.468 -0.1650  0.3031  0.0056
45762W        W54562  11.946   2.722  14.289 -0.1443 -0.1887  0.0482
45763W        W54563  11.671   5.638  35.352 -0.0073 -0.2209 -0.0720
45764W        W54564  11.024   3.195   2.028 -0.0559 -0.1641 -0.3538
45765W        W54565   6.885   3.828  38.116 -0.0782  0.3884 -0.2768
45766W        W54566   8.705   2.574  14.559  0.1070  0.3477 -0.0373
45767W        W54567   3.170   1.298  22.976  0.0679  0.2130  0.2497
45768W        W54568   0.617   0.915  34.738  0.2057 -0.0842  0.1017
45769W        W54569   5.087   2.907  29.261  0.0012  0.1837  0.1079
45770W        W54570   9.233   1.985  35.118 -0.1133 -0.1420 -0.0052
45771W        W54571   7.196   5.439  34.100 -0.0860  0.1313  0.0994
45772W        W54572  12.410   3.521  32.561  0.2008  0.1171 -0.3395
45773W        W54573   7.669   2.881   4.016  0.1568 -0.0300 -0.0630
45774W        W54574  10.807   4.996  37.165 -0.0785 -0.0489  0.0514
45775W        W54575  12.595   1.923  36.083 -0.1554  0.0964  0.1360
45776W        W54576   3.862   4.064  35.142 -0.1780  0.2049 -0.1078
45777W        W54577  15.659   1.457  10.887  0.0350 -0.0792 -0.2394
45778W        W54578  14.707   5.366  14.537 -0.2232  0.4735  0.0062
45779W        W54579  16.496   2.258  19.596 -0.2113 -0.0500 -0.0884
45780W        W54580   3.653   4.963  30.729 -0.1980  0.2535  0.1705
45781W        W54581  13.172   4.021  42.565 -0.1132 -0.3216  0.1218
45782W        W54582   2.891   4.096  25.858 -0.1449  0.0640  0.0478
45783W        W54583  19.483   4.981  37.901  0.0102 -0.1814  0.0028
45784W        W54584  14.375   1.682  23.694  0.0275  0.0390  0.0706
45785W        W54585   2.745   4.265  30.083 -0.2082  0.1002  0.2185
45786W        W54586  14.678   2.537   4.469 -0.0104 -0.3045 -0.2100
45787W        W54587   8.161   4.586  37.233  0.0002  0.1313  0.0875
45788W        W54588  19.427   1.954   1.763 -0.0575 -0.1033 -0.1983
45789W        W54589  20.476   6.446  14.061  0.0204 -0.0929  0.0133
45790W        W54590   4.493   5.304  27.847  0.2123  0.0466  0.1087
45791W        W54591   1.145   3.031  37.105 -0.2281  0.0073 -0.0029
45792W        W54592  13.790   2.046  42.360 -0.0228 -0.2759 -0.0841
45793W        W54593   4.066   1.189  22.753  0.2242 -0.0891 -0.0285
45794W        W54594  13.023   6.504   0.056  0.0895 -0.3954 -0.0411
45795W        W54595  15.628   2.829  36.240 -0.0670 -0.3358  0.1660
45796W        W54596   3.810   0.794   1.518  0.0705  0.1204 -0.1813
45797W        W54597  11.630   3.114  18.118  0.1337  0.0302 -0.0491
45798W        W54598   9.289   4.080  29.120 -0.0216  0.3930  0.2415
45799W        W54599   3.729   0.753  25.638 -0.0555  0.0908 -0.1874
45800W        W54600  20.171   3.435  43.024 -0.3204 -0.2823 -0.0736
45801W        W54601   4.886   4.299   9.549 -0.4334 -0.3724  0.4000
45802W        W54602  20.947   5.595  36.662 -0.0167  0.0088 -0.2633
45803W        W54603  13.960   4.847   8.830  0.0108  0.1311  0.3370
45804W        W54604  13.322   3.839  11.800 -0.1185 -0.1851 -0.0855
45805W        W54605   8.326   4.312   2.386 -0.0832 -0.0265  0.0289
45806W        W54606  17.875   2.535  17.663 -0.3338 -0.4096  0.0203
45807W        W54607  15.674   5.028  16.323  0.0393  0.0465 -0.1055
45808W        W54608  13.582   1.642  10.603  0.0516 -0.2174  0.1935
45809W        W54609   1.190   2.251  38.571  0.0538  0.1827  0.3767
45810W        W54610   1.663   0.887   6.547 -0.1454  0.0756  0.1031
45811W        W54611   2.030   0.792   4.697 -0.4064  0.1730  0.0079
45812W        W54612  14.681   5.062  13.977  0.1323 -0.2401  0.0676
45813W        W54613  17.718   6.093   8.784  0.0612  0.1997  0.0982
45814W        W54614   2.718   4.976  24.359  0.0899 -0.2170  0.2889
45815W        W54615  19.822   4.719  33.748 -0.0557 -0.1017 -0.0103
45816W        W54616  16.463   1.076  18.647  0.2802  0.1323 -0.1712
45817W        W54617  14.004   4.333  20.636  0.1207  0.1423 -0.2182
45818W        W54618   6.989   4.542  43.227 -0.1350  0.0859  0.3121
45819W        W54619  13.131   2.027  18.522  0.1589 -0.2278  0.0387
45820W        W54620   6.776   4.620  32.792  0.1252  0.2582  0.1416
45821W        W54621   6.533   4.220  23.942 -0.0002  0.2176  0.0112
45822W        W54622  11.736   2.199  39.544  0.1953 -0.2211  0.0102
45823W        W54623  18.933   4.519  41.588 -0.2096  0.1877  0.2436
45824W        W54624  21.054   3.107  15.114 -0.2343  0.0996  0.1292
45825W        W54625  12.744   6.185  40.263  0.0408 -0.0209 -0.1184
45826W        W54626  20.447   6.258   6.332 -0.0489  0.3082  0.2664
45827W        W54627  19.797   5.110  13.136 -0.0002  0.0835 -0.2573
45828W        W54628  20.146   2.670  28.105  0.0300 -0.0281  0.0716
45829W        W54629  12.322   5.623  21.582  0.2417 -0.1204  0.1326
45830W        W54630  13.877   0.083   6.858  0.0520 -0.1585  0.4922
45831W        W54631   9.273   2.755  35.914  0.0371  0.0224  0.4597
45832W        W54632  13.117   2.598  16.622  0.0212  0.1030  0.0823
45833W        W54633  19.344   0.050   4.109  0.0846 -0.0029  0.1228
45834W        W54634   1.762   4.402  26.336  0.1659 -0.1196 -0.3437
45835W        W54635   4.813   4.931   7.631  0.0612 -0.1884  0.0029
45836W        W54636  12.744   2.503  33.340  0.0529  0.2466 -0.0185
45837W        W54637   7.208   3.829  44.371  0.4079  0.0127  0.1346
45838W        W54638  18.961   1.698   1.712  0.1320 -0.0229 -0.3788
45839W        W54639  16.149   5.166  30.161  0.2612 -0.2751 -0.1388
45840W        W54640  19.839   1.671   6.062  0.1339 -0.1780  0.4053
45841W        W54641   8.010   1.938  38.855  0.1290  0.2365 -0.1953
45842W        W54642   7.278   2.789  11.571 -0.3469 -0.1707 -0.1516
45843W        W54643   6.887   5.947   0.337  0.0852 -0.1635  0.1359
45844W        W54644   2.446   0.107  13.600  0.2212  0.0145 -0.1339
45845W        W54645  11.677   0.158  37.057  0.0804 -0.2672 -0.2741
45846W        W54646  12.119   0.790  18.131 -0.0882  0.1277  0.0071
45847W        W54647  20.339   3.050  30.583  0.1730 -0.1260 -0.0306
45848W        W54648   0.153   4.457   2.810 -0.3671  0.3123  0.1109
45849W        W54649  19.331   5.715  27.670 -0.0451 -0.0301  0.1427
45850W        W54650   1.596   5.167  40.549  0.1273  0.2189 -0.0303
45851W        W54651   7.949   1.100   2.019 -0.0814 -0.1692  0.5160
45852W        W54652   8.270   6.506  44.065 -0.0875 -0.1233  0.0470
45853W        W54653   1.018   5.922   1.480 -0.1465  0.0875  0.1142
45854W        W54654  16.703   4.204  19.715  0.3307 -0.0070  0.3444
45855W        W54655  16.132   2.738  32.635  0.0934 -0.2340 -0.0974
45856W        W54656  13.408   1.355   9.925 -0.1397  0.1802  0.0113
45857W        W54657   4.594   3.633  27.514 -0.1163  0.0973 -0.0264
45858W        W54658   0.650   3.765  42.203  0.2230  0.1682 -0.0995
45859W        W54659   6.426   4.580  23.585 -0.1634  0.2487 -0.0563
45860W        W54660  13.353   4.472  40.074 -0.0219  0.2404 -0.0339
45861W        W54661   6.309   2.310   2.261  0.0099 -0.0426  0.1257
45862W        W54662   5.453   6.500  44.128 -0.2042 -0.1541  0.3217
45863W        W54663   3.479   2.708  23.693 -0.3024  0.1221 -0.2206
45864W        W54664  11.334   5.697  21.365  0.1616  0.1513 -0.1074
45865W        W54665  15.659   1.259  14.799  0.1399  0.0400  0.0308
45866W        W54666   9.597   0.776   2.675  0.1574 -0.2302 -0.3236
45867W        W54667   7.281   4.140  25.834 -0.1561 -0.2051 -0.0701
45868W        W54668  11.436   4.623  17.953  0.2625 -0.2316 -0.1035
45869W        W54669  17.182   1.194  34.806 -0.1536 -0.1721 -0.3186
45870W        W54670   9.995   2.966  31.143  0.0905  0.2773  0.0853
45871W        W54671  18.891   6.608  28.275 -0.0522  0.0999 -0.0549
45872W        W54672   6.192   2.432   7.721 -0.1022  0.1920 -0.0715
45873W        W54673   9.170   2.501  10.548  0.3093  0.0248  0.1548
45874W        W54674   5.550   1.665  35.543 -0.1761  0.0523  0.1428
45875W        W54675  11.132   0.078   3.858  0.1815 -0.3906 -0.0773
45876W        W54676  18.741   6.360  34.704 -0.2900  0.0667  0.1088
45877W        W54677   3.652   5.662  41.948  0.0508 -0.1041  0.3332
45878W        W54678   9.755   0.313   7.767  0.0237  0.3000  0.0940
45879W        W54679   5.742   2.995  30.465 -0.0958 -0.0248  0.0649
45880W        W54680   3.546   2.995  19.577 -0.0275  0.0253 -0.0036
45881W        W54681   5.007   2.067  32.631 -0.3254 -0.0237  0.0466
45882W        W54682  20.570   5.034  32.714 -0.0205 -0.0664 -0.2022
45883W        W54683  20.028   5.495   7.795 -0.1376 -0.1523 -0.1555
45884W        W54684  16.670   4.808  35.333  0.1104 -0.1338 -0.3234
45885W        W54685   5.142   5.636  44.024  0.0594  0.0733 -0.0302
45886W        W54686   4.292   1.574  43.939  0.2679  0.1813  0.0677
45887W        W54687  10.597   4.196  17.737  0.3221  0.0763  0.2201
45888W        W54688  17.067   5.063  19.260  0.2604  0.0600  0.3410
45889W        W54689  10.871   0.918  15.562  0.0717 -0.0981 -0.0944
45890W        W54690  17.766   3.113   4.536 -0.0001  0.0830  0.2640
45891W        W54691   7.030   0.358   3.481 -0.2457 -0.0514 -0.3316
45892W        W54692  15.298   3.506  29.042 -0.0407  0.4315 -0.0508
45893W        W54693   5.939   1.051  36.717 -0.1027  0.0808  0.0101
45894W        W54694  11.486   4.111  38.187 -0.0903  0.1933 -0.1434
45895W        W54695  17.684   1.574  43.844 -0.1703 -0.1777  0.1038
45896W        W54696  16.231   4.568  17.226 -0.4010  0.0533  0.2917
45897W        W54697  14.461   1.128  41.793 -0.1441 -0.0845 -0.3560
45898W        W54698  17.151   6.434  17.076  0.1334  0.0352 -0.0153
45899W        W54699  16.455   6.297  44.077  0.0965  0.2178 -0.3204
45900W        W54700  15.178   2.025  15.830 -0.1723  0.0402  0.1492
45901W        W54701  20.638   2.843   8.740 -0.2616  0.2606 -0.2062
45902W        W54702  14.454   1.427  30.196  0.1769  0.2716  0.0411
45903W        W54703   5.496   0.891  41.981  0.3345 -0.0744 -0.0766
45904W        W54704   2.656   1.435  30.601 -0.0963  0.0178 -0.1398
45905W        W54705   2.527   2.471  38.418 -0.4521  0.1055  0.0115
45906W        W54706  15.956   5.102   1.616  0.2417 -0.0933  0.0173
45907W        W54707   7.753   1.196  34.506 -0.1932  0.3130 -0.5222
45908W        W54708   2.230   3.221  26.513 -0.2185 -0.0102 -0.0620
45909W        W54709  15.222   4.079   6.137 -0.0605 -0.2409  0.0454
45910W        W54710  12.157   3.317  13.383 -0.1580  0.0596  0.1339
45911W        W54711  13.555   0.029  38.738  0.0465 -0.2140  0.1717
45912W        W54712  17.218   1.927  16.733 -0.1688 -0.1823 -0.4414
45913W        W54713   0.421   5.386  15.703  0.0357  0.1449 -0.1011
45914W        W54714   3.102   5.593   7.529 -0.1628 -0.3143  0.0371
45915W        W54715   3.413   3.227   3.595 -0.2426 -0.1676  0.2833
45916W        W54716   4.260   4.331  34.545 -0.0359 -0.1732  0.3307
45917W        W54717  18.910   1.553  41.903 -0.1319  0.1542  0.0027
45918W        W54718   8.899   5.390  35.746  0.2742  0.3234  0.1144
45919W        W54719  16.266   3.279  33.527  0.0032  0.0494 -0.1355
45920W        W54720  10.011   4.052   0.090 -0.0291 -0.0366  0.0693
45921W        W54721   3.402   5.744  27.413  0.0122 -0.1083 -0.2291
45922W        W54722  13.471   0.604   2.576 -0.0439 -0.2260  0.4075
45923W        W54723   1.475   1.020  35.828  0.0706 -0.1962 -0.1786
45924W        W54724  10.628   1.066  10.940  0.1130 -0.0272  0.1843
45925W        W54725  20.592   6.181  17.810 -0.0670 -0.0130 -0.0592
45926W        W54726   1.742   1.589  12.419  0.3162 -0.1418  0.0778
45927W        W54727  16.966   3.661  31.839  0.1913  0.0039 -0.1666
45928W        W54728  17.241   5.573  19.014  0.0563  0.1004 -0.2760
45929W        W54729  13.113   0.658  10.389  0.0321 -0.2116 -0.2519
45930W        W54730  13.879   1.987   6.430 -0.1030  0.2616  0.0192
45931W        W54731  20.160   2.998  14.200 -0.1205 -0.4705  0.0833
45932W        W54732   0.344   6.174  39.131 -0.2537 -0.1784 -0.2164
45933W        W54733  19.416   4.706   1.380 -0.3643  0.0614 -0.0189
45934W        W54734   9.177   1.672  14.128 -0.0392  0.0972 -0.0355
45935W        W54735  13.629   5.297  23.325 -0.3087 -0.2537 -0.3025
45936W        W54736   9.705   5.819  14.799 -0.1522 -0.0294  0.0648
45937W        W54737  13.441   1.260  22.710 -0.1570  0.0312  0.1476
45938W        W54738   9.334   5.764  11.530 -0.0330 -0.0394  0.0781
45939W        W54739  11.944   4.799  39.188  0.0019 -0.1668 -0.0220
45940W        W54740  12.309   6.569  42.390 -0.1388 -0.0858  0.3759
45941W        W54741  15.247   4.455   1.333 -0.4188  0.1190 -0.0576
45942W        W54742  11.757   1.680  29.913  0.1290 -0.0396  0.2937
45943W        W54743  20.995   5.021   1.189  0.1476  0.3762  0.0370
45944W        W54744   8.514   5.418  36.107  0.0543  0.2252  0.1586
45945W        W54745   3.351   0.307  18.785 -0.0656 -0.0742  0.0577
45946W        W54746   6.728   3.890  15.380 -0.0006  0.0905  0.1649
45947W        W54747  18.864   0.949  15.099  0.1582  0.0877  0.0099
45948W        W54748   2.868   2.604  44.567  0.0112 -0.1284 -0.2604
45949W        W54749   5.942   5.992   9.471 -0.1969  0.0391 -0.0114
45950W        W54750   1.882   5.743  25.797 -0.2181  0.2454 -0.2640
45951W        W54751   2.746   3.751  33.813 -0.0479  0.1645 -0.0925
45952W        W54752   5.079   3.964   6.483 -0.1563 -0.0529  0.0138
45953W        W54753  13.200   1.562   8.289  0.1581  0.1399 -0.4707
45954W        W54754   9.750   4.642  14.890 -0.4179 -0.1286  0.2081
45955W        W54755  17.705   2.774  28.702  0.0765 -0.1648  0.1597
45956W        W54756   2.218   0.326   9.058  0.0878  0.1236 -0.2008
45957W        W54757   0.614   0.918  41.991 -0.1091 -0.0699 -0.1948
45958W        W54758  19.569   2.056  29.003  0.1144  0.0540 -0.3539
45959W        W54759   9.433   0.804  34.374 -0.1032 -0.2724 -0.1562
45960W        W54760   1.503   6.370  41.859 -0.0853 -0.0306  0.2192
45961W        W54761  14.092   2.155   0.519 -0.1647  0.2741 -0.0188
45962W        W54762  11.382   5.882   2.257 -0.1391 -0.1035 -0.0839
45963W        W54763   0.235   0.136  30.552 -0.0480 -0.0667 -0.1638
45964W        W54764  19.645   4.349  41.163  0.2934 -0.0699 -0.3181
45965W        W54765   3.012   2.742   1.237 -0.0930 -0.1666 -0.0619
45966W        W54766   2.459   1.846   2.179 -0.0467 -0.0750  0.1991
45967W        W54767   6.361   5.219   6.239 -0.1601  0.1509 -0.1335
45968W        W54768  15.530   1.372  35.069  0.1209  0.1700 -0.0340
45969W        W54769  15.171   0.073   0.715 -0.0959  0.1492 -0.2512
45970W        W54770  17.490   5.042  15.309 -0.1850 -0.2250  0.1435
45971W        W54771  13.312   3.620   1.285  0.0691 -0.2374  0.0970
45972W        W54772  10.828   4.880  35.170 -0.0376 -0.2126  0.0746
45973W        W54773   8.944   1.711  39.159 -0.2534  0.0481 -0.1851
45974W        W54774   5.906   0.818  13.492  0.0886  0.1694 -0.2036
45975W        W54775   8.702   2.592  31.126  0.1169  0.0702  0.2354
45976W        W54776  12.566   0.642  32.471 -0.2054 -0.3943 -0.0362
45977W        W54777   8.686   3.136   8.183 -0.0445 -0.0879  0.1241
45978W        W54778   0.814   0.551  31.187  0.0245 -0.1008  0.0095
45979W        W54779  10.063   1.744  39.181 -0.0084 -0.1409 -0.1142
45980W        W54780  18.040   2.095  28.392 -0.2422 -0.2383  0.3267
45981W        W54781   1.475   5.327  44.090 -0.1104  0.1697  0.1253
45982W        W54782  10.009   4.901   8.985 -0.3077  0.1161  0.0336
45983W        W54783   8.267   2.861  13.994  0.0559  0.2432 -0.0787
45984W        W54784   5.556   0.671   7.639 -0.2115  0.1495  0.0713
45985W        W54785  19.307   0.326   4.641 -0.2570  0.2789 -0.1329
45986W        W54786   7.460   2.603   9.453 -0.2384 -0.1459 -0.2037
45987W        W54787   6.991   3.170  24.346 -0.2535  0.1381  0.2703
45988W        W54788  15.812   5.854  15.089  0.0471  0.1700 -0.0926
45989W        W54789  16.444   5.907  13.475 -0.0384 -0.3079  0.0061
45990W        W54790  20.093   5.129  33.635 -0.0016  0.3258 -0.0214
45991W        W54791   8.808   0.731  14.295 -0.1783  0.0248 -0.2823
45992W        W54792  20.011   5.936   3.314  0.0255 -0.1345  0.0466
45993W        W54793   7.522   5.745  30.207  0.1369 -0.1050 -0.0803
45994W        W54794  14.151   3.916  29.407 -0.2647  0.1331 -0.1240
45995W        W54795  20.602   5.778  31.307 -0.1105 -0.1026 -0.0452
45996W        W54796  19.479   1.742  34.169 -0.1107  0.0149  0.0700
45997W        W54797  19.085   1.905  30.821 -0.0356 -0.0578 -0.0120
45998W        W54798  13.674   1.549  40.432 -0.1647 -0.1686  0.2810
45999W        W54799   4.535   4.061  10.981 -0.0710  0.0709  0.1150
46000W        W54800  11.570   6.304  31.679  0.2345  0.0669 -0.2994
46001W        W54801  11.643   4.517   8.477  0.5621 -0.0589  0.0531
46002W        W54802   7.713   4.166  40.464  0.0823  0.0373  0.2298
46003W        W54803  15.849   4.895  17.457 -0.1613 -0.0340  0.4135
46004W        W54804   5.972   3.119  41.977 -0.0623  0.0383  0.0216
46005W        W54805  14.253   2.160   1.876  0.0315 -0.0057  0.0344
46006W        W54806  13.601   4.002  21.546  0.0483 -0.1573  0.0594
46007W        W54807   6.669   3.430  42.399 -0.0928  0.2768 -0.1280
46008W        W54808   1.736   1.058  39.648 -0.2605 -0.0883 -0.1033
46009W        W54809   8.926   5.127  28.723 -0.0435 -0.1190  0.2155
46010W        W54810   3.045   0.953  12.667 -0.1001 -0.4106  0.1617
46011W        W54811  13.661   0.724  44.353 -0.2560  0.0793  0.0752
46012W        W54812   9.452   4.598  31.978 -0.0989  0.0432  0.0506
46013W        W54813   0.238   3.461  38.978  0.2423  0.1906  0.0474
46014W        W54814  15.253   2.856  22.386  0.0633 -0.2020  0.0092
46015W        W54815  11.123   6.219  33.713  0.2156 -0.3160  0.0822
46016W        W54816  14.170   1.842  23.134 -0.1403 -0.0429 -0.0717
46017W        W54817   5.429   0.737  22.799  0.2838 -0.2008  0.2588
46018W        W54818  15.090   6.246   6.638 -0.2257  0.1415  0.0296
46019W        W54819  16.670   3.560  22.305 -0.1708  0.4133 -0.0906
46020W        W54820   5.495   1.798   6.675  0.1454  0.0957  0.0054
46021W        W54821   4.942   2.814  40.728  0.1165 -0.1585 -0.0091
46022W        W54822   6.056   3.429  15.535 -0.1812 -0.3184  0.1047
46023W        W54823  21.171   0.223   9.696  0.1181  0.0345  0.0195
46024W        W54824   2.148   6.396  43.074  0.0464  0.1485  0.3944
46025W        W54825   7.855   5.731  36.912 -0.0681 -0.0215  0.0383
46026W        W54826   1.343   6.094  23.318 -0.0390 -0.0353  0.0404
46027W        W54827   3.391   4.833  40.369  0.0655  0.0095  0.0323
46028W        W54828   5.185   2.592  14.552 -0.0312  0.2057  0.2476
46029W        W54829   0.030   1.579   1.788 -0.1319  0.4269 -0.1880
46030W        W54830   1.218   3.440   2.164 -0.0793 -0.0795  0.0504
46031W        W54831  20.699   6.200   8.173 -0.2296  0.0022  0.3582
46032W        W54832   4.012   6.461  13.501  0.0073 -0.1505  0.1915
46033W        W54833   1.500   5.158  28.924  0.0950 -0.0856  0.0395
46034W        W54834   8.176   3.583  36.291  0.3469 -0.2303 -0.0496
46035W        W54835  19.326   5.765  29.838  0.1663  0.3192  0.0887
46036W        W54836  13.091   3.219  34.527  0.1380  0.0593  0.1969
46037W        W54837  16.866   5.884  30.489 -0.0828  0.0889 -0.2888
46038W        W54838  10.978   2.376  42.139  0.2656  0.2482  0.1903
46039W        W54839  14.903   2.313  40.301 -0.1265 -0.0618 -0.2169
46040W        W54840  10.427   2.897  19.617 -0.2471  0.2242 -0.0143
46041W        W54841  16.087   5.349  36.586  0.2152  0.1089  0.0262
46042W        W54842  14.455   3.875   7.899 -0.1023 -0.0616  0.0010
46043W        W54843   1.484   2.489  25.452  0.0913 -0.1684 -0.1133
46044W        W54844   2.192   0.035  11.825  0.1747  0.0148 -0.1750
46045W        W54845   0.629   5.962  12.250 -0.0765 -0.2236  0.4851
46046W        W54846  15.378   4.964   9.972  0.1285 -0.2578  0.2874
46047W        W54847  13.698   1.053   2.862  0.3357 -0.0579 -0.0177
46048W        W54848  17.233   1.884   6.685 -0.1001  0.0745  0.3073
46049W        W54849   1.601   6.270   1.005 -0.2009  0.0634  0.0281
46050W        W54850   7.099   0.295  12.282  0.0533 -0.1419  0.0490
46051W        W54851   2.375   1.583  32.190 -0.0765 -0.0402  0.2050
46052W        W54852  19.032   6.514   4.690  0.0526  0.0222  0.1597
46053W        W54853  20.738   2.884  37.326 -0.2233 -0.2370  0.3503
46054W        W54854   2.376   6.534  36.108 -0.0338  0.1177  0.0561
46055W        W54855   8.480   3.716   7.369  0.0070 -0.2193 -0.2179
46056W        W54856  12.381   0.161  40.339  0.1198 -0.1724  0.2240
46057W        W54857  19.507   3.149   9.598  0.1275  0.1619  0.0381
46058W        W54858   7.988   6.140   2.692  0.0345  0.1380  0.1063
46059W        W54859  17.653   2.498  38.621 -0.0664  0.0830  0.0827
46060W        W54860  16.645   5.742   0.604  0.0974  0.0642 -0.2446
46061W        W54861  12.993   4.411  18.445  0.0516 -0.0899 -0.1366
46062W        W54862   9.435   2.536   5.171 -0.0356  0.0497  0.1440
46063W        W54863  14.693   6.425  17.071  0.1478 -0.1387  0.1965
46064W        W54864   8.914   6.057  29.188  0.1359 -0.2184  0.1252
46065W        W54865   8.986   5.513  37.836 -0.0290 -0.4203 -0.1535
46066W        W54866  15.800   6.216  34.405 -0.2941 -0.0336 -0.0095
46067W        W54867   6.632   0.327  31.176  0.0870 -0.1296 -0.3030
46068W        W54868   3.461   5.289  13.293  0.0702 -0.1146 -0.0474
46069W        W54869  20.990   5.226  27.916 -0.3447 -0.0657  0.1299
46070W        W54870   5.244   5.312  11.909  0.0712  0.0390  0.0371
46071W        W54871  10.791   1.150  28.716 -0.2261 -0.1840  0.1927
46072W        W54872  18.364   4.491   0.397  0.1687 -0.0863  0.1498
46073W        W54873   2.217   5.375   1.351 -0.4664  0.2444 -0.0921
46074W        W54874   5.094   5.085   5.601  0.1515  0.3149  0.1509
46075W        W54875   5.092   3.200  30.989 -0.0678  0.0799  0.1187
46076W        W54876  18.262   5.466   6.888 -0.1019  0.1686  0.0846
46077W        W54877   3.767   1.716  28.810  0.0827  0.0845  0.1738
46078W        W54878  18.656   6.290  17.337  0.0404 -0.0492 -0.0930
46079W        W54879  12.941   0.434  18.987  0.2012  0.2295 -0.2560
46080W        W54880   9.872   5.704  42.537  0.2724  0.0160  0.1723
46081W        W54881  10.094   4.079   5.778  0.0835 -0.3037 -0.0660
46082W        W54882  20.023   1.029   2.555  0.0261 -0.2117  0.2893
46083W        W54883  13.773   5.787   8.431  0.1625  0.1180 -0.1838
46084W        W54884  16.226   2.106  38.123  0.1213 -0.0958  0.1924
46085W        W54885  14.895   2.205  31.848  0.1920 -0.0407  0.0714
46086W        W54886   6.117   0.154  34.300 -0.1129 -0.1172 -0.1872
46087W        W54887   8.060   3.761  31.310 -0.1604 -0.2736  0.1449
46088W        W54888   5.750   0.422  39.261 -0.0202 -0.1682  0.1118
46089W        W54889  11.532   3.181   1.441 -0.1360  0.1331 -0.1488
46090W        W54890  10.110   5.993  31.056  0.3444  0.0615  0.1156
46091W        W54891  10.679   3.908  31.963 -0.0967  0.0366  0.0407
46092W        W54892   8.517   3.929   8.330 -0.0482 -0.0245  0.1267
46093W        W54893  17.892   4.803  14.820 -0.0608 -0.0969 -0.0866
46094W        W54894  11.691   4.625  30.669 -0.2608 -0.0251  0.0173
46095W        W54895  13.136   5.117  34.464 -0.0179 -0.0905 -0.1340
46096W        W54896   4.288   0.831  28.148  0.2221  0.0717  0.0786
46097W        W54897  13.816   4.526  25.562 -0.0627  0.0974 -0.0686
46098W        W54898   8.421   4.428   3.333 -0.1480 -0.6263 -0.0457
46099W        W54899   1.677   0.520  41.417 -0.1656  0.0791  0.0208
46100W        W54900   5.615   2.776  33.666  0.3626 -0.3971  0.0483
46101W        W54901   4.133   3.835  10.604  0.4012 -0.0762  0.1947
46102W        W54902   8.259   2.443  10.497  0.1881 -0.3629  0.0393
46103W        W54903   8.638   1.166   7.455  0.1006 -0.1477  0.1819
46104W        W54904   3.619   0.008   0.056  0.1322  0.0301 -0.3234
46105W        W54905   3.223   6.055   9.102  0.2062  0.0834 -0.0492
46106W        W54906   7.973   4.150  13.237  0.1297  0.0724  0.2516
46107W        W54907   1.825   5.265  35.722  0.1473 -0.1316  0.1505
46108W        W54908  17.981   3.190   7.316 -0.1478  0.2819  0.0297
46109W        W54909   5.456   1.885  24.264 -0.0722 -0.1517 -0.0191
46110W        W54910   0.371   1.725  15.307  0.0436  0.1673  0.1648
46111W        W54911   2.961   3.047  33.456  0.1781  0.0850  0.2221
46112W        W54912   8.552   3.059  13.522 -0.0476 -0.2382  0.0022
46113W        W54913  14.488   0.109  14.738  0.2231 -0.1241  0.0480
46114W        W54914  20.815   6.346  41.359  0.2718  0.1601  0.0295
46115W        W54915  12.362   5.460   5.926 -0.3193 -0.2315 -0.1635
46116W        W54916  13.715   0.121  36.707 -0.0453 -0.0432 -0.0875
46117W        W54917  16.212   4.723  30.375 -0.1792 -0.0525  0.0387
46118W        W54918   1.688   1.748   2.758 -0.1299  0.0415 -0.0691
46119W        W54919  19.536   6.565  34.128 -0.1682  0.1388  0.1107
46120W        W54920  20.945   3.726  30.064  0.2862 -0.2003 -0.2832
46121W        W54921   3.102   5.379   7.999 -0.2356  0.0126  0.1809
46122W        W54922  20.493   3.303  33.320 -0.0254  0.0011  0.1614
46123W        W54923   7.164   2.592  27.977 -0.1726  0.1429 -0.1800
46124W        W54924  16.571   3.141  33.985 -0.1990 -0.2437 -0.1558
46125W        W54925  11.586   6.209  11.087 -0.0948 -0.1089 -0.0827
46126W        W54926   1.395   1.683   2.297 -0.0380 -0.0315 -0.1629
46127W        W54927  18.280   1.199  14.168 -0.2002  0.0753  0.0356
46128W        W54928  12.712   2.288  37.311 -0.1603 -0.1267  0.1642
46129W        W54929   3.264   6.130  12.605 -0.2005 -0.1937  0.2358
46130W        W54930   1.896   4.746  28.234 -0.1064 -0.1176  0.2394
46131W        W54931  19.521   5.756  43.663  0.1391 -0.1858  0.0074
46132W        W54932   3.286   1.616  25.346 -0.1135  0.0604  0.0066
46133W        W54933   4.281   6.402   2.731  0.3188 -0.0748  0.0593
46134W        W54934   0.423   4.275   1.170  0.0589  0.2311 -0.1601
46135W        W54935  18.348   3.140  30.554  0.3658 -0.0299  0.1226
46136W        W54936  20.038   3.621  38.403 -0.0505 -0.0988 -0.0762
46137W        W54937  11.478   1.955  39.894  0.3860 -0.1948 -0.2109
46138W        W54938   4.481   1.874  27.209  0.0135 -0.1385 -0.2408
46139W        W54939   6.394   3.919   9.077 -0.1235  0.0177  0.0927
46140W        W54940  13.358   0.738  38.990 -0.2091 -0.1486 -0.0698
46141W        W54941   8.386   2.557  34.822 -0.2460 -0.1694  0.1453
46142W        W54942   9.252   5.217  12.325  0.1096  0.1063 -0.0305
46143W        W54943   1.045   5.716  23.953 -0.1870 -0.1022 -0.0927
46144W        W54944   3.385   5.498  16.081  0.0675  0.4683  0.2345
46145W        W54945  15.701   5.581  41.488 -0.0249 -0.0026 -0.2019
46146W        W54946   2.118   2.796  30.099 -0.0432 -0.3044 -0.0803
46147W        W54947  10.690   1.066  44.980 -0.4273  0.1708 -0.1294
46148W        W54948  15.682   5.497   4.485 -0.0276 -0.1304 -0.0929
46149W        W54949   0.386   2.579  32.243  0.2450 -0.0853 -0.0138
46150W        W54950  14.183   5.224  17.945  0.0226 -0.1358  0.0635
46151W        W54951  13.499   0.646   2.033 -0.2067 -0.2884 -0.0928
46152W        W54952  13.900   5.757  14.405  0.0843  0.1048  0.1185
46153W        W54953   6.739   5.033   5.347 -0.2224 -0.1258  0.1011
46154W        W54954   3.719   5.378   4.840  0.1090  0.1404 -0.2184
46155W        W54955  14.614   4.478  37.482 -0.3610  0.1303 -0.1077
46156W        W54956   3.933   3.058  24.938 -0.1531  0.3503  0.0148
46157W        W54957  14.799   1.411  44.072  0.0641 -0.0039  0.0121
46158W        W54958   7.299   6.385  28.368  0.1091  0.1959  0.1895
46159W        W54959   7.380   3.275  12.792 -0.1081 -0.0337 -0.1462
46160W        W54960  11.459   3.094   5.669  0.2016  0.1367 -0.3041
46161W        W54961  17.017   3.752  15.633  0.0841 -0.1035  0.4087
46162W        W54962  16.680   4.062  36.058 -0.1066 -0.1328 -0.1753
46163W        W54963   2.687   1.323   4.079  0.0686  0.2432 -0.0654
46164W        W54964  11.367   6.478   2.957  0.3146 -0.2680 -0.1507
46165W        W54965  12.794   0.029   9.742 -0.3583 -0.3493 -0.1291
46166W        W54966  20.285   2.676  29.076  0.1114  0.0162 -0.0447
46167W        W54967  16.048   3.765  12.098 -0.0372 -0.1135 -0.2498
46168W        W54968  18.165   2.559  32.229 -0.1232  0.1811  0.0887
46169W        W54969   4.773   1.764  14.255  0.1004 -0.1884  0.4410
46170W        W54970   5.448   3.598  24.125 -0.1930 -0.2341 -0.0032
46171W        W54971   7.812   1.893  45.028  0.3190 -0.1103 -0.3214
46172W        W54972  15.433   2.902  15.447  0.1249 -0.2460  0.1830
46173W        W54973  16.319   3.284  13.891  0.2113  0.1176  0.3179
46174W        W54974   2.998   3.958  40.133 -0.0033  0.0877 -0.0384
46175W        W54975   6.125   3.539  35.379  0.1786  0.1217 -0.4252
46176W        W54976  18.936   5.069  30.987 -0.1776 -0.0638  0.0760
46177W        W54977  17.309   2.914  11.014 -0.0728 -0.1266  0.1825
46178W        W54978  10.495   5.239  42.083 -0.0506 -0.0569 -0.0255
46179W        W54979  10.754   3.494  30.797 -0.2252 -0.0740  0.2341
46180W        W54980   2.234   1.391  43.199  0.0861  0.0722  0.1065
46181W        W54981   6.062   4.612  23.172 -0.1313 -0.0949  0.2925
46182W        W54982  20.230   2.293   3.663  0.1179 -0.0210  0.2961
46183W        W54983   0.752   1.176   4.830 -0.0134 -0.1574  0.0998
46184W        W54984   1.308   3.073  32.326  0.0146 -0.1248  0.0256
46185W        W54985  16.378   4.912   1.440 -0.0406 -0.2936  0.0982
46186W        W54986  13.774   2.201  39.783 -0.0827 -0.1635 -0.0600
46187W        W54987  18.051   4.912   7.682 -0.1613 -0.0324  0.3403
46188W        W54988  14.156   3.918   2.961  0.4168 -0.1547  0.0751
46189W        W54989  19.468   1.220  15.204  0.4521 -0.1341 -0.0943
46190W        W54990   7.883   6.416  43.429 -0.0149  0.0439 -0.1210
46191W        W54991  10.758   5.877  37.067  0.2699  0.0442 -0.2788
46192W        W54992  17.113   4.069  37.606  0.0950 -0.3193  0.1223
46193W        W54993  15.694   0.009   0.590 -0.2635 -0.0466 -0.2104
46194W        W54994  17.251   0.003  20.928  0.3165 -0.1212  0.0230
46195W        W54995  12.126   5.672  41.725 -0.0533 -0.0790  0.0958
46196W        W54996  12.725   3.651  15.370 -0.1098  0.0528  0.3404
46197W        W54997   3.601   4.583   7.748  0.0178  0.0949  0.1923
46198W        W54998   4.488   3.884  42.097  0.2507  0.1275 -0.0225
46199W        W54999  13.133   4.796  24.414 -0.2856 -0.3778 -0.0294
46200W        W55000   4.600   0.417  40.894  0.2482  0.0388 -0.1757
46201W        W55001   5.789   2.622  11.199 -0.0970  0.0050 -0.0241
46202W        W55002   2.857   5.700   9.315  0.2160  0.0961  0.1719
46203W        W55003  13.654   0.764  17.653 -0.3252 -0.1285 -0.1593
46204W        W55004   2.880   6.480   8.988 -0.3299  0.0078 -0.3106
46205W        W55005   7.546   1.330  36.324 -0.1321  0.0308  0.2618
46206W        W55006  19.194   6.397  19.559 -0.0834  0.1424 -0.3560
46207W        W55007   4.736   2.365  35.990  0.2600  0.2268  0.0773
46208W        W55008  20.320   4.737  30.040  0.0863  0.1185 -0.4296
46209W        W55009  15.138   2.065   5.423 -0.2788  0.2301  0.0412
46210W        W55010   8.270   3.409  35.800  0.0133  0.0354 -0.2213
46211W        W55011   2.070   0.202  35.805  0.3259 -0.2693  0.1224
46212W        W55012  17.252   6.136   5.004  0.2359 -0.3619 -0.1620
46213W        W55013   3.059   0.937   2.696 -0.1111 -0.2699  0.0195
46214W        W55014  13.070   3.100  17.352  0.0813  0.1243 -0.2141
46215W        W55015   9.948   2.462  14.960 -0.3790  0.2550  0.0033
46216W        W55016  21.040   1.079   7.730  0.1336  0.0291  0.0755
46217W        W55017  11.472   2.846  43.829 -0.1077 -0.1287 -0.0110
46218W        W55018   8.187   0.031  15.997 -0.2415 -0.1125 -0.0132
46219W        W55019  15.428   2.166  11.600  0.0280 -0.0694 -0.1227
46220W        W55020  12.583   0.432  41.178 -0.0557 -0.1945 -0.4930
46221W        W55021  13.502   4.654  38.958 -0.2999  0.0425 -0.2372
46222W        W55022   7.885   5.029  43.801  0.0019  0.3056  0.0032
46223W        W55023   0.010   3.221  28.954 -0.1698  0.0762  0.2207
46224W        W55024  15.995   2.017  44.603  0.0224 -0.0634  0.1013
46225W        W55025   3.008   4.705  44.948 -0.3139  0.0088  0.1674
46226W        W55026   3.682   5.522  20.670  0.1601  0.0068 -0.0023
46227W        W55027  11.343   2.855   7.469 -0.1381 -0.0521 -0.0777
46228W        W55028  14.382   0.586  41.600  0.0495 -0.0828 -0.1241
46229W        W55029  16.340   2.175  38.631 -0.2721 -0.1755  0.1303
46230W        W55030  18.030   5.537  39.265 -0.1127 -0.0342  0.0595
46231W        W55031  14.412   3.223   6.842  0.2699  0.2035  0.1478
46232W        W55032   6.971   0.921  43.123  0.1962 -0.1856 -0.1934
46233W        W55033   7.516   4.015  29.247  0.0212 -0.2274  0.0852
46234W        W55034  14.438   5.770   0.387 -0.1555 -0.3422  0.0485
46235W        W55035  20.511   5.207  35.805 -0.2091 -0.0670 -0.1402
46236W        W55036   7.520   0.076   6.827 -0.1248  0.0083  0.1090
46237W        W55037  14.728   0.960  43.782 -0.1849 -0.2531  0.0282
46238W        W55038   0.444   3.084   1.977 -0.1119 -0.1775  0.1788
46239W        W55039   6.339   1.922   8.586  0.0747  0.0277 -0.1462
46240W        W55040  12.586   3.100   6.713  0.2452 -0.0547 -0.0457
46241W        W55041  13.281   0.652   0.053  0.2637 -0.0494 -0.1924
46242W        W55042   2.444   6.218  32.971  0.0987  0.1745  0.0200
46243W        W55043  15.696   1.755  11.776 -0.0154  0.3369  0.1293
46244W        W55044   2.237   3.156  11.820  0.0247  0.2824 -0.1880
46245W        W55045  17.121   4.941  12.217  0.4495 -0.1255  0.0490
46246W        W55046   5.029   4.970  24.745  0.0923 -0.3691 -0.1366
46247W        W55047   2.428   0.273  25.813 -0.0485 -0.0550 -0.1921
46248W        W55048  16.689   2.159  42.930 -0.4242 -0.1610 -0.0783
46249W        W55049   6.732   3.066   5.276 -0.1344  0.0051  0.1519
46250W        W55050  20.105   5.369   3.982 -0.1722 -0.2111  0.1247
46251W        W55051   4.268   2.417   1.087  0.0671  0.2245  0.0090
46252W        W55052  10.808   1.889  39.337 -0.1498 -0.3151 -0.2068
46253W        W55053   2.990   3.748  42.139  0.1470 -0.1677 -0.2827
46254W        W55054   4.042   3.080  33.795  0.2223  0.1566 -0.0473
46255W        W55055   8.016   1.535  39.734 -0.1169 -0.3354 -0.0718
46256W        W55056   2.648   2.481   8.660  0.0437 -0.1158 -0.1918
46257W        W55057  13.993   3.843   8.156  0.0107 -0.1702  0.0805
46258W        W55058   0.171   4.041   4.351 -0.1226  0.2543 -0.3683
46259W        W55059  13.583   6.581  18.837 -0.1853  0.0720  0.2662
46260W        W55060  14.051   0.777  20.350  0.2174  0.0284  0.2080
46261W        W55061   0.234   5.829  33.846 -0.0167  0.0308  0.2268
46262W        W55062   2.370   3.708  44.794 -0.4818 -0.1099 -0.0098
46263W        W55063   0.012   0.375  34.515  0.0072 -0.2452 -0.0249
46264W        W55064   6.011   2.027   2.535 -0.0990 -0.0057 -0.0391
46265W        W55065   1.717   2.343   9.648  0.2065 -0.1998 -0.0170
46266W        W55066  17.302   3.477  40.591 -0.0268 -0.0058 -0.0091
46267W        W55067   1.474   3.736  44.373 -0.1200 -0.1507 -0.0562
46268W        W55068   6.217   3.888  15.671  0.0370 -0.0185  0.3157
46269W        W55069  11.713   5.582  14.148 -0.1438 -0.2180 -0.0898
46270W        W55070   3.960   4.694  41.634 -0.1315  0.0140 -0.2214
46271W        W55071  12.212   5.780  17.159  0.0063 -0.2914 -0.1314
46272W        W55072  13.397   5.892  10.776 -0.0742 -0.0562  0.0833
46273W        W55073  17.876   0.677   1.956  0.2094  0.0442  0.0295
46274W        W55074   1.155   3.876   1.804  0.0288  0.1539 -0.3096
46275W        W55075   3.385   2.002  15.092  0.1458 -0.0176 -0.1230
46276W        W55076   1.741   6.245  25.651 -0.1577  0.0053  0.0262
46277W        W55077   4.473   4.190  29.832 -0.0198  0.2439 -0.2722
46278W        W55078  15.176   3.539  43.525  0.0587  0.0875 -0.0071
46279W        W55079  17.307   2.205  15.958 -0.1557 -0.2941  0.1198
46280W        W55080   9.661   4.621  30.832  0.0529 -0.1585  0.1450
46281W        W55081  14.056   4.988  20.221 -0.0258 -0.1537  0.1721
46282W        W55082  20.683   4.242  43.592  0.2621  0.0575  0.1008
46283W        W55083   5.291   4.509  24.610 -0.2651 -0.2233 -0.1663
46284W        W55084  18.674   4.368   1.902 -0.0254 -0.2302  0.2747
46285W        W55085   1.905   1.710  38.766  0.1343 -0.2291 -0.2221
46286W        W55086  11.956   2.103  34.168 -0.2664 -0.1656  0.0128
46287W        W55087   3.293   0.213  36.113  0.4167 -0.0388  0.1375
46288W        W55088   6.087   3.628  16.549  0.1627 -0.2107 -0.2823
46289W        W55089   7.829   0.692  14.470 -0.2176 -0.0084 -0.0828
46290W        W55090  20.787   2.687  44.633 -0.2682 -0.1845  0.3051
46291W        W55091  15.235   1.889  37.096  0.1814  0.1531  0.3284
46292W        W55092   0.066   6.523  37.035 -0.0634  0.2375 -0.0594
46293W        W55093  10.110   2.264  17.904 -0.1377  0.1199 -0.0902
46294W        W55094   5.974   3.193  33.596 -0.0789  0.0830  0.1743
46295W        W55095  16.221   3.422  42.004 -0.1571 -0.0371 -0.0986
46296W        W55096  14.536   5.092  30.932  0.0705 -0.0117  0.0757
46297W        W55097   8.722   6.474  36.421  0.0704  0.2103 -0.1395
46298W        W55098  14.146   3.866  31.252  0.1702 -0.0153  0.0618
46299W        W55099  12.102   3.223  39.756 -0.0036  0.2871  0.0974
46300W        W55100   1.635   0.175  11.375  0.1255 -0.0273 -0.0745
46301W        W55101   4.194   4.508  30.100  0.1316  0.1285 -0.1511
46302W        W55102   5.739   1.245  27.785 -0.0630 -0.1178  0.1306
46303W        W55103   9.041   3.074   1.074 -0.2609  0.2770  0.0639
46304W        W55104  19.521   3.065  37.377 -0.0112 -0.0941  0.1143
46305W        W55105   2.301   6.223  12.189  0.2114 -0.2349 -0.1715
46306W        W55106  19.144   3.793   4.334 -0.1378  0.3037 -0.1565
46307W        W55107   4.313   6.019  10.282 -0.2265 -0.2455 -0.1533
46308W        W55108  19.395   4.105  33.085 -0.0562 -0.1297 -0.0358
46309W        W55109  16.522   2.489   6.352  0.0575  0.2267  0.1354
46310W        W55110  11.490   3.014  27.958 -0.0809 -0.2567 -0.0432
46311W        W55111   2.133   0.740   8.563 -0.0750 -0.2010 -0.0438
46312W        W55112  16.168   6.008   5.969 -0.0347 -0.1297  0.1441
46313W        W55113  12.366   4.713  18.288  0.2315  0.2712 -0.0067
46314W        W55114   8.520   1.627  29.466  0.1921 -0.0711  0.0717
46315W        W55115  16.056   1.525  43.362  0.0474  0.2235  0.2052
46316W        W55116   3.428   2.688  38.484 -0.0254  0.2099 -0.0587
46317W        W55117  20.743   1.260  37.763  0.0038  0.1000 -0.0359
46318W        W55118  11.920   1.514  35.903 -0.0557 -0.2824  0.1837
46319W        W55119   0.155   4.861  37.436  0.0352  0.1248 -0.0434
46320W        W55120   9.284   1.690  30.093 -0.2817  0.2055  0.2634
46321W        W55121  16.981   3.577  38.044 -0.0329  0.0088  0.1593
46322W        W55122   3.842   6.245   6.431  0.0874  0.1403 -0.2546
46323W        W55123   9.567   2.826  34.395  0.1355  0.0320  0.1119
46324W        W55124   3.944   3.343  24.455 -0.0258 -0.0732  0.2032
46325W        W55125   9.989   5.294  42.386 -0.1365 -0.0015 -0.0898
46326W        W55126   2.077   0.652  32.005  0.2780 -0.0674 -0.2179
46327W        W55127   5.434   0.471  12.595  0.2377 -0.4479 -0.0479
46328W        W55128  10.912   1.681   8.221 -0.2655 -0.1395 -0.1270
46329W        W55129  14.583   2.149   3.508  0.2613 -0.1036  0.0788
46330W        W55130  16.541   6.169  36.915 -0.1144 -0.1525 -0.2794
46331W        W55131  13.148   3.849  11.311  0.0570  0.0860  0.3164
46332W        W55132  19.907   5.574  40.035 -0.0970  0.1354  0.1854
46333W        W55133  20.762   3.002  10.076 -0.3397 -0.0796  0.1535
46334W        W55134  16.918   4.791  19.721  0.3291  0.1697 -0.0729
46335W        W55135  18.925   5.022  30.178 -0.2021 -0.2947 -0.2124
46336W        W55136   8.094   0.407  39.826  0.1649 -0.0984 -0.2111
46337W        W55137   1.209   5.921  39.849 -0.3833  0.0727  0.0991
46338W        W55138   1.174   0.371   0.457 -0.2353  0.0308  0.1849
46339W        W55139  15.708   3.683  31.531  0.0842 -0.0636  0.0433
46340W        W55140  14.275   6.016  31.666  0.1301 -0.1310 -0.1155
46341W        W55141   2.811   5.583   5.646 -0.0748 -0.2009 -0.1820
46342W        W55142  11.367   6.119  12.164 -0.2021 -0.2082  0.1292
46343W        W55143  19.816   1.289   0.512 -0.2237 -0.0337 -0.3296
46344W        W55144   3.363   0.813  33.202  0.0413  0.0271  0.0518
46345W        W55145  18.304   1.308  19.789  0.0084 -0.0657 -0.1393
46346W        W55146  13.369   4.376  36.526  0.3875 -0.1049  0.1941
46347W        W55147  10.741   1.165   1.927  0.0765 -0.0745 -0.0967
46348W        W55148   7.201   4.957  13.922  0.0367  0.1719  0.2777
46349W        W55149   4.750   3.180  42.054  0.2893 -0.1944  0.4751
46350W        W55150  10.239   0.490   4.372 -0.3548 -0.2133 -0.1176
46351W        W55151   7.316   2.257  15.399 -0.0617 -0.2065  0.1086
46352W        W55152  12.030   5.232   5.500 -0.0322 -0.0183 -0.1951
46353W        W55153   4.149   1.745  27.680 -0.1528 -0.0032 -0.0386
46354W        W55154  16.110   5.672  14.766 -0.0171 -0.2712 -0.1753
46355W        W55155   4.123   2.805  43.904  0.1227 -0.0230  0.0918
46356W        W55156  20.047   1.848   8.782  0.1923  0.2227 -0.0496
46357W        W55157   9.623   6.361   6.616  0.0784 -0.1116  0.0287
46358W        W55158   6.201   2.491  37.178  0.2696  0.1807 -0.0369
46359W        W55159   7.129   6.360  38.346 -0.0049  0.0620 -0.1177
46360W        W55160  11.771   5.106  15.320 -0.1392  0.0994 -0.2630
46361W        W55161   9.707   4.498   2.286 -0.1828 -0.3536 -0.1290
46362W        W55162  12.483   5.928   5.819 -0.0771 -0.2099 -0.4440
46363W        W55163   6.541   2.937  29.972 -0.0143  0.0157 -0.0968
46364W        W55164  16.235   5.323  11.123  0.4280  0.0897  0.2857
46365W        W55165   7.646   5.187  44.722 -0.0290 -0.0122 -0.0571
46366W        W55166  12.515   2.553  19.273  0.4209 -0.0824  0.0756
46367W        W55167  20.198   1.810  42.979  0.0240 -0.0792  0.0246
46368W        W55168   3.102   0.695   4.423 -0.0891 -0.2907 -0.2770
46369W        W55169   8.350   6.446  41.227  0.0642  0.1028 -0.0941
46370W        W55170  13.782   0.754   4.801 -0.2982 -0.0037 -0.3735
46371W        W55171  13.373   2.099  42.610 -0.0574  0.5694 -0.0991
46372W        W55172  11.425   3.129  28.629 -0.1111 -0.3718 -0.2205
46373W        W55173  21.058   2.721   2.705 -0.3046 -0.1327 -0.0509
46374W        W55174   0.897   1.976  25.782  0.1896 -0.0556 -0.0126
46375W        W55175  17.505   3.003  21.270 -0.1458  0.2233 -0.2337
46376W        W55176   6.274   5.822   1.550  0.0094 -0.2765 -0.0645
46377W        W55177  14.249   5.255  22.151 -0.1501 -0.1573 -0.3038
46378W        W55178  14.551   3.659  20.047 -0.0551 -0.0224 -0.0608
46379W        W55179  11.153   2.758  36.014 -0.1246 -0.3105 -0.2058
46380W        W55180  14.045   2.059  13.806 -0.0165 -0.2241 -0.2568
46381W        W55181  17.993   5.249   8.425  0.1345 -0.0016  0.0685
46382W        W55182  16.878   3.744   6.622  0.0355  0.2486  0.0922
46383W        W55183  16.415   4.630   7.271  0.1569  0.0027  0.1366
46384W        W55184  11.855   2.941   4.167  0.1156  0.0670 -0.2350
46385W        W55185   3.798   0.171  36.400 -0.0328 -0.0615  0.0339
46386W        W55186   4.567   3.485  43.293 -0.1319  0.4693 -0.0808
46387W        W55187  14.661   4.796  18.942  0.1350 -0.3493 -0.0049
46388W        W55188   6.657   4.344   9.298  0.1779  0.2479 -0.0866
46389W        W55189   8.804   6.398  26.175 -0.2721 -0.2428  0.0281
46390W        W55190  19.203   4.836   3.058 -0.0868 -0.0399  0.1301
46391W        W55191   6.967   5.043  14.779  0.0371  0.1382  0.0727
46392W        W55192   3.916   4.135   9.724  0.2648 -0.2047  0.0731
46393W        W55193  10.311   1.975  44.121  0.4980 -0.2310  0.1497
46394W        W55194  15.848   1.448  39.166 -0.0236 -0.1899 -0.2545
46395W        W55195   2.612   3.112   3.452 -0.1416  0.0798  0.1823
46396W        W55196  15.287   3.121  33.771  0.0990  0.1160  0.2695
46397W        W55197   5.581   1.288  42.690  0.0006  0.1832 -0.2062
46398W        W55198  14.626   0.515   9.536 -0.2925  0.1866 -0.1826
46399W        W55199  13.995   5.487  42.772  0.0191 -0.5910 -0.0249
46400W        W55200   4.597   6.514  31.992 -0.0528 -0.0391  0.0601
46401W        W55201   4.737   6.205  12.205 -0.0456  0.1529  0.0314
46402W        W55202  20.082   0.323  40.597 -0.0805  0.0376 -0.1763
46403W        W55203  12.032   3.456   3.246  0.1648 -0.0603 -0.3063
46404W        W55204   2.848   0.950  22.992  0.1874  0.2545 -0.1343
46405W        W55205  19.440   4.375  11.033 -0.0385 -0.1099 -0.2221
46406W        W55206  15.066   3.966  38.440  0.1265 -0.1933  0.1204
46407W        W55207   4.796   1.202   9.788 -0.1276 -0.1231  0.5504
46408W        W55208  20.787   0.722   6.921  0.2243 -0.1481  0.2342
46409W        W55209   5.094   4.377  11.655 -0.0709 -0.0966 -0.1778
46410W        W55210   3.571   3.507  21.856  0.0153 -0.1373 -0.0402
46411W        W55211   9.936   3.696  44.487  0.1271  0.1854  0.0285
46412W        W55212   0.829   0.195   4.093 -0.1589 -0.3041  0.1540
46413W        W55213   6.303   5.932  38.249  0.2776 -0.0491 -0.0675
46414W        W55214  19.458   5.569  41.859  0.0049  0.0972  0.0743
46415W        W55215  17.353   1.691  31.060 -0.0301 -0.0197 -0.0031
46416W        W55216   0.307   0.343  32.048  0.0512  0.1013  0.0870
46417W        W55217  16.061   4.656  16.337  0.0304  0.0415  0.3041
46418W        W55218  12.120   4.414  32.926 -0.2568 -0.3852  0.2227
46419W        W55219  12.830   2.614   7.599 -0.1324  0.0366 -0.0426
46420W        W55220   5.153   4.051  24.870 -0.1177  0.2394 -0.0532
46421W        W55221   2.766   0.091  15.345  0.0131  0.0173 -0.0270
46422W        W55222  17.465   2.505  30.444  0.0129  0.3750  0.0533
46423W        W55223  18.755   6.119  10.783 -0.2687  0.4053  0.1617
46424W        W55224  10.444   2.302  13.022 -0.1380  0.0259 -0.0284
46425W        W55225   1.743   4.163  44.708 -0.0867  0.1775 -0.2614
46426W        W55226  18.233   0.886  19.037 -0.0822  0.0642 -0.1147
46427W        W55227  14.029   4.471   1.381 -0.0235 -0.2673  0.1743
46428W        W55228   1.224   5.276  33.654  0.1071 -0.1410  0.3084
46429W        W55229   3.814   0.665   3.464 -0.0319 -0.3200 -0.0602
46430W        W55230  18.855   5.500  35.906  0.0918  0.2809  0.0805
46431W        W55231  10.604   6.011  31.591 -0.1124  0.0571  0.0526
46432W        W55232   5.974   4.687  29.917  0.5000  0.1470 -0.2170
46433W        W55233   1.411   2.098   9.279  0.0509 -0.0368  0.1985
46434W        W55234   4.893   6.015  22.825  0.1035 -0.1553 -0.1933
46435W        W55235  15.484   3.657   7.595  0.0734  0.1135  0.3888
46436W        W55236   6.921   1.007   7.036 -0.0251 -0.0384 -0.0003
46437W        W55237  13.413   5.485  19.704 -0.1736  0.2234 -0.0149
46438W        W55238   6.213   3.440  24.383 -0.1598  0.0500 -0.2696
46439W        W55239  10.110   0.878  33.397  0.3153  0.1630 -0.1668
46440W        W55240  17.222   3.549   1.332 -0.0827 -0.0272 -0.1586
46441W        W55241  17.172   1.658   4.555 -0.0074  0.1111  0.0587
46442W        W55242  12.989   4.502  10.515  0.2298  0.2889 -0.1736
46443W        W55243  14.043   4.722  44.910  0.3251  0.0836 -0.2901
46444W        W55244  19.631   3.866  26.449 -0.1358  0.0079 -0.1413
46445W        W55245  18.596   3.539  37.529  0.4140 -0.1556 -0.0998
46446W        W55246  12.705   0.546  13.618  0.1004  0.3249 -0.1381
46447W        W55247   0.133   2.656   4.791 -0.1716  0.0197  0.0768
46448W        W55248  11.157   2.930   1.030  0.2248  0.0096 -0.1214
46449W        W55249  16.399   0.435  42.440 -0.0441  0.2545 -0.2946
46450W        W55250   5.903   0.098  23.449  0.1003 -0.1680 -0.0721
46451W        W55251  18.178   5.711  36.931  0.0506 -0.2025  0.0047
46452W        W55252  13.066   6.469  12.329  0.0879  0.0269  0.3375
46453W        W55253  20.753   6.352  27.058 -0.1289  0.2652  0.0412
46454W        W55254  15.402   5.755  29.268 -0.0361  0.1039 -0.0951
46455W        W55255   2.398   5.961  42.858 -0.1465  0.0120  0.1880
46456W        W55256   0.042   1.671  26.793  0.0801 -0.1164 -0.2106
46457W        W55257   0.158   2.708  43.537 -0.0633  0.1198 -0.0460
46458W        W55258  17.705   1.560  44.897 -0.1272  0.0219 -0.1602
46459W        W55259  15.366   6.281  11.883  0.2161 -0.0624  0.1764
46460W        W55260  19.655   1.196  13.177 -0.1137 -0.0219  0.2686
46461W        W55261  10.671   4.794  38.154  0.1076 -0.0670  0.2427
46462W        W55262  20.665   3.344   0.130  0.0261  0.1688  0.3025
46463W        W55263  12.520   4.895  40.651 -0.0951  0.1686 -0.0347
46464W        W55264   7.828   1.662  10.898 -0.3093 -0.0898  0.2035
46465W        W55265  14.374   1.790  22.026  0.0711  0.0060  0.0258
46466W        W55266   8.376   2.704   9.620  0.2883  0.1402  0.2461
46467W        W55267  16.964   0.165  17.734  0.1281  0.0731  0.0061
46468W        W55268  10.751   2.717  43.915 -0.0756 -0.0893  0.0226
46469W        W55269  14.124   1.928  29.589  0.3582 -0.2425 -0.1641
46470W        W55270  19.570   1.610   5.579  0.0692 -0.0478  0.2949
46471W        W55271  17.067   1.360  16.051  0.1781  0.1365  0.2103
46472W        W55272  17.112   1.891  29.679 -0.0785  0.2064 -0.2571
46473W        W55273  13.620   4.095  30.364  0.1302  0.0527  0.1836
46474W        W55274   5.386   1.009  27.494 -0.1417 -0.0748 -0.0617
46475W        W55275   2.756   4.363  39.990  0.1986 -0.0082 -0.0777
46476W        W55276  19.898   2.623  43.027  0.0519 -0.0240  0.1657
46477W        W55277  19.424   0.268  36.069 -0.2323  0.0681  0.2632
46478W        W55278   5.567   2.816  29.445 -0.0108  0.3789 -0.0271
46479W        W55279   5.651   1.392  30.754  0.1029  0.2666  0.1079
46480W        W55280  18.312   0.472   1.281 -0.1470 -0.1231 -0.0027
46481W        W55281   7.498   1.590  15.080  0.0942  0.2139  0.0709
46482W        W55282  11.238   6.448  32.790  0.2995  0.1930  0.2936
46483W        W55283  12.264   4.217   7.571  0.0587  0.1665  0.1370
46484W        W55284   8.064   2.224  34.704  0.1966  0.0823  0.2429
46485W        W55285   2.099   6.409   1.940 -0.1940  0.2553  0.1619
46486W        W55286   6.808   3.736  42.911  0.0401 -0.0921  0.2563
46487W        W55287  21.003   4.326  28.028 -0.0563 -0.1303  0.3085
46488W        W55288  11.154   1.987  41.828  0.1165  0.1766 -0.0817
46489W        W55289  17.078   2.977  41.555  0.0105 -0.1110 -0.4122
46490W        W55290  12.210   4.186  35.818 -0.1740 -0.0289 -0.1833
46491W        W55291  12.323   0.334  33.613  0.0562  0.4209  0.0904
46492W        W55292  14.012   1.696  16.848 -0.1734 -0.0673  0.2401
46493W        W55293   8.583   5.940   9.506  0.0535 -0.2429  0.3028
46494W        W55294   3.877   1.392  36.967 -0.0312  0.0452 -0.2418
46495W        W55295  12.415   1.789   6.575 -0.1408  0.1134  0.1742
46496W        W55296  12.430   5.285   0.240 -0.2016 -0.0901 -0.1303
46497W        W55297  20.958   5.189  15.152 -0.1744 -0.0946 -0.0942
46498W        W55298   3.108   4.041  43.075 -0.0531  0.1803 -0.0013
46499W        W55299   2.723   4.385   1.087 -0.0497 -0.0196  0.0465
46500W        W55300   9.230   2.853  31.804 -0.0582 -0.2540 -0.1759
46501W        W55301  21.128   3.238   5.296  0.3601  0.1722 -0.0047
46502W        W55302  14.974   0.882   6.067 -0.0234 -0.1162  0.2855
46503W        W55303  15.897   4.937   7.088 -0.0977  0.0584 -0.2560
46504W        W55304  20.957   2.606  10.900 -0.2109 -0.2163  0.1188
46505W        W55305   3.311   4.494   6.062 -0.1239  0.4555  0.0674
46506W        W55306  13.008   1.558  34.786  0.0932  0.2805 -0.0386
46507W        W55307   4.738   3.007  26.205  0.0104 -0.2081 -0.0418
46508W        W55308   7.972   3.370  25.977  0.1279  0.0214 -0.0091
46509W        W55309  18.895   0.792   0.255 -0.1730  0.0291  0.2337
46510W        W55310   4.126   1.426  40.236 -0.3564 -0.1668  0.4327
46511W        W55311   5.063   4.939   9.032  0.0191  0.0730 -0.0601
46512W        W55312   3.538   5.196  21.108  0.0828 -0.0647 -0.0285
46513W        W55313   7.225   0.807  41.161 -0.3252 -0.1389  0.1803
46514W        W55314  20.531   5.678  29.740  0.1989 -0.0890 -0.0567
46515W        W55315   5.645   1.741   3.689 -0.3444 -0.2585 -0.0576
46516W        W55316  14.110   4.794  33.893  0.3081  0.0802  0.0535
46517W        W55317  10.182   4.740  36.516 -0.1605 -0.1437 -0.2108
46518W        W55318  18.007   2.509  20.509  0.0927  0.0730  0.0181
46519W        W55319   5.715   0.059  30.462  0.0103  0.0514 -0.1555
46520W        W55320   8.948   1.452  32.921  0.0115 -0.1040  0.1657
46521W        W55321   6.124   3.697  23.463 -0.0185 -0.2197 -0.1645
46522W        W55322   9.179   6.491  18.354  0.1600 -0.0165  0.0404
46523W        W55323   9.722   2.683  31.882 -0.0377  0.2156 -0.0559
46524W        W55324  10.036   3.323  19.716  0.0597  0.1469 -0.2577
46525W        W55325   0.502   3.070   0.407 -0.2051 -0.3060 -0.0841
46526W        W55326   5.013   6.031   3.049 -0.1715  0.0274  0.0731
46527W        W55327   0.469   5.594  13.451  0.1253 -0.2648 -0.1550
46528W        W55328  14.600   4.703   7.409  0.0226  0.1178  0.1970
46529W        W55329   8.623   2.068  14.883  0.3822  0.1613 -0.0344
46530W        W55330   6.999   2.459  29.183 -0.0581  0.0168 -0.1371
46531W        W55331   0.627   0.556  40.522  0.0890  0.0054 -0.1402
46532W        W55332  12.601   1.615  38.175  0.0043  0.1174 -0.0045
46533W        W55333   3.105   5.461  35.114  0.0673 -0.0064  0.3571
46534W        W55334   2.206   4.728   2.926 -0.3115  0.4311 -0.0238
46535W        W55335  16.416   5.323  44.586  0.1004  0.0809 -0.0599
46536W        W55336  11.886   2.179   4.898  0.1045  0.0418 -0.2417
46537W        W55337   2.298   5.556  23.614  0.0067  0.4146  0.2134
46538W        W55338   5.292   6.280  11.048  0.2308 -0.1584  0.0478
46539W        W55339   4.384   3.856  15.536 -0.2967  0.1699  0.0082
46540W        W55340   8.984   0.036   4.203  0.0150  0.0337  0.2420
46541W        W55341  13.998   5.908   9.460  0.0465  0.0636 -0.0132
46542W        W55342   8.234   4.595   6.558  0.0566  0.0531  0.1471
46543W        W55343   0.984   1.110  12.072  0.1644 -0.2637  0.1410
46544W        W55344   1.426   2.321   8.276 -0.2082  0.0145  0.1212
46545W        W55345  12.168   5.238  43.212  0.1090  0.0550 -0.2810
46546W        W55346  19.094   6.364   3.825  0.4441 -0.0746  0.0609
46547W        W55347   0.944   5.442  38.695  0.2720  0.0058 -0.1909
46548W        W55348   8.147   0.321   1.043 -0.0131 -0.1345 -0.0232
46549W        W55349   4.655   1.789   9.327  0.0212 -0.0038  0.0779
46550W        W55350   2.941   3.487  36.334  0.1689  0.0435  0.1284
46551W        W55351   7.218   0.602  32.009  0.1511 -0.0749 -0.0124
46552W        W55352   0.425   2.043  26.938  0.3621  0.3258 -0.2128
46553W        W55353  13.151   0.746  35.078 -0.0055 -0.0574 -0.3441
46554W        W55354  14.477   6.571   6.016 -0.2001 -0.1558  0.0351
46555W        W55355  18.004   0.892   7.067  0.0798 -0.4266  0.0760
46556W        W55356  17.307   3.617   3.374  0.2105 -0.2352  0.0730
46557W        W55357   7.611   0.982  41.516 -0.0549 -0.0774 -0.1591
46558W        W55358  15.966   0.989  18.766 -0.0047 -0.0859  0.1067
46559W        W55359  17.476   0.812   0.847 -0.1037 -0.2551 -0.1961
46560W        W55360  18.518   0.404  41.451 -0.1217  0.1643 -0.1972
46561W        W55361  19.862   1.998  30.714  0.1790  0.1277  0.1586
46562W        W55362  15.711   1.269   2.589 -0.1005  0.2316 -0.0969
46563W        W55363   5.003   5.351  37.363  0.2320  0.3133 -0.0239
46564W        W55364  17.543   0.323   1.771 -0.0930  0.2257 -0.1490
46565W        W55365  11.134   3.101  19.025  0.3928  0.1297  0.3617
46566W        W55366  15.310   6.458  38.752  0.0008  0.2760  0.1535
46567W        W55367   8.167   3.635   0.010 -0.1473  0.0404  0.1866
46568W        W55368  17.855   4.415   7.463 -0.2935  0.0756 -0.0769
46569W        W55369  12.777   1.449  42.258 -0.2912 -0.4922  0.1677
46570W        W55370  16.125   4.180  43.971  0.2370 -0.0287  0.0378
46571W        W55371   2.371   3.709   5.441 -0.0604  0.3065  0.0238
46572W        W55372  10.754   0.760  13.689  0.1651 -0.3018 -0.0776
46573W        W55373  11.667   1.929  16.641 -0.1171 -0.0491  0.1430
46574W        W55374   3.844   5.981  12.124  0.1040 -0.0579  0.1992
46575W        W55375   0.678   3.368  44.170  0.1607  0.2487  0.0437
46576W        W55376  12.635   6.472  32.653  0.0019  0.0391  0.2059
46577W        W55377  20.035   5.724   0.790 -0.1225 -0.1293 -0.0962
46578W        W55378   9.866   1.657   6.676 -0.0136 -0.0357  0.0060
46579W        W55379  15.307   5.348  19.622  0.1102 -0.2289 -0.1240
46580W        W55380   6.314   6.393  25.908 -0.0117  0.2146  0.1607
46581W        W55381  18.791   1.088  37.055  0.0306 -0.1901 -0.2151
46582W        W55382  20.686   4.358  40.344 -0.1106 -0.3304 -0.2810
46583W        W55383  17.179   5.463  36.325 -0.0292  0.0013 -0.4632
46584W        W55384  20.275   0.790  28.291  0.0395 -0.0813  0.0944
46585W        W55385   4.565   3.968  43.583 -0.1695 -0.0779 -0.0195
46586W        W55386  14.429   2.178  33.853 -0.3109 -0.0352 -0.0108
46587W        W55387  14.305   3.073   3.132  0.0509  0.3312  0.0703
46588W        W55388  19.798   1.701  28.337 -0.1010 -0.0194 -0.1979
46589W        W55389   5.063   5.552  29.101  0.0147  0.1281 -0.0374
46590W        W55390  20.207   5.774   1.375  0.2262  0.0380  0.2035
46591W        W55391   8.277   4.446  10.758  0.2246 -0.4854  0.0687
46592W        W55392  21.037   4.111  31.769 -0.3668  0.2423 -0.0743
46593W        W55393   0.359   5.380  14.701 -0.0790  0.1818 -0.2820
46594W        W55394  20.497   5.926  32.434 -0.1203  0.1036  0.0284
46595W        W55395   7.592   5.683   8.847 -0.3692  0.3067 -0.1903
46596W        W55396  12.740   2.695  17.611 -0.0676  0.1838  0.0380
46597W        W55397   2.421   6.313  29.535  0.0795 -0.1769 -0.0972
46598W        W55398  16.915   1.286   8.989  0.0154 -0.1191  0.0871
46599W        W55399  11.681   4.298  14.106  0.0552 -0.0292 -0.1648
46600W        W55400  16.002   5.079  35.794  0.1801  0.2366  0.0784
46601W        W55401   6.291   5.129  43.138 -0.1115  0.1487  0.0829
46602W        W55402   8.800   5.768   3.108  0.2204  0.3231  0.0008
46603W        W55403  12.234   2.337  13.531 -0.2488 -0.1460 -0.0593
46604W        W55404   1.133   4.867  42.331  0.0723 -0.0285 -0.0454
46605W        W55405  20.382   2.006  33.997 -0.4665  0.1025 -0.1550
46606W        W55406   5.348   4.578   5.601  0.1017 -0.0735 -0.0634
46607W        W55407  12.685   4.864  14.838 -0.1657  0.0153  0.0741
46608W        W55408  20.790   3.970  14.991 -0.2713  0.1694  0.1215
46609W        W55409   1.653   2.672  41.189 -0.0407  0.2398 -0.2144
46610W        W55410   9.435   3.796  44.636  0.1562 -0.0703  0.3255
46611W        W55411   0.392   3.561   1.778 -0.1258  0.1020  0.4571
46612W        W55412  13.125   6.571   5.775  0.0790  0.0967  0.0637
46613W        W55413   4.651   4.278   8.204  0.0229  0.0578  0.1768
46614W        W55414  17.059   0.582  37.270  0.1176  0.1334 -0.0572
46615W        W55415   7.486   0.119  32.385  0.0445  0.1323  0.4988
46616W        W55416  11.819   3.006  44.186 -0.1688 -0.2220  0.0691
46617W        W55417   9.477   0.114  18.689  0.0937  0.1626 -0.0973
46618W        W55418   4.516   2.990  44.244  0.0738  0.2896 -0.1754
46619W        W55419  19.446   0.951   1.597  0.2726 -0.0140 -0.2579
46620W        W55420  10.481   3.183  12.130 -0.1149 -0.0299  0.0627
46621W        W55421   1.607   0.230  34.471  0.1160  0.1229 -0.1095
46622W        W55422   8.155   1.440  34.393  0.1429 -0.0282 -0.0395
46623W        W55423   4.732   0.155  23.319 -0.0211 -0.0942  0.0724
46624W        W55424   7.327   3.280  40.489  0.0797 -0.0366  0.1923
46625W        W55425   5.965   2.145  26.499  0.0658 -0.0134 -0.1078
46626W        W55426  17.976   2.217  34.783  0.1428  0.0304 -0.3953
46627W        W55427  17.626   4.452  28.959 -0.0083  0.0361 -0.1868
46628W        W55428  15.033   2.676  29.627  0.1304  0.1074  0.0517
46629W        W55429  12.909   3.755  14.380  0.0453  0.0044  0.0548
46630W        W55430   1.431   5.447  39.537  0.1068  0.2441 -0.1962
46631W        W55431  14.037   0.653   9.271 -0.0992 -0.2433  0.0074
46632W        W55432   6.639   1.218  29.880 -0.0815  0.1620  0.2539
46633W        W55433  19.817   5.512   4.874  0.1022  0.1518  0.4373
46634W        W55434  17.576   3.584  10.734  0.1038 -0.3045  0.2439
46635W        W55435  14.113   0.572  20.896  0.4303 -0.3416  0.0916
46636W        W55436   4.264   1.716  25.471 -0.0240  0.0556  0.1210
46637W        W55437  18.301   3.441  11.743  0.2158 -0.2194  0.0195
46638W        W55438   8.518   1.596  36.579  0.1261  0.2116  0.0785
46639W        W55439  15.085   1.538  33.592  0.0961  0.0814 -0.0521
46640W        W55440  12.753   5.564  43.273 -0.0881 -0.0032  0.2435
46641W        W55441   1.609   3.994  43.268 -0.1755  0.1114  0.0018
46642W        W55442   1.264   5.731   2.044 -0.0270  0.1468 -0.0702
46643W        W55443  18.438   3.114  44.416 -0.1510  0.0601  0.0076
46644W        W55444   2.031   0.939  42.701 -0.2727  0.0727 -0.2675
46645W        W55445  12.764   0.107   4.072 -0.0680 -0.1935  0.0663
46646W        W55446   4.184   5.290  31.276 -0.1343 -0.1532 -0.1411
46647W        W55447  11.064   5.163   4.776  0.0434  0.2625 -0.0102
46648W        W55448   1.753   1.255   6.865  0.0863  0.0240  0.1777
46649W        W55449   6.484   4.054  34.590 -0.0359  0.2659 -0.1493
46650W        W55450  19.997   0.311  42.223 -0.2253  0.2131  0.1249
46651W        W55451   6.766   4.721  11.732 -0.1081  0.1223 -0.1232
46652W        W55452  18.551   4.293   4.320  0.2882  0.2714 -0.1116
46653W        W55453   6.220   3.459  37.495  0.2638 -0.0892  0.1891
46654W        W55454  11.696   1.035  33.126 -0.1086 -0.0099 -0.0636
46655W        W55455  13.000   0.147   6.853 -0.0269  0.0170 -0.2650
46656W        W55456  19.092   5.910  18.867  0.2563 -0.1820  0.0049
46657W        W55457   4.430   1.803  41.083  0.1104 -0.2378  0.0685
46658W        W55458  14.077   1.561  29.873 -0.0841 -0.1423 -0.0248
46659W        W55459   9.657   1.065   3.143 -0.0574  0.2514  0.0774
46660W        W55460   6.267   5.266  44.774 -0.2055 -0.3705 -0.1679
46661W        W55461   4.363   3.826   9.164  0.0697 -0.0954  0.0340
46662W        W55462  20.498   4.743  37.869  0.1626 -0.0166  0.1631
46663W        W55463  15.429   6.186  14.478 -0.0065  0.2806  0.0186
46664W        W55464  13.517   0.933   1.209  0.1488 -0.1029 -0.2505
46665W        W55465   3.710   0.506  31.889  0.1246  0.0437  0.1624
46666W        W55466   0.220   3.458   4.498  0.2135  0.0925  0.0261
46667W        W55467  10.269   4.255  36.741  0.3006  0.0140  0.1439
46668W        W55468  20.041   6.563  27.723  0.0369 -0.0718 -0.0397
46669W        W55469  10.740   5.431  28.953  0.3363  0.2636 -0.0124
46670W        W55470  16.596   0.526  10.434  0.0816 -0.0994  0.1352
46671W        W55471  14.016   6.071  36.421  0.1911 -0.0369  0.1279
46672W        W55472   0.327   3.623   9.252 -0.0825  0.1241  0.0645
46673W        W55473  11.882   3.728  12.121 -0.1190  0.1913 -0.0739
46674W        W55474   2.941   0.547  44.374  0.0069  0.2270  0.1537
46675W        W55475   6.239   1.290  11.920  0.2019  0.3543  0.0717
46676W        W55476   7.063   0.155   2.471  0.4445 -0.0760  0.2654
46677W        W55477   8.515   2.145  28.865  0.0306  0.1602  0.1844
46678W        W55478  16.922   2.288  17.232  0.5193 -0.1556  0.0611
46679W        W55479   9.559   2.298  31.470  0.0246  0.2767  0.1258
46680W        W55480  18.321   0.861  10.129 -0.0143 -0.1010  0.2146
46681W        W55481  17.287   4.515  14.484 -0.0646 -0.1152  0.2138
46682W        W55482   4.744   5.628  28.606 -0.3271  0.0760  0.3670
46683W        W55483  10.292   4.649   3.207 -0.1163 -0.2865  0.2036
46684W        W55484  18.209   0.122  31.349  0.2642 -0.1044  0.0426
46685W        W55485   9.487   5.700  34.962  0.0619 -0.1987  0.1996
46686W        W55486   6.270   1.134  32.367  0.1357  0.1036 -0.1327
46687W        W55487  12.988   5.836   1.395 -0.2622  0.0339  0.0200
46688W        W55488   2.707   2.168  10.523 -0.0465  0.0114  0.1122
46689W        W55489   4.172   3.145  15.534  0.4018  0.0158 -0.0098
46690W        W55490   4.283   0.628   7.952 -0.0457  0.1537 -0.1722
46691W        W55491  17.748   0.647  20.324 -0.1036 -0.1041  0.1319
46692W        W55492   3.219   0.973  40.391 -0.0438  0.0784 -0.2091
46693W        W55493  19.207   0.328  28.100 -0.3062 -0.1977 -0.1817
46694W        W55494  10.093   6.059  16.554 -0.0344 -0.2542 -0.0743
46695W        W55495  12.444   0.105  35.568  0.0437 -0.0006  0.1736
46696W        W55496   6.758   1.660  33.141  0.2510 -0.3106  0.1762
46697W        W55497  14.496   5.502  35.714 -0.0153  0.1954  0.0315
46698W        W55498  17.598   0.589   2.422 -0.0581 -0.0445 -0.2149
46699W        W55499   4.902   0.982   8.479 -0.0502 -0.2396  0.0575
46700W        W55500  10.318   2.479  44.115 -0.0669  0.1670 -0.0740
46701W        W55501  16.068   2.663  31.790 -0.0977 -0.0029  0.1259
46702W        W55502   2.056   5.995  29.890  0.1906  0.0916 -0.0529
46703W        W55503  12.825   0.966  31.800 -0.0557  0.2305  0.4736
46704W        W55504  13.216   5.908  34.110 -0.0570 -0.0571  0.0109
46705W        W55505  17.484   5.856   6.445  0.1841 -0.2326  0.2139
46706W        W55506   4.772   2.369  29.642  0.0622 -0.1905 -0.0636
46707W        W55507   8.636   1.259  38.995 -0.1004 -0.0097 -0.0166
46708W        W55508   5.767   6.196  29.033 -0.0659 -0.2028  0.1186
46709W        W55509  18.570   5.762   2.577  0.2330 -0.1704 -0.1600
46710W        W55510  12.062   3.210  14.460  0.3350  0.1897  0.0776
46711W        W55511  13.472   1.894  44.950  0.1449  0.1280  0.2222
46712W        W55512  14.357   2.123  40.329  0.2678  0.2427  0.2329
46713W        W55513   5.281   2.083  42.669  0.3413  0.0592  0.1998
46714W        W55514   5.439   4.888  13.957  0.1579  0.1933 -0.0593
46715W        W55515  19.270   1.193  37.070  0.0792 -0.0789 -0.0351
46716W        W55516  17.785   4.702  30.817 -0.0102 -0.0367  0.1163
46717W        W55517  13.376   4.974   1.047  0.1834 -0.0523 -0.1247
46718W        W55518  20.053   0.207  30.019  0.2629 -0.2552  0.0854
46719W        W55519   6.570   2.452  43.457 -0.0369 -0.0365  0.0798
46720W        W55520  10.014   1.626   8.082  0.4541  0.0940 -0.0930
46721W        W55521   9.055   2.923  28.963 -0.2761  0.3809 -0.3253
46722W        W55522  18.218   1.525   3.263 -0.0970  0.0039  0.0970
46723W        W55523  11.548   3.412  41.805  0.1242 -0.0117  0.0205
46724W        W55524  15.477   0.764  43.794  0.1465 -0.1369  0.1258
46725W        W55525  17.294   6.349  41.055  0.2734 -0.1387  0.0940
46726W        W55526   7.716   2.083   0.327 -0.1505 -0.2346  0.1391
46727W        W55527  19.314   5.952   1.625  0.0424 -0.0879 -0.1192
46728W        W55528   4.246   3.578  29.793 -0.2178  0.1989  0.1746
46729W        W55529  18.719   5.233  14.641 -0.0483 -0.0970  0.0264
46730W        W55530  18.198   2.198  13.445 -0.1403 -0.1551 -0.0918
46731W        W55531  11.358   2.668  16.083 -0.2573 -0.0396  0.1548
46732W        W55532  20.478   5.183  43.243 -0.0524  0.1838 -0.0075
46733W        W55533   1.964   1.805  11.167  0.3533 -0.3610  0.1164
46734W        W55534  17.276   4.731  15.667  0.2101  0.2163 -0.0077
46735W        W55535  10.830   3.823   6.615 -0.1027 -0.2549 -0.0088
46736W        W55536   2.221   4.498   5.091  0.0277  0.4383 -0.0756
46737W        W55537  19.857   5.886  44.280  0.0948 -0.0895 -0.2591
46738W        W55538   2.353   2.710  44.442  0.0105 -0.2753  0.1710
46739W        W55539  12.843   1.224  10.974 -0.2004 -0.0109  0.0085
46740W        W55540  12.390   2.222  33.753 -0.0947 -0.1709  0.3406
46741W        W55541   8.450   4.417  41.506  0.5871 -0.0998  0.1745
46742W        W55542  13.683   5.481  17.941  0.0321  0.2834  0.2806
46743W        W55543  14.475   2.148  22.860  0.1273  0.1865  0.0751
46744W        W55544  16.295   0.953  21.946 -0.1390 -0.1999 -0.2604
46745W        W55545   4.398   4.786   1.071 -0.3072 -0.1139  0.4984
46746W        W55546  20.705   3.336  13.086 -0.1498  0.0729 -0.1558
46747W        W55547   0.479   1.213  15.308 -0.1532 -0.1596  0.3566
46748W        W55548  13.515   5.069  12.512  0.0246  0.3244  0.1329
46749W        W55549  19.244   2.184  31.917  0.1222  0.1020  0.2028
46750W        W55550   6.906   5.008  38.885 -0.0470 -0.1385  0.0648
46751W        W55551  18.038   6.175  14.026 -0.0722  0.0748  0.0215
46752W        W55552  11.712   6.603   7.172  0.2658  0.0573 -0.2479
46753W        W55553  16.060   5.361   7.343  0.1143 -0.1142  0.0613
46754W        W55554  12.153   5.685   5.465 -0.1538 -0.1264  0.1784
46755W        W55555  11.227   1.394  43.496  0.0024  0.0915 -0.2607
46756W        W55556   3.288   4.345   8.060 -0.2861  0.1896 -0.2912
46757W        W55557  12.017   6.573  31.802  0.0652  0.2704 -0.1655
46758W        W55558  13.882   6.374  13.737  0.1912 -0.1991  0.0757
46759W        W55559  13.048   0.105   2.662 -0.0573 -0.2575 -0.0119
46760W        W55560   5.644   3.203  36.527  0.0947 -0.1486 -0.2198
46761W        W55561  18.338   2.595  31.503  0.1615 -0.1098 -0.1815
46762W        W55562   4.266   2.060  30.794  0.3787  0.3595 -0.0445
46763W        W55563   4.312   1.465  10.081  0.1329 -0.0895  0.2280
46764W        W55564   0.069   1.769  25.507 -0.0240 -0.3194  0.0222
46765W        W55565   9.440   1.138  39.741 -0.0539 -0.3100 -0.0608
46766W        W55566   3.217   2.624  42.280 -0.2011 -0.1740 -0.2657
46767W        W55567   6.150   0.259  34.787 -0.2734  0.0075  0.0186
46768W        W55568   8.656   4.903  10.106  0.0399  0.1461  0.1925
46769W        W55569  16.570   3.213   0.135  0.0198 -0.1158  0.0492
46770W        W55570  14.325   2.777  39.614  0.0647  0.1117 -0.0733
46771W        W55571  11.689   4.865  10.926 -0.2647  0.1823 -0.3857
46772W        W55572  13.657   0.852   9.041  0.0631 -0.1869 -0.0755
46773W        W55573  13.422   1.626  43.735 -0.4541 -0.4392 -0.1493
46774W        W55574  14.195   6.067  14.057  0.1384 -0.1832 -0.0824
46775W        W55575  13.208   4.897  31.731  0.1844 -0.2001  0.0857
46776W        W55576   0.150   5.419  13.070 -0.4259 -0.1098  0.0034
46777W        W55577   2.318   3.037  27.694  0.0055 -0.0465 -0.0324
46778W        W55578   5.219   5.723   8.150 -0.1231 -0.4202  0.2009
46779W        W55579  19.885   6.096  32.384  0.0622 -0.0333  0.0296
46780W        W55580  13.584   0.084   3.495 -0.1068 -0.0042 -0.0969
46781W        W55581  16.289   4.461  40.144 -0.1860 -0.0537 -0.1017
46782W        W55582  17.251   5.300   2.008  0.0781 -0.0355 -0.5269
46783W        W55583   0.717   0.620   1.715  0.3208  0.0459 -0.1094
46784W        W55584  16.880   5.925  11.524 -0.0909  0.1583  0.1379
46785W        W55585  10.033   4.773  31.981 -0.0571  0.1374  0.0555
46786W        W55586  11.647   4.833  36.922 -0.0514  0.0750  0.0477
46787W        W55587  11.445   3.518  40.814  0.3487 -0.3200 -0.0139
46788W        W55588   8.844   5.304  36.462  0.0548  0.0581 -0.2355
46789W        W55589   9.779   2.611  40.505  0.0448 -0.2951  0.0390
46790W        W55590  12.313   0.006   1.639  0.0606  0.0662  0.1975
46791W        W55591   9.013   3.222   0.579 -0.0456 -0.0161 -0.2320
46792W        W55592  18.080   6.559  12.797 -0.2433  0.0236  0.0172
46793W        W55593   8.658   1.820  15.848  0.3965  0.1229  0.0642
46794W        W55594   0.400   5.510  31.679 -0.1098  0.2800  0.2681
46795W        W55595  11.940   1.144  10.569 -0.0428 -0.0156 -0.2083
46796W        W55596  18.420   2.159  33.466 -0.1425 -0.3132 -0.2966
46797W        W55597  18.612   1.970   0.369 -0.0608  0.1835  0.3019
46798W        W55598  11.302   6.452  40.252  0.1215  0.0918  0.0586
46799W        W55599  13.881   3.223  14.637 -0.1372  0.2489 -0.1032
46800W        W55600   0.199   0.275   9.221  0.1970 -0.0862  0.0733
46801W        W55601  19.622   2.531   2.439  0.0161 -0.1134  0.1054
46802W        W55602  10.683   2.750   1.236 -0.0178 -0.1187  0.2611
46803W        W55603  13.743   0.303  30.088 -0.0831 -0.2554 -0.0103
46804W        W55604  10.149   2.957  17.404  0.2078  0.1922 -0.2463
46805W        W55605  10.236   6.093  15.535  0.0938  0.2737 -0.0620
46806W        W55606   1.898   4.613  24.615 -0.4347  0.2316  0.2618
46807W        W55607  10.298   2.800  39.820 -0.3647 -0.1384  0.1174
46808W        W55608   6.095   5.102  41.919  0.0896  0.2807  0.1092
46809W        W55609  17.204   1.024  36.696  0.1707 -0.1650  0.1401
46810W        W55610  13.715   0.091  43.119  0.1742 -0.0688 -0.0382
46811W        W55611  13.885   6.230   1.725 -0.1336  0.3027 -0.0297
46812W        W55612  12.030   1.726  33.828  0.0181  0.0460 -0.2656
46813W        W55613  19.195   4.677  37.166 -0.0008 -0.0900  0.1287
46814W        W55614   2.849   5.588  23.488  0.2074 -0.1038 -0.1626
46815W        W55615  10.463   6.344  16.129 -0.0296 -0.0609 -0.0626
46816W        W55616   9.198   4.746  38.649  0.2255 -0.2584 -0.0802
46817W        W55617   1.617   2.175  12.204  0.0429  0.1543  0.0502
46818W        W55618  19.719   3.119  32.561  0.0531 -0.4886  0.0661
46819W        W55619  18.450   2.697  43.247 -0.1805  0.0686  0.2162
46820W        W55620  16.861   1.875  21.307  0.1609 -0.0291 -0.1992
46821W        W55621  17.265   3.614  19.143 -0.1306 -0.0438 -0.1308
46822W        W55622   6.642   3.441   0.903  0.2669 -0.3308 -0.2983
46823W        W55623  11.826   2.818   2.579 -0.0365  0.0877 -0.1811
46824W        W55624   3.041   1.724  29.766 -0.2515 -0.0353  0.1447
46825W        W55625   3.874   1.286  35.041  0.0343  0.2609  0.2562
46826W        W55626   1.877   5.325  10.364 -0.1695 -0.2822 -0.2434
46827W        W55627  11.816   6.052  39.645 -0.0550 -0.0777 -0.0849
46828W        W55628  14.028   3.347  41.672 -0.0539 -0.0970 -0.0021
46829W        W55629  10.911   3.509  14.326 -0.3000 -0.2436 -0.0215
46830W        W55630   8.124   1.939  31.603  0.1391 -0.0083 -0.0314
46831W        W55631  20.769   3.714  37.925 -0.1311 -0.1151 -0.1603
46832W        W55632  10.847   1.950   0.755  0.1410 -0.0830  0.1350
46833W        W55633  10.053   0.560  19.892  0.1391  0.2711  0.1618
46834W        W55634  17.836   0.307  32.406  0.2826  0.2179 -0.0851
46835W        W55635  13.075   3.199  15.324 -0.0582 -0.1915 -0.0165
46836W        W55636   0.533   5.810   8.570 -0.1298 -0.3139  0.1244
46837W        W55637  18.989   3.309  12.488  0.0987 -0.0560  0.3297
46838W        W55638   4.103   3.506  39.523  0.0670  0.0156 -0.1632
46839W        W55639  14.950   6.351  18.092 -0.1984 -0.0531  0.2145
46840W        W55640   4.937   5.216   8.160 -0.0041 -0.0142 -0.2078
46841W        W55641  20.181   4.544  28.268 -0.3564 -0.0888 -0.0959
46842W        W55642   2.901   3.924  22.335 -0.4579 -0.0654 -0.0919
46843W        W55643  12.482   6.226  18.424  0.1792  0.3337  0.1252
46844W        W55644  14.007   2.239  24.639  0.1232 -0.3178 -0.0616
46845W        W55645  19.333   2.580  35.757 -0.1467  0.2111 -0.1496
46846W        W55646  19.039   1.281  35.340  0.0707 -0.1100 -0.1034
46847W        W55647   1.345   2.196  22.085  0.2951 -0.3304  0.2192
46848W        W55648   3.777   5.927  29.545 -0.1295 -0.1840  0.1920
46849W        W55649   2.470   4.367   7.530  0.1266 -0.0440 -0.0571
46850W        W55650   1.040   3.566  39.659  0.2378  0.2057  0.0807
46851W        W55651   4.318   2.160  12.943  0.1794  0.0573  0.0989
46852W        W55652   8.568   2.933  27.312  0.1518  0.0756 -0.0671
46853W        W55653  20.592   0.670   8.640 -0.2111  0.2557  0.1979
46854W        W55654   1.089   1.081  42.069 -0.0408  0.0832  0.1388
46855W        W55655  13.484   4.529  12.796 -0.2907  0.0759  0.0238
46856W        W55656  13.800   6.586  28.669  0.1074  0.1399  0.0822
46857W        W55657   3.187   4.932  34.198 -0.4254 -0.1160  0.0511
46858W        W55658  20.236   1.970  28.519 -0.0364 -0.1158 -0.1268
46859W        W55659  10.301   0.073  19.649 -0.0303 -0.0966 -0.1370
46860W        W55660   5.768   2.609  31.764 -0.0050 -0.2807 -0.1404
46861W        W55661   7.269   0.331  24.513 -0.0401  0.1353 -0.0016
46862W        W55662  16.878   3.958   1.702 -0.1020  0.0059  0.1720
46863W        W55663   6.755   0.811  40.079 -0.0318  0.0751 -0.0166
46864W        W55664  15.352   0.798   2.909  0.0507  0.1402 -0.0200
46865W        W55665   4.957   5.813  11.998 -0.3026 -0.2586  0.1267
46866W        W55666  17.410   3.546   7.867  0.0360  0.0438 -0.1255
46867W        W55667   8.271   4.959  16.752  0.0650  0.3331 -0.0155
46868W        W55668   6.340   0.494  40.972 -0.0717 -0.0525  0.0543
46869W        W55669   3.051   0.269  43.923  0.0507  0.0708  0.1095
46870W        W55670   1.872   5.697  22.739 -0.0619  0.3174 -0.1368
46871W        W55671   1.058   6.158  29.921 -0.0183 -0.1865  0.0402
46872W        W55672  12.967   3.147  36.398  0.3681 -0.0964  0.3082
46873W        W55673  11.152   6.105  20.506  0.1150 -0.0060  0.1886
46874W        W55674   5.910   4.903   0.890 -0.1786 -0.2447  0.1285
46875W        W55675   5.236   4.854   7.868  0.1523 -0.1213  0.0281
46876W        W55676  14.733   4.810  37.135 -0.0239 -0.4605  0.1688
46877W        W55677  15.751   4.733   7.975 -0.0643  0.0908 -0.1267
46878W        W55678   2.974   6.444  15.816  0.0389  0.1542 -0.0182
46879W        W55679   7.966   4.932  44.377  0.0776 -0.0086 -0.3592
46880W        W55680   5.223   6.352  24.108 -0.2600  0.1727 -0.0088
46881W        W55681  16.205   3.781   2.256 -0.0303  0.0368  0.0716
46882W        W55682   1.804   4.136  41.492 -0.2884  0.0759  0.2801
46883W        W55683  13.268   2.757  14.160  0.1077  0.1643 -0.1336
46884W        W55684   2.284   1.861  31.804 -0.1823  0.1296  0.0027
46885W        W55685   6.564   4.736  25.670  0.0933 -0.0074  0.2125
46886W        W55686   9.597   4.504   8.051 -0.3290  0.0224  0.0046
46887W        W55687   9.060   1.150  34.247  0.0742 -0.1675 -0.0463
46888W        W55688  11.329   3.799  33.936 -0.0889 -0.1271  0.3837
46889W        W55689  15.076   5.855  32.750 -0.4174 -0.0851  0.0127
46890W        W55690   0.283   1.999  10.063 -0.0623  0.2019 -0.2357
46891W        W55691   5.732   3.766  14.515  0.1994 -0.2760  0.0899
46892W        W55692  11.168   2.036  37.244  0.0344  0.0073 -0.1495
46893W        W55693  10.681   5.942   6.317 -0.0564 -0.0592 -0.0700
46894W        W55694  14.451   3.920  17.927 -0.2956  0.0611  0.0146
46895W        W55695   5.933   5.577  32.822  0.0170 -0.0237 -0.0670
46896W        W55696  10.172   3.094  41.854  0.0940  0.2422  0.1315
46897W        W55697   4.340   5.146  26.239  0.0491 -0.1271  0.0078
46898W        W55698  10.546   3.484   9.083 -0.1397 -0.2199 -0.0975
46899W        W55699   4.568   4.443  15.650  0.0428  0.2161 -0.1270
46900W        W55700  12.568   1.712   5.196  0.3172 -0.3870 -0.1482
46901W        W55701   4.004   2.248  31.196  0.1742  0.0491 -0.2599
46902W        W55702  17.221   5.486  10.498  0.3426  0.4488  0.4116
46903W        W55703   4.525   6.361  16.349  0.1310 -0.1699 -0.2465
46904W        W55704  19.231   3.249  13.845  0.1212 -0.2047  0.0764
46905W        W55705   7.050   0.288  27.805 -0.0021 -0.0166 -0.1873
46906W        W55706  20.946   6.259  41.858 -0.0268  0.1269 -0.0942
46907W        W55707   7.367   0.506   8.684 -0.0479  0.1267  0.2566
46908W        W55708  10.966   2.341  36.919  0.0016 -0.2191 -0.2158
46909W        W55709   1.102   5.631   7.395 -0.2433  0.1210  0.3048
46910W        W55710  20.433   0.197  27.656 -0.1335 -0.0091  0.1395
46911W        W55711   1.745   0.069  40.712  0.0508 -0.1338  0.1036
46912W        W55712   9.813   6.118   1.879  0.1894 -0.0219  0.2732
46913W        W55713  10.548   2.439   9.762  0.1532  0.2317 -0.0523
46914W        W55714   6.151   2.558  44.233  0.1671  0.0519  0.1795
46915W        W55715   4.764   0.777  26.481  0.0360 -0.2423 -0.2031
46916W        W55716  18.071   0.822   0.082 -0.0293 -0.0063 -0.2930
46917W        W55717  16.508   4.679   3.828 -0.0658  0.1308 -0.0335
46918W        W55718   1.388   5.101   7.274 -0.2721 -0.0426  0.1205
46919W        W55719  12.471   4.885  28.470  0.1709  0.3995 -0.2060
46920W        W55720  12.757   4.725   7.463  0.0573  0.0425  0.0176
46921W        W55721   0.418   0.690  39.934  0.3098  0.2305 -0.0248
46922W        W55722  19.094   5.488   1.518 -0.1534 -0.3854 -0.1759
46923W        W55723  16.990   0.856  38.254 -0.0887  0.0546  0.0394
46924W        W55724  11.164   3.072  42.630 -0.0024 -0.3789  0.2394
46925W        W55725   1.430   5.122   4.763  0.0761  0.0537 -0.1777
46926W        W55726   3.976   4.686  24.917 -0.5173  0.1110  0.3262
46927W        W55727  15.571   4.664  36.112 -0.4927  0.0610 -0.1239
46928W        W55728  18.150   3.460  19.610  0.3234  0.0341  0.1401
46929W        W55729  10.645   0.493   8.870  0.0214 -0.0426  0.1095
46930W        W55730   3.694   0.464  27.508  0.1936  0.1434 -0.3441
46931W        W55731   4.769   4.395  23.360 -0.1800  0.0764 -0.1161
46932W        W55732  19.340   5.678  43.210  0.1419  0.1606  0.1420
46933W        W55733  14.245   6.548  31.839 -0.0850 -0.1349 -0.3161
46934W        W55734   4.123   6.414  25.590 -0.0461 -0.0148  0.2312
46935W        W55735  13.514   0.247  15.768  0.1706  0.0243 -0.1486
46936W        W55736  12.087   5.095  36.992  0.1817  0.0288  0.0349
46937W        W55737  12.282   1.481   4.251  0.1092 -0.0096  0.0173
46938W        W55738   2.320   5.015   9.989  0.0929 -0.0810  0.2031
46939W        W55739  20.506   2.908  44.953  0.0637 -0.2725 -0.1750
46940W        W55740   3.822   1.733   5.736  0.0803 -0.1065 -0.1638
46941W        W55741   3.404   3.706  32.754  0.1650 -0.1459 -0.0326
46942W        W55742  12.416   1.467  13.721 -0.0502  0.2714 -0.0094
46943W        W55743  14.436   0.004  29.563 -0.0152  0.1303  0.1320
46944W        W55744   7.613   2.949  36.823  0.2036  0.2476  0.0574
46945W        W55745   7.797   4.329   0.801 -0.0115 -0.2521 -0.0741
46946W        W55746  11.619   0.708  35.582 -0.1646  0.1401 -0.3078
46947W        W55747  14.683   4.144  18.472 -0.0926  0.0436  0.0342
46948W        W55748  13.125   3.829  35.262  0.0005  0.1031  0.0643
46949W        W55749   3.301   2.615  24.209 -0.1504 -0.1453  0.1163
46950W        W55750   2.534   1.252   5.737 -0.0088 -0.1176  0.3548
46951W        W55751   6.340   2.047  32.447  0.0923  0.3276  0.0656
46952W        W55752  20.521   4.800  13.502  0.1776  0.2966  0.0691
46953W        W55753   8.975   4.554  17.139 -0.3785  0.0405 -0.1370
46954W        W55754   5.391   6.545   1.190  0.3329 -0.1455  0.0352
46955W        W55755   8.915   6.179  12.118 -0.0027 -0.0409  0.0091
46956W        W55756   8.974   3.833   2.608  0.0503 -0.2719  0.1200
46957W        W55757   5.849   5.773  12.556 -0.2622 -0.2042  0.1176
46958W        W55758   5.386   1.511  15.988  0.0280 -0.1835  0.0569
46959W        W55759   3.597   1.686  19.049  0.3465 -0.0607  0.1803
46960W        W55760  11.050   0.013  19.292 -0.1516 -0.0486  0.3177
46961W        W55761  15.337   2.433  33.091  0.4869 -0.5731 -0.2333
46962W        W55762   8.204   3.497   8.115  0.1681 -0.0921  0.2262
46963W        W55763   0.383   5.191  37.855 -0.1321  0.0655 -0.3125
46964W        W55764  13.459   1.534  15.197  0.1560 -0.2640 -0.0624
46965W        W55765   8.264   4.189  42.323 -0.3298  0.3283 -0.0761
46966W        W55766  18.004   4.801  17.049 -0.0112 -0.1119  0.0082
46967W        W55767  11.909   5.424  17.161 -0.2943 -0.0771 -0.1127
46968W        W55768  18.398   6.248  45.103  0.0345  0.1948  0.0060
46969W        W55769   5.731   2.438  35.021 -0.1975 -0.0772  0.2287
46970W        W55770   9.726   2.314  34.512 -0.0553 -0.2136 -0.1239
46971W        W55771   2.351   6.001  40.472 -0.0527 -0.1341 -0.1115
46972W        W55772  20.349   0.690  34.885 -0.2765 -0.1901 -0.1305
46973W        W55773   0.317   4.571  44.625 -0.0455  0.1126  0.2167
46974W        W55774  11.797   4.833   2.892  0.2446 -0.0525  0.0764
46975W        W55775  10.662   3.598  14.740  0.0612  0.2671 -0.1383
46976W        W55776  11.481   6.070  32.632 -0.0795  0.1464 -0.0077
46977W        W55777  12.721   6.013  32.489 -0.1630  0.1291 -0.2355
46978W        W55778  18.986   3.118  28.144 -0.1171  0.2220 -0.2226
46979W        W55779   3.379   3.363   8.604  0.1001  0.0392 -0.2597
46980W        W55780  16.512   1.685  12.362 -0.0671 -0.0197 -0.0851
46981W        W55781   2.770   0.810   6.057 -0.1225  0.1344 -0.3097
46982W        W55782  13.648   4.038  39.999 -0.1235 -0.1116 -0.1988
46983W        W55783   2.699   1.938  27.227 -0.2872  0.0340 -0.1674
46984W        W55784  12.905   6.019  35.206  0.2369  0.2467 -0.1631
46985W        W55785  10.774   5.519  36.445 -0.0017  0.2141  0.1532
46986W        W55786  19.974   1.176  33.624 -0.3021  0.1828 -0.0411
46987W        W55787   9.402   2.261   4.228 -0.1028 -0.4064 -0.0392
46988W        W55788  14.442   2.376  24.935 -0.0150 -0.1713 -0.0965
46989W        W55789  16.402   3.142  14.403 -0.3382  0.0832 -0.1183
46990W        W55790  15.804   4.798   3.458  0.1754  0.0629  0.3370
46991W        W55791  19.256   5.489  34.582  0.0173 -0.1739  0.2695
46992W        W55792  18.141   3.582  42.112  0.0263  0.0003  0.3434
46993W        W55793   0.537   6.336  38.150 -0.1788 -0.1148 -0.3816
46994W        W55794   3.530   0.733   2.676 -0.1258 -0.3679  0.0144
46995W        W55795  19.967   0.734  31.669  0.1078 -0.2382 -0.1645
46996W        W55796  15.907   5.634   9.659  0.2162  0.0988  0.1966
46997W        W55797  20.331   5.114   2.655 -0.0886  0.0402 -0.2233
46998W        W55798   3.917   2.063   8.277  0.0739 -0.0650 -0.0535
46999W        W55799  13.304   4.464   7.602  0.1463 -0.3176  0.0006
47000W        W55800   7.194   5.556   0.376 -0.1777  0.1549 -0.1107
47001W        W55801   6.078   3.072  15.180  0.2540 -0.1137  0.1022
47002W        W55802  17.361   2.547  35.233 -0.2110 -0.3989  0.0151
47003W        W55803  19.473   5.244   7.830 -0.0769 -0.1033 -0.1062
47004W        W55804   7.034   0.469  11.217 -0.2011  0.1300 -0.1589
47005W        W55805   3.436   2.071  35.149  0.0157 -0.0541  0.1628
47006W        W55806   1.294   4.783  40.422  0.1198  0.0636  0.1469
47007W        W55807   8.575   0.636   1.118  0.1294  0.1561 -0.2265
47008W        W55808   0.903   2.391  29.290 -0.0186 -0.0445 -0.2269
47009W        W55809   9.091   5.271  39.630 -0.1939 -0.2901 -0.0338
47010W        W55810  18.283   5.947   1.440  0.3144  0.0500 -0.0222
47011W        W55811   2.678   1.633  28.110  0.1972 -0.1484 -0.0763
47012W        W55812   7.821   2.551  34.151  0.1049  0.0358 -0.0227
47013W        W55813   2.620   0.337  40.770 -0.0170 -0.0998 -0.0143
47014W        W55814   7.636   3.222  42.615  0.1483 -0.2337  0.0566
47015W        W55815   8.997   1.227  39.381  0.0884 -0.1975  0.0777
47016W        W55816  12.145   5.152  36.300 -0.2654  0.3381  0.0918
47017W        W55817  10.545   5.924   6.853 -0.1409 -0.2765  0.2873
47018W        W55818  19.281   0.180  37.211  0.0075 -0.0181  0.0865
47019W        W55819  13.674   3.356  20.755 -0.0063 -0.1469 -0.2376
47020W        W55820  10.317   3.993  28.225 -0.2946  0.4173 -0.0574
47021W        W55821   6.000   4.401  35.296  0.0804 -0.1635  0.0321
47022W        W55822   2.622   0.799  26.128  0.0943  0.0694 -0.0526
47023W        W55823  14.291   1.491   8.567  0.1434 -0.1840 -0.0645
47024W        W55824   6.176   1.198  32.858  0.3259  0.0322 -0.0044
47025W        W55825   3.792   2.019  21.578  0.3361 -0.0253  0.0167
47026W        W55826   3.216   4.137  24.655 -0.1200  0.1274 -0.0594
47027W        W55827   7.811   4.973  25.885 -0.0554  0.0252 -0.1091
47028W        W55828   6.581   2.062  10.975  0.1305 -0.0699  0.1850
47029W        W55829   6.216   0.823  45.128 -0.1798  0.0603  0.0667
47030W        W55830   2.751   1.333  29.529 -0.2104 -0.1354 -0.1252
47031W        W55831   8.557   6.327  37.845  0.0625  0.0581 -0.1657
47032W        W55832  15.895   4.777  34.827  0.2454 -0.1385  0.0728
47033W        W55833   5.587   4.861  30.665  0.0940  0.0637  0.1476
47034W        W55834   5.079   3.702  31.899  0.0133  0.0103 -0.0595
47035W        W55835  17.805   0.945  32.924 -0.0636  0.0526  0.0273
47036W        W55836   1.440   3.514  32.967 -0.0145  0.1177 -0.1189
47037W        W55837   6.613   0.023  10.392 -0.0206  0.1764 -0.0939
47038W        W55838  13.032   2.501  19.799  0.0752  0.3599  0.4533
47039W        W55839   3.379   1.923  14.098  0.0845 -0.0610 -0.3850
47040W        W55840  13.131   3.390  14.823 -0.3120 -0.1135  0.0653
47041W        W55841  13.860   0.050  21.824 -0.2759 -0.0530 -0.1236
47042W        W55842   6.249   5.955  42.464 -0.1539  0.1352 -0.3781
47043W        W55843  11.127   5.257  34.921 -0.0656  0.0608  0.0354
47044W        W55844  10.143   6.392  44.475 -0.0982 -0.1349 -0.3325
47045W        W55845   3.794   5.932  44.298  0.0814  0.0001 -0.0462
47046W        W55846  13.047   4.679   1.712  0.1840  0.3703 -0.0933
47047W        W55847  17.276   1.786  12.849 -0.2049  0.0754 -0.0459
47048W        W55848  10.355   0.520  14.174 -0.0248 -0.2291 -0.0683
47049W        W55849   2.917   5.653  22.911 -0.4310  0.2695  0.2754
47050W        W55850  18.627   2.367  28.800  0.1135 -0.0034 -0.0176
47051W        W55851   3.892   4.859  21.300  0.0858 -0.0127 -0.0905
47052W        W55852   2.378   4.747  36.539  0.0669 -0.1483  0.0187
47053W        W55853  13.940   2.440  19.927 -0.1455 -0.1266 -0.0381
47054W        W55854  20.355   4.361  12.089  0.0480  0.1145 -0.1238
47055W        W55855   2.950   3.087  10.325  0.0600  0.0878  0.0395
47056W        W55856   1.844   0.902  14.133 -0.1155  0.1524 -0.3640
47057W        W55857  18.774   3.827  17.835 -0.2638  0.1148  0.0910
47058W        W55858   4.357   5.507  32.941  0.0087  0.0537  0.0220
47059W        W55859  20.150   4.738  45.010 -0.2122 -0.0814  0.1065
47060W        W55860   3.192   5.312   2.204 -0.3034  0.0711 -0.0085
47061W        W55861  12.432   6.602  17.143 -0.4313 -0.1003  0.0086
47062W        W55862   0.396   5.835   0.239 -0.1380 -0.1095 -0.0721
47063W        W55863  19.010   4.634  39.619  0.1983  0.1488 -0.0016
47064W        W55864  17.713   2.508   1.288 -0.0367  0.2285 -0.3177
47065W        W55865   4.347   1.331  12.754  0.0779 -0.0541  0.1434
47066W        W55866  12.177   1.797   5.628  0.0551 -0.0487 -0.0791
47067W        W55867  20.750   1.630  13.048 -0.1495  0.1357  0.4810
47068W        W55868   2.253   4.684  40.138  0.0783  0.2365  0.1932
47069W        W55869  17.251   3.311   4.532  0.1764 -0.1851  0.0621
47070W        W55870  19.419   0.070   0.379  0.0107 -0.1108 -0.0925
47071W        W55871  11.781   0.183  14.257  0.0828 -0.0823 -0.2265
47072W        W55872   7.064   0.113  11.765 -0.0177  0.1721 -0.0777
47073W        W55873   8.588   1.388  11.252  0.1915  0.0681  0.0885
47074W        W55874  18.101   0.182  37.746 -0.1753 -0.0115 -0.1171
47075W        W55875  18.172   1.016  42.612  0.2429 -0.1377 -0.2306
47076W        W55876  20.308   3.534  11.539 -0.0030  0.0897 -0.2428
47077W        W55877   2.598   0.182   8.726 -0.1363  0.0570  0.1328
47078W        W55878  17.118   5.096  30.027  0.2207  0.0804 -0.2756
47079W        W55879   9.245   1.259  44.311  0.1636 -0.1952 -0.1673
47080W        W55880   4.723   0.632   7.114  0.2534  0.2155  0.0906
47081W        W55881   0.620   0.597  26.203  0.0884  0.2091  0.1157
47082W        W55882  14.077   1.087  33.188  0.1411  0.1010  0.0175
47083W        W55883   6.870   0.975  38.507  0.1904 -0.0522 -0.2354
47084W        W55884   9.099   5.341   7.482 -0.0029  0.3689 -0.0510
47085W        W55885  14.428   1.920  10.604 -0.0639  0.2598 -0.1053
47086W        W55886   4.068   3.589  15.274  0.0002 -0.4751  0.1936
47087W        W55887   7.674   5.839   9.793 -0.1576 -0.4954 -0.0320
47088W        W55888   2.463   2.963   8.618  0.1481 -0.0176 -0.0823
47089W        W55889   1.233   2.700  26.339  0.1550  0.2957  0.2147
47090W        W55890  17.306   5.182  14.482  0.2283  0.0200 -0.2047
47091W        W55891   7.075   0.759  14.955  0.1590  0.0038 -0.0341
47092W        W55892  20.670   2.947   7.084  0.0425  0.1567  0.2055
47093W        W55893  18.843   1.115  39.905  0.1142  0.2903  0.1517
47094W        W55894  19.834   1.906  41.286  0.4235  0.0482 -0.0401
47095W        W55895   7.865   5.926  44.678  0.1615 -0.1409 -0.4138
47096W        W55896   5.319   2.594  40.051 -0.1383 -0.0770  0.0604
47097W        W55897  17.126   6.209  45.120  0.2433 -0.0951  0.0927
47098W        W55898  19.326   1.134  40.050 -0.0162  0.1899 -0.0444
47099W        W55899  20.587   1.590   9.528 -0.3741 -0.2347 -0.2375
47100W        W55900  18.539   3.917  13.581  0.0445 -0.0296 -0.1906
47101W        W55901  15.185   3.177   7.395  0.4772  0.3759  0.0973
47102W        W55902  20.550   1.942  40.443 -0.0943  0.1654 -0.2262
47103W        W55903   4.085   6.117  28.710  0.2750 -0.0141  0.0862
47104W        W55904   0.745   2.377  32.021 -0.1126 -0.1509  0.1994
47105W        W55905   6.107   6.359   5.633 -0.1918 -0.1423  0.2186
47106W        W55906   8.540   4.478  15.336  0.1137  0.0103  0.1269
47107W        W55907  14.964   3.032  22.962 -0.0463 -0.2219  0.0312
47108W        W55908   8.812   3.768  12.485 -0.0948 -0.2053  0.1573
47109W        W55909   7.156   3.229  38.605 -0.0206  0.0801  0.2764
47110W        W55910  17.774   3.061  18.430  0.1584 -0.0587 -0.1782
47111W        W55911  11.054   0.707  33.027 -0.2552 -0.0421  0.0847
47112W        W55912  15.775   5.673  18.269 -0.0379 -0.2097 -0.0953
47113W        W55913  13.604   3.288  15.118  0.1230 -0.0605 -0.2900
47114W        W55914   8.918   2.211  44.369  0.3061 -0.1163  0.1252
47115W        W55915  20.909   0.728   8.213 -0.0423  0.2848  0.1843
47116W        W55916  20.024   1.843  39.339  0.2040  0.0050  0.0313
47117W        W55917  19.965   1.248  44.378 -0.1457  0.3349  0.1834
47118W        W55918  13.012   4.286  33.602 -0.1929  0.0891 -0.0649
47119W        W55919  18.998   5.051   1.289  0.0357  0.1036 -0.0305
47120W        W55920   5.750   2.000   9.062  0.0874 -0.0875  0.1413
47121W        W55921   4.373   6.530  35.050 -0.0715 -0.0613 -0.2700
47122W        W55922   2.282   4.560   5.590  0.2475  0.2053 -0.2438
47123W        W55923  15.798   1.579  33.211 -0.1789 -0.1599 -0.0380
47124W        W55924  12.906   1.633   1.132  0.1279 -0.1943 -0.1788
47125W        W55925   0.670   2.281  13.979 -0.0037  0.1701 -0.0891
47126W        W55926  17.015   0.646   3.994  0.0397 -0.3718  0.0974
47127W        W55927   9.743   5.634  40.284  0.4025  0.1005  0.0153
47128W        W55928   7.308   5.984  43.881  0.0377 -0.2397 -0.1158
47129W        W55929  18.344   6.069  42.994 -0.0939 -0.1066 -0.0862
47130W        W55930  10.745   2.714  31.807  0.1282  0.0237 -0.0580
47131W        W55931  20.258   1.544  42.542 -0.0050  0.1401  0.2401
47132W        W55932  20.839   5.923  41.078  0.0194  0.1290 -0.1025
47133W        W55933   6.578   1.175  40.624  0.1483 -0.0478  0.2262
47134W        W55934  10.438   2.635  11.316  0.1461  0.1235 -0.2841
47135W        W55935  12.727   5.905   4.807  0.0270 -0.2666  0.1696
47136W        W55936   7.759   3.931  14.824  0.0739  0.1328  0.1423
47137W        W55937  15.149   5.772   4.283 -0.2185 -0.2456 -0.0000
47138W        W55938  14.973   0.071  40.742 -0.0251 -0.2228 -0.0343
47139W        W55939  14.128   5.513  41.933 -0.0645 -0.2355  0.0468
47140W        W55940   6.619   4.577   6.901  0.1221  0.0941  0.2043
47141W        W55941   2.384   5.857  35.351  0.0210 -0.1000 -0.0164
47142W        W55942   4.763   3.837  40.098  0.0245 -0.1199  0.1107
47143W        W55943  12.187   3.022  15.145 -0.1984 -0.2501 -0.0337
47144W        W55944   9.371   5.723  27.574 -0.2850  0.0859 -0.1370
47145W        W55945  15.399   0.784  16.264  0.1152 -0.2267 -0.1565
47146W        W55946   5.320   0.029  37.720  0.0179 -0.0606 -0.1428
47147W        W55947   3.340   3.658  23.386  0.0883 -0.0854  0.0313
47148W        W55948  15.877   0.376  11.674 -0.0130 -0.0029 -0.0870
47149W        W55949  18.201   5.411  14.816  0.0258 -0.1591  0.0746
47150W        W55950  16.114   4.424  43.556  0.0203 -0.0177  0.2306
47151W        W55951  19.118   6.183  44.863 -0.0800 -0.0286 -0.1850
47152W        W55952   8.846   3.908  26.881  0.2176 -0.0121  0.1765
47153W        W55953   0.937   4.917   1.764 -0.1098  0.2443 -0.0938
47154W        W55954  17.150   6.075   7.512  0.0772 -0.0410  0.1464
47155W        W55955   7.603   0.191  10.237  0.1343  0.0058  0.2884
47156W        W55956  14.554   2.663  36.014  0.0620  0.1305  0.1870
47157W        W55957  18.196   2.479  12.966  0.1421  0.1662  0.0235
47158W        W55958  17.325   5.342  20.964 -0.0658 -0.0326  0.1890
47159W        W55959   0.869   5.815   4.390  0.0091  0.2209 -0.0227
47160W        W55960  19.951   2.520  11.925 -0.0231  0.1594 -0.0482
47161W        W55961   0.567   0.537  27.083 -0.1407  0.0127  0.0668
47162W        W55962   4.222   3.541  14.770 -0.0377  0.1555 -0.0790
47163W        W55963  17.481   6.582  30.285  0.0729  0.3763 -0.2051
47164W        W55964  19.944   4.542  29.238  0.0213  0.0317  0.1343
47165W        W55965   0.137   0.986   4.677 -0.5892  0.0934  0.2638
47166W        W55966   1.567   1.696   1.806 -0.0715  0.1550 -0.1305
47167W        W55967  16.849   3.049  19.758  0.0862  0.0117 -0.2169
47168W        W55968   5.978   5.281   6.569 -0.0644  0.0138 -0.2547
47169W        W55969  12.479   3.632   0.402 -0.3129 -0.1333 -0.0426
47170W        W55970  20.155   2.744  15.427 -0.2999 -0.2054 -0.1689
47171W        W55971  15.410   0.432   9.401 -0.1214 -0.1761  0.3094
47172W        W55972  19.638   1.671  13.098 -0.1405  0.2599 -0.2359
47173W        W55973   0.595   6.505  43.556  0.2646  0.0539  0.1013
47174W        W55974   4.332   0.967   9.950  0.3012  0.2612 -0.1427
47175W        W55975   1.075   3.129   9.322  0.1414  0.2833 -0.2623
47176W        W55976  10.278   5.437  40.647  0.2465  0.0153  0.2340
47177W        W55977  20.718   6.602  38.114  0.1993 -0.0018  0.3354
47178W        W55978  13.430   6.225  18.361  0.0655  0.0784 -0.0453
47179W        W55979   5.706   0.621   2.477 -0.1683  0.0395  0.1218
47180W        W55980   8.878   2.264  39.095  0.0692 -0.1897  0.0711
47181W        W55981   1.823   5.043   9.862  0.2813  0.0016  0.0282
47182W        W55982   4.456   5.271   7.886  0.1110  0.0800  0.0509
47183W        W55983  16.103   1.397  21.680 -0.2161 -0.0709 -0.1261
47184W        W55984   8.468   0.609  12.055  0.1560 -0.1541  0.3011
47185W        W55985  10.111   6.075   7.326  0.2224 -0.0560 -0.1635
47186W        W55986  12.628   1.383   3.461 -0.0109  0.0278  0.3141
47187W        W55987   4.575   5.357  38.197 -0.1400 -0.1883  0.1608
47188W        W55988  14.926   5.878  19.979  0.1800 -0.3067  0.3788
47189W        W55989   9.805   2.905   3.555  0.0842  0.2887 -0.1889
47190W        W55990   2.935   2.969  30.611  0.0966  0.1458 -0.0040
47191W        W55991  15.177   1.006   3.769  0.4057  0.0587  0.0385
47192W        W55992  10.396   4.184  15.389  0.0533  0.0186  0.0856
47193W        W55993  17.436   5.545  42.630  0.1418  0.0369 -0.0080
47194W        W55994  17.275   2.957   8.323 -0.0012 -0.1398 -0.0948
47195W        W55995   6.997   5.956   6.685  0.0726 -0.1085 -0.0074
47196W        W55996  18.073   1.619  13.938  0.1434  0.2458  0.1520
47197W        W55997  10.061   3.029  16.886  0.2493 -0.0918  0.1456
47198W        W55998  11.927   6.563  28.668  0.4007 -0.0100 -0.1758
47199W        W55999   1.531   2.762   5.749 -0.3171  0.0292 -0.0327
47200W        W56000  20.988   1.176   2.484 -0.0688 -0.0199  0.1065
47201W        W56001   4.221   2.924   2.564 -0.0194 -0.1827  0.1313
47202W        W56002  15.016   0.755   7.489 -0.0568  0.0605 -0.1161
47203W        W56003  16.954   2.422  35.601 -0.3195  0.3495 -0.0045
47204W        W56004   1.177   1.557  28.676  0.1314  0.3538 -0.2166
47205W        W56005   5.140   4.513   8.243 -0.0014  0.0131  0.1049
47206W        W56006  15.179   0.480  36.416  0.2010  0.2100 -0.1084
47207W        W56007  12.305   0.174  30.428  0.2645  0.2633  0.1383
47208W        W56008  15.310   3.441  30.738 -0.4567  0.1169  0.1093
47209W        W56009   4.897   1.325  22.004  0.2860 -0.2297  0.0696
47210W        W56010   1.578   2.514   6.698 -0.2728  0.1108  0.0811
47211W        W56011  18.254   3.676   7.273  0.0856  0.0070 -0.2445
47212W        W56012  10.034   4.967  31.103 -0.0489  0.2266 -0.1234
47213W        W56013   2.456   1.562  16.021  0.2456 -0.0138  0.3676
47214W        W56014   7.591   3.185   4.970 -0.0521 -0.2183 -0.3952
47215W        W56015  14.621   6.351  38.109 -0.0099 -0.2731 -0.1781
47216W        W56016  10.564   5.697  43.496 -0.0095 -0.0938  0.1098
47217W        W56017   5.817   0.908  30.966 -0.0747  0.0070  0.0265
47218W        W56018  19.680   2.102  16.837 -0.0249 -0.0461 -0.0856
47219W        W56019   1.930   3.332  23.081  0.1031  0.1056  0.2084
47220W        W56020   5.362   6.600  15.471  0.0458 -0.1521 -0.4602
47221W        W56021  17.163   4.865  20.973  0.1905 -0.3388 -0.1497
47222W        W56022  11.983   5.673  37.162 -0.5235  0.2581 -0.2073
47223W        W56023   9.143   3.913  37.943 -0.2610  0.1078  0.3296
47224W        W56024  15.775   5.557  22.617  0.1179  0.0258 -0.0254
47225W        W56025  12.386   5.218  18.419  0.0150  0.3181  0.0816
47226W        W56026  10.679   1.881  11.886 -0.0019  0.1209  0.0191
47227W        W56027  20.066   5.290  26.922  0.0390 -0.0330  0.0710
47228W        W56028   1.984   3.864  31.337 -0.2686 -0.1071 -0.0027
47229W        W56029  19.863   0.831  44.004  0.0767  0.0045  0.0228
47230W        W56030  16.662   5.857  22.504 -0.0090  0.1000 -0.0914
47231W        W56031  11.921   1.501   3.045 -0.3401  0.1452 -0.1644
47232W        W56032  17.500   1.296   4.702  0.1596  0.1149  0.2350
47233W        W56033   6.564   0.656  39.313  0.0732 -0.2712 -0.0281
47234W        W56034  18.835   6.440  18.136 -0.1462 -0.1074 -0.0088
47235W        W56035  17.906   3.640  34.410 -0.0864  0.0389 -0.2075
47236W        W56036   7.011   4.039  28.414 -0.2477  0.2009  0.1424
47237W        W56037   0.117   5.960  42.121 -0.0140  0.2123 -0.0789
47238W        W56038   8.628   0.382  26.691  0.0898  0.3102  0.1393
47239W        W56039   6.202   1.518  15.454  0.3508  0.1662 -0.1586
47240W        W56040   0.717   0.174  15.854 -0.1651  0.0140 -0.1129
47241W        W56041   6.344   6.224  41.090  0.3031  0.0732 -0.4349
47242W        W56042   4.650   0.504  34.868  0.1156  0.1993 -0.2191
47243W        W56043  14.230   3.041  16.006 -0.1997 -0.0924 -0.2078
47244W        W56044   8.876   5.738   8.518 -0.0648  0.1056 -0.1393
47245W        W56045  15.007   2.518   5.209 -0.0295 -0.0224  0.6448
47246W        W56046   5.190   0.772   5.662  0.3645 -0.1547  0.1774
47247W        W56047  21.127   3.557  11.298 -0.2097  0.0205  0.0543
47248W        W56048  12.285   3.704  33.553  0.0847 -0.3020  0.3951
47249W        W56049   1.155   1.739   5.549 -0.0925 -0.1498 -0.0246
47250W        W56050  20.682   5.087  37.039 -0.2291 -0.2634  0.1056
47251W        W56051   2.818   0.815   7.523 -0.0329 -0.1144  0.1980
47252W        W56052  17.345   5.870  11.329  0.0153 -0.1506 -0.1272
47253W        W56053  15.014   6.105  15.579 -0.0152  0.3059  0.0732
47254W        W56054   6.689   3.332  33.968 -0.0262  0.3448 -0.1410
47255W        W56055   1.414   0.293  14.624 -0.1737  0.0624 -0.2021
47256W        W56056   4.490   6.190  15.305  0.0091  0.1949  0.2544
47257W        W56057   6.738   1.492  29.095 -0.1842 -0.1031 -0.0186
47258W        W56058  14.769   6.187  34.040  0.2596  0.1311 -0.2813
47259W        W56059   0.301   2.931  27.630 -0.0866 -0.0626 -0.0268
47260W        W56060   9.695   5.339   0.826 -0.2486 -0.0596  0.0905
47261W        W56061   9.823   5.209  11.129  0.1860  0.1799 -0.1000
47262W        W56062  13.319   0.720  16.844  0.1928 -0.0630 -0.1485
47263W        W56063  16.031   3.471  16.931 -0.1387 -0.0981 -0.0873
47264W        W56064  16.823   5.508  38.810 -0.0632  0.1533  0.4142
47265W        W56065  14.155   3.136  42.911 -0.0116  0.3208  0.3862
47266W        W56066  12.369   2.855  23.715 -0.1681 -0.2486 -0.0648
47267W        W56067   5.103   2.851   7.954 -0.0136  0.2122  0.0080
47268W        W56068   5.552   6.465  39.054 -0.2022 -0.2472  0.3195
47269W        W56069   1.931   4.212  42.317 -0.0271  0.2692  0.1262
47270W        W56070  18.867   1.543   0.423  0.0275 -0.4530 -0.0462
47271W        W56071  19.199   4.913  29.791  0.2221 -0.0609 -0.0582
47272W        W56072  19.656   3.093  28.076 -0.0920  0.0505 -0.1420
47273W        W56073   9.540   2.333  32.534  0.1744 -0.0453 -0.0415
47274W        W56074  18.763   5.803   3.053  0.0848  0.3450  0.1422
47275W        W56075   1.757   5.218  30.126 -0.0841  0.0733 -0.0362
47276W        W56076  16.530   5.574  11.466 -0.1499 -0.0716  0.2296
47277W        W56077   8.685   4.463   7.955 -0.0354  0.1715 -0.0018
47278W        W56078   9.078   2.413  12.361  0.3934  0.0565 -0.0225
47279W        W56079   3.775   2.274   6.166  0.0620  0.0954 -0.1181
47280W        W56080  10.683   6.221  38.221 -0.0061 -0.0147 -0.0634
47281W        W56081  11.862   4.414  10.034 -0.0583 -0.4002  0.0367
47282W        W56082  21.079   1.861  33.299  0.1569  0.0479  0.2809
47283W        W56083   0.805   0.795  41.549 -0.2474 -0.0732  0.1581
47284W        W56084  20.944   2.815  27.368 -0.1079  0.1557 -0.2896
47285W        W56085  19.469   2.480  38.736 -0.0991  0.0046 -0.1217
47286W        W56086  19.965   3.361  14.493  0.2360  0.2757 -0.4599
47287W        W56087   0.956   4.264  10.339 -0.2554 -0.2619  0.1357
47288W        W56088  10.751   3.533  10.819  0.0214  0.0174 -0.0186
47289W        W56089   5.844   4.608  28.027  0.0320  0.2169 -0.0736
47290W        W56090   2.583   6.014  21.464 -0.0553  0.1606 -0.0246
47291W        W56091  12.113   1.548  30.343  0.1025  0.0442  0.0242
47292W        W56092   0.700   5.165  10.463  0.0463  0.3349 -0.1435
47293W        W56093  13.266   5.655  45.100  0.2548 -0.0515  0.0999
47294W        W56094   2.758   3.337   8.593  0.0117  0.2070 -0.3497
47295W        W56095  16.658   0.050  13.264 -0.4707  0.0876 -0.0708
47296W        W56096   3.689   0.476  31.061 -0.1051  0.1046  0.3456
47297W        W56097  19.162   2.408  44.279  0.1186  0.1104 -0.3635
47298W        W56098  12.745   4.725  41.648 -0.1179 -0.1876 -0.0319
47299W        W56099  13.623   5.692   6.985  0.1614 -0.0324 -0.0515
47300W        W56100   3.966   2.757  15.727  0.0530 -0.3199 -0.1715
47301W        W56101  17.302   1.425  39.756 -0.1036  0.3978  0.0438
47302W        W56102   9.941   4.379  32.292 -0.2210 -0.3264 -0.1584
47303W        W56103   7.164   5.383  31.914  0.1154  0.0840  0.1580
47304W        W56104  15.573   0.506  11.253  0.1051 -0.4779 -0.3166
47305W        W56105   8.610   4.438  40.566  0.2567  0.1598  0.0239
47306W        W56106   7.285   3.096  10.259 -0.1597  0.3094 -0.3054
47307W        W56107  18.108   3.558   0.367 -0.2503 -0.0130 -0.0689
47308W        W56108  17.185   0.615  38.692  0.2026 -0.0283  0.3224
47309W        W56109  10.158   2.441  38.808 -0.0562 -0.4674 -0.1413
47310W        W56110  10.943   3.958  11.763  0.1655 -0.1410  0.1315
47311W        W56111   6.808   5.002  31.829 -0.0091  0.0826  0.1736
47312W        W56112  18.506   2.037  29.673  0.0231 -0.1741 -0.2670
47313W        W56113  13.544   5.276  14.474  0.1054 -0.1842  0.1956
47314W        W56114  20.659   3.444  10.407  0.2643  0.4714 -0.2162
47315W        W56115  20.944   6.380  26.583  0.0428  0.0938 -0.2458
47316W        W56116   4.550   4.833  39.273 -0.3368  0.1066  0.0098
47317W        W56117   1.727   0.137  31.107 -0.2369 -0.2593 -0.0653
47318W        W56118   8.967   6.380  38.411 -0.1488  0.1936 -0.3047
47319W        W56119  10.401   2.613  15.602 -0.1125  0.1351 -0.1132
47320W        W56120  10.866   4.206  12.155 -0.0048  0.1515 -0.0547
47321W        W56121  13.378   4.039  38.284 -0.0376 -0.4174  0.0132
47322W        W56122  11.731   5.615   0.152  0.2499 -0.0491 -0.0623
47323W        W56123   2.910   6.467  39.093 -0.0038 -0.1685 -0.1128
47324W        W56124  12.876   6.547  37.906  0.0010 -0.0005 -0.0324
47325W        W56125  20.505   3.897  38.378 -0.2522  0.1151 -0.0531
47326W        W56126  20.197   2.494  15.931 -0.1225  0.1999  0.0791
47327W        W56127   9.101   0.508   1.354 -0.0938 -0.0337  0.2425
47328W        W56128  20.454   2.503   8.389  0.0448 -0.1125  0.0033
47329W        W56129  18.514   1.858  16.647  0.1485  0.0032  0.1369
47330W        W56130   1.272   1.249   6.481  0.0713 -0.1768  0.0789
47331W        W56131   2.129   0.934   6.836 -0.0186  0.2206 -0.0068
47332W        W56132   1.449   5.144  13.499  0.4421  0.0465 -0.2334
47333W        W56133   8.246   2.032  40.994  0.0500  0.4401  0.0862
47334W        W56134  12.315   1.563  14.673  0.1518 -0.0523 -0.1377
47335W        W56135  13.726   3.003  37.490  0.0696  0.1236 -0.0791
47336W        W56136   3.425   2.435   5.031  0.1498  0.1447  0.2920
47337W        W56137   2.038   3.238  13.103  0.0567  0.0971  0.0576
47338W        W56138   0.803   4.723  14.050 -0.0887 -0.0351  0.4600
47339W        W56139  11.949   0.682  39.731  0.0794  0.5434 -0.0721
47340W        W56140  14.033   4.478  34.279 -0.0439 -0.3866  0.3479
47341W        W56141   3.783   1.128  34.517  0.0833 -0.2315  0.2033
47342W        W56142  14.421   3.619  12.756  0.1054  0.0045  0.3047
47343W        W56143  17.279   0.753  15.271  0.1321  0.0062  0.0736
47344W        W56144   5.370   1.280  32.261 -0.2517  0.1286 -0.1219
47345W        W56145   8.596   3.152   8.905  0.0441 -0.0165  0.0294
47346W        W56146   0.609   1.446  40.678  0.3720  0.1742 -0.1832
47347W        W56147  13.555   1.688   3.962 -0.0644 -0.1412 -0.0783
47348W        W56148  17.310   0.519  12.576 -0.0561  0.1169  0.2142
47349W        W56149  15.762   1.202  41.906  0.1879  0.1361  0.2309
47350W        W56150  13.138   1.055  20.758  0.0662 -0.0027  0.4039
47351W        W56151  15.700   3.492  28.666  0.1244  0.1302  0.2007
47352W        W56152   5.559   5.434  38.518  0.2060  0.3956  0.0921
47353W        W56153  21.070   4.669  40.351  0.0369 -0.1754 -0.0156
47354W        W56154  17.069   1.690   2.687  0.0760 -0.0163  0.3343
47355W        W56155   9.086   4.275  38.868 -0.0840 -0.0006 -0.1291
47356W        W56156   3.876   4.775  29.361  0.2094 -0.0999  0.0050
47357W        W56157   3.875   0.606   9.992 -0.1388  0.0626 -0.1431
47358W        W56158   9.861   1.768   1.033  0.3240 -0.3032 -0.0755
47359W        W56159  12.762   3.113   7.597  0.1167 -0.0031 -0.2503
47360W        W56160   2.097   2.244   2.021 -0.1027  0.2609 -0.0652
47361W        W56161   5.246   0.875  31.944 -0.1541  0.0365  0.0308
47362W        W56162  12.873   0.016  35.749  0.3124 -0.0971 -0.0832
47363W        W56163   1.739   2.971  25.350  0.2381  0.4147 -0.0072
47364W        W56164   8.769   3.299  28.347 -0.2002 -0.0980  0.1108
47365W        W56165  12.028   3.565   5.181 -0.0797 -0.4376 -0.0744
47366W        W56166  19.339   2.743  15.862 -0.2247  0.0158  0.3466
47367W        W56167   3.109   1.180   3.106 -0.0057 -0.0228 -0.0273
47368W        W56168   6.013   1.527  44.196  0.0540  0.1737  0.0047
47369W        W56169  18.593   2.103  39.781 -0.1585  0.2623  0.1009
47370W        W56170  17.515   2.663   6.824  0.2115  0.0104 -0.0436
47371W        W56171   4.123   5.458   4.102  0.0242 -0.0687  0.1068
47372W        W56172  18.962   2.098  41.768  0.0359  0.1304  0.0378
47373W        W56173   5.808   1.769  15.870 -0.0349 -0.1287 -0.0836
47374W        W56174  11.605   2.361  20.116 -0.4078  0.0356 -0.0712
47375W        W56175  15.071   4.680  12.885  0.0932  0.0564  0.0319
47376W        W56176  21.152   1.792   8.179  0.4363  0.1040  0.0006
47377W        W56177   8.075   1.886  33.640 -0.1838  0.1290  0.2277
47378W        W56178  18.586   4.935   0.364 -0.0634 -0.1677 -0.0595
47379W        W56179  18.054   2.357  40.813  0.2379 -0.0645 -0.2913
47380W        W56180   6.375   1.620  39.537 -0.1477 -0.0557 -0.0817
47381W        W56181  12.657   4.042  35.962 -0.3077  0.1259 -0.0404
47382W        W56182   7.992   2.394   2.402 -0.1212  0.0314 -0.0119
47383W        W56183   4.979   4.936   3.634  0.0727  0.1686 -0.1183
47384W        W56184  16.067   1.729   4.321  0.3067 -0.1015  0.1854
47385W        W56185   6.962   2.302  43.736  0.0437 -0.0069  0.3489
47386W        W56186   6.742   4.427  22.777  0.0337  0.0484  0.2398
47387W        W56187   1.324   6.494  12.947 -0.0040 -0.1287  0.0430
47388W        W56188  18.987   4.587   7.406  0.0879 -0.0643  0.0239
47389W        W56189   8.005   5.570  12.749 -0.0663  0.0192 -0.1404
47390W        W56190  12.195   3.852  22.121 -0.1527  0.0417  0.2546
47391W        W56191   0.406   2.618   6.969 -0.1175 -0.0800 -0.5632
47392W        W56192  14.304   2.575  30.292  0.1096 -0.1121 -0.2465
47393W        W56193  10.777   3.536  15.254 -0.2239  0.1063 -0.2410
47394W        W56194  12.558   3.882  43.296 -0.0450  0.2452  0.2902
47395W        W56195   6.913   1.899  31.468 -0.1679 -0.0758 -0.0252
47396W        W56196   4.407   5.832   5.832  0.1684  0.1117 -0.2275
47397W        W56197  14.666   4.239  11.328  0.0093  0.0767 -0.1644
47398W        W56198  17.244   5.850  39.893  0.1394 -0.0782 -0.1513
47399W        W56199  20.418   4.926  44.623 -0.0890  0.2479  0.0523
47400W        W56200   4.658   5.276  28.906 -0.1658  0.0466 -0.3350
47401W        W56201  19.614   3.598   9.917  0.1378  0.0960 -0.1131
47402W        W56202   1.374   4.213  13.491  0.0968 -0.1116 -0.1520
47403W        W56203  14.442   5.916  21.354 -0.0780  0.1897  0.0458
47404W        W56204  16.031   3.838  17.669 -0.4337 -0.0394 -0.0515
47405W        W56205  14.558   1.087   4.965 -0.1002 -0.2585 -0.0169
47406W        W56206  15.164   0.192  23.731  0.0013  0.0616 -0.0630
47407W        W56207   5.840   5.094  42.873 -0.0744 -0.0973  0.4027
47408W        W56208  11.680   0.566  44.285  0.0153  0.1244 -0.0624
47409W        W56209  12.987   3.454  44.859 -0.3631  0.1528  0.0218
47410W        W56210  10.366   4.468  18.667 -0.1394  0.2047 -0.2862
47411W        W56211  20.153   0.678  14.606  0.0237  0.2379  0.0682
47412W        W56212   4.249   0.279   3.575 -0.1572  0.2304  0.1452
47413W        W56213   1.629   0.380   1.441  0.1406  0.0781  0.1721
47414W        W56214   1.039   2.536  39.555  0.1950 -0.1266 -0.2844
47415W        W56215   7.504   0.630  24.161 -0.1396 -0.0114  0.3391
47416W        W56216   7.107   2.284  34.240  0.1470  0.3266 -0.1245
47417W        W56217  15.547   3.126  17.781 -0.0408 -0.0221 -0.4029
47418W        W56218   1.215   4.216  14.705 -0.0268 -0.1906  0.1514
47419W        W56219  19.636   4.388  10.596  0.4188  0.2544  0.0725
47420W        W56220   4.839   2.976  14.257  0.0680  0.0342  0.1262
47421W        W56221  11.961   3.669  41.622 -0.0456 -0.1824  0.1983
47422W        W56222  17.085   6.082  20.632 -0.0125  0.1895 -0.0838
47423W        W56223   8.599   5.012   7.419 -0.0401  0.2308 -0.1084
47424W        W56224  16.571   3.187  11.034 -0.0222 -0.2363 -0.1520
47425W        W56225   2.117   2.564  34.592  0.0506 -0.0253  0.0567
47426W        W56226   4.589   2.884  23.463  0.0227 -0.1970 -0.1181
47427W        W56227   0.112   2.913  31.421 -0.4003 -0.0431 -0.1740
47428W        W56228  13.342   5.047  41.268  0.1647 -0.4394  0.0721
47429W        W56229   6.119   4.233  40.233  0.1488  0.0823  0.2490
47430W        W56230  20.909   3.697   5.481 -0.0230 -0.0808  0.1795
47431W        W56231   9.474   5.984  11.015 -0.0747  0.0044 -0.3222
47432W        W56232  13.527   5.244  30.822 -0.0136  0.0563 -0.0874
47433W        W56233   6.738   2.554  27.659 -0.1204 -0.1220  0.0337
47434W        W56234   0.148   5.911  38.272 -0.2644 -0.0700 -0.1877
47435W        W56235   6.135   1.097  30.034  0.1019  0.0211 -0.2120
47436W        W56236   1.312   1.321  37.533  0.3718 -0.0804 -0.0577
47437W        W56237  18.220   3.594  17.818 -0.3497  0.2521  0.0026
47438W        W56238   7.655   3.589   7.939 -0.3145  0.3624  0.4960
47439W        W56239  20.037   6.441  31.538 -0.0402 -0.0925  0.1059
47440W        W56240   6.230   5.678  43.711 -0.1785  0.0738 -0.1566
47441W        W56241  13.964   3.993  16.298 -0.0307 -0.2385  0.0840
47442W        W56242   8.724   2.273  34.477 -0.2454 -0.1313 -0.1722
47443W        W56243   1.776   3.861  30.101  0.1000 -0.1953  0.1799
47444W        W56244   3.990   5.033  27.084 -0.0971  0.0349 -0.1957
47445W        W56245  13.423   0.843  14.607 -0.0015 -0.2112 -0.1170
47446W        W56246   2.875   2.389  34.746 -0.1038 -0.2257  0.0194
47447W        W56247  17.674   4.395   1.842 -0.0130  0.0527 -0.0487
47448W        W56248  13.662   4.487   2.391  0.1850  0.3715  0.1486
47449W        W56249  13.274   1.222   0.490  0.0690 -0.0612  0.1872
47450W        W56250   3.540   6.429  44.344  0.0108  0.2334  0.0885
47451W        W56251   1.745   1.580  13.517  0.1430 -0.0880 -0.1876
47452W        W56252  11.954   0.210   6.725 -0.0021 -0.0132  0.0267
47453W        W56253  16.425   6.149   0.675 -0.0933 -0.1382 -0.0878
47454W        W56254   7.559   1.008   2.814  0.0843 -0.0952  0.1123
47455W        W56255  19.567   6.072  18.715 -0.2690 -0.0153  0.0187
47456W        W56256   2.180   0.293  24.097 -0.5069 -0.0746  0.1170
47457W        W56257  13.252   0.133  34.402 -0.1537 -0.2057  0.1432
47458W        W56258   0.324   4.515   6.527 -0.2037  0.0902  0.0647
47459W        W56259   8.044   6.559  12.779  0.0923 -0.0608  0.2315
47460W        W56260  14.674   4.000  13.125 -0.0054  0.1236 -0.0433
47461W        W56261   5.881   5.748  30.478  0.3334 -0.0662 -0.0719
47462W        W56262  13.661   1.579  36.408 -0.0168 -0.0554 -0.0890
47463W        W56263  14.054   0.424  20.014  0.0735  0.0134 -0.1605
47464W        W56264  20.136   6.018  42.255 -0.2780 -0.0573 -0.2364
47465W        W56265  12.806   2.802  43.294 -0.2446 -0.1373 -0.2946
47466W        W56266   5.911   4.388   1.143  0.1348  0.0106  0.1690
47467W        W56267  14.479   4.681  30.292  0.2840  0.0581 -0.1092
47468W        W56268  12.406   4.149   8.613 -0.0792 -0.4284 -0.0480
47469W        W56269   7.755   4.328   4.688 -0.3662 -0.0188  0.0786
47470W        W56270  19.785   5.327  34.529 -0.0252 -0.0206 -0.2049
47471W        W56271   9.723   2.519  13.975 -0.1362 -0.0470 -0.0786
47472W        W56272   4.396   5.189   9.858  0.3533  0.2304 -0.0268
47473W        W56273  15.183   5.254  44.580  0.0670  0.2616 -0.0464
47474W        W56274  20.205   0.749  26.855 -0.1538  0.2148  0.0346
47475W        W56275   8.872   4.190  17.996 -0.1469 -0.1824 -0.0445
47476W        W56276   4.225   3.480  27.786 -0.0741  0.3036 -0.1967
47477W        W56277  16.605   6.092  10.782 -0.1233  0.2597  0.0847
47478W        W56278   3.637   0.189  32.603 -0.0835  0.1076  0.3720
47479W        W56279  18.121   2.638  45.097  0.1352 -0.1300  0.1841
47480W        W56280  13.127   1.292  28.395 -0.1471 -0.0675  0.1587
47481W        W56281   3.474   4.424  12.092  0.0712 -0.1045  0.4093
47482W        W56282   0.165   2.005   8.705 -0.0093  0.0320  0.0510
47483W        W56283  18.362   0.364   6.448 -0.0557 -0.4223 -0.2145
47484W        W56284   1.240   6.289  36.171  0.1530  0.1798  0.0303
47485W        W56285   4.666   1.283  30.454  0.1049  0.0180 -0.0762
47486W        W56286  16.494   1.391   4.337  0.0431 -0.0923  0.1174
47487W        W56287  12.481   2.013  13.219 -0.0359  0.1557  0.0611
47488W        W56288   2.007   5.768  27.578  0.2635 -0.1587  0.0320
47489W        W56289   2.329   0.305  26.413  0.0911 -0.0239  0.1916
47490W        W56290   4.576   0.150  22.575  0.2153 -0.1704  0.0745
47491W        W56291   7.842   1.826   1.416 -0.0539  0.0141  0.0764
47492W        W56292   0.592   3.449  25.262 -0.1169 -0.0835 -0.2001
47493W        W56293   8.177   0.482  16.232 -0.0280  0.1389  0.1901
47494W        W56294   5.809   2.615  26.631 -0.0403 -0.0030  0.1251
47495W        W56295  13.618   1.402  13.303  0.0814 -0.0627  0.2101
47496W        W56296   4.579   3.500  44.252 -0.2464  0.1005  0.0930
47497W        W56297   7.317   5.936   1.380 -0.0916  0.2459  0.0026
47498W        W56298   3.522   2.133   4.407 -0.2318  0.0030  0.1007
47499W        W56299  14.064   5.480  20.424 -0.2024  0.0368 -0.2203
47500W        W56300   9.756   1.872  13.626  0.0082 -0.3673 -0.1229
47501W        W56301  18.051   6.059  28.948  0.2206  0.0388  0.0049
47502W        W56302  18.755   4.611   4.018 -0.3690  0.0554  0.1827
47503W        W56303   8.470   4.155  28.768  0.1262  0.2334 -0.3268
47504W        W56304   9.773   3.960  36.769  0.2948  0.3904  0.1403
47505W        W56305  16.843   3.823  30.742  0.0174 -0.2557  0.3312
47506W        W56306  19.407   1.063   8.190  0.1735  0.0457 -0.0113
47507W        W56307   5.185   0.977  33.265  0.0120 -0.3548 -0.1255
47508W        W56308  11.789   3.631  33.797 -0.3766  0.0876  0.2857
47509W        W56309  15.523   2.019  32.810 -0.1048 -0.0467  0.1295
47510W        W56310   6.291   0.649  36.660  0.0420  0.0035  0.1271
47511W        W56311   2.886   1.622  43.513 -0.0204  0.2633 -0.1667
47512W        W56312  10.149   4.743  40.158  0.1449  0.1448  0.1402
47513W        W56313  18.227   4.085  35.389 -0.0898 -0.2405 -0.2503
47514W        W56314  17.269   5.858  33.292 -0.0922 -0.0894 -0.2207
47515W        W56315   9.272   0.193  39.848  0.1073  0.3257  0.3718
47516W        W56316  15.383   0.057   3.319 -0.0932 -0.0886 -0.1838
47517W        W56317   9.008   4.963  37.371  0.0875 -0.2797  0.3283
47518W        W56318   7.860   5.647  33.979  0.2123  0.0943 -0.0368
47519W        W56319  13.123   0.133  30.671 -0.1771 -0.1319 -0.0770
47520W        W56320  20.809   1.470  13.551  0.1846 -0.2411 -0.0364
47521W        W56321  15.690   2.366  34.863  0.1494  0.0481  0.1925
47522W        W56322  13.918   5.924  21.871  0.0944  0.0987  0.0291
47523W        W56323   9.388   2.951   3.866 -0.1648  0.1649 -0.1120
47524W        W56324  17.415   4.468   0.459 -0.0576 -0.1732  0.2825
47525W        W56325   9.469   6.372  36.956  0.0617  0.2442 -0.2073
47526W        W56326   4.988   0.685  27.417 -0.3765 -0.0105  0.3414
47527W        W56327  11.303   0.792   7.628 -0.0442 -0.0204 -0.0407
47528W        W56328   0.314   0.491   7.295 -0.1029 -0.0785 -0.3347
47529W        W56329   4.813   6.426  30.244  0.1439 -0.1068  0.0964
47530W        W56330  14.993   2.241   3.236 -0.2323 -0.0650 -0.0917
47531W        W56331  14.505   3.097  31.775  0.1330 -0.0541  0.1274
47532W        W56332   7.201   2.966  31.292  0.0344  0.0825 -0.1602
47533W        W56333  18.045   4.040   9.997  0.3635 -0.0893 -0.0181
47534W        W56334  14.012   2.899  36.054  0.0659 -0.1538  0.1642
47535W        W56335   7.316   4.864  12.267 -0.1040  0.2575  0.2661
47536W        W56336   0.092   4.441  35.607  0.3056  0.1244  0.2915
47537W        W56337  16.786   2.041   6.346  0.1970 -0.2634 -0.0598
47538W        W56338   3.399   0.061  39.350  0.1152  0.0452 -0.1633
47539W        W56339   2.530   3.512  38.920  0.0537 -0.4617 -0.3769
47540W        W56340  18.489   6.322  32.678 -0.0603  0.0528  0.1029
47541W        W56341  20.757   2.495   9.795 -0.0658  0.0595  0.1514
47542W        W56342  19.143   6.355  16.822  0.4308 -0.2228 -0.1395
47543W        W56343  16.417   0.714  14.273 -0.2089 -0.0698 -0.0606
47544W        W56344   2.368   2.648  42.511  0.2407 -0.0513 -0.3162
47545W        W56345   3.155   1.510  31.772 -0.0841  0.0298  0.0037
47546W        W56346  12.237   1.566   7.022  0.0441  0.3667  0.2662
47547W        W56347  10.080   4.697   6.301 -0.2944 -0.3482  0.0003
47548W        W56348  12.337   3.394  21.543  0.1363  0.2575 -0.0189
47549W        W56349   9.936   5.205  36.181 -0.0125  0.0108 -0.0894
47550W        W56350  17.713   0.524  11.134  0.1741  0.0240 -0.2867
47551W        W56351   7.784   3.349  30.285 -0.5261  0.2843  0.2046
47552W        W56352  18.169   1.381  35.825 -0.0259  0.2212 -0.0589
47553W        W56353   2.011   5.554  42.793  0.3120  0.1358 -0.1935
47554W        W56354  16.123   5.127   2.313 -0.0747 -0.0147 -0.1396
47555W        W56355   3.656   4.076  24.885 -0.0451 -0.4251 -0.3831
47556W        W56356  20.079   2.262  31.601 -0.0742 -0.2426 -0.0677
47557W        W56357  15.615   0.710  29.988  0.0666  0.0289  0.0423
47558W        W56358  12.368   4.934   3.288 -0.0016 -0.0900 -0.0431
47559W        W56359   1.095   2.644  15.132 -0.5328 -0.0965 -0.0024
47560W        W56360  12.275   1.611  39.359  0.0615  0.2721  0.0349
47561W        W56361   8.104   3.489  37.368  0.2174  0.3015  0.0059
47562W        W56362   6.825   1.770  36.387  0.0635  0.0814 -0.1202
47563W        W56363   9.936   0.665  32.690 -0.2191  0.1742  0.0502
47564W        W56364   7.505   1.696  42.292 -0.1986  0.0688 -0.0039
47565W        W56365   5.892   1.745  23.951  0.2424 -0.0823 -0.0324
47566W        W56366   5.733   4.116  25.501  0.0925 -0.0987  0.2170
47567W        W56367   0.659   2.735   8.278 -0.0832 -0.0070  0.2127
47568W        W56368  12.195   3.292  41.363 -0.1531 -0.1796  0.0378
47569W        W56369  18.983   0.178  38.480 -0.0157 -0.0270 -0.0186
47570W        W56370   6.709   3.965  12.368 -0.0162 -0.1386  0.1924
47571W        W56371   6.329   4.744   5.298 -0.1388  0.1273  0.0053
47572W        W56372   1.225   1.980   4.726 -0.2626 -0.2471  0.1321
47573W        W56373   1.789   5.022  25.152 -0.1326  0.1745  0.2303
47574W        W56374  15.146   4.468  36.271  0.1361  0.1205  0.0422
47575W        W56375   7.025   3.228  30.878  0.0797  0.3180  0.1651
47576W        W56376  14.106   1.099  18.450 -0.3405  0.0341 -0.3012
47577W        W56377   7.003   0.014   5.750 -0.0445  0.0341  0.1274
47578W        W56378   6.382   5.183   2.644  0.2044 -0.2287  0.1755
47579W        W56379   4.070   4.549  36.993  0.1631  0.4340 -0.0339
47580W        W56380  17.556   1.337  40.752 -0.0283  0.1136  0.3112
47581W        W56381  14.949   4.828  44.776  0.0280 -0.1020  0.1419
47582W        W56382  17.413   5.910   5.933 -0.2869  0.0091  0.1383
47583W        W56383  10.839   6.089  12.274  0.2733 -0.1562 -0.0192
47584W        W56384  20.559   1.236  34.948  0.1539 -0.0425  0.1506
47585W        W56385  19.144   5.560  36.718  0.0697 -0.0755  0.0893
47586W        W56386   2.898   2.829  36.910  0.1311  0.0749  0.1232
47587W        W56387  12.773   3.508  35.366 -0.1183  0.0104 -0.3550
47588W        W56388   6.297   1.168   0.854  0.1158  0.3078  0.2667
47589W        W56389   4.180   6.410  14.983 -0.1437  0.1699 -0.0165
47590W        W56390   8.146   5.856   6.788 -0.0354 -0.1521  0.0641
47591W        W56391  11.583   5.379  42.290  0.0496  0.1152 -0.0525
47592W        W56392   3.547   1.555  36.647  0.2059  0.1530 -0.2286
47593W        W56393  13.446   4.845  13.469 -0.1075  0.1065  0.0058
47594W        W56394  13.881   5.981   6.023 -0.0148 -0.1939 -0.3227
47595W        W56395   0.251   4.619  13.288  0.2008 -0.3747 -0.0506
47596W        W56396   0.027   6.277  28.724  0.0885 -0.1811 -0.1533
47597W        W56397  16.284   3.702   5.364 -0.1859  0.1166  0.1268
47598W        W56398   5.531   4.866   7.433 -0.0706  0.1737  0.1477
47599W        W56399   4.472   0.109  37.974 -0.1999  0.1716  0.2496
47600W        W56400   2.540   3.855   0.734  0.1787  0.3007 -0.3770
47601W        W56401  18.594   5.415  33.758  0.0614  0.2838  0.0219
47602W        W56402   9.732   5.820   0.502  0.1928  0.1634 -0.2838
47603W        W56403   5.022   0.720   0.815 -0.1077 -0.1687  0.0962
47604W        W56404   7.190   1.276   1.779 -0.1211  0.0506  0.1310
47605W        W56405  13.268   4.644  12.295  0.0344  0.0388  0.3169
47606W        W56406   6.020   6.222   4.361 -0.0246 -0.0642 -0.0648
47607W        W56407  17.781   6.120  38.503 -0.0779 -0.1522 -0.2739
47608W        W56408   3.593   0.993   3.118 -0.0628 -0.1132  0.0783
47609W        W56409  19.080   4.802  32.641 -0.3455  0.4002  0.0619
47610W        W56410   1.265   0.533   1.896 -0.0608 -0.3219 -0.0853
47611W        W56411   4.121   1.828  43.574 -0.1458  0.2280  0.0344
47612W        W56412   8.722   3.635   6.272  0.0661  0.3306  0.2435
47613W        W56413  14.901   3.163   0.761 -0.2177 -0.0671  0.0779
47614W        W56414   1.700   4.188   6.753 -0.3029  0.0246  0.2892
47615W        W56415  20.290   6.365   7.595  0.1912  0.4564  0.0684
47616W        W56416  15.624   0.823   5.720  0.2950  0.0602  0.2368
47617W        W56417   3.007   0.935  24.680 -0.0433 -0.2333  0.0852
47618W        W56418  15.478   4.736  18.320  0.2310 -0.0446  0.3786
47619W        W56419  20.100   0.875  32.148 -0.1810 -0.1086 -0.0983
47620W        W56420   9.944   0.060  33.999 -0.0238 -0.3368  0.4158
47621W        W56421  20.336   2.718  14.626 -0.2926 -0.0964 -0.1490
47622W        W56422   5.819   4.875  27.459  0.0867 -0.0363  0.2405
47623W        W56423  13.379   5.396  43.750  0.0250 -0.1890  0.0805
47624W        W56424  18.793   2.842  37.432 -0.1476 -0.2161 -0.0484
47625W        W56425   8.099   1.800   3.088 -0.2743  0.3411 -0.1667
47626W        W56426   7.559   4.471  29.650 -0.1558 -0.0542  0.2057
47627W        W56427  17.372   3.586  31.446  0.1188  0.1098 -0.0191
47628W        W56428   5.224   3.174  30.230  0.1513 -0.1092 -0.1383
47629W        W56429   8.943   1.664  37.440  0.2752  0.1303 -0.1491
47630W        W56430  17.999   5.783   6.621 -0.0159 -0.1168  0.1358
47631W        W56431   6.228   0.761  14.588  0.0138  0.0641 -0.1983
47632W        W56432  13.361   3.803   3.013 -0.2078  0.1641 -0.0125
47633W        W56433   7.317   3.558  36.013 -0.1868 -0.2438  0.1312
47634W        W56434   5.421   6.511  14.084  0.3096  0.0929  0.0411
47635W        W56435  20.031   2.692   0.655 -0.0208 -0.0109  0.0797
47636W        W56436   2.071   4.904   1.525 -0.2630  0.1131  0.2089
47637W        W56437  10.675   1.572  18.183 -0.0225 -0.0661 -0.0705
47638W        W56438  11.549   1.262  40.596  0.0095 -0.1572  0.3969
47639W        W56439  19.506   5.474   6.064  0.1489  0.3369  0.1757
47640W        W56440   4.086   0.133   7.649 -0.1911  0.1644 -0.1756
47641W        W56441   5.323   1.000  36.857  0.0941  0.2603 -0.0409
47642W        W56442   8.101   0.963  32.254  0.0347  0.2380  0.0413
47643W        W56443   6.654   1.121   6.626 -0.0557  0.2492 -0.0438
47644W        W56444   2.724   1.334  41.941 -0.2636 -0.1877 -0.3171
47645W        W56445   7.817   5.647  26.715  0.1425  0.0629 -0.2683
47646W        W56446   1.343   1.116   2.028 -0.0537  0.2160  0.3952
47647W        W56447   8.531   5.883  13.920 -0.0884 -0.2218  0.1406
47648W        W56448  14.547   0.221   6.527 -0.2243  0.2919 -0.1988
47649W        W56449  18.437   1.587  11.872 -0.1200  0.1133  0.5637
47650W        W56450  13.880   5.891  16.383  0.0176 -0.0248  0.0364
47651W        W56451   0.472   1.371   3.995  0.1734  0.0290 -0.4553
47652W        W56452   3.286   4.068  25.546 -0.0037  0.4184  0.0568
47653W        W56453   4.720   2.868  22.733  0.1193 -0.2725 -0.0459
47654W        W56454  14.889   2.882  16.914  0.0163  0.5618 -0.1400
47655W        W56455   5.635   0.842  39.567  0.0835  0.0312  0.0057
47656W        W56456  13.659   1.500   1.704 -0.0615 -0.1111  0.0978
47657W        W56457  19.121   0.555  32.942  0.0036 -0.0109  0.3130
47658W        W56458  16.039   6.361  11.832 -0.1639 -0.2205 -0.1292
47659W        W56459   2.887   6.591  29.900 -0.3322  0.1216 -0.1868
47660W        W56460  21.050   6.342  42.934  0.1262  0.4827 -0.3395
47661W        W56461  13.794   1.574   9.440  0.0438  0.2761 -0.1413
47662W        W56462  17.510   0.525  38.329  0.3088  0.1000 -0.1592
47663W        W56463  15.418   6.559  31.180  0.0343  0.2699  0.1339
47664W        W56464   7.631   6.179  36.693  0.1155  0.0044 -0.0563
47665W        W56465   6.337   1.836  33.500  0.2088 -0.1557  0.1296
47666W        W56466   0.828   4.298  34.374  0.0251 -0.2970 -0.0614
47667W        W56467   9.627   6.551  27.690  0.1689  0.1883 -0.0879
47668W        W56468   1.024   1.567  37.144 -0.1199  0.3993  0.3151
47669W        W56469  10.640   4.301  30.768  0.2265 -0.0983  0.0163
47670W        W56470  15.127   0.414  12.991 -0.1035  0.0247  0.2164
47671W        W56471   7.371   0.622  15.341  0.0801  0.2401  0.1942
47672W        W56472   3.443   4.778  37.620 -0.2116 -0.0695 -0.1375
47673W        W56473   4.584   5.019   6.760  0.2536 -0.0228  0.2727
47674W        W56474  15.949   1.982  30.990  0.0195 -0.1866 -0.0613
47675W        W56475   3.399   1.001   6.833  0.1574  0.1498 -0.0344
47676W        W56476   5.608   3.488  31.207 -0.2446 -0.0157 -0.1033
47677W        W56477  14.621   0.684   4.690 -0.0301 -0.2222  0.1063
47678W        W56478  15.963   5.314  20.499 -0.1063 -0.0849 -0.1134
47679W        W56479   8.441   6.005  29.455  0.2899  0.3459 -0.0467
47680W        W56480   2.173   0.256   8.368  0.2722  0.1943  0.1193
47681W        W56481  18.425   0.122  38.496 -0.0030  0.2840  0.1601
47682W        W56482  17.458   4.254  32.792  0.1301  0.1499  0.1463
47683W        W56483   5.654   6.298  38.518 -0.1691 -0.1486 -0.2654
47684W        W56484  16.817   5.685   4.461  0.1433 -0.2957  0.2737
47685W        W56485  14.009   2.104   6.946  0.2881 -0.1325 -0.0777
47686W        W56486  15.676   3.344  10.411 -0.1999 -0.0726 -0.1651
47687W        W56487  12.150   6.369  44.898  0.0949  0.0321 -0.1994
47688W        W56488  10.233   3.649   0.355  0.0771  0.0546 -0.0278
47689W        W56489  17.802   3.212  17.882 -0.0571 -0.0416 -0.3731
47690W        W56490  11.776   4.532  33.316  0.1412  0.1383  0.3403
47691W        W56491  15.327   0.171  10.378  0.1229  0.0659 -0.0403
47692W        W56492   4.217   2.049  26.595  0.4006  0.3246 -0.4147
47693W        W56493  12.793   4.582   4.811 -0.0924  0.1685  0.3280
47694W        W56494   8.109   6.246  15.673  0.1166  0.2776 -0.4190
47695W        W56495  17.547   0.793  36.943  0.0750 -0.2280 -0.2180
47696W        W56496  15.922   1.778   8.226  0.1623  0.0956  0.1921
47697W        W56497   3.062   1.995  25.147  0.2491 -0.0225  0.2076
47698W        W56498   5.772   5.135  37.927  0.1511 -0.2510  0.0133
47699W        W56499   6.235   6.485   8.845  0.0362  0.2471  0.2422
47700W        W56500   3.110   5.374  11.939  0.0834  0.0927  0.0162
47701W        W56501   7.386   5.025  25.610  0.0600  0.1011  0.1108
47702W        W56502   2.545   6.594  10.906 -0.1886 -0.0153  0.1638
47703ION     NA56503  17.495   1.460  33.527  0.0711 -0.1799 -0.0941
47704ION     NA56504  15.263   4.839  40.748  0.0337 -0.3488 -0.0878
47705ION     NA56505   7.556   0.956   1.881  0.0762  0.1451 -0.1223
47706ION     NA56506  17.941   5.300  17.140 -0.0590  0.5155 -0.3274
47707ION     NA56507  13.254   1.884  38.555  0.1275 -0.0394  0.1151
47708ION     NA56508  15.154   5.808  20.337 -0.1064  0.1314  0.1380
47709ION     NA56509  11.911   1.011   6.234 -0.2790  0.1539  0.3595
47710ION     NA56510   9.944   0.624  14.563 -0.2030 -0.1382 -0.1635
47711ION     NA56511   9.372   0.603  37.072  0.5450 -0.0064  0.3081
47712ION     NA56512   8.766   1.809   4.289 -0.3072  0.6777 -0.0160
47713ION     NA56513  14.995   5.855  15.187  0.2071 -0.1493 -0.0174
47714ION     NA56514  16.543   4.121  16.110  0.1353  0.1351  0.1116
47715ION     NA56515  18.494   3.441   1.595  0.1033 -0.0015  0.1262
47716ION     NA56516  16.528   0.714  12.729 -0.0327  0.1929 -0.4881
47717ION     NA56517   8.855   0.466   2.486 -0.1325  0.2241 -0.4975
47718ION     NA56518  10.300   0.044  36.871 -0.1570  0.2275 -0.2633
47719ION     NA56519   4.176   3.686   4.752  0.1234 -0.4074  0.2874
47720ION     NA56520  12.926   0.283   3.699  0.1765 -0.6055  0.3597
47721ION     NA56521   2.819   6.492  11.328 -0.2368  0.0843 -0.4601
47722ION     NA56522  16.390   5.073   7.504 -0.3221  0.3183 -0.1018
47723ION     NA56523  10.583   3.185   6.816 -0.3078 -0.5772  0.0620
47724ION     NA56524  14.190   2.012  29.133 -0.0633  0.1401  0.0394
47725ION     NA56525  19.010   0.321   1.147  0.3818 -0.3123 -0.1524
47726ION     NA56526  11.717   2.952  30.247 -0.2200  0.1267 -0.1442
47727ION     NA56527   3.978   2.510  27.279  0.0710  0.0734 -0.4184
47728ION     NA56528   1.547   3.010   9.065  0.2245 -0.3762 -0.1121
47729ION     NA56529  19.808   6.245  29.328  0.3671 -0.1072 -0.1399
47730ION     NA56530  13.280   2.013   6.311  0.0390  0.2481 -0.0579
47731ION     NA56531   7.057   3.803   1.389 -0.1995 -0.1779  0.1372
47732ION     NA56532   4.397   4.747   2.777 -0.1138  0.1472 -0.0731
47733ION     NA56533  12.914   5.785  44.111  0.5616 -0.3137  0.1676
47734ION     NA56534  18.648   0.485  35.043  0.2865  0.4547  0.0804
47735ION     NA56535  17.406   5.185   2.627  0.3916  0.2938 -0.2916
47736ION     NA56536   1.553   4.886  32.916 -0.5944  0.0789 -0.1432
47737ION     NA56537  18.118   0.872  17.146  0.0397  0.3964 -0.6326
47738ION     NA56538   4.863   2.751  24.701  0.0781  0.2143  0.1996
47739ION     NA56539  11.384   5.286  35.308  0.2111 -0.1287  0.2135
47740ION     NA56540  12.433   3.969   1.116  0.2605  0.0967  0.0860
47741ION     NA56541   2.920   5.228  25.212  0.2491  0.1794  0.0664
47742ION     NA56542  19.916   5.334  42.640 -0.1994 -0.0879  0.1036
47743ION     NA56543  20.125   6.325   3.980  0.0691 -0.2842  0.2471
47744ION     NA56544   3.403   4.700  23.613  0.0543  0.0362 -0.0918
47745ION     NA56545   3.310   0.838   9.278 -0.0965  0.0941  0.1470
47746ION     NA56546  16.932   5.859  30.057 -0.2244  0.4843 -0.2817
47747ION     NA56547   4.034   3.205  33.202  0.0979  0.2602  0.3208
47748ION     NA56548  18.764   2.883   0.085  0.4468  0.5864 -0.0428
47749ION     NA56549  18.625   0.515  29.327  0.1636  0.2511  0.0514
47750ION     NA56550  11.067   2.468   4.443 -0.8909 -0.2466  0.0162
47751ION     NA56551  13.428   2.366  37.066 -0.1736 -0.1761  0.0358
47752ION     NA56552   7.952   0.024  15.612  0.2442  0.4419 -0.1481
47753ION     NA56553  20.715   5.955   9.939  0.0922 -0.5203  0.1565
47754ION     NA56554   1.029   6.216  39.560  0.0797  0.3955  0.0496
47755ION     NA56555  17.599   2.880  15.608 -0.0256 -0.7109 -0.3291
47756ION     NA56556  14.607   2.159  41.160 -0.3163  0.3605 -0.5932
47757ION     NA56557  15.609   0.842  43.352 -0.2344 -0.0077 -0.0138
47758ION     NA56558   4.398   6.412  32.859  0.1571  0.1157  0.1553
47759ION     NA56559  16.638   3.549  28.994 -0.2626 -0.0281  0.3116
47760ION     NA56560  18.417   2.921  38.446 -0.0225 -0.0050 -0.4507
47761ION     NA56561  10.767   2.373  13.780 -0.3238 -0.0523 -0.2813
47762ION     NA56562  13.215   4.760  34.220  0.0535 -0.1854  0.1105
47763ION     NA56563   9.602   0.027  15.153 -0.0605 -0.3015  0.1380
47764ION     NA56564   0.585   0.273   7.703  0.1713  0.3112 -0.1549
47765ION     NA56565  21.102   0.007   0.814  0.1473 -0.1275  0.4680
47766ION     NA56566   5.288   0.145  23.959 -0.2210 -0.3101 -0.4662
47767ION     NA56567  17.326   4.262  18.086  0.3334 -0.4981 -0.0519
47768ION     NA56568  10.478   4.711  34.968 -0.4650  0.0395 -0.3403
47769ION     NA56569  13.158   0.688  17.806  0.1139  0.2284 -0.2388
47770ION     NA56570  20.582   5.648  44.294 -0.2728  0.0686 -0.2356
47771ION     NA56571  13.754   0.724  31.582 -0.3165 -0.1420 -0.0952
47772ION     NA56572   5.982   3.242   3.675 -0.5294 -0.0445 -0.0445
47773ION     NA56573  16.657   3.402  11.484  0.3612  0.1607 -0.4200
47774ION     NA56574   1.508   0.997   9.504  0.2316  0.3856 -0.3112
47775ION     NA56575   7.344   1.371  13.766  0.2214  0.0155 -0.4857
47776ION     NA56576   2.046   6.083  30.420  0.4182  0.0015 -0.4963
47777ION     NA56577  15.110   3.842  42.817 -0.1454 -0.0681  0.0094
47778ION     NA56578   2.290   1.983  36.228 -0.2486  0.3153 -0.1840
47779ION     NA56579  16.524   3.647  36.633  0.3141 -0.3171  0.1091
47780ION     NA56580  13.571   1.328   1.348 -0.0222  0.5995  0.4478
47781ION     NA56581  18.242   3.439  37.295 -0.1098 -0.0406  0.0637
47782ION     NA56582   4.948   4.729   4.810 -0.1771 -0.1146 -0.1088
47783ION     NA56583  14.327   4.582  11.288 -0.0164  0.1352 -0.0416
47784ION     NA56584  11.315   5.806   6.351 -0.2248 -0.1452  0.1164
47785ION     NA56585  18.607   1.274  41.356  0.5054 -0.1120  0.5008
47786ION     NA56586   3.941   3.509  12.853  0.3275 -0.2091  0.3212
47787ION     NA56587  11.087   2.772  41.292 -0.1491  0.2562 -0.2894
47788ION     NA56588  14.733   6.522  21.018  0.0490  0.4341 -0.0175
47789ION     NA56589  12.547   5.248  40.879 -0.1663 -0.2801 -0.2185
47790ION     NA56590  15.214   2.668  33.793  0.0520  0.1716 -0.1703
47791ION     NA56591   4.962   1.691  42.133  0.0779  0.2296 -0.0133
47792ION     NA56592   9.671   5.095  29.508  0.1236  0.1191  0.0979
47793ION     NA56593   3.936   5.470  37.103  0.0165  0.0660  0.3831
47794ION     NA56594   5.562   5.706  35.145  0.1145  0.2741  0.2572
47795ION     NA56595  11.232   1.271  38.764  0.3008 -0.3395  0.0785
47796ION     NA56596  16.581   1.558  44.852  0.5279 -0.4515 -0.4745
47797ION     NA56597  15.505   0.461  14.244 -0.1215  0.2405 -0.0610
47798ION     NA56598   4.607   5.220   2.258 -0.2673  0.2373 -0.7787
47799ION     NA56599   7.479   3.306  37.927  0.5292  0.0649 -0.3465
47800ION     NA56600   4.301   5.370  24.463  0.0196  0.4419 -0.1628
47801ION     NA56601  20.430   3.710   0.149 -0.3325 -0.1655  0.4056
47802ION     NA56602  15.252   6.245   9.250  0.0464 -0.5168 -0.2371
47803ION     NA56603   6.896   0.473  37.411 -0.1414 -0.1384 -0.2499
47804ION     NA56604  16.621   4.586  36.572 -0.0951  0.1404  0.3808
47805ION     NA56605  18.752   0.258  13.511  0.6300 -0.2374  0.1564
47806ION     NA56606   0.391   3.172  40.642 -0.2139 -0.1626 -0.1653
47807ION     NA56607  11.032   1.061   1.077 -0.0935 -0.1213 -0.0021
47808ION     NA56608   5.202   3.499  28.255 -0.2962 -0.5286 -0.2218
47809ION     NA56609   2.958   3.107  38.381  0.3790 -0.2324 -0.1996
47810ION     NA56610   5.128   3.002   6.633 -0.2401 -0.1781  0.3301
47811ION     NA56611  19.037   0.308   0.329  0.0479 -0.2948  0.1902
47812ION     NA56612  21.076   5.872  43.003 -0.0315  0.0299  0.0573
47813ION     NA56613  17.972   1.504  16.985 -0.0903 -0.1868  0.1824
47814ION     NA56614   1.079   3.470  10.472  0.0222  0.2074 -0.0032
47815ION     NA56615  10.947   1.358  16.579 -0.1800  0.0439  0.2961
47816ION     NA56616   2.439   5.969  31.751 -0.0756 -0.2496 -0.1351
47817ION     NA56617  16.477   0.175  43.428 -0.0645  0.0638  0.4772
47818ION     NA56618  17.382   0.120  40.899  0.1870  0.0917  0.1288
47819ION     NA56619   0.795   5.117   8.450  0.2262  0.2115  0.1845
47820ION     NA56620   7.182   4.083  33.744 -0.1903  0.2579  0.0021
47821ION     NA56621  12.801   2.188  20.598 -0.2020 -0.1817  0.3166
47822ION     NA56622  15.126   2.570  32.675 -0.1784 -0.0308 -0.3082
47823ION     NA56623   6.944   0.822  11.483 -0.2184 -0.1914  0.2274
47824ION     NA56624   0.993   3.347  26.521  0.2337 -0.2352 -0.1995
47825ION     NA56625  12.464   5.736   8.512  0.4346  0.0974 -0.3092
47826ION     NA56626   6.475   2.987  39.498 -0.5111  0.0723 -0.0074
47827ION     NA56627  15.110   3.248  13.283  0.2492  0.3042  0.1314
47828ION     NA56628  18.545   1.987  15.443 -0.0235 -0.0546 -0.2554
47829ION     NA56629  15.841   5.168  31.495  0.3093 -0.0599 -0.4232
47830ION     NA56630   3.442   1.233  32.059 -0.4069 -0.1230 -0.1937
47831ION     NA56631   4.898   5.675   3.877 -0.1245  0.2074 -0.1767
47832ION     NA56632  18.594   2.718  31.142  0.3072  0.0834  0.0468
47833ION     NA56633   5.731   1.640  43.056  0.4141 -0.2458  0.0026
47834ION     NA56634  10.169   5.558  34.438  0.3669 -0.0665  0.1339
47835ION     NA56635  13.410   3.273   2.834 -0.0343  0.6488 -0.1465
47836ION     NA56636   5.709   5.973  37.876  0.3557 -0.0959  0.3487
47837ION     NA56637   7.558   0.397   9.532  0.0312 -0.1731 -0.0493
47838ION     NA56638  20.421   5.780  39.933 -0.3399 -0.0255 -0.3412
47839ION     NA56639  14.391   3.321  11.393 -0.2910 -0.4554 -0.5759
47840ION     NA56640  10.629   5.264  36.161  0.2794  0.4614  0.1413
47841ION     NA56641  20.886   2.167  16.557 -0.1707  0.2102  0.1297
47842ION     NA56642   5.683   2.443   8.312 -0.1885 -0.0940 -0.2887
47843ION     NA56643   8.357   0.391   4.651  0.1212 -0.0762  0.1988
47844ION     NA56644  20.378   5.269   7.512  0.2520 -0.2565 -0.0081
47845ION     NA56645  16.679   2.167  40.050  0.3872  0.0741 -0.4262
47846ION     NA56646  15.343   1.576  43.357 -0.0831 -0.0800 -0.2785
47847ION     NA56647  12.524   4.021  33.760  0.3359 -0.0619 -0.0546
47848ION     CL56648  20.859   1.813  35.577  0.1646 -0.2138  0.5970
47849ION     CL56649  18.196   0.429  16.912  0.3150  0.2842  0.0592
47850ION     CL56650  13.134   4.069  17.383  0.1772 -0.0208 -0.1719
47851ION     CL56651   3.703   1.991  13.802  0.1768 -0.0895  0.0536
47852ION     CL56652  12.599   1.275  21.654  0.0453  0.3317  0.3593
47853ION     CL56653  14.656   6.507  21.844  0.4146 -0.0233 -0.2744
47854ION     CL56654  16.967   4.613  18.109  0.0067 -0.1855 -0.5399
47855ION     CL56655   6.444   3.706  29.576 -0.1233  0.2143 -0.1723
47856ION     CL56656  11.013   0.059  36.310  0.0968  0.0046 -0.0975
47857ION     CL56657  16.132   2.668  12.708 -0.2365  0.1199 -0.2118
47858ION     CL56658  10.805   1.312  19.686 -0.0527 -0.0987 -0.1256
47859ION     CL56659   3.532   0.339   9.816  0.3382  0.5918  0.1948
47860ION     CL56660  14.928   1.863  14.936 -0.1860  0.0869 -0.2606
47861ION     CL56661  14.088   2.699  43.575 -0.2699  0.1229 -0.2199
47862ION     CL56662   5.745   3.500  43.761  0.0726 -0.5141 -0.5357
47863ION     CL56663  17.740   2.773  36.939  0.0907  0.2286 -0.1381
47864ION     CL56664   4.725   5.288  23.517 -0.1493  0.0293 -0.5050
47865ION     CL56665   5.961   4.417  13.929  0.3103 -0.0576  0.1786
47866ION     CL56666  11.838   3.726   0.994  0.1091 -0.2380  0.2180
47867ION     CL56667   3.424   0.867   4.266 -0.0757 -0.2509  0.3433
47868ION     CL56668   7.521   6.447  43.231 -0.1196 -0.2170 -0.0331
47869ION     CL56669  15.220   1.603  42.977  0.1638  0.2516 -0.5295
47870ION     CL56670  10.739   1.991  15.601 -0.1321  0.4591  0.1004
47871ION     CL56671  12.264   0.749  41.308 -0.4355  0.0738 -0.1310
47872ION     CL56672  13.276   5.038  11.051 -0.2052 -0.1494 -0.1561
47873ION     CL56673  15.306   3.577  42.884 -0.1724  0.0055  0.2837
47874ION     CL56674  14.892   4.809  21.192  0.3246  0.1764 -0.3015
47875ION     CL56675  12.769   2.366   2.074  0.4647  0.2120  0.1664
47876ION     CL56676   5.829   1.493  44.594  0.1350 -0.1761 -0.0382
47877ION     CL56677   5.408   0.637  23.566 -0.2113 -0.0499  0.0553
47878ION     CL56678  10.688   4.890  18.043 -0.2774  0.0818  0.1414
47879ION     CL56679   8.889   3.415  16.087  0.1399 -0.1488  0.1455
47880ION     CL56680  16.891   5.312  31.963  0.1112 -0.2387  0.0056
47881ION     CL56681  20.078   5.645  42.481  0.3105  0.0207 -0.1440
47882ION     CL56682   1.674   3.165  43.204  0.1718 -0.0435 -0.0198
47883ION     CL56683   3.710   1.789  36.959  0.0381 -0.0760 -0.2724
47884ION     CL56684  10.432   6.550  37.326  0.1050 -0.1210  0.2002
47885ION     CL56685  20.640   2.926  34.012  0.1511  0.4420  0.3588
47886ION     CL56686  20.004   4.831  14.526  0.1980  0.4534  0.2753
47887ION     CL56687   2.352   2.910   7.849  0.2166  0.1468  0.1396
47888ION     CL56688  19.796   2.566  45.021  0.1364 -0.0350  0.6467
47889ION     CL56689  12.175   5.371  32.389 -0.2685  0.0180 -0.3921
47890ION     CL56690   2.352   5.149   1.751  0.1787  0.0123 -0.8378
47891ION     CL56691  10.842   4.075  12.622 -0.4125  0.3032  0.0202
47892ION     CL56692   9.271   5.367  28.654 -0.0078  0.1816  0.0793
47893ION     CL56693  10.278   0.834  19.235  0.3602  0.2014 -0.0813
47894ION     CL56694   6.261   1.048  24.407 -0.4746  0.6223 -0.3381
47895ION     CL56695  16.817   3.134   5.978  0.4203  0.5865 -0.0090
47896ION     CL56696   3.226   4.054   3.781 -0.6392 -0.2562 -0.6291
47897ION     CL56697  20.098   4.194  42.719  0.2800  0.0925  0.2949
47898ION     CL56698  10.444   1.134   1.227  0.1581  0.3260 -0.1722
47899ION     CL56699   7.565   1.265   2.019  0.0620  0.0748  0.1573
47900ION     CL56700   9.341   0.387   6.807  0.0611 -0.0426  0.5135
47901ION     CL56701  12.931   0.052  16.285  0.5757 -0.2910  0.2229
47902ION     CL56702   3.951   2.690  20.812  0.3840 -0.1997 -0.2114
47903ION     CL56703  13.834   1.019  43.463 -0.1068  0.3291 -0.1826
47904ION     CL56704   4.161   6.198  28.224  0.3634 -0.0201  0.4840
47905ION     CL56705  14.037   2.530  15.265 -0.0807 -0.0979 -0.1045
47906ION     CL56706   7.767   0.620  31.323  0.3200  0.1922 -0.0104
47907ION     CL56707   0.654   4.942   0.291 -0.4224 -0.0776  0.0019
47908ION     CL56708  16.105   0.276  37.329 -0.1596  0.1486 -0.1610
47909ION     CL56709  15.242   6.492  10.001 -0.1304  0.2196 -0.1985
47910ION     CL56710  16.348   0.999   8.142 -0.0910 -0.3408 -0.0532
47911ION     CL56711  11.508   4.903  18.592  0.2870 -0.0230 -0.0000
47912ION     CL56712  17.987   0.090  41.545  0.5767  0.1857 -0.0855
47913ION     CL56713   7.730   6.326   1.925 -0.5226  0.0811 -0.2568
47914ION     CL56714  15.298   1.885   8.384 -0.0883 -0.0048 -0.1724
47915ION     CL56715  12.188   2.247   4.575  0.2333 -0.0339  0.4642
47916ION     CL56716  12.139   3.642  34.893  0.0530  0.1019 -0.0558
47917ION     CL56717  15.957   3.133  21.649  0.0249  0.0114 -0.1963
47918ION     CL56718   8.273   0.102   3.748  0.2563  0.0505 -0.1877
47919ION     CL56719   4.941   1.062  28.252  0.0811 -0.4064  0.4639
47920ION     CL56720   6.597   4.169  38.851 -0.4717 -0.2688  0.3115
47921ION     CL56721   5.110   1.017  36.468 -0.0075  0.0080 -0.3067
47922ION     CL56722   8.434   3.115   4.501  0.3215 -0.2029  0.4815
47923ION     CL56723   4.724   4.782  45.091 -0.2283 -0.0201  0.2164
47924ION     CL56724  11.678   6.334  17.370  0.2950 -0.2067 -0.2922
47925ION     CL56725   6.044   2.699  34.955  0.2809 -0.1137 -0.1995
47926ION     CL56726  11.602   2.314  32.417 -0.0141 -0.1412  0.3492
47927ION     CL56727  13.184   6.531  18.899 -0.3538  0.0074 -0.0722
47928ION     CL56728   0.332   2.176  25.083  0.0317  0.1979 -0.1259
47929ION     CL56729   1.750   3.770  23.126 -0.5245 -0.1248  0.0247
47930ION     CL56730  11.862   3.963  44.053 -0.0082 -0.1431  0.1800
47931ION     CL56731   9.043   0.783  27.850  0.0993  0.0777 -0.1109
47932ION     CL56732  12.470   2.601  22.051 -0.0836  0.2582  0.0209
47933ION     CL56733   0.315   4.154  33.125  0.5753 -0.0549 -0.0938
47934ION     CL56734  16.957   6.221  36.774  0.0548 -0.0703  0.0050
47935ION     CL56735  20.627   0.477   5.363  0.2137 -0.4763 -0.2869
47936ION     CL56736   9.607   3.667  40.104  0.0607 -0.3486  0.1317
47937ION     CL56737  19.573   2.518   7.265 -0.3222 -0.3214  0.2437
47938ION     CL56738   5.870   3.669  24.146 -0.1576  0.0068 -0.5325
47939ION     CL56739   5.485   6.376   9.971 -0.1066 -0.2909 -0.0777
47940ION     CL56740   1.839   4.906  41.023  0.5422 -0.3218  0.1215
47941ION     CL56741   4.231   5.998  23.484  0.0770  0.4930 -0.2179
47942ION     CL56742  17.065   0.350  39.403  0.3430  0.0626 -0.3614
47943ION     CL56743   6.411   2.181  15.153 -0.3636  0.0061  0.2472
47944ION     CL56744  15.453   6.275   3.566  0.1324  0.3540 -0.1290
47945ION     CL56745  15.220   2.809  43.317 -0.0154  0.0838 -0.1761
47946ION     CL56746  16.382   0.270  41.565 -0.4395 -0.1250  0.3624
47947ION     CL56747  16.418   5.952  38.233  0.0500 -0.0994 -0.3627
47948ION     CL56748  11.283   5.955  19.314 -0.3640  0.0556  0.2095
47949ION     CL56749  20.547   0.790  16.842 -0.0843  0.0182  0.0952
47950ION     CL56750   8.219   5.552  37.277 -0.5066  0.3781 -0.1098
47951ION     CL56751   4.469   4.493  34.194  0.0870 -0.2007 -0.1781
47952ION     CL56752  10.542   6.571  13.394 -0.2938  0.4898 -0.0972
47953ION     CL56753  13.833   4.257  44.222 -0.1298 -0.6591  0.4698
47954ION     CL56754   4.668   1.863  42.273 -0.4763  0.0906 -0.2754
47955ION     CL56755   5.956   1.207  12.537 -0.0266  0.1074 -0.4488
47956ION     CL56756   7.022   4.404  28.221  0.0739  0.1467  0.4424
47957ION     CL56757  19.819   0.001   1.163  0.0371 -0.3164 -0.0494
47958ION     CL56758   4.632   0.647  39.167 -0.3222  0.2472 -0.0840
47959ION     CL56759  15.490   3.898  40.017  0.0019  0.0403  0.3275
47960ION     CL56760   2.805   4.739  34.104  0.3598  0.1724  0.4214
47961ION     CL56761  10.698   6.141  13.903 -0.1767  0.2921 -0.0977
47962ION     CL56762   6.587   2.718   6.154  0.0672  0.1875  0.0373
47963ION     CL56763  15.028   3.722  37.301  0.0823  0.1272 -0.0908
47964ION     CL56764   1.433   2.227  37.719  0.1717  0.0343  0.2763
47965ION     CL56765  19.763   3.802  34.620  0.0820  0.1250  0.2634
47966ION     CL56766  14.338   0.268  18.795  0.6048 -0.1056 -0.0598
47967ION     CL56767  14.095   0.534  12.246 -0.1875 -0.1209 -0.0164
47968ION     CL56768   4.549   1.508  37.135 -0.0073  0.1368 -0.1277
47969ION     CL56769  12.800   3.600   2.065 -0.2109 -0.4589  0.0342
47970ION     CL56770   9.842   5.937  31.781  0.5853  0.4194 -0.2955
47971ION     CL56771   9.732   0.598  36.826 -0.1636  0.0072  0.0449
47972ION     CL56772   8.784   4.236   6.785  0.3795  0.2768 -0.0061
47973ION     CL56773   6.602   4.667   2.657  0.2151  0.6556 -0.0124
47974ION     CL56774  15.112   6.008   2.219  0.2952 -0.8709  0.0205
47975ION     CL56775  16.767   5.055  29.740 -0.1317 -0.3786 -0.7846
47976ION     CL56776   7.837   4.565  29.373 -0.1371 -0.0704  0.3767
47977ION     CL56777  10.648   4.264   6.730  0.0701  0.3026  0.1233
47978ION     CL56778   5.842   5.971  24.621  0.0268  0.2061 -0.1708
47979ION     CL56779   3.815   0.875  13.116  0.2444 -0.2568  0.2895
47980ION     CL56780  15.970   3.666  14.452  0.0227  0.1273 -0.1096
47981ION     CL56781  13.035   4.374   5.093 -0.0879  0.2221 -0.1566
47982ION     CL56782  20.445   3.083  13.263  0.1516 -0.2409  0.3119
47983ION     CL56783   0.715   1.755  10.771 -0.3109  0.1179  0.3333
47984ION     CL56784   6.998   0.743   7.595 -0.1701 -0.1183  0.0203
47985ION     CL56785  17.110   1.302   5.540 -0.4309 -0.1843  0.1728
47986ION     CL56786   0.588   3.952   5.382 -0.0756 -0.4568  0.2973
47987ION     CL56787  13.364   3.240   4.927  0.0094  0.0175  0.1919
47988ION     CL56788  18.534   1.046   3.891 -0.1528 -0.0732  0.0587
47989ION     CL56789  17.697   2.880  15.932 -0.0356 -0.3206 -0.0641
47990ION     CL56790  13.152   3.025  34.152  0.5333 -0.1627 -0.3690
47991ION     CL56791   0.550   1.848  26.603  0.1292  0.1817  0.2395
47992ION     CL56792   9.929   0.111  31.541  0.3615 -0.1514  0.0480
  21.17083   6.60835  45.15858
